<event>
 8    1  0.2490104E-006  0.9118800E+02  0.7816164E-02  0.1184000E+00
        -11   -1    0    0    0    0  0.00000000000E+00  0.00000000000E+00  0.45593999997E+02  0.45594000000E+02  0.51100000000E-03 0.  1.
         11   -1    0    0    0    0 -0.00000000000E+00 -0.00000000000E+00 -0.45593999997E+02  0.45594000000E+02  0.51100000000E-03 0. -1.
         23    2    1    2    0    0  0.35527136788E-14  0.00000000000E+00 -0.88817841970E-15  0.91188000000E+02  0.91188000000E+02 0.  0.
    9900012    2    3    3    0    0  0.31672200104E+02  0.18278676215E+02 -0.43059075198E+01  0.54367094210E+02  0.40000022871E+02 0.  0.
         12    1    3    3    0    0 -0.31672200104E+02 -0.18278676215E+02  0.43059075198E+01  0.36820905790E+02  0.00000000000E+00 0. -1.
         11    1    4    4    0    0  0.64518037171E+01 -0.90765877549E+01 -0.93258011847E+01  0.14525177606E+02  0.51100000000E-03 0. -1.
        -11    1    4    4    0    0  0.83245556505E+01  0.16487419983E+02  0.67817886962E+01  0.19675515309E+02  0.51100000000E-03 0.  1.
         12    1    4    4    0    0  0.16895840736E+02  0.10867843987E+02 -0.17618950314E+01  0.20166401296E+02  0.00000000000E+00 0. -1.
</event>
<event>
 8    1  0.2490104E-006  0.9118800E+02  0.7816164E-02  0.1184000E+00
        -11   -1    0    0    0    0  0.00000000000E+00  0.00000000000E+00  0.45593999997E+02  0.45594000000E+02  0.51100000000E-03 0.  1.
         11   -1    0    0    0    0 -0.00000000000E+00 -0.00000000000E+00 -0.45593999997E+02  0.45594000000E+02  0.51100000000E-03 0. -1.
         23    2    1    2    0    0  0.35527136788E-14  0.00000000000E+00 -0.35527136788E-14  0.91188000000E+02  0.91188000000E+02 0.  0.
    9900012    2    3    3    0    0  0.24926315996E+02  0.10191304465E+01 -0.27081731293E+02  0.54367081682E+02  0.39999994310E+02 0.  0.
        -12    1    3    3    0    0 -0.24926315996E+02 -0.10191304465E+01  0.27081731293E+02  0.36820918318E+02  0.00000000000E+00 0.  1.
         11    1    4    4    0    0  0.98886957199E+01 -0.29033203903E+01 -0.23496532355E+02  0.25657408390E+02  0.51100000000E-03 0. -1.
        -11    1    4    4    0    0  0.19326189933E+02  0.13368918611E+01 -0.89768871522E+01  0.21351192013E+02  0.51100000000E-03 0.  1.
        -12    1    4    4    0    0 -0.42885696572E+01  0.25855589757E+01  0.53916882145E+01  0.73584812783E+01  0.00000000000E+00 0.  1.
</event>
<event>
 8    1  0.2490104E-006  0.9118800E+02  0.7816164E-02  0.1184000E+00
        -11   -1    0    0    0    0  0.00000000000E+00  0.00000000000E+00  0.45593999997E+02  0.45594000000E+02  0.51100000000E-03 0. -1.
         11   -1    0    0    0    0 -0.00000000000E+00 -0.00000000000E+00 -0.45593999997E+02  0.45594000000E+02  0.51100000000E-03 0.  1.
         23    2    1    2    0    0  0.00000000000E+00  0.00000000000E+00  0.17763568394E-14  0.91188000000E+02  0.91188000000E+02 0.  0.
    9900012    2    3    3    0    0  0.80502029960E+00  0.35852144525E+02  0.83522034951E+01  0.54367032767E+02  0.39999882799E+02 0.  0.
        -12    1    3    3    0    0 -0.80502029960E+00 -0.35852144525E+02 -0.83522034951E+01  0.36820967233E+02  0.00000000000E+00 0.  1.
         11    1    4    4    0    0  0.31707344400E+01  0.38161177813E+02  0.11677125580E+02  0.40033539827E+02  0.51100000000E-03 0. -1.
        -11    1    4    4    0    0  0.49462063840E+01 -0.30565860140E+01  0.85667430426E+00  0.58772073963E+01  0.51100000000E-03 0.  1.
         12    1    4    4    0    0 -0.73119205245E+01  0.74755272589E+00 -0.41815963893E+01  0.84562855437E+01  0.00000000000E+00 0. -1.
</event>
<event>
 8    1  0.2490104E-006  0.9118800E+02  0.7816164E-02  0.1184000E+00
        -11   -1    0    0    0    0  0.00000000000E+00  0.00000000000E+00  0.45593999997E+02  0.45594000000E+02  0.51100000000E-03 0.  1.
         11   -1    0    0    0    0 -0.00000000000E+00 -0.00000000000E+00 -0.45593999997E+02  0.45594000000E+02  0.51100000000E-03 0. -1.
         23    2    1    2    0    0 -0.88817841970E-15  0.00000000000E+00  0.00000000000E+00  0.91188000000E+02  0.91188000000E+02 0.  0.
    9900012    2    3    3    0    0  0.41680571863E+01 -0.35650396723E+02 -0.82131428933E+01  0.54367092849E+02  0.40000019769E+02 0.  0.
        -12    1    3    3    0    0 -0.41680571863E+01  0.35650396723E+02  0.82131428933E+01  0.36820907151E+02  0.00000000000E+00 0.  1.
         11    1    4    4    0    0  0.19618532654E+01 -0.42904146048E+01 -0.48567564329E+01  0.67708647177E+01  0.51100000000E-03 0. -1.
        -11    1    4    4    0    0  0.79651794668E+01  0.57916220244E+01 -0.14312802959E+01  0.99516598192E+01  0.51100000000E-03 0.  1.
         12    1    4    4    0    0 -0.57589755458E+01 -0.37151604142E+02 -0.19251061645E+01  0.37644568312E+02  0.00000000000E+00 0. -1.
</event>
<event>
 8    1  0.2490104E-006  0.9118800E+02  0.7816164E-02  0.1184000E+00
        -11   -1    0    0    0    0  0.00000000000E+00  0.00000000000E+00  0.45593999997E+02  0.45594000000E+02  0.51100000000E-03 0.  1.
         11   -1    0    0    0    0 -0.00000000000E+00 -0.00000000000E+00 -0.45593999997E+02  0.45594000000E+02  0.51100000000E-03 0. -1.
         23    2    1    2    0    0 -0.17763568394E-14  0.00000000000E+00  0.22204460493E-15  0.91188000000E+02  0.91188000000E+02 0.  0.
    9900012    2    3    3    0    0 -0.12447155712E+02 -0.34631087229E+02  0.12391979788E+01  0.54367088827E+02  0.40000010598E+02 0.  0.
         12    1    3    3    0    0  0.12447155712E+02  0.34631087229E+02 -0.12391979788E+01  0.36820911173E+02  0.00000000000E+00 0. -1.
         11    1    4    4    0    0 -0.19333503061E+02 -0.14765599596E+01  0.46835014017E+01  0.19947424785E+02  0.51100000000E-03 0. -1.
        -11    1    4    4    0    0  0.43908860779E+00 -0.14517047152E+02 -0.16485667166E+01  0.14616950069E+02  0.51100000000E-03 0.  1.
        -12    1    4    4    0    0  0.64472587406E+01 -0.18637480117E+02 -0.17957367063E+01  0.19802713973E+02  0.00000000000E+00 0.  1.
</event>
<event>
 8    1  0.2490104E-006  0.9118800E+02  0.7816164E-02  0.1184000E+00
        -11   -1    0    0    0    0  0.00000000000E+00  0.00000000000E+00  0.45593999997E+02  0.45594000000E+02  0.51100000000E-03 0.  1.
         11   -1    0    0    0    0 -0.00000000000E+00 -0.00000000000E+00 -0.45593999997E+02  0.45594000000E+02  0.51100000000E-03 0. -1.
         23    2    1    2    0    0  0.00000000000E+00 -0.88817841970E-15  0.00000000000E+00  0.91188000000E+02  0.91188000000E+02 0.  0.
    9900012    2    3    3    0    0  0.24584464418E+02 -0.40632243172E+01 -0.27108553784E+02  0.54367090575E+02  0.40000014584E+02 0.  0.
        -12    1    3    3    0    0 -0.24584464418E+02  0.40632243172E+01  0.27108553784E+02  0.36820909425E+02  0.00000000000E+00 0.  1.
         11    1    4    4    0    0  0.12122608311E+02 -0.10999850816E+02  0.38031825617E+00  0.16373728729E+02  0.51100000000E-03 0. -1.
        -11    1    4    4    0    0  0.16499271660E+02  0.44708673654E+01 -0.98457171544E+01  0.19726955337E+02  0.51100000000E-03 0.  1.
         12    1    4    4    0    0 -0.40374155529E+01  0.24657591334E+01 -0.17643154886E+02  0.18266406510E+02  0.00000000000E+00 0. -1.
</event>
<event>
 8    1  0.2490104E-006  0.9118800E+02  0.7816164E-02  0.1184000E+00
        -11   -1    0    0    0    0  0.00000000000E+00  0.00000000000E+00  0.45593999997E+02  0.45594000000E+02  0.51100000000E-03 0.  1.
         11   -1    0    0    0    0 -0.00000000000E+00 -0.00000000000E+00 -0.45593999997E+02  0.45594000000E+02  0.51100000000E-03 0. -1.
         23    2    1    2    0    0  0.00000000000E+00  0.13322676296E-14  0.00000000000E+00  0.91188000000E+02  0.91188000000E+02 0.  0.
    9900012    2    3    3    0    0 -0.32884118172E+02  0.19380344034E+01  0.16451677229E+02  0.54367097119E+02  0.40000029502E+02 0.  0.
        -12    1    3    3    0    0  0.32884118172E+02 -0.19380344034E+01 -0.16451677229E+02  0.36820902881E+02  0.00000000000E+00 0.  1.
         11    1    4    4    0    0 -0.23213347251E+02 -0.84098689909E+01  0.62380229800E+01  0.25465630132E+02  0.51100000000E-03 0. -1.
        -11    1    4    4    0    0  0.23911756485E+01  0.31046103618E+01 -0.61677403277E+01  0.73073488689E+01  0.51100000000E-03 0.  1.
         12    1    4    4    0    0 -0.12061946570E+02  0.72432930325E+01  0.16381394577E+02  0.21594118118E+02  0.00000000000E+00 0. -1.
</event>
<event>
 8    1  0.2490104E-006  0.9118800E+02  0.7816164E-02  0.1184000E+00
        -11   -1    0    0    0    0  0.00000000000E+00  0.00000000000E+00  0.45593999997E+02  0.45594000000E+02  0.51100000000E-03 0.  1.
         11   -1    0    0    0    0 -0.00000000000E+00 -0.00000000000E+00 -0.45593999997E+02  0.45594000000E+02  0.51100000000E-03 0. -1.
         23    2    1    2    0    0 -0.77715611724E-15  0.15543122345E-14  0.00000000000E+00  0.91188000000E+02  0.91188000000E+02 0.  0.
    9900012    2    3    3    0    0  0.83436348246E+00  0.78783252473E+00  0.36802988667E+02  0.54367125250E+02  0.40000093633E+02 0.  0.
         12    1    3    3    0    0 -0.83436348246E+00 -0.78783252473E+00 -0.36802988667E+02  0.36820874750E+02  0.00000000000E+00 0. -1.
         11    1    4    4    0    0 -0.23806270732E+01  0.63053774930E+01 -0.86738993198E+00  0.67954055174E+01  0.51100000000E-03 0. -1.
        -11    1    4    4    0    0  0.80285615722E+01 -0.14985342138E+02  0.15576437543E+02  0.23057399825E+02  0.51100000000E-03 0.  1.
        -12    1    4    4    0    0 -0.48135710165E+01  0.94677971692E+01  0.22093941056E+02  0.24514319908E+02  0.00000000000E+00 0.  1.
</event>
<event>
 8    1  0.2490104E-006  0.9118800E+02  0.7816164E-02  0.1184000E+00
        -11   -1    0    0    0    0  0.00000000000E+00  0.00000000000E+00  0.45593999997E+02  0.45594000000E+02  0.51100000000E-03 0.  1.
         11   -1    0    0    0    0 -0.00000000000E+00 -0.00000000000E+00 -0.45593999997E+02  0.45594000000E+02  0.51100000000E-03 0. -1.
         23    2    1    2    0    0  0.00000000000E+00 -0.35527136788E-14  0.00000000000E+00  0.91188000000E+02  0.91188000000E+02 0.  0.
    9900012    2    3    3    0    0  0.78088723972E+01  0.14113547990E+02  0.33099969075E+02  0.54367099987E+02  0.40000036041E+02 0.  0.
         12    1    3    3    0    0 -0.78088723972E+01 -0.14113547990E+02 -0.33099969075E+02  0.36820900013E+02  0.00000000000E+00 0. -1.
         11    1    4    4    0    0  0.56728845169E+01 -0.11459319228E+01  0.13883284538E+02  0.15041288792E+02  0.51100000000E-03 0. -1.
        -11    1    4    4    0    0  0.70247235430E+01 -0.24158286654E+01  0.19623380659E+02  0.20982374454E+02  0.51100000000E-03 0.  1.
        -12    1    4    4    0    0 -0.48887356627E+01  0.17675308578E+02 -0.40669612158E+00  0.18343436740E+02  0.00000000000E+00 0.  1.
</event>
<event>
 8    1  0.2490104E-006  0.9118800E+02  0.7816164E-02  0.1184000E+00
        -11   -1    0    0    0    0  0.00000000000E+00  0.00000000000E+00  0.45593999997E+02  0.45594000000E+02  0.51100000000E-03 0.  1.
         11   -1    0    0    0    0 -0.00000000000E+00 -0.00000000000E+00 -0.45593999997E+02  0.45594000000E+02  0.51100000000E-03 0. -1.
         23    2    1    2    0    0 -0.17763568394E-14  0.00000000000E+00  0.00000000000E+00  0.91188000000E+02  0.91188000000E+02 0.  0.
    9900012    2    3    3    0    0  0.50586882338E+01 -0.23603258288E+02 -0.27804234316E+02  0.54367087812E+02  0.40000008284E+02 0.  0.
        -12    1    3    3    0    0 -0.50586882338E+01  0.23603258288E+02  0.27804234316E+02  0.36820912188E+02  0.00000000000E+00 0.  1.
         11    1    4    4    0    0  0.17192205986E+02 -0.14313813348E+02 -0.22532719273E+01  0.22484092908E+02  0.51100000000E-03 0. -1.
        -11    1    4    4    0    0 -0.30766161607E+01 -0.95195086309E+01 -0.13006080872E+02  0.16408679151E+02  0.51100000000E-03 0.  1.
        -12    1    4    4    0    0 -0.90569015920E+01  0.23006369057E+00 -0.12544881517E+02  0.15474315753E+02  0.00000000000E+00 0.  1.
</event>
<event>
 8    1  0.2490104E-006  0.9118800E+02  0.7816164E-02  0.1184000E+00
        -11   -1    0    0    0    0  0.00000000000E+00  0.00000000000E+00  0.45593999997E+02  0.45594000000E+02  0.51100000000E-03 0.  1.
         11   -1    0    0    0    0 -0.00000000000E+00 -0.00000000000E+00 -0.45593999997E+02  0.45594000000E+02  0.51100000000E-03 0. -1.
         23    2    1    2    0    0  0.00000000000E+00 -0.17763568394E-14 -0.71054273576E-14  0.91188000000E+02  0.91188000000E+02 0.  0.
    9900012    2    3    3    0    0  0.60671539816E+01 -0.12783573122E+02 -0.33993342863E+02  0.54367116548E+02  0.40000073795E+02 0.  0.
        -12    1    3    3    0    0 -0.60671539816E+01  0.12783573122E+02  0.33993342863E+02  0.36820883452E+02  0.00000000000E+00 0.  1.
         11    1    4    4    0    0  0.12342669986E+02  0.66251647457E+01 -0.15944481064E+02  0.21224061509E+02  0.51100000000E-03 0. -1.
        -11    1    4    4    0    0 -0.37051978006E+01 -0.17612217172E+02 -0.35954566621E+01  0.18353364632E+02  0.51100000000E-03 0.  1.
        -12    1    4    4    0    0 -0.25703182041E+01 -0.17965206963E+01 -0.14453405137E+02  0.14789690407E+02  0.00000000000E+00 0.  1.
</event>
<event>
 8    1  0.2490104E-006  0.9118800E+02  0.7816164E-02  0.1184000E+00
        -11   -1    0    0    0    0  0.00000000000E+00  0.00000000000E+00  0.45593999997E+02  0.45594000000E+02  0.51100000000E-03 0.  1.
         11   -1    0    0    0    0 -0.00000000000E+00 -0.00000000000E+00 -0.45593999997E+02  0.45594000000E+02  0.51100000000E-03 0. -1.
         23    2    1    2    0    0  0.35527136788E-14 -0.17763568394E-14  0.00000000000E+00  0.91188000000E+02  0.91188000000E+02 0.  0.
    9900012    2    3    3    0    0 -0.27802466056E+02  0.15503199074E+02 -0.18505498708E+02  0.54367084983E+02  0.40000001835E+02 0.  0.
        -12    1    3    3    0    0  0.27802466056E+02 -0.15503199074E+02  0.18505498708E+02  0.36820915017E+02  0.00000000000E+00 0.  1.
         11    1    4    4    0    0 -0.29725755650E+01 -0.53237250152E+01 -0.42518498150E+01  0.74334702957E+01  0.51100000000E-03 0. -1.
        -11    1    4    4    0    0 -0.21769315795E+02  0.27982338769E+02 -0.66851436289E+01  0.36077770701E+02  0.51100000000E-03 0.  1.
        -12    1    4    4    0    0 -0.30605746952E+01 -0.71554146802E+01 -0.75685052638E+01  0.10855843986E+02  0.00000000000E+00 0.  1.
</event>
<event>
 8    1  0.2490104E-006  0.9118800E+02  0.7816164E-02  0.1184000E+00
        -11   -1    0    0    0    0  0.00000000000E+00  0.00000000000E+00  0.45593999997E+02  0.45594000000E+02  0.51100000000E-03 0. -1.
         11   -1    0    0    0    0 -0.00000000000E+00 -0.00000000000E+00 -0.45593999997E+02  0.45594000000E+02  0.51100000000E-03 0.  1.
         23    2    1    2    0    0  0.00000000000E+00  0.17763568394E-14 -0.35527136788E-14  0.91188000000E+02  0.91188000000E+02 0.  0.
    9900012    2    3    3    0    0  0.25950290022E+02  0.14837405341E+02 -0.21498801176E+02  0.54367291133E+02  0.40000471793E+02 0.  0.
         12    1    3    3    0    0 -0.25950290022E+02 -0.14837405341E+02  0.21498801176E+02  0.36820708867E+02  0.00000000000E+00 0. -1.
         11    1    4    4    0    0  0.18219994505E+02  0.72262269879E+01  0.46290611082E+01  0.20139879921E+02  0.51100000000E-03 0. -1.
        -11    1    4    4    0    0  0.40193019485E+01 -0.13974496348E+00 -0.25273564899E+02  0.25591549382E+02  0.51100000000E-03 0.  1.
        -12    1    4    4    0    0  0.37109935683E+01  0.77509233166E+01 -0.85429738577E+00  0.86358618300E+01  0.00000000000E+00 0.  1.
</event>
<event>
 8    1  0.2490104E-006  0.9118800E+02  0.7816164E-02  0.1184000E+00
        -11   -1    0    0    0    0  0.00000000000E+00  0.00000000000E+00  0.45593999997E+02  0.45594000000E+02  0.51100000000E-03 0.  1.
         11   -1    0    0    0    0 -0.00000000000E+00 -0.00000000000E+00 -0.45593999997E+02  0.45594000000E+02  0.51100000000E-03 0. -1.
         23    2    1    2    0    0  0.00000000000E+00  0.00000000000E+00  0.00000000000E+00  0.91188000000E+02  0.91188000000E+02 0.  0.
    9900012    2    3    3    0    0  0.10491511485E+02  0.21367050713E+02 -0.28091936971E+02  0.54367087570E+02  0.40000007733E+02 0.  0.
        -12    1    3    3    0    0 -0.10491511485E+02 -0.21367050713E+02  0.28091936971E+02  0.36820912430E+02  0.00000000000E+00 0.  1.
         11    1    4    4    0    0  0.21005458744E+01  0.38760842705E+01 -0.30647409612E+01  0.53692606253E+01  0.51100000000E-03 0. -1.
        -11    1    4    4    0    0  0.63981302594E+01  0.29305944329E+02 -0.16005355660E+02  0.33999203725E+02  0.51100000000E-03 0.  1.
        -12    1    4    4    0    0  0.19928353509E+01 -0.11814977887E+02 -0.90218403498E+01  0.14998623220E+02  0.00000000000E+00 0.  1.
</event>
<event>
 8    1  0.2490104E-006  0.9118800E+02  0.7816164E-02  0.1184000E+00
        -11   -1    0    0    0    0  0.00000000000E+00  0.00000000000E+00  0.45593999997E+02  0.45594000000E+02  0.51100000000E-03 0.  1.
         11   -1    0    0    0    0 -0.00000000000E+00 -0.00000000000E+00 -0.45593999997E+02  0.45594000000E+02  0.51100000000E-03 0. -1.
         23    2    1    2    0    0  0.35527136788E-14  0.00000000000E+00  0.00000000000E+00  0.91188000000E+02  0.91188000000E+02 0.  0.
    9900012    2    3    3    0    0  0.83542089233E+01  0.34288894157E+02  0.10500452498E+02  0.54367074266E+02  0.39999977405E+02 0.  0.
         12    1    3    3    0    0 -0.83542089233E+01 -0.34288894157E+02 -0.10500452498E+02  0.36820925734E+02  0.00000000000E+00 0. -1.
         11    1    4    4    0    0 -0.20667018612E-01 -0.25856331847E+00 -0.20119743979E+00  0.32827242683E+00  0.51100000000E-03 0. -1.
        -11    1    4    4    0    0  0.17996757774E+02  0.36022699417E+02  0.15547150885E+02  0.43165171893E+02  0.51100000000E-03 0.  1.
        -12    1    4    4    0    0 -0.96218818320E+01 -0.14752419422E+01 -0.48455009472E+01  0.10873629946E+02  0.00000000000E+00 0.  1.
</event>
<event>
 8    1  0.2490104E-006  0.9118800E+02  0.7816164E-02  0.1184000E+00
        -11   -1    0    0    0    0  0.00000000000E+00  0.00000000000E+00  0.45593999997E+02  0.45594000000E+02  0.51100000000E-03 0.  1.
         11   -1    0    0    0    0 -0.00000000000E+00 -0.00000000000E+00 -0.45593999997E+02  0.45594000000E+02  0.51100000000E-03 0. -1.
         23    2    1    2    0    0  0.00000000000E+00  0.00000000000E+00  0.44408920985E-15  0.91188000000E+02  0.91188000000E+02 0.  0.
    9900012    2    3    3    0    0  0.36415663354E+02 -0.53705074999E+01  0.91315588239E+00  0.54367126273E+02  0.40000095965E+02 0.  0.
        -12    1    3    3    0    0 -0.36415663354E+02  0.53705074999E+01 -0.91315588239E+00  0.36820873727E+02  0.00000000000E+00 0.  1.
         11    1    4    4    0    0  0.56358909372E+01 -0.82620955650E+01  0.14837533091E+02  0.17893514978E+02  0.51100000000E-03 0. -1.
        -11    1    4    4    0    0 -0.70648600006E+00 -0.16019189036E+01  0.74964931861E-02  0.17508064144E+01  0.51100000000E-03 0.  1.
         12    1    4    4    0    0  0.31486258417E+02  0.44935069688E+01 -0.13931873701E+02  0.34722804881E+02  0.00000000000E+00 0. -1.
</event>
<event>
 8    1  0.2490104E-006  0.9118800E+02  0.7816164E-02  0.1184000E+00
        -11   -1    0    0    0    0  0.00000000000E+00  0.00000000000E+00  0.45593999997E+02  0.45594000000E+02  0.51100000000E-03 0. -1.
         11   -1    0    0    0    0 -0.00000000000E+00 -0.00000000000E+00 -0.45593999997E+02  0.45594000000E+02  0.51100000000E-03 0.  1.
         23    2    1    2    0    0  0.00000000000E+00  0.22204460493E-15  0.53290705182E-14  0.91188000000E+02  0.91188000000E+02 0.  0.
    9900012    2    3    3    0    0  0.36353920431E+02 -0.99157210183E+00  0.57609952253E+01  0.54367084586E+02  0.40000000931E+02 0.  0.
         12    1    3    3    0    0 -0.36353920431E+02  0.99157210183E+00 -0.57609952253E+01  0.36820915414E+02  0.00000000000E+00 0. -1.
         11    1    4    4    0    0  0.24881745453E+01  0.13366435093E+01 -0.86517935697E+01  0.91011626001E+01  0.51100000000E-03 0. -1.
        -11    1    4    4    0    0  0.17802182268E+02  0.77620977234E+01  0.17384137005E+02  0.26064843645E+02  0.51100000000E-03 0.  1.
        -12    1    4    4    0    0  0.16063563618E+02 -0.10090313335E+02 -0.29713482099E+01  0.19201078341E+02  0.00000000000E+00 0.  1.
</event>
<event>
 8    1  0.2490104E-006  0.9118800E+02  0.7816164E-02  0.1184000E+00
        -11   -1    0    0    0    0  0.00000000000E+00  0.00000000000E+00  0.45593999997E+02  0.45594000000E+02  0.51100000000E-03 0. -1.
         11   -1    0    0    0    0 -0.00000000000E+00 -0.00000000000E+00 -0.45593999997E+02  0.45594000000E+02  0.51100000000E-03 0.  1.
         23    2    1    2    0    0 -0.88817841970E-15  0.00000000000E+00  0.00000000000E+00  0.91188000000E+02  0.91188000000E+02 0.  0.
    9900012    2    3    3    0    0 -0.71453261934E+01 -0.19189048440E+02 -0.30602351704E+02  0.54367092946E+02  0.40000019990E+02 0.  0.
         12    1    3    3    0    0  0.71453261934E+01  0.19189048440E+02  0.30602351704E+02  0.36820907054E+02  0.00000000000E+00 0. -1.
         11    1    4    4    0    0  0.51765166005E-01 -0.16595075438E+02 -0.20265559813E+02  0.26193360289E+02  0.51100000000E-03 0. -1.
        -11    1    4    4    0    0  0.31567677047E+01 -0.59397508345E+01 -0.14920508422E+02  0.16366654947E+02  0.51100000000E-03 0.  1.
         12    1    4    4    0    0 -0.10353859064E+02  0.33457778325E+01  0.45837165311E+01  0.11807077711E+02  0.00000000000E+00 0. -1.
</event>
<event>
 8    1  0.2490104E-006  0.9118800E+02  0.7816164E-02  0.1184000E+00
        -11   -1    0    0    0    0  0.00000000000E+00  0.00000000000E+00  0.45593999997E+02  0.45594000000E+02  0.51100000000E-03 0. -1.
         11   -1    0    0    0    0 -0.00000000000E+00 -0.00000000000E+00 -0.45593999997E+02  0.45594000000E+02  0.51100000000E-03 0.  1.
         23    2    1    2    0    0  0.00000000000E+00  0.35527136788E-14  0.00000000000E+00  0.91188000000E+02  0.91188000000E+02 0.  0.
    9900012    2    3    3    0    0  0.16067818558E+02 -0.24307029827E+02 -0.22511600471E+02  0.54367100392E+02  0.40000036963E+02 0.  0.
         12    1    3    3    0    0 -0.16067818558E+02  0.24307029827E+02  0.22511600471E+02  0.36820899608E+02  0.00000000000E+00 0. -1.
         11    1    4    4    0    0  0.26115517109E+01  0.77290771025E+00 -0.10954834752E+02  0.11288312246E+02  0.51100000000E-03 0. -1.
        -11    1    4    4    0    0  0.16938068211E+02 -0.28693959510E+02 -0.15449351817E+02  0.36727699886E+02  0.51100000000E-03 0.  1.
        -12    1    4    4    0    0 -0.34818013634E+01  0.36140219732E+01  0.38925860980E+01  0.63510882601E+01  0.00000000000E+00 0.  1.
</event>
<event>
 8    1  0.2490104E-006  0.9118800E+02  0.7816164E-02  0.1184000E+00
        -11   -1    0    0    0    0  0.00000000000E+00  0.00000000000E+00  0.45593999997E+02  0.45594000000E+02  0.51100000000E-03 0.  1.
         11   -1    0    0    0    0 -0.00000000000E+00 -0.00000000000E+00 -0.45593999997E+02  0.45594000000E+02  0.51100000000E-03 0. -1.
         23    2    1    2    0    0  0.00000000000E+00 -0.71054273576E-14  0.00000000000E+00  0.91188000000E+02  0.91188000000E+02 0.  0.
    9900012    2    3    3    0    0 -0.21274621039E+02 -0.24518168390E+02  0.17379001841E+02  0.54367084930E+02  0.40000001716E+02 0.  0.
         12    1    3    3    0    0  0.21274621039E+02  0.24518168390E+02 -0.17379001841E+02  0.36820915070E+02  0.00000000000E+00 0. -1.
         11    1    4    4    0    0  0.61047439767E+01  0.62541671722E-01  0.11773097029E+01  0.62175452455E+01  0.51100000000E-03 0. -1.
        -11    1    4    4    0    0 -0.66800765910E+01  0.44603617377E+01  0.84409688221E+01  0.11651961423E+02  0.51100000000E-03 0.  1.
         12    1    4    4    0    0 -0.20699288425E+02 -0.29041071800E+02  0.77607233161E+01  0.36497578262E+02  0.00000000000E+00 0. -1.
</event>
<event>
 8    1  0.2490104E-006  0.9118800E+02  0.7816164E-02  0.1184000E+00
        -11   -1    0    0    0    0  0.00000000000E+00  0.00000000000E+00  0.45593999997E+02  0.45594000000E+02  0.51100000000E-03 0. -1.
         11   -1    0    0    0    0 -0.00000000000E+00 -0.00000000000E+00 -0.45593999997E+02  0.45594000000E+02  0.51100000000E-03 0.  1.
         23    2    1    2    0    0  0.00000000000E+00  0.00000000000E+00  0.35527136788E-14  0.91188000000E+02  0.91188000000E+02 0.  0.
    9900012    2    3    3    0    0 -0.16709917247E+02 -0.22222581471E+02 -0.24139575699E+02  0.54367033465E+02  0.39999884390E+02 0.  0.
         12    1    3    3    0    0  0.16709917247E+02  0.22222581471E+02  0.24139575699E+02  0.36820966535E+02  0.00000000000E+00 0. -1.
         11    1    4    4    0    0  0.17432804408E+01 -0.15301446595E+02 -0.10912855205E+02  0.18874949101E+02  0.51100000000E-03 0. -1.
        -11    1    4    4    0    0 -0.51360922165E+01 -0.20675068086E+01 -0.19295033123E+02  0.20073672587E+02  0.51100000000E-03 0.  1.
         12    1    4    4    0    0 -0.13317105472E+02 -0.48536280680E+01  0.60683126294E+01  0.15418411777E+02  0.00000000000E+00 0. -1.
</event>
<event>
 8    1  0.2490104E-006  0.9118800E+02  0.7816164E-02  0.1184000E+00
        -11   -1    0    0    0    0  0.00000000000E+00  0.00000000000E+00  0.45593999997E+02  0.45594000000E+02  0.51100000000E-03 0.  1.
         11   -1    0    0    0    0 -0.00000000000E+00 -0.00000000000E+00 -0.45593999997E+02  0.45594000000E+02  0.51100000000E-03 0. -1.
         23    2    1    2    0    0  0.17763568394E-14  0.00000000000E+00  0.00000000000E+00  0.91188000000E+02  0.91188000000E+02 0.  0.
    9900012    2    3    3    0    0  0.95611383641E+01 -0.11570533751E+02  0.33622732426E+02  0.54367071795E+02  0.39999971771E+02 0.  0.
         12    1    3    3    0    0 -0.95611383641E+01  0.11570533751E+02 -0.33622732426E+02  0.36820928205E+02  0.00000000000E+00 0. -1.
         11    1    4    4    0    0  0.29858541734E+01  0.12903587583E+02  0.58790643275E+01  0.14490731358E+02  0.51100000000E-03 0. -1.
        -11    1    4    4    0    0 -0.35754476808E+01 -0.12005661635E+02  0.11133721307E+02  0.16759459652E+02  0.51100000000E-03 0.  1.
         12    1    4    4    0    0  0.10150731871E+02 -0.12468459699E+02  0.16609946791E+02  0.23116880785E+02  0.00000000000E+00 0. -1.
</event>
<event>
 8    1  0.2490104E-006  0.9118800E+02  0.7816164E-02  0.1184000E+00
        -11   -1    0    0    0    0  0.00000000000E+00  0.00000000000E+00  0.45593999997E+02  0.45594000000E+02  0.51100000000E-03 0. -1.
         11   -1    0    0    0    0 -0.00000000000E+00 -0.00000000000E+00 -0.45593999997E+02  0.45594000000E+02  0.51100000000E-03 0.  1.
         23    2    1    2    0    0  0.17763568394E-14  0.88817841970E-15  0.71054273576E-14  0.91188000000E+02  0.91188000000E+02 0.  0.
    9900012    2    3    3    0    0 -0.10177242020E+02  0.55743718180E+01  0.34944668321E+02  0.54367085830E+02  0.40000003766E+02 0.  0.
        -12    1    3    3    0    0  0.10177242020E+02 -0.55743718180E+01 -0.34944668321E+02  0.36820914170E+02  0.00000000000E+00 0.  1.
         11    1    4    4    0    0 -0.10793582111E+01  0.10031973837E+02 -0.26596333212E+01  0.10434517856E+02  0.51100000000E-03 0. -1.
        -11    1    4    4    0    0  0.49618928161E+01 -0.41907471364E+01  0.43220580149E+01  0.78014695811E+01  0.51100000000E-03 0.  1.
         12    1    4    4    0    0 -0.14059776625E+02 -0.26685488262E+00  0.33282243627E+02  0.36131098393E+02  0.00000000000E+00 0. -1.
</event>
<event>
 8    1  0.2490104E-006  0.9118800E+02  0.7816164E-02  0.1184000E+00
        -11   -1    0    0    0    0  0.00000000000E+00  0.00000000000E+00  0.45593999997E+02  0.45594000000E+02  0.51100000000E-03 0.  1.
         11   -1    0    0    0    0 -0.00000000000E+00 -0.00000000000E+00 -0.45593999997E+02  0.45594000000E+02  0.51100000000E-03 0. -1.
         23    2    1    2    0    0  0.35527136788E-14  0.00000000000E+00  0.71054273576E-14  0.91188000000E+02  0.91188000000E+02 0.  0.
    9900012    2    3    3    0    0  0.20146655050E+02 -0.11820806120E+02  0.28463306781E+02  0.54367095612E+02  0.40000026067E+02 0.  0.
         12    1    3    3    0    0 -0.20146655050E+02  0.11820806120E+02 -0.28463306781E+02  0.36820904388E+02  0.00000000000E+00 0. -1.
         11    1    4    4    0    0 -0.61094481397E+01  0.29153512570E+01  0.55259320545E+01  0.87384526580E+01  0.51100000000E-03 0. -1.
        -11    1    4    4    0    0  0.48786372574E+01 -0.15930913647E+02  0.16057699394E+02  0.23139680663E+02  0.51100000000E-03 0.  1.
         12    1    4    4    0    0  0.21377465932E+02  0.11947562704E+01  0.68796753327E+01  0.22488962291E+02  0.00000000000E+00 0. -1.
</event>
<event>
 8    1  0.2490104E-006  0.9118800E+02  0.7816164E-02  0.1184000E+00
        -11   -1    0    0    0    0  0.00000000000E+00  0.00000000000E+00  0.45593999997E+02  0.45594000000E+02  0.51100000000E-03 0. -1.
         11   -1    0    0    0    0 -0.00000000000E+00 -0.00000000000E+00 -0.45593999997E+02  0.45594000000E+02  0.51100000000E-03 0.  1.
         23    2    1    2    0    0  0.00000000000E+00  0.00000000000E+00  0.00000000000E+00  0.91188000000E+02  0.91188000000E+02 0.  0.
    9900012    2    3    3    0    0 -0.12144916392E+02  0.24251729664E+02 -0.24902458837E+02  0.54367111337E+02  0.40000061914E+02 0.  0.
         12    1    3    3    0    0  0.12144916392E+02 -0.24251729664E+02  0.24902458837E+02  0.36820888663E+02  0.00000000000E+00 0. -1.
         11    1    4    4    0    0 -0.22447274134E+01  0.15918126264E+02 -0.31386990674E+01  0.16379162891E+02  0.51100000000E-03 0. -1.
        -11    1    4    4    0    0 -0.14722438429E+02  0.10181917021E+02 -0.25364206006E+01  0.18079133199E+02  0.51100000000E-03 0.  1.
        -12    1    4    4    0    0  0.48222494507E+01 -0.18483136205E+01 -0.19227339169E+02  0.19908815247E+02  0.00000000000E+00 0.  1.
</event>
<event>
 8    1  0.2490104E-006  0.9118800E+02  0.7816164E-02  0.1184000E+00
        -11   -1    0    0    0    0  0.00000000000E+00  0.00000000000E+00  0.45593999997E+02  0.45594000000E+02  0.51100000000E-03 0.  1.
         11   -1    0    0    0    0 -0.00000000000E+00 -0.00000000000E+00 -0.45593999997E+02  0.45594000000E+02  0.51100000000E-03 0. -1.
         23    2    1    2    0    0 -0.17763568394E-14  0.35527136788E-14  0.00000000000E+00  0.91188000000E+02  0.91188000000E+02 0.  0.
    9900012    2    3    3    0    0 -0.15484837312E+02  0.20871793971E+02 -0.26083866517E+02  0.54367081181E+02  0.39999993169E+02 0.  0.
        -12    1    3    3    0    0  0.15484837312E+02 -0.20871793971E+02  0.26083866517E+02  0.36820918819E+02  0.00000000000E+00 0.  1.
         11    1    4    4    0    0 -0.91958722261E+01 -0.53476423072E+01 -0.22100396014E+02  0.24527308220E+02  0.51100000000E-03 0. -1.
        -11    1    4    4    0    0  0.30034960138E+01  0.29708027042E+01 -0.21384450530E+01  0.47349344787E+01  0.51100000000E-03 0.  1.
         12    1    4    4    0    0 -0.92924610997E+01  0.23248633574E+02 -0.18450254500E+01  0.25104838483E+02  0.00000000000E+00 0. -1.
</event>
<event>
 8    1  0.2490104E-006  0.9118800E+02  0.7816164E-02  0.1184000E+00
        -11   -1    0    0    0    0  0.00000000000E+00  0.00000000000E+00  0.45593999997E+02  0.45594000000E+02  0.51100000000E-03 0. -1.
         11   -1    0    0    0    0 -0.00000000000E+00 -0.00000000000E+00 -0.45593999997E+02  0.45594000000E+02  0.51100000000E-03 0.  1.
         23    2    1    2    0    0  0.00000000000E+00  0.00000000000E+00 -0.35527136788E-14  0.91188000000E+02  0.91188000000E+02 0.  0.
    9900012    2    3    3    0    0 -0.21902925829E+02 -0.71154019732E+01  0.28729990439E+02  0.54367089423E+02  0.40000011958E+02 0.  0.
        -12    1    3    3    0    0  0.21902925829E+02  0.71154019732E+01 -0.28729990439E+02  0.36820910577E+02  0.00000000000E+00 0.  1.
         11    1    4    4    0    0 -0.93306465076E+01 -0.28880835703E+01  0.26264633660E+02  0.28022008716E+02  0.51100000000E-03 0. -1.
        -11    1    4    4    0    0 -0.12316059789E+02 -0.42866144210E+01  0.11451533013E+02  0.17355056915E+02  0.51100000000E-03 0.  1.
        -12    1    4    4    0    0 -0.25621953279E+00  0.59296018086E-01 -0.89861762341E+01  0.89900237918E+01  0.00000000000E+00 0.  1.
</event>
<event>
 8    1  0.2490104E-006  0.9118800E+02  0.7816164E-02  0.1184000E+00
        -11   -1    0    0    0    0  0.00000000000E+00  0.00000000000E+00  0.45593999997E+02  0.45594000000E+02  0.51100000000E-03 0. -1.
         11   -1    0    0    0    0 -0.00000000000E+00 -0.00000000000E+00 -0.45593999997E+02  0.45594000000E+02  0.51100000000E-03 0.  1.
         23    2    1    2    0    0  0.00000000000E+00 -0.88817841970E-15  0.00000000000E+00  0.91188000000E+02  0.91188000000E+02 0.  0.
    9900012    2    3    3    0    0  0.36097109298E+02  0.70310707936E+01  0.18283884260E+01  0.54367078496E+02  0.39999987047E+02 0.  0.
        -12    1    3    3    0    0 -0.36097109298E+02 -0.70310707936E+01 -0.18283884260E+01  0.36820921504E+02  0.00000000000E+00 0.  1.
         11    1    4    4    0    0  0.50291960201E+01 -0.70808189883E+01  0.64993214570E+01  0.10847672092E+02  0.51100000000E-03 0. -1.
        -11    1    4    4    0    0  0.23507030861E+02  0.18764436964E+02 -0.11620927097E+02  0.32244852944E+02  0.51100000000E-03 0.  1.
        -12    1    4    4    0    0  0.75608824169E+01 -0.46525471825E+01  0.69499940665E+01  0.11274553460E+02  0.00000000000E+00 0.  1.
</event>
<event>
 8    1  0.2490104E-006  0.9118800E+02  0.7816164E-02  0.1184000E+00
        -11   -1    0    0    0    0  0.00000000000E+00  0.00000000000E+00  0.45593999997E+02  0.45594000000E+02  0.51100000000E-03 0.  1.
         11   -1    0    0    0    0 -0.00000000000E+00 -0.00000000000E+00 -0.45593999997E+02  0.45594000000E+02  0.51100000000E-03 0. -1.
         23    2    1    2    0    0  0.00000000000E+00  0.00000000000E+00  0.35527136788E-14  0.91188000000E+02  0.91188000000E+02 0.  0.
    9900012    2    3    3    0    0  0.14933305897E+02  0.27481319698E+02  0.19430736787E+02  0.54367080818E+02  0.39999992341E+02 0.  0.
         12    1    3    3    0    0 -0.14933305897E+02 -0.27481319698E+02 -0.19430736787E+02  0.36820919182E+02  0.00000000000E+00 0. -1.
         11    1    4    4    0    0  0.95672675628E+01  0.76282892859E+01 -0.25492025835E+01  0.12498873554E+02  0.51100000000E-03 0. -1.
        -11    1    4    4    0    0 -0.36218424868E+01  0.20594397108E+02  0.33592592968E+01  0.21178563656E+02  0.51100000000E-03 0.  1.
        -12    1    4    4    0    0  0.89878808208E+01 -0.74136669620E+00  0.18620680073E+02  0.20689643608E+02  0.00000000000E+00 0.  1.
</event>
<event>
 8    1  0.2490104E-006  0.9118800E+02  0.7816164E-02  0.1184000E+00
        -11   -1    0    0    0    0  0.00000000000E+00  0.00000000000E+00  0.45593999997E+02  0.45594000000E+02  0.51100000000E-03 0. -1.
         11   -1    0    0    0    0 -0.00000000000E+00 -0.00000000000E+00 -0.45593999997E+02  0.45594000000E+02  0.51100000000E-03 0.  1.
         23    2    1    2    0    0  0.35527136788E-14 -0.35527136788E-14  0.88817841970E-15  0.91188000000E+02  0.91188000000E+02 0.  0.
    9900012    2    3    3    0    0  0.24207860753E+02 -0.27294780888E+02  0.49743705069E+01  0.54367218532E+02  0.40000306287E+02 0.  0.
         12    1    3    3    0    0 -0.24207860753E+02  0.27294780888E+02 -0.49743705069E+01  0.36820781468E+02  0.00000000000E+00 0. -1.
         11    1    4    4    0    0  0.96009116878E+01  0.23266904171E+01  0.57937231561E+01  0.11452433008E+02  0.51100000000E-03 0. -1.
        -11    1    4    4    0    0  0.12727909975E+02  0.46031706373E+00  0.49350300434E+00  0.12745788701E+02  0.51100000000E-03 0.  1.
         12    1    4    4    0    0  0.18790390899E+01 -0.30081788369E+02 -0.13128556536E+01  0.30168996823E+02  0.00000000000E+00 0. -1.
</event>
<event>
 8    1  0.2490104E-006  0.9118800E+02  0.7816164E-02  0.1184000E+00
        -11   -1    0    0    0    0  0.00000000000E+00  0.00000000000E+00  0.45593999997E+02  0.45594000000E+02  0.51100000000E-03 0.  1.
         11   -1    0    0    0    0 -0.00000000000E+00 -0.00000000000E+00 -0.45593999997E+02  0.45594000000E+02  0.51100000000E-03 0. -1.
         23    2    1    2    0    0  0.00000000000E+00 -0.22204460493E-15  0.00000000000E+00  0.91188000000E+02  0.91188000000E+02 0.  0.
    9900012    2    3    3    0    0 -0.19409218580E+02  0.16126155475E+01  0.31248363397E+02  0.54367102268E+02  0.40000041241E+02 0.  0.
         12    1    3    3    0    0  0.19409218580E+02 -0.16126155475E+01 -0.31248363397E+02  0.36820897732E+02  0.00000000000E+00 0. -1.
         11    1    4    4    0    0  0.60742547277E+01  0.65139053990E+01  0.27219308477E+01  0.93132401368E+01  0.51100000000E-03 0. -1.
        -11    1    4    4    0    0 -0.68472932720E+01  0.88430750235E+01  0.57594012891E+01  0.12579988255E+02  0.51100000000E-03 0.  1.
         12    1    4    4    0    0 -0.18636180036E+02 -0.13744364875E+02  0.22767031260E+02  0.32473873876E+02  0.00000000000E+00 0. -1.
</event>
<event>
 8    1  0.2490104E-006  0.9118800E+02  0.7816164E-02  0.1184000E+00
        -11   -1    0    0    0    0  0.00000000000E+00  0.00000000000E+00  0.45593999997E+02  0.45594000000E+02  0.51100000000E-03 0.  1.
         11   -1    0    0    0    0 -0.00000000000E+00 -0.00000000000E+00 -0.45593999997E+02  0.45594000000E+02  0.51100000000E-03 0. -1.
         23    2    1    2    0    0  0.00000000000E+00  0.00000000000E+00  0.00000000000E+00  0.91188000000E+02  0.91188000000E+02 0.  0.
    9900012    2    3    3    0    0 -0.20427587340E+02 -0.26401259277E+02  0.15539222015E+02  0.54367078817E+02  0.39999987780E+02 0.  0.
         12    1    3    3    0    0  0.20427587340E+02  0.26401259277E+02 -0.15539222015E+02  0.36820921183E+02  0.00000000000E+00 0. -1.
         11    1    4    4    0    0  0.71706691627E+01 -0.30663870983E+01 -0.10654239495E+01  0.78712358960E+01  0.51100000000E-03 0. -1.
        -11    1    4    4    0    0 -0.21426843632E+02 -0.23501064564E+01  0.80795065321E+01  0.23019797012E+02  0.51100000000E-03 0.  1.
         12    1    4    4    0    0 -0.61714128699E+01 -0.20984765722E+02  0.85251394319E+01  0.23476045910E+02  0.00000000000E+00 0. -1.
</event>
<event>
 8    1  0.2490104E-006  0.9118800E+02  0.7816164E-02  0.1184000E+00
        -11   -1    0    0    0    0  0.00000000000E+00  0.00000000000E+00  0.45593999997E+02  0.45594000000E+02  0.51100000000E-03 0. -1.
         11   -1    0    0    0    0 -0.00000000000E+00 -0.00000000000E+00 -0.45593999997E+02  0.45594000000E+02  0.51100000000E-03 0.  1.
         23    2    1    2    0    0 -0.35527136788E-14 -0.35527136788E-14 -0.22204460493E-15  0.91188000000E+02  0.91188000000E+02 0.  0.
    9900012    2    3    3    0    0  0.25081729592E+02  0.26931552718E+02  0.11736387162E+01  0.54367093996E+02  0.40000022383E+02 0.  0.
        -12    1    3    3    0    0 -0.25081729592E+02 -0.26931552718E+02 -0.11736387162E+01  0.36820906004E+02  0.00000000000E+00 0.  1.
         11    1    4    4    0    0  0.14360674582E+01  0.51829659705E+01 -0.63202850268E+01  0.82988811943E+01  0.51100000000E-03 0. -1.
        -11    1    4    4    0    0 -0.71876000620E+01  0.66446172967E+00 -0.20724469673E+01  0.75098695551E+01  0.51100000000E-03 0.  1.
         12    1    4    4    0    0  0.30833262195E+02  0.21084125018E+02  0.95663707103E+01  0.38558343247E+02  0.00000000000E+00 0. -1.
</event>
<event>
 8    1  0.2490104E-006  0.9118800E+02  0.7816164E-02  0.1184000E+00
        -11   -1    0    0    0    0  0.00000000000E+00  0.00000000000E+00  0.45593999997E+02  0.45594000000E+02  0.51100000000E-03 0.  1.
         11   -1    0    0    0    0 -0.00000000000E+00 -0.00000000000E+00 -0.45593999997E+02  0.45594000000E+02  0.51100000000E-03 0. -1.
         23    2    1    2    0    0 -0.35527136788E-14  0.00000000000E+00 -0.88817841970E-15  0.91188000000E+02  0.91188000000E+02 0.  0.
    9900012    2    3    3    0    0 -0.29468645282E+02 -0.21607428100E+02 -0.45274433512E+01  0.54367085466E+02  0.40000002936E+02 0.  0.
         12    1    3    3    0    0  0.29468645282E+02  0.21607428100E+02  0.45274433512E+01  0.36820914534E+02  0.00000000000E+00 0. -1.
         11    1    4    4    0    0 -0.34910345601E+01 -0.61380814484E+01 -0.11410494663E+02  0.13418746398E+02  0.51100000000E-03 0. -1.
        -11    1    4    4    0    0 -0.25683473342E+02 -0.59273736165E+01 -0.37890106332E+01  0.26629516757E+02  0.51100000000E-03 0.  1.
         12    1    4    4    0    0 -0.29413737985E+00 -0.95419730352E+01  0.10672061945E+02  0.14318822311E+02  0.00000000000E+00 0. -1.
</event>
<event>
 8    1  0.2490104E-006  0.9118800E+02  0.7816164E-02  0.1184000E+00
        -11   -1    0    0    0    0  0.00000000000E+00  0.00000000000E+00  0.45593999997E+02  0.45594000000E+02  0.51100000000E-03 0.  1.
         11   -1    0    0    0    0 -0.00000000000E+00 -0.00000000000E+00 -0.45593999997E+02  0.45594000000E+02  0.51100000000E-03 0. -1.
         23    2    1    2    0    0  0.00000000000E+00  0.35527136788E-14  0.00000000000E+00  0.91188000000E+02  0.91188000000E+02 0.  0.
    9900012    2    3    3    0    0 -0.32273101782E+02 -0.13836234401E+02 -0.11080880098E+02  0.54367076807E+02  0.39999983198E+02 0.  0.
        -12    1    3    3    0    0  0.32273101782E+02  0.13836234401E+02  0.11080880098E+02  0.36820923193E+02  0.00000000000E+00 0.  1.
         11    1    4    4    0    0 -0.16887639956E+02 -0.47876785818E+01  0.54405593417E+01  0.18376994740E+02  0.51100000000E-03 0. -1.
        -11    1    4    4    0    0  0.49586941481E+00  0.39133097992E+01 -0.14915000837E+02  0.15427803806E+02  0.51100000000E-03 0.  1.
        -12    1    4    4    0    0 -0.15881331241E+02 -0.12961865618E+02 -0.16064386027E+01  0.20562278261E+02  0.00000000000E+00 0.  1.
</event>
<event>
 8    1  0.2490104E-006  0.9118800E+02  0.7816164E-02  0.1184000E+00
        -11   -1    0    0    0    0  0.00000000000E+00  0.00000000000E+00  0.45593999997E+02  0.45594000000E+02  0.51100000000E-03 0. -1.
         11   -1    0    0    0    0 -0.00000000000E+00 -0.00000000000E+00 -0.45593999997E+02  0.45594000000E+02  0.51100000000E-03 0.  1.
         23    2    1    2    0    0  0.00000000000E+00 -0.71054273576E-14  0.00000000000E+00  0.91188000000E+02  0.91188000000E+02 0.  0.
    9900012    2    3    3    0    0  0.19853783309E+02  0.26694985378E+02 -0.15779247170E+02  0.54367087501E+02  0.40000007575E+02 0.  0.
         12    1    3    3    0    0 -0.19853783309E+02 -0.26694985378E+02  0.15779247170E+02  0.36820912499E+02  0.00000000000E+00 0. -1.
         11    1    4    4    0    0 -0.34239701505E+01  0.17979228608E+02  0.24628708199E+01  0.18467321567E+02  0.51100000000E-03 0. -1.
        -11    1    4    4    0    0  0.78487578754E+01  0.11326756401E+02 -0.31001644566E+01  0.14124780730E+02  0.51100000000E-03 0.  1.
         12    1    4    4    0    0  0.15428995584E+02 -0.26109996307E+01 -0.15141953533E+02  0.21774985204E+02  0.00000000000E+00 0. -1.
</event>
<event>
 8    1  0.2490104E-006  0.9118800E+02  0.7816164E-02  0.1184000E+00
        -11   -1    0    0    0    0  0.00000000000E+00  0.00000000000E+00  0.45593999997E+02  0.45594000000E+02  0.51100000000E-03 0.  1.
         11   -1    0    0    0    0 -0.00000000000E+00 -0.00000000000E+00 -0.45593999997E+02  0.45594000000E+02  0.51100000000E-03 0. -1.
         23    2    1    2    0    0 -0.55511151231E-16  0.00000000000E+00  0.00000000000E+00  0.91188000000E+02  0.91188000000E+02 0.  0.
    9900012    2    3    3    0    0  0.37040279672E+00  0.23115524147E+02  0.28658581938E+02  0.54367095971E+02  0.40000026884E+02 0.  0.
         12    1    3    3    0    0 -0.37040279672E+00 -0.23115524147E+02 -0.28658581938E+02  0.36820904029E+02  0.00000000000E+00 0. -1.
         11    1    4    4    0    0 -0.12502716650E+02  0.65161562820E+01  0.60624699617E+01  0.15347043970E+02  0.51100000000E-03 0. -1.
        -11    1    4    4    0    0 -0.47271700248E+01  0.10751196658E+02  0.31757396172E+01  0.12166334222E+02  0.51100000000E-03 0.  1.
        -12    1    4    4    0    0  0.17600289472E+02  0.58481712070E+01  0.19420372359E+02  0.26853717779E+02  0.00000000000E+00 0.  1.
</event>
<event>
 8    1  0.2490104E-006  0.9118800E+02  0.7816164E-02  0.1184000E+00
        -11   -1    0    0    0    0  0.00000000000E+00  0.00000000000E+00  0.45593999997E+02  0.45594000000E+02  0.51100000000E-03 0. -1.
         11   -1    0    0    0    0 -0.00000000000E+00 -0.00000000000E+00 -0.45593999997E+02  0.45594000000E+02  0.51100000000E-03 0.  1.
         23    2    1    2    0    0 -0.35527136788E-14 -0.17763568394E-14  0.35527136788E-14  0.91188000000E+02  0.91188000000E+02 0.  0.
    9900012    2    3    3    0    0 -0.26379946701E+02 -0.11510871908E+02 -0.22964669808E+02  0.54367111642E+02  0.40000062611E+02 0.  0.
         12    1    3    3    0    0  0.26379946701E+02  0.11510871908E+02  0.22964669808E+02  0.36820888358E+02  0.00000000000E+00 0. -1.
         11    1    4    4    0    0 -0.16032566683E+02  0.12059716822E+02 -0.23898475728E+01  0.20203745593E+02  0.51100000000E-03 0. -1.
        -11    1    4    4    0    0 -0.62553392835E+01 -0.16178294867E+02 -0.18704924848E+02  0.25509619914E+02  0.51100000000E-03 0.  1.
         12    1    4    4    0    0 -0.40920407339E+01 -0.73922938638E+01 -0.18698973878E+01  0.86537461355E+01  0.00000000000E+00 0. -1.
</event>
<event>
 8    1  0.2490104E-006  0.9118800E+02  0.7816164E-02  0.1184000E+00
        -11   -1    0    0    0    0  0.00000000000E+00  0.00000000000E+00  0.45593999997E+02  0.45594000000E+02  0.51100000000E-03 0. -1.
         11   -1    0    0    0    0 -0.00000000000E+00 -0.00000000000E+00 -0.45593999997E+02  0.45594000000E+02  0.51100000000E-03 0.  1.
         23    2    1    2    0    0  0.00000000000E+00  0.00000000000E+00  0.35527136788E-14  0.91188000000E+02  0.91188000000E+02 0.  0.
    9900012    2    3    3    0    0 -0.67300988611E+01 -0.22074837214E+02 -0.28691469671E+02  0.54366904137E+02  0.39999589559E+02 0.  0.
         12    1    3    3    0    0  0.67300988611E+01  0.22074837214E+02  0.28691469671E+02  0.36821095863E+02  0.00000000000E+00 0. -1.
         11    1    4    4    0    0 -0.23076155658E+01 -0.25319903161E+02 -0.16599608806E+02  0.30363952286E+02  0.51100000000E-03 0. -1.
        -11    1    4    4    0    0 -0.37622443575E+01  0.88406423421E+01  0.10879566362E+01  0.96692858852E+01  0.51100000000E-03 0.  1.
        -12    1    4    4    0    0 -0.66023893778E+00 -0.55955763955E+01 -0.13179817501E+02  0.14333665966E+02  0.00000000000E+00 0.  1.
</event>
<event>
 8    1  0.2490104E-006  0.9118800E+02  0.7816164E-02  0.1184000E+00
        -11   -1    0    0    0    0  0.00000000000E+00  0.00000000000E+00  0.45593999997E+02  0.45594000000E+02  0.51100000000E-03 0. -1.
         11   -1    0    0    0    0 -0.00000000000E+00 -0.00000000000E+00 -0.45593999997E+02  0.45594000000E+02  0.51100000000E-03 0.  1.
         23    2    1    2    0    0  0.00000000000E+00  0.00000000000E+00  0.17763568394E-14  0.91188000000E+02  0.91188000000E+02 0.  0.
    9900012    2    3    3    0    0 -0.32645838630E+02 -0.90545276577E+01  0.14423756258E+02  0.54367082093E+02  0.39999995247E+02 0.  0.
        -12    1    3    3    0    0  0.32645838630E+02  0.90545276577E+01 -0.14423756258E+02  0.36820917907E+02  0.00000000000E+00 0.  1.
         11    1    4    4    0    0 -0.30968954129E+02 -0.70956219288E+01  0.97770142310E+01  0.33241750525E+02  0.51100000000E-03 0. -1.
        -11    1    4    4    0    0 -0.74964513278E+01  0.47915794081E+01  0.76361686138E+01  0.11724635905E+02  0.51100000000E-03 0.  1.
         12    1    4    4    0    0  0.58195668271E+01 -0.67504851370E+01 -0.29894265870E+01  0.94006956636E+01  0.00000000000E+00 0. -1.
</event>
<event>
 8    1  0.2490104E-006  0.9118800E+02  0.7816164E-02  0.1184000E+00
        -11   -1    0    0    0    0  0.00000000000E+00  0.00000000000E+00  0.45593999997E+02  0.45594000000E+02  0.51100000000E-03 0. -1.
         11   -1    0    0    0    0 -0.00000000000E+00 -0.00000000000E+00 -0.45593999997E+02  0.45594000000E+02  0.51100000000E-03 0.  1.
         23    2    1    2    0    0 -0.26645352591E-14  0.00000000000E+00  0.35527136788E-14  0.91188000000E+02  0.91188000000E+02 0.  0.
    9900012    2    3    3    0    0  0.57602864717E+01 -0.32354080893E+02 -0.16607602058E+02  0.54367083434E+02  0.39999998304E+02 0.  0.
         12    1    3    3    0    0 -0.57602864717E+01  0.32354080893E+02  0.16607602058E+02  0.36820916566E+02  0.00000000000E+00 0. -1.
         11    1    4    4    0    0  0.15065122518E+02 -0.90602241166E+01  0.40582588482E+00  0.17584375804E+02  0.51100000000E-03 0. -1.
        -11    1    4    4    0    0 -0.90939719904E+01 -0.23981480420E+02 -0.67864950431E+01  0.26530515354E+02  0.51100000000E-03 0.  1.
        -12    1    4    4    0    0 -0.21086405583E+00  0.68762364406E+00 -0.10226932899E+02  0.10252192275E+02  0.00000000000E+00 0.  1.
</event>
<event>
 8    1  0.2490104E-006  0.9118800E+02  0.7816164E-02  0.1184000E+00
        -11   -1    0    0    0    0  0.00000000000E+00  0.00000000000E+00  0.45593999997E+02  0.45594000000E+02  0.51100000000E-03 0.  1.
         11   -1    0    0    0    0 -0.00000000000E+00 -0.00000000000E+00 -0.45593999997E+02  0.45594000000E+02  0.51100000000E-03 0. -1.
         23    2    1    2    0    0  0.00000000000E+00  0.00000000000E+00  0.00000000000E+00  0.91188000000E+02  0.91188000000E+02 0.  0.
    9900012    2    3    3    0    0 -0.65855549570E+01 -0.32466794361E+02  0.16072370963E+02  0.54367036154E+02  0.39999890520E+02 0.  0.
         12    1    3    3    0    0  0.65855549570E+01  0.32466794361E+02 -0.16072370963E+02  0.36820963846E+02  0.00000000000E+00 0. -1.
         11    1    4    4    0    0  0.92803081566E+01 -0.18895998029E+01 -0.29322292783E+01  0.99142662713E+01  0.51100000000E-03 0. -1.
        -11    1    4    4    0    0 -0.25789029706E+00 -0.63824042073E+00 -0.37013460744E+01  0.37648135762E+01  0.51100000000E-03 0.  1.
        -12    1    4    4    0    0 -0.15607972817E+02 -0.29938954137E+02  0.22705946316E+02  0.40687956306E+02  0.00000000000E+00 0.  1.
</event>
<event>
 8    1  0.2490104E-006  0.9118800E+02  0.7816164E-02  0.1184000E+00
        -11   -1    0    0    0    0  0.00000000000E+00  0.00000000000E+00  0.45593999997E+02  0.45594000000E+02  0.51100000000E-03 0. -1.
         11   -1    0    0    0    0 -0.00000000000E+00 -0.00000000000E+00 -0.45593999997E+02  0.45594000000E+02  0.51100000000E-03 0.  1.
         23    2    1    2    0    0  0.00000000000E+00  0.00000000000E+00  0.35527136788E-14  0.91188000000E+02  0.91188000000E+02 0.  0.
    9900012    2    3    3    0    0  0.14633149838E+02 -0.22226116572E+02  0.25448931322E+02  0.54367116829E+02  0.40000074434E+02 0.  0.
        -12    1    3    3    0    0 -0.14633149838E+02  0.22226116572E+02 -0.25448931322E+02  0.36820883171E+02  0.00000000000E+00 0.  1.
         11    1    4    4    0    0 -0.92071839287E+01  0.23026730078E+01  0.10181447002E+02  0.13918922451E+02  0.51100000000E-03 0. -1.
        -11    1    4    4    0    0  0.67509242685E+01 -0.59789944918E+01 -0.27773657023E+01  0.94359479713E+01  0.51100000000E-03 0.  1.
        -12    1    4    4    0    0  0.17089409499E+02 -0.18549795088E+02  0.18044850022E+02  0.31012246406E+02  0.00000000000E+00 0.  1.
</event>
<event>
 8    1  0.2490104E-006  0.9118800E+02  0.7816164E-02  0.1184000E+00
        -11   -1    0    0    0    0  0.00000000000E+00  0.00000000000E+00  0.45593999997E+02  0.45594000000E+02  0.51100000000E-03 0. -1.
         11   -1    0    0    0    0 -0.00000000000E+00 -0.00000000000E+00 -0.45593999997E+02  0.45594000000E+02  0.51100000000E-03 0.  1.
         23    2    1    2    0    0  0.00000000000E+00 -0.71054273576E-14  0.26645352591E-14  0.91188000000E+02  0.91188000000E+02 0.  0.
    9900012    2    3    3    0    0 -0.15325660825E+02  0.33289871554E+02  0.35622272255E+01  0.54367069939E+02  0.39999967540E+02 0.  0.
        -12    1    3    3    0    0  0.15325660825E+02 -0.33289871554E+02 -0.35622272255E+01  0.36820930061E+02  0.00000000000E+00 0.  1.
         11    1    4    4    0    0  0.19474401366E+01  0.17870350766E+02 -0.73078688911E+01  0.19404816608E+02  0.51100000000E-03 0. -1.
        -11    1    4    4    0    0 -0.19045817405E+02  0.14450251561E+02  0.16455254375E+02  0.29022893164E+02  0.51100000000E-03 0.  1.
        -12    1    4    4    0    0  0.17727164439E+01  0.96926922685E+00 -0.55851582586E+01  0.59393601674E+01  0.00000000000E+00 0.  1.
</event>
<event>
 8    1  0.2490104E-006  0.9118800E+02  0.7816164E-02  0.1184000E+00
        -11   -1    0    0    0    0  0.00000000000E+00  0.00000000000E+00  0.45593999997E+02  0.45594000000E+02  0.51100000000E-03 0. -1.
         11   -1    0    0    0    0 -0.00000000000E+00 -0.00000000000E+00 -0.45593999997E+02  0.45594000000E+02  0.51100000000E-03 0.  1.
         23    2    1    2    0    0  0.00000000000E+00  0.00000000000E+00 -0.35527136788E-14  0.91188000000E+02  0.91188000000E+02 0.  0.
    9900012    2    3    3    0    0  0.32104055819E+02  0.27983757002E+01  0.17812327554E+02  0.54367077694E+02  0.39999985219E+02 0.  0.
        -12    1    3    3    0    0 -0.32104055819E+02 -0.27983757002E+01 -0.17812327554E+02  0.36820922306E+02  0.00000000000E+00 0.  1.
         11    1    4    4    0    0  0.96646768513E+00  0.10774495563E+02  0.65483570739E+01  0.12645346774E+02  0.51100000000E-03 0. -1.
        -11    1    4    4    0    0  0.19136161728E+02  0.21188121737E+01 -0.41905949151E+01  0.19703886335E+02  0.51100000000E-03 0.  1.
         12    1    4    4    0    0  0.12001426405E+02 -0.10094932036E+02  0.15454565395E+02  0.22017844584E+02  0.00000000000E+00 0. -1.
</event>
<event>
 8    1  0.2490104E-006  0.9118800E+02  0.7816164E-02  0.1184000E+00
        -11   -1    0    0    0    0  0.00000000000E+00  0.00000000000E+00  0.45593999997E+02  0.45594000000E+02  0.51100000000E-03 0. -1.
         11   -1    0    0    0    0 -0.00000000000E+00 -0.00000000000E+00 -0.45593999997E+02  0.45594000000E+02  0.51100000000E-03 0.  1.
         23    2    1    2    0    0 -0.13322676296E-14  0.00000000000E+00 -0.35527136788E-14  0.91188000000E+02  0.91188000000E+02 0.  0.
    9900012    2    3    3    0    0 -0.21959990393E+01 -0.25631884206E+02  0.26343127240E+02  0.54367132920E+02  0.40000111118E+02 0.  0.
        -12    1    3    3    0    0  0.21959990393E+01  0.25631884206E+02 -0.26343127240E+02  0.36820867080E+02  0.00000000000E+00 0.  1.
         11    1    4    4    0    0 -0.28155383443E+00 -0.92656680307E+01  0.66148017725E+01  0.11388041068E+02  0.51100000000E-03 0. -1.
        -11    1    4    4    0    0 -0.16282314645E+02 -0.15308500115E+02  0.17534243904E+02  0.28406225647E+02  0.51100000000E-03 0.  1.
        -12    1    4    4    0    0  0.14367869440E+02 -0.10577160608E+01  0.21940815637E+01  0.14572866205E+02  0.00000000000E+00 0.  1.
</event>
<event>
 8    1  0.2490104E-006  0.9118800E+02  0.7816164E-02  0.1184000E+00
        -11   -1    0    0    0    0  0.00000000000E+00  0.00000000000E+00  0.45593999997E+02  0.45594000000E+02  0.51100000000E-03 0.  1.
         11   -1    0    0    0    0 -0.00000000000E+00 -0.00000000000E+00 -0.45593999997E+02  0.45594000000E+02  0.51100000000E-03 0. -1.
         23    2    1    2    0    0  0.00000000000E+00  0.00000000000E+00  0.00000000000E+00  0.91188000000E+02  0.91188000000E+02 0.  0.
    9900012    2    3    3    0    0  0.18658132719E+02  0.30002430655E+02  0.10368565454E+02  0.54367096816E+02  0.40000028810E+02 0.  0.
         12    1    3    3    0    0 -0.18658132719E+02 -0.30002430655E+02 -0.10368565454E+02  0.36820903184E+02  0.00000000000E+00 0. -1.
         11    1    4    4    0    0 -0.70836559419E+01  0.18499319450E+01 -0.19925149034E+01  0.75875256577E+01  0.51100000000E-03 0. -1.
        -11    1    4    4    0    0  0.21664944933E+01  0.23998116826E+01  0.11402825783E+02  0.11852309083E+02  0.51100000000E-03 0.  1.
        -12    1    4    4    0    0  0.23575294168E+02  0.25752687027E+02  0.95825457396E+00  0.34927262075E+02  0.00000000000E+00 0.  1.
</event>
<event>
 8    1  0.2490104E-006  0.9118800E+02  0.7816164E-02  0.1184000E+00
        -11   -1    0    0    0    0  0.00000000000E+00  0.00000000000E+00  0.45593999997E+02  0.45594000000E+02  0.51100000000E-03 0.  1.
         11   -1    0    0    0    0 -0.00000000000E+00 -0.00000000000E+00 -0.45593999997E+02  0.45594000000E+02  0.51100000000E-03 0. -1.
         23    2    1    2    0    0  0.00000000000E+00  0.00000000000E+00 -0.88817841970E-15  0.91188000000E+02  0.91188000000E+02 0.  0.
    9900012    2    3    3    0    0 -0.35841659857E+02  0.62184668744E+01  0.56995773071E+01  0.54367094348E+02  0.40000023184E+02 0.  0.
        -12    1    3    3    0    0  0.35841659857E+02 -0.62184668744E+01 -0.56995773071E+01  0.36820905652E+02  0.00000000000E+00 0.  1.
         11    1    4    4    0    0 -0.40547740758E+01 -0.24109406029E+01 -0.88141421992E+01  0.99971461110E+01  0.51100000000E-03 0. -1.
        -11    1    4    4    0    0 -0.26049645903E+02  0.15377545442E+02  0.17591508048E+02  0.34993058042E+02  0.51100000000E-03 0.  1.
        -12    1    4    4    0    0 -0.57372398785E+01 -0.67481379642E+01 -0.30777885421E+01  0.93768901944E+01  0.00000000000E+00 0.  1.
</event>
<event>
 8    1  0.2490104E-006  0.9118800E+02  0.7816164E-02  0.1184000E+00
        -11   -1    0    0    0    0  0.00000000000E+00  0.00000000000E+00  0.45593999997E+02  0.45594000000E+02  0.51100000000E-03 0. -1.
         11   -1    0    0    0    0 -0.00000000000E+00 -0.00000000000E+00 -0.45593999997E+02  0.45594000000E+02  0.51100000000E-03 0.  1.
         23    2    1    2    0    0 -0.71054273576E-14 -0.44408920985E-15  0.35527136788E-14  0.91188000000E+02  0.91188000000E+02 0.  0.
    9900012    2    3    3    0    0 -0.34165662756E+02 -0.38892916992E+01  0.13166652444E+02  0.54367084231E+02  0.40000000122E+02 0.  0.
        -12    1    3    3    0    0  0.34165662756E+02  0.38892916992E+01 -0.13166652444E+02  0.36820915769E+02  0.00000000000E+00 0.  1.
         11    1    4    4    0    0  0.33560625638E+01 -0.62129852381E+01 -0.76201284856E+00  0.71024647373E+01  0.51100000000E-03 0. -1.
        -11    1    4    4    0    0 -0.19399421906E+02 -0.35528401553E+01 -0.50656922031E+01  0.20362256290E+02  0.51100000000E-03 0.  1.
        -12    1    4    4    0    0 -0.18122303414E+02  0.58765336943E+01  0.18994357496E+02  0.26902363204E+02  0.00000000000E+00 0.  1.
</event>
<event>
 8    1  0.2490104E-006  0.9118800E+02  0.7816164E-02  0.1184000E+00
        -11   -1    0    0    0    0  0.00000000000E+00  0.00000000000E+00  0.45593999997E+02  0.45594000000E+02  0.51100000000E-03 0. -1.
         11   -1    0    0    0    0 -0.00000000000E+00 -0.00000000000E+00 -0.45593999997E+02  0.45594000000E+02  0.51100000000E-03 0.  1.
         23    2    1    2    0    0  0.00000000000E+00  0.00000000000E+00  0.00000000000E+00  0.91188000000E+02  0.91188000000E+02 0.  0.
    9900012    2    3    3    0    0  0.10938112541E+02 -0.89135904328E+01 -0.34010078399E+02  0.54367084298E+02  0.40000000275E+02 0.  0.
         12    1    3    3    0    0 -0.10938112541E+02  0.89135904328E+01  0.34010078399E+02  0.36820915702E+02  0.00000000000E+00 0. -1.
         11    1    4    4    0    0  0.40448437922E+01 -0.74313824399E+01  0.50313336539E+01  0.98438064218E+01  0.51100000000E-03 0. -1.
        -11    1    4    4    0    0  0.12436384313E+02 -0.59940689282E+01 -0.29782618558E+02  0.32826770866E+02  0.51100000000E-03 0.  1.
        -12    1    4    4    0    0 -0.55431155637E+01  0.45118609354E+01 -0.92587934953E+01  0.11696507010E+02  0.00000000000E+00 0.  1.
</event>
<event>
 8    1  0.2490104E-006  0.9118800E+02  0.7816164E-02  0.1184000E+00
        -11   -1    0    0    0    0  0.00000000000E+00  0.00000000000E+00  0.45593999997E+02  0.45594000000E+02  0.51100000000E-03 0.  1.
         11   -1    0    0    0    0 -0.00000000000E+00 -0.00000000000E+00 -0.45593999997E+02  0.45594000000E+02  0.51100000000E-03 0. -1.
         23    2    1    2    0    0  0.35527136788E-14 -0.35527136788E-14  0.44408920985E-15  0.91188000000E+02  0.91188000000E+02 0.  0.
    9900012    2    3    3    0    0 -0.18498851930E+02  0.31715106408E+02 -0.27792387013E+01  0.54367086582E+02  0.40000005480E+02 0.  0.
         12    1    3    3    0    0  0.18498851930E+02 -0.31715106408E+02  0.27792387013E+01  0.36820913418E+02  0.00000000000E+00 0. -1.
         11    1    4    4    0    0  0.82444223066E+00  0.55517669743E+01 -0.13138789996E+02  0.14287393896E+02  0.51100000000E-03 0. -1.
        -11    1    4    4    0    0  0.42103001315E+01  0.50264746385E+01  0.43855744760E+01  0.78883038884E+01  0.51100000000E-03 0.  1.
        -12    1    4    4    0    0 -0.23533594292E+02  0.21136864795E+02  0.59739768185E+01  0.32191388797E+02  0.00000000000E+00 0.  1.
</event>
<event>
 8    1  0.2490104E-006  0.9118800E+02  0.7816164E-02  0.1184000E+00
        -11   -1    0    0    0    0  0.00000000000E+00  0.00000000000E+00  0.45593999997E+02  0.45594000000E+02  0.51100000000E-03 0.  1.
         11   -1    0    0    0    0 -0.00000000000E+00 -0.00000000000E+00 -0.45593999997E+02  0.45594000000E+02  0.51100000000E-03 0. -1.
         23    2    1    2    0    0  0.00000000000E+00  0.88817841970E-15  0.71054273576E-14  0.91188000000E+02  0.91188000000E+02 0.  0.
    9900012    2    3    3    0    0  0.20563455689E+02  0.23557081464E+01  0.30452823205E+02  0.54367088660E+02  0.40000010219E+02 0.  0.
         12    1    3    3    0    0 -0.20563455689E+02 -0.23557081464E+01 -0.30452823205E+02  0.36820911340E+02  0.00000000000E+00 0. -1.
         11    1    4    4    0    0 -0.94951458578E+00  0.98335355033E+00 -0.12100651544E+01  0.18256012961E+01  0.51100000000E-03 0. -1.
        -11    1    4    4    0    0 -0.33729097146E+01  0.13623835677E+02  0.85368973301E+01  0.16427538914E+02  0.51100000000E-03 0.  1.
         12    1    4    4    0    0  0.24885879990E+02 -0.12251481081E+02  0.23125991029E+02  0.36113948450E+02  0.00000000000E+00 0. -1.
</event>
<event>
 8    1  0.2490104E-006  0.9118800E+02  0.7816164E-02  0.1184000E+00
        -11   -1    0    0    0    0  0.00000000000E+00  0.00000000000E+00  0.45593999997E+02  0.45594000000E+02  0.51100000000E-03 0.  1.
         11   -1    0    0    0    0 -0.00000000000E+00 -0.00000000000E+00 -0.45593999997E+02  0.45594000000E+02  0.51100000000E-03 0. -1.
         23    2    1    2    0    0 -0.35527136788E-14  0.00000000000E+00  0.66613381478E-15  0.91188000000E+02  0.91188000000E+02 0.  0.
    9900012    2    3    3    0    0  0.28339773458E+02 -0.23428019609E+02 -0.19405755779E+01  0.54367072581E+02  0.39999973562E+02 0.  0.
         12    1    3    3    0    0 -0.28339773458E+02  0.23428019609E+02  0.19405755779E+01  0.36820927419E+02  0.00000000000E+00 0. -1.
         11    1    4    4    0    0 -0.26519019107E+00 -0.66808752390E+01  0.72574839787E+01  0.98679021964E+01  0.51100000000E-03 0. -1.
        -11    1    4    4    0    0  0.23115505929E+02  0.20417952480E+01 -0.90958075704E+01  0.24924471064E+02  0.51100000000E-03 0.  1.
        -12    1    4    4    0    0  0.54894577200E+01 -0.18788939618E+02 -0.10225198607E+00  0.19574699321E+02  0.00000000000E+00 0.  1.
</event>
<event>
 8    1  0.2490104E-006  0.9118800E+02  0.7816164E-02  0.1184000E+00
        -11   -1    0    0    0    0  0.00000000000E+00  0.00000000000E+00  0.45593999997E+02  0.45594000000E+02  0.51100000000E-03 0.  1.
         11   -1    0    0    0    0 -0.00000000000E+00 -0.00000000000E+00 -0.45593999997E+02  0.45594000000E+02  0.51100000000E-03 0. -1.
         23    2    1    2    0    0  0.17763568394E-14  0.35527136788E-14  0.00000000000E+00  0.91188000000E+02  0.91188000000E+02 0.  0.
    9900012    2    3    3    0    0 -0.80296824652E+01 -0.28118981124E+02  0.22374689373E+02  0.54367087131E+02  0.40000006734E+02 0.  0.
         12    1    3    3    0    0  0.80296824652E+01  0.28118981124E+02 -0.22374689373E+02  0.36820912869E+02  0.00000000000E+00 0. -1.
         11    1    4    4    0    0 -0.62099651383E+01 -0.18111558971E+02 -0.64550362070E+01  0.20205438081E+02  0.51100000000E-03 0. -1.
        -11    1    4    4    0    0  0.62833314673E+01 -0.18616028960E+01  0.77095589321E+01  0.10118454371E+02  0.51100000000E-03 0.  1.
         12    1    4    4    0    0 -0.81030487942E+01 -0.81458192571E+01  0.21120166648E+02  0.24043194679E+02  0.00000000000E+00 0. -1.
</event>
<event>
 8    1  0.2490104E-006  0.9118800E+02  0.7816164E-02  0.1184000E+00
        -11   -1    0    0    0    0  0.00000000000E+00  0.00000000000E+00  0.45593999997E+02  0.45594000000E+02  0.51100000000E-03 0.  1.
         11   -1    0    0    0    0 -0.00000000000E+00 -0.00000000000E+00 -0.45593999997E+02  0.45594000000E+02  0.51100000000E-03 0. -1.
         23    2    1    2    0    0  0.00000000000E+00 -0.35527136788E-14  0.00000000000E+00  0.91188000000E+02  0.91188000000E+02 0.  0.
    9900012    2    3    3    0    0  0.39025964285E+01 -0.31539231566E+02  0.18596430929E+02  0.54367073478E+02  0.39999975608E+02 0.  0.
         12    1    3    3    0    0 -0.39025964285E+01  0.31539231566E+02 -0.18596430929E+02  0.36820926522E+02  0.00000000000E+00 0. -1.
         11    1    4    4    0    0  0.47813045721E+01  0.63817343721E+01 -0.97735533048E+00  0.80338428358E+01  0.51100000000E-03 0. -1.
        -11    1    4    4    0    0  0.67698472099E+01 -0.18486871771E+02  0.35397665106E+01  0.20003129913E+02  0.51100000000E-03 0.  1.
        -12    1    4    4    0    0 -0.76485553535E+01 -0.19434094167E+02  0.16034019748E+02  0.26330100729E+02  0.00000000000E+00 0.  1.
</event>
<event>
 8    1  0.2490104E-006  0.9118800E+02  0.7816164E-02  0.1184000E+00
        -11   -1    0    0    0    0  0.00000000000E+00  0.00000000000E+00  0.45593999997E+02  0.45594000000E+02  0.51100000000E-03 0.  1.
         11   -1    0    0    0    0 -0.00000000000E+00 -0.00000000000E+00 -0.45593999997E+02  0.45594000000E+02  0.51100000000E-03 0. -1.
         23    2    1    2    0    0  0.00000000000E+00  0.00000000000E+00  0.00000000000E+00  0.91188000000E+02  0.91188000000E+02 0.  0.
    9900012    2    3    3    0    0 -0.18217188434E+02  0.22273242593E+02  0.22974320056E+02  0.54367045747E+02  0.39999912389E+02 0.  0.
         12    1    3    3    0    0  0.18217188434E+02 -0.22273242593E+02 -0.22974320056E+02  0.36820954253E+02  0.00000000000E+00 0. -1.
         11    1    4    4    0    0  0.60942584881E+01  0.63754908309E+01  0.78106676386E-01  0.88200323564E+01  0.51100000000E-03 0. -1.
        -11    1    4    4    0    0 -0.21662124492E+02  0.22923103565E+02  0.20695151562E+02  0.37722746626E+02  0.51100000000E-03 0.  1.
        -12    1    4    4    0    0 -0.26493224298E+01 -0.70253518021E+01  0.22010618181E+01  0.78242667648E+01  0.00000000000E+00 0.  1.
</event>
<event>
 8    1  0.2490104E-006  0.9118800E+02  0.7816164E-02  0.1184000E+00
        -11   -1    0    0    0    0  0.00000000000E+00  0.00000000000E+00  0.45593999997E+02  0.45594000000E+02  0.51100000000E-03 0.  1.
         11   -1    0    0    0    0 -0.00000000000E+00 -0.00000000000E+00 -0.45593999997E+02  0.45594000000E+02  0.51100000000E-03 0. -1.
         23    2    1    2    0    0  0.00000000000E+00  0.17763568394E-14  0.00000000000E+00  0.91188000000E+02  0.91188000000E+02 0.  0.
    9900012    2    3    3    0    0  0.31265052744E+02 -0.10576983308E+02 -0.16321936861E+02  0.54367058650E+02  0.39999941805E+02 0.  0.
        -12    1    3    3    0    0 -0.31265052744E+02  0.10576983308E+02  0.16321936861E+02  0.36820941350E+02  0.00000000000E+00 0.  1.
         11    1    4    4    0    0  0.27321104960E+02 -0.10910316455E+02 -0.15679532582E+02  0.33336549366E+02  0.51100000000E-03 0. -1.
        -11    1    4    4    0    0  0.10024477569E+02  0.67419543275E+01 -0.14113619044E+01  0.12162896093E+02  0.51100000000E-03 0.  1.
        -12    1    4    4    0    0 -0.60805297840E+01 -0.64086211804E+01  0.76895762501E+00  0.88676131917E+01  0.00000000000E+00 0.  1.
</event>
<event>
 8    1  0.2490104E-006  0.9118800E+02  0.7816164E-02  0.1184000E+00
        -11   -1    0    0    0    0  0.00000000000E+00  0.00000000000E+00  0.45593999997E+02  0.45594000000E+02  0.51100000000E-03 0. -1.
         11   -1    0    0    0    0 -0.00000000000E+00 -0.00000000000E+00 -0.45593999997E+02  0.45594000000E+02  0.51100000000E-03 0.  1.
         23    2    1    2    0    0  0.00000000000E+00 -0.71054273576E-14  0.00000000000E+00  0.91188000000E+02  0.91188000000E+02 0.  0.
    9900012    2    3    3    0    0  0.46838091492E+01 -0.33591513618E+02 -0.14333635711E+02  0.54367068888E+02  0.39999965143E+02 0.  0.
         12    1    3    3    0    0 -0.46838091492E+01  0.33591513618E+02  0.14333635711E+02  0.36820931112E+02  0.00000000000E+00 0. -1.
         11    1    4    4    0    0  0.29669850530E+01 -0.12493813941E+02  0.36676176712E+01  0.13354767191E+02  0.51100000000E-03 0. -1.
        -11    1    4    4    0    0  0.44178492028E+01  0.71526456782E+01 -0.31127812178E+01  0.89647721080E+01  0.51100000000E-03 0.  1.
        -12    1    4    4    0    0 -0.27010251066E+01 -0.28250345355E+02 -0.14888472165E+02  0.32047529588E+02  0.00000000000E+00 0.  1.
</event>
<event>
 8    1  0.2490104E-006  0.9118800E+02  0.7816164E-02  0.1184000E+00
        -11   -1    0    0    0    0  0.00000000000E+00  0.00000000000E+00  0.45593999997E+02  0.45594000000E+02  0.51100000000E-03 0.  1.
         11   -1    0    0    0    0 -0.00000000000E+00 -0.00000000000E+00 -0.45593999997E+02  0.45594000000E+02  0.51100000000E-03 0. -1.
         23    2    1    2    0    0  0.35527136788E-14  0.35527136788E-14 -0.17763568394E-14  0.91188000000E+02  0.91188000000E+02 0.  0.
    9900012    2    3    3    0    0 -0.30838602078E+02 -0.16665511351E+02 -0.11270385379E+02  0.54367078864E+02  0.39999987886E+02 0.  0.
        -12    1    3    3    0    0  0.30838602078E+02  0.16665511351E+02  0.11270385379E+02  0.36820921136E+02  0.00000000000E+00 0.  1.
         11    1    4    4    0    0 -0.30963066185E+02 -0.10965435042E+02 -0.19685439578E+02  0.38294500452E+02  0.51100000000E-03 0. -1.
        -11    1    4    4    0    0 -0.38160994964E+00 -0.89609770878E+01  0.25194072387E+01  0.93162304403E+01  0.51100000000E-03 0.  1.
        -12    1    4    4    0    0  0.50607405633E+00  0.32609007788E+01  0.58956469601E+01  0.67563479719E+01  0.00000000000E+00 0.  1.
</event>
<event>
 8    1  0.2490104E-006  0.9118800E+02  0.7816164E-02  0.1184000E+00
        -11   -1    0    0    0    0  0.00000000000E+00  0.00000000000E+00  0.45593999997E+02  0.45594000000E+02  0.51100000000E-03 0.  1.
         11   -1    0    0    0    0 -0.00000000000E+00 -0.00000000000E+00 -0.45593999997E+02  0.45594000000E+02  0.51100000000E-03 0. -1.
         23    2    1    2    0    0  0.00000000000E+00  0.35527136788E-14  0.00000000000E+00  0.91188000000E+02  0.91188000000E+02 0.  0.
    9900012    2    3    3    0    0 -0.84533746370E+01  0.23401033400E+02  0.27142438377E+02  0.54367083825E+02  0.39999999195E+02 0.  0.
         12    1    3    3    0    0  0.84533746370E+01 -0.23401033400E+02 -0.27142438377E+02  0.36820916175E+02  0.00000000000E+00 0. -1.
         11    1    4    4    0    0 -0.76324666392E+01  0.58932394137E+00 -0.28409639988E+01  0.81653491297E+01  0.51100000000E-03 0. -1.
        -11    1    4    4    0    0 -0.51295915039E+01 -0.49021007008E+01  0.64779333751E+01  0.96076491063E+01  0.51100000000E-03 0.  1.
        -12    1    4    4    0    0  0.43086835060E+01  0.27713810159E+02  0.23505469001E+02  0.36594085589E+02  0.00000000000E+00 0.  1.
</event>
<event>
 8    1  0.2490104E-006  0.9118800E+02  0.7816164E-02  0.1184000E+00
        -11   -1    0    0    0    0  0.00000000000E+00  0.00000000000E+00  0.45593999997E+02  0.45594000000E+02  0.51100000000E-03 0.  1.
         11   -1    0    0    0    0 -0.00000000000E+00 -0.00000000000E+00 -0.45593999997E+02  0.45594000000E+02  0.51100000000E-03 0. -1.
         23    2    1    2    0    0  0.17763568394E-14  0.00000000000E+00  0.00000000000E+00  0.91188000000E+02  0.91188000000E+02 0.  0.
    9900012    2    3    3    0    0  0.12170850138E+02 -0.33399693949E+02 -0.95974839766E+01  0.54367070522E+02  0.39999968868E+02 0.  0.
         12    1    3    3    0    0 -0.12170850138E+02  0.33399693949E+02  0.95974839766E+01  0.36820929478E+02  0.00000000000E+00 0. -1.
         11    1    4    4    0    0 -0.10657280227E+02 -0.96559203814E+01 -0.13211264040E+02  0.19528233869E+02  0.51100000000E-03 0. -1.
        -11    1    4    4    0    0  0.19065461261E+02 -0.12525971596E+02  0.27062539838E+01  0.22972061040E+02  0.51100000000E-03 0.  1.
         12    1    4    4    0    0  0.37626691043E+01 -0.11217801971E+02  0.90752607987E+00  0.11866775613E+02  0.00000000000E+00 0. -1.
</event>
<event>
 8    1  0.2490104E-006  0.9118800E+02  0.7816164E-02  0.1184000E+00
        -11   -1    0    0    0    0  0.00000000000E+00  0.00000000000E+00  0.45593999997E+02  0.45594000000E+02  0.51100000000E-03 0. -1.
         11   -1    0    0    0    0 -0.00000000000E+00 -0.00000000000E+00 -0.45593999997E+02  0.45594000000E+02  0.51100000000E-03 0.  1.
         23    2    1    2    0    0  0.00000000000E+00  0.00000000000E+00  0.35527136788E-14  0.91188000000E+02  0.91188000000E+02 0.  0.
    9900012    2    3    3    0    0 -0.18556021076E+02 -0.18781273287E+02 -0.25665488879E+02  0.54367089312E+02  0.40000011705E+02 0.  0.
         12    1    3    3    0    0  0.18556021076E+02  0.18781273287E+02  0.25665488879E+02  0.36820910688E+02  0.00000000000E+00 0. -1.
         11    1    4    4    0    0  0.73665046567E+01 -0.76102415834E+01 -0.18036437093E+02  0.20916362759E+02  0.51100000000E-03 0. -1.
        -11    1    4    4    0    0 -0.14598609162E+02 -0.12719146806E+02 -0.99788651947E+01  0.21782420338E+02  0.51100000000E-03 0.  1.
         12    1    4    4    0    0 -0.11323916571E+02  0.15481151020E+01  0.23498134082E+01  0.11668306215E+02  0.00000000000E+00 0. -1.
</event>
<event>
 8    1  0.2490104E-006  0.9118800E+02  0.7816164E-02  0.1184000E+00
        -11   -1    0    0    0    0  0.00000000000E+00  0.00000000000E+00  0.45593999997E+02  0.45594000000E+02  0.51100000000E-03 0. -1.
         11   -1    0    0    0    0 -0.00000000000E+00 -0.00000000000E+00 -0.45593999997E+02  0.45594000000E+02  0.51100000000E-03 0.  1.
         23    2    1    2    0    0  0.35527136788E-14 -0.26645352591E-14  0.00000000000E+00  0.91188000000E+02  0.91188000000E+02 0.  0.
    9900012    2    3    3    0    0  0.25060541819E+02 -0.69207465917E+01 -0.26073921393E+02  0.54367124584E+02  0.40000092113E+02 0.  0.
         12    1    3    3    0    0 -0.25060541819E+02  0.69207465917E+01  0.26073921393E+02  0.36820875416E+02  0.00000000000E+00 0. -1.
         11    1    4    4    0    0  0.95395796052E+01  0.35881043892E+01  0.59697248205E+01  0.11811675869E+02  0.51100000000E-03 0. -1.
        -11    1    4    4    0    0  0.29691634941E+01  0.57904546128E+01 -0.12926334328E+02  0.14471883633E+02  0.51100000000E-03 0.  1.
         12    1    4    4    0    0  0.12551798719E+02 -0.16299305594E+02 -0.19117311885E+02  0.28083565081E+02  0.00000000000E+00 0. -1.
</event>
<event>
 8    1  0.2490104E-006  0.9118800E+02  0.7816164E-02  0.1184000E+00
        -11   -1    0    0    0    0  0.00000000000E+00  0.00000000000E+00  0.45593999997E+02  0.45594000000E+02  0.51100000000E-03 0. -1.
         11   -1    0    0    0    0 -0.00000000000E+00 -0.00000000000E+00 -0.45593999997E+02  0.45594000000E+02  0.51100000000E-03 0.  1.
         23    2    1    2    0    0  0.00000000000E+00  0.17763568394E-14  0.44408920985E-15  0.91188000000E+02  0.91188000000E+02 0.  0.
    9900012    2    3    3    0    0 -0.35198742801E+02 -0.10708905535E+02 -0.14656031046E+01  0.54367080063E+02  0.39999990620E+02 0.  0.
        -12    1    3    3    0    0  0.35198742801E+02  0.10708905535E+02  0.14656031046E+01  0.36820919937E+02  0.00000000000E+00 0.  1.
         11    1    4    4    0    0 -0.37677539850E+01 -0.52319829678E+01  0.13762634147E+02  0.15198016805E+02  0.51100000000E-03 0. -1.
        -11    1    4    4    0    0 -0.88253310800E+01  0.17168973649E+01 -0.12344724575E+02  0.15271752693E+02  0.51100000000E-03 0.  1.
         12    1    4    4    0    0 -0.22605657736E+02 -0.71938199320E+01 -0.28835126775E+01  0.23897310565E+02  0.00000000000E+00 0. -1.
</event>
<event>
 8    1  0.2490104E-006  0.9118800E+02  0.7816164E-02  0.1184000E+00
        -11   -1    0    0    0    0  0.00000000000E+00  0.00000000000E+00  0.45593999997E+02  0.45594000000E+02  0.51100000000E-03 0.  1.
         11   -1    0    0    0    0 -0.00000000000E+00 -0.00000000000E+00 -0.45593999997E+02  0.45594000000E+02  0.51100000000E-03 0. -1.
         23    2    1    2    0    0  0.00000000000E+00 -0.35527136788E-14  0.00000000000E+00  0.91188000000E+02  0.91188000000E+02 0.  0.
    9900012    2    3    3    0    0 -0.20927452987E+02  0.23212819418E+02 -0.19467448893E+02  0.54367152098E+02  0.40000154836E+02 0.  0.
        -12    1    3    3    0    0  0.20927452987E+02 -0.23212819418E+02  0.19467448893E+02  0.36820847902E+02  0.00000000000E+00 0.  1.
         11    1    4    4    0    0 -0.77285443162E+01  0.79266804881E+01 -0.21763602322E+02  0.24417556125E+02  0.51100000000E-03 0. -1.
        -11    1    4    4    0    0 -0.11321495760E+02 -0.26558974352E+01  0.25616510056E+01  0.11907649372E+02  0.51100000000E-03 0.  1.
        -12    1    4    4    0    0 -0.18774129102E+01  0.17942036365E+02 -0.26549757636E+00  0.18041946601E+02  0.00000000000E+00 0.  1.
</event>
<event>
 8    1  0.2490104E-006  0.9118800E+02  0.7816164E-02  0.1184000E+00
        -11   -1    0    0    0    0  0.00000000000E+00  0.00000000000E+00  0.45593999997E+02  0.45594000000E+02  0.51100000000E-03 0. -1.
         11   -1    0    0    0    0 -0.00000000000E+00 -0.00000000000E+00 -0.45593999997E+02  0.45594000000E+02  0.51100000000E-03 0.  1.
         23    2    1    2    0    0  0.00000000000E+00  0.00000000000E+00  0.00000000000E+00  0.91188000000E+02  0.91188000000E+02 0.  0.
    9900012    2    3    3    0    0 -0.14321573604E+02 -0.32512854343E+02 -0.96743694485E+01  0.54366992514E+02  0.39999791034E+02 0.  0.
        -12    1    3    3    0    0  0.14321573604E+02  0.32512854343E+02  0.96743694485E+01  0.36821007486E+02  0.00000000000E+00 0.  1.
         11    1    4    4    0    0 -0.19813294588E+02 -0.19458860808E+02 -0.30320706431E+01  0.27935772032E+02  0.51100000000E-03 0. -1.
        -11    1    4    4    0    0 -0.24956178737E+01 -0.14438075310E+02 -0.99123566705E+01  0.17690136864E+02  0.51100000000E-03 0.  1.
        -12    1    4    4    0    0  0.79873388574E+01  0.13840817752E+01  0.32700578650E+01  0.87410836184E+01  0.00000000000E+00 0.  1.
</event>
<event>
 8    1  0.2490104E-006  0.9118800E+02  0.7816164E-02  0.1184000E+00
        -11   -1    0    0    0    0  0.00000000000E+00  0.00000000000E+00  0.45593999997E+02  0.45594000000E+02  0.51100000000E-03 0.  1.
         11   -1    0    0    0    0 -0.00000000000E+00 -0.00000000000E+00 -0.45593999997E+02  0.45594000000E+02  0.51100000000E-03 0. -1.
         23    2    1    2    0    0  0.00000000000E+00  0.35527136788E-14  0.35527136788E-14  0.91188000000E+02  0.91188000000E+02 0.  0.
    9900012    2    3    3    0    0  0.12360009107E+02  0.28125622409E+02  0.20296813059E+02  0.54367067348E+02  0.39999961633E+02 0.  0.
         12    1    3    3    0    0 -0.12360009107E+02 -0.28125622409E+02 -0.20296813059E+02  0.36820932652E+02  0.00000000000E+00 0. -1.
         11    1    4    4    0    0 -0.53916131184E+00  0.10084144031E+02 -0.95023656327E+01  0.13866348064E+02  0.51100000000E-03 0. -1.
        -11    1    4    4    0    0  0.76333601825E+01  0.19809639807E+02  0.19633975239E+02  0.28916829025E+02  0.51100000000E-03 0.  1.
        -12    1    4    4    0    0  0.52658102363E+01 -0.17681614287E+01  0.10165203453E+02  0.11583890259E+02  0.00000000000E+00 0.  1.
</event>
<event>
 8    1  0.2490104E-006  0.9118800E+02  0.7816164E-02  0.1184000E+00
        -11   -1    0    0    0    0  0.00000000000E+00  0.00000000000E+00  0.45593999997E+02  0.45594000000E+02  0.51100000000E-03 0.  1.
         11   -1    0    0    0    0 -0.00000000000E+00 -0.00000000000E+00 -0.45593999997E+02  0.45594000000E+02  0.51100000000E-03 0. -1.
         23    2    1    2    0    0  0.00000000000E+00  0.00000000000E+00  0.00000000000E+00  0.91188000000E+02  0.91188000000E+02 0.  0.
    9900012    2    3    3    0    0  0.83820499222E+01  0.29117356437E+02  0.20921286081E+02  0.54367089934E+02  0.40000013123E+02 0.  0.
        -12    1    3    3    0    0 -0.83820499222E+01 -0.29117356437E+02 -0.20921286081E+02  0.36820910066E+02  0.00000000000E+00 0.  1.
         11    1    4    4    0    0  0.10361805758E+02  0.89974832606E+01  0.24674658688E+02  0.28234030977E+02  0.51100000000E-03 0. -1.
        -11    1    4    4    0    0  0.12643391814E+01 -0.24914960733E+01 -0.15215533446E+01  0.31813882332E+01  0.51100000000E-03 0.  1.
         12    1    4    4    0    0 -0.32440950168E+01  0.22611369250E+02 -0.22318192623E+01  0.22951670724E+02  0.00000000000E+00 0. -1.
</event>
<event>
 8    1  0.2490104E-006  0.9118800E+02  0.7816164E-02  0.1184000E+00
        -11   -1    0    0    0    0  0.00000000000E+00  0.00000000000E+00  0.45593999997E+02  0.45594000000E+02  0.51100000000E-03 0. -1.
         11   -1    0    0    0    0 -0.00000000000E+00 -0.00000000000E+00 -0.45593999997E+02  0.45594000000E+02  0.51100000000E-03 0.  1.
         23    2    1    2    0    0  0.35527136788E-14  0.26645352591E-14 -0.71054273576E-14  0.91188000000E+02  0.91188000000E+02 0.  0.
    9900012    2    3    3    0    0 -0.17315408451E+02 -0.78737304160E+01  0.31527154218E+02  0.54367075872E+02  0.39999981066E+02 0.  0.
        -12    1    3    3    0    0  0.17315408451E+02  0.78737304160E+01 -0.31527154218E+02  0.36820924128E+02  0.00000000000E+00 0.  1.
         11    1    4    4    0    0  0.42935848295E+01 -0.35303018165E+01  0.10494274531E+02  0.11875508402E+02  0.51100000000E-03 0. -1.
        -11    1    4    4    0    0  0.46481497535E+01  0.41114004634E+01 -0.20369649051E+01  0.65313196360E+01  0.51100000000E-03 0.  1.
         12    1    4    4    0    0 -0.26257143034E+02 -0.84548290629E+01  0.23069844592E+02  0.35960247835E+02  0.00000000000E+00 0. -1.
</event>
<event>
 8    1  0.2490104E-006  0.9118800E+02  0.7816164E-02  0.1184000E+00
        -11   -1    0    0    0    0  0.00000000000E+00  0.00000000000E+00  0.45593999997E+02  0.45594000000E+02  0.51100000000E-03 0.  1.
         11   -1    0    0    0    0 -0.00000000000E+00 -0.00000000000E+00 -0.45593999997E+02  0.45594000000E+02  0.51100000000E-03 0. -1.
         23    2    1    2    0    0 -0.17763568394E-14 -0.35527136788E-14  0.71054273576E-14  0.91188000000E+02  0.91188000000E+02 0.  0.
    9900012    2    3    3    0    0  0.58924655143E+01  0.13422477632E+02 -0.33777154331E+02  0.54367079176E+02  0.39999988597E+02 0.  0.
        -12    1    3    3    0    0 -0.58924655143E+01 -0.13422477632E+02  0.33777154331E+02  0.36820920824E+02  0.00000000000E+00 0.  1.
         11    1    4    4    0    0  0.15646075132E+01  0.20262037089E+01  0.17054860967E+01  0.30760658685E+01  0.51100000000E-03 0. -1.
        -11    1    4    4    0    0 -0.19834461485E+01  0.12797466859E+02  0.21322218048E+01  0.13124617584E+02  0.51100000000E-03 0.  1.
         12    1    4    4    0    0  0.63113041496E+01 -0.14011929367E+01 -0.37614862233E+02  0.38166395723E+02  0.00000000000E+00 0. -1.
</event>
<event>
 8    1  0.2490104E-006  0.9118800E+02  0.7816164E-02  0.1184000E+00
        -11   -1    0    0    0    0  0.00000000000E+00  0.00000000000E+00  0.45593999997E+02  0.45594000000E+02  0.51100000000E-03 0. -1.
         11   -1    0    0    0    0 -0.00000000000E+00 -0.00000000000E+00 -0.45593999997E+02  0.45594000000E+02  0.51100000000E-03 0.  1.
         23    2    1    2    0    0  0.00000000000E+00 -0.44408920985E-15 -0.17763568394E-14  0.91188000000E+02  0.91188000000E+02 0.  0.
    9900012    2    3    3    0    0  0.34195670491E+02  0.15306366220E+01 -0.13568205266E+02  0.54367042340E+02  0.39999904623E+02 0.  0.
         12    1    3    3    0    0 -0.34195670491E+02 -0.15306366220E+01  0.13568205266E+02  0.36820957660E+02  0.00000000000E+00 0. -1.
         11    1    4    4    0    0  0.10955455531E+02 -0.68207270781E+01  0.61390642695E+01  0.14290991363E+02  0.51100000000E-03 0. -1.
        -11    1    4    4    0    0  0.16451056859E+02 -0.47218262114E+01 -0.22950761033E+01  0.17268476746E+02  0.51100000000E-03 0.  1.
        -12    1    4    4    0    0  0.67891581015E+01  0.13073189912E+02 -0.17412193433E+02  0.22807574232E+02  0.00000000000E+00 0.  1.
</event>
<event>
 8    1  0.2490104E-006  0.9118800E+02  0.7816164E-02  0.1184000E+00
        -11   -1    0    0    0    0  0.00000000000E+00  0.00000000000E+00  0.45593999997E+02  0.45594000000E+02  0.51100000000E-03 0.  1.
         11   -1    0    0    0    0 -0.00000000000E+00 -0.00000000000E+00 -0.45593999997E+02  0.45594000000E+02  0.51100000000E-03 0. -1.
         23    2    1    2    0    0  0.00000000000E+00  0.44408920985E-15  0.24424906542E-14  0.91188000000E+02  0.91188000000E+02 0.  0.
    9900012    2    3    3    0    0 -0.36666628498E+02  0.29806161342E+01 -0.15649532617E+01  0.54367152690E+02  0.40000156187E+02 0.  0.
        -12    1    3    3    0    0  0.36666628498E+02 -0.29806161342E+01  0.15649532617E+01  0.36820847310E+02  0.00000000000E+00 0.  1.
         11    1    4    4    0    0 -0.30253574024E+02  0.59865341820E+00 -0.49487145454E+01  0.30661488924E+02  0.51100000000E-03 0. -1.
        -11    1    4    4    0    0  0.81788033891E+00  0.89758061253E+01  0.87357499508E+01  0.12551786778E+02  0.51100000000E-03 0.  1.
        -12    1    4    4    0    0 -0.72309348130E+01 -0.65938434093E+01 -0.53519886671E+01  0.11153876988E+02  0.00000000000E+00 0.  1.
</event>
<event>
 8    1  0.2490104E-006  0.9118800E+02  0.7816164E-02  0.1184000E+00
        -11   -1    0    0    0    0  0.00000000000E+00  0.00000000000E+00  0.45593999997E+02  0.45594000000E+02  0.51100000000E-03 0. -1.
         11   -1    0    0    0    0 -0.00000000000E+00 -0.00000000000E+00 -0.45593999997E+02  0.45594000000E+02  0.51100000000E-03 0.  1.
         23    2    1    2    0    0 -0.17763568394E-14  0.00000000000E+00  0.00000000000E+00  0.91188000000E+02  0.91188000000E+02 0.  0.
    9900012    2    3    3    0    0  0.14212045016E+02  0.14598749717E+02 -0.30670436526E+02  0.54367063108E+02  0.39999951968E+02 0.  0.
         12    1    3    3    0    0 -0.14212045016E+02 -0.14598749717E+02  0.30670436526E+02  0.36820936892E+02  0.00000000000E+00 0. -1.
         11    1    4    4    0    0  0.31617195590E+01  0.20092837517E+02 -0.94020557507E+01  0.22407972748E+02  0.51100000000E-03 0. -1.
        -11    1    4    4    0    0  0.16047521242E+01 -0.96354075309E+01 -0.18071266602E+01  0.99338821563E+01  0.51100000000E-03 0.  1.
         12    1    4    4    0    0  0.94455733332E+01  0.41413197307E+01 -0.19461254116E+02  0.22025208205E+02  0.00000000000E+00 0. -1.
</event>
<event>
 8    1  0.2490104E-006  0.9118800E+02  0.7816164E-02  0.1184000E+00
        -11   -1    0    0    0    0  0.00000000000E+00  0.00000000000E+00  0.45593999997E+02  0.45594000000E+02  0.51100000000E-03 0.  1.
         11   -1    0    0    0    0 -0.00000000000E+00 -0.00000000000E+00 -0.45593999997E+02  0.45594000000E+02  0.51100000000E-03 0. -1.
         23    2    1    2    0    0 -0.35527136788E-14  0.35527136788E-14  0.17763568394E-14  0.91188000000E+02  0.91188000000E+02 0.  0.
    9900012    2    3    3    0    0  0.23836580195E+02 -0.24589512068E+02  0.13525996771E+02  0.54367092246E+02  0.40000018394E+02 0.  0.
         12    1    3    3    0    0 -0.23836580195E+02  0.24589512068E+02 -0.13525996771E+02  0.36820907754E+02  0.00000000000E+00 0. -1.
         11    1    4    4    0    0  0.11899897917E+02  0.94076929891E+00 -0.11095927854E+02  0.16297614319E+02  0.51100000000E-03 0. -1.
        -11    1    4    4    0    0  0.45698406091E+01 -0.14218847065E+02  0.90584856331E+01  0.17467547546E+02  0.51100000000E-03 0.  1.
         12    1    4    4    0    0  0.73668416694E+01 -0.11311434302E+02  0.15563438992E+02  0.20601930381E+02  0.00000000000E+00 0. -1.
</event>
<event>
 8    1  0.2490104E-006  0.9118800E+02  0.7816164E-02  0.1184000E+00
        -11   -1    0    0    0    0  0.00000000000E+00  0.00000000000E+00  0.45593999997E+02  0.45594000000E+02  0.51100000000E-03 0.  1.
         11   -1    0    0    0    0 -0.00000000000E+00 -0.00000000000E+00 -0.45593999997E+02  0.45594000000E+02  0.51100000000E-03 0. -1.
         23    2    1    2    0    0  0.00000000000E+00 -0.71054273576E-14  0.00000000000E+00  0.91188000000E+02  0.91188000000E+02 0.  0.
    9900012    2    3    3    0    0 -0.26310412944E+01  0.36583311966E+02 -0.32434003877E+01  0.54367072000E+02  0.39999972238E+02 0.  0.
         12    1    3    3    0    0  0.26310412944E+01 -0.36583311966E+02  0.32434003877E+01  0.36820928000E+02  0.00000000000E+00 0. -1.
         11    1    4    4    0    0 -0.62964217379E+01  0.27201414466E+02 -0.13509706192E+02  0.31017318345E+02  0.51100000000E-03 0. -1.
        -11    1    4    4    0    0  0.93888563726E+01  0.12932686857E+01  0.58345431030E+00  0.94954508619E+01  0.51100000000E-03 0.  1.
        -12    1    4    4    0    0 -0.57234759291E+01  0.80886288143E+01  0.96828514944E+01  0.13854302793E+02  0.00000000000E+00 0.  1.
</event>
<event>
 8    1  0.2490104E-006  0.9118800E+02  0.7816164E-02  0.1184000E+00
        -11   -1    0    0    0    0  0.00000000000E+00  0.00000000000E+00  0.45593999997E+02  0.45594000000E+02  0.51100000000E-03 0. -1.
         11   -1    0    0    0    0 -0.00000000000E+00 -0.00000000000E+00 -0.45593999997E+02  0.45594000000E+02  0.51100000000E-03 0.  1.
         23    2    1    2    0    0 -0.35527136788E-14  0.00000000000E+00  0.35527136788E-14  0.91188000000E+02  0.91188000000E+02 0.  0.
    9900012    2    3    3    0    0  0.23543795959E+02 -0.10835929674E+02  0.26154416379E+02  0.54367065788E+02  0.39999958078E+02 0.  0.
        -12    1    3    3    0    0 -0.23543795959E+02  0.10835929674E+02 -0.26154416379E+02  0.36820934212E+02  0.00000000000E+00 0.  1.
         11    1    4    4    0    0  0.27464280500E+01 -0.32874154729E+01  0.15297885833E+02  0.15886323639E+02  0.51100000000E-03 0. -1.
        -11    1    4    4    0    0  0.27006274927E+02 -0.62861242001E+01  0.22857160548E+01  0.27822270594E+02  0.51100000000E-03 0.  1.
        -12    1    4    4    0    0 -0.62089070171E+01 -0.12623900011E+01  0.85708144910E+01  0.10658471556E+02  0.00000000000E+00 0.  1.
</event>
<event>
 8    1  0.2490104E-006  0.9118800E+02  0.7816164E-02  0.1184000E+00
        -11   -1    0    0    0    0  0.00000000000E+00  0.00000000000E+00  0.45593999997E+02  0.45594000000E+02  0.51100000000E-03 0. -1.
         11   -1    0    0    0    0 -0.00000000000E+00 -0.00000000000E+00 -0.45593999997E+02  0.45594000000E+02  0.51100000000E-03 0.  1.
         23    2    1    2    0    0  0.00000000000E+00  0.71054273576E-14  0.13322676296E-14  0.91188000000E+02  0.91188000000E+02 0.  0.
    9900012    2    3    3    0    0 -0.17410000421E+02 -0.32369339768E+02  0.22135884223E+01  0.54367051542E+02  0.39999925599E+02 0.  0.
        -12    1    3    3    0    0  0.17410000421E+02  0.32369339768E+02 -0.22135884223E+01  0.36820948458E+02  0.00000000000E+00 0.  1.
         11    1    4    4    0    0 -0.59380228582E+01 -0.23969619161E+00 -0.81156330805E+01  0.10058880171E+02  0.51100000000E-03 0. -1.
        -11    1    4    4    0    0 -0.99145272213E+01 -0.19582589119E+02  0.18956237439E+02  0.29001975531E+02  0.51100000000E-03 0.  1.
        -12    1    4    4    0    0 -0.15574503410E+01 -0.12547054458E+02 -0.86270159357E+01  0.15306195840E+02  0.00000000000E+00 0.  1.
</event>
<event>
 8    1  0.2490104E-006  0.9118800E+02  0.7816164E-02  0.1184000E+00
        -11   -1    0    0    0    0  0.00000000000E+00  0.00000000000E+00  0.45593999997E+02  0.45594000000E+02  0.51100000000E-03 0.  1.
         11   -1    0    0    0    0 -0.00000000000E+00 -0.00000000000E+00 -0.45593999997E+02  0.45594000000E+02  0.51100000000E-03 0. -1.
         23    2    1    2    0    0  0.88817841970E-15 -0.71054273576E-14 -0.35527136788E-14  0.91188000000E+02  0.91188000000E+02 0.  0.
    9900012    2    3    3    0    0 -0.53918002873E+01 -0.31174811609E+02 -0.18837157639E+02  0.54367097009E+02  0.40000029251E+02 0.  0.
        -12    1    3    3    0    0  0.53918002873E+01  0.31174811609E+02  0.18837157639E+02  0.36820902991E+02  0.00000000000E+00 0.  1.
         11    1    4    4    0    0 -0.10339055128E+02 -0.14053214524E+02 -0.22322631293E+02  0.28331762520E+02  0.51100000000E-03 0. -1.
        -11    1    4    4    0    0 -0.41698582179E+01 -0.12048580954E+02 -0.38069493183E+01  0.13305971740E+02  0.51100000000E-03 0.  1.
         12    1    4    4    0    0  0.91171130585E+01 -0.50730161308E+01  0.72924229723E+01  0.12729362749E+02  0.00000000000E+00 0. -1.
</event>
<event>
 8    1  0.2490104E-006  0.9118800E+02  0.7816164E-02  0.1184000E+00
        -11   -1    0    0    0    0  0.00000000000E+00  0.00000000000E+00  0.45593999997E+02  0.45594000000E+02  0.51100000000E-03 0.  1.
         11   -1    0    0    0    0 -0.00000000000E+00 -0.00000000000E+00 -0.45593999997E+02  0.45594000000E+02  0.51100000000E-03 0. -1.
         23    2    1    2    0    0 -0.17763568394E-14  0.00000000000E+00  0.71054273576E-14  0.91188000000E+02  0.91188000000E+02 0.  0.
    9900012    2    3    3    0    0 -0.11634465026E+02 -0.12210586482E+02 -0.32731029090E+02  0.54367089311E+02  0.40000011703E+02 0.  0.
        -12    1    3    3    0    0  0.11634465026E+02  0.12210586482E+02  0.32731029090E+02  0.36820910689E+02  0.00000000000E+00 0.  1.
         11    1    4    4    0    0 -0.87579307750E+00 -0.12461826374E+02 -0.25300550375E+02  0.28216696824E+02  0.51100000000E-03 0. -1.
        -11    1    4    4    0    0 -0.10790445524E+02 -0.68047591260E+01  0.34200202975E+01  0.13207384316E+02  0.51100000000E-03 0.  1.
        -12    1    4    4    0    0  0.31773575690E-01  0.70559990189E+01 -0.10850499012E+02  0.12943008172E+02  0.00000000000E+00 0.  1.
</event>
<event>
 8    1  0.2490104E-006  0.9118800E+02  0.7816164E-02  0.1184000E+00
        -11   -1    0    0    0    0  0.00000000000E+00  0.00000000000E+00  0.45593999997E+02  0.45594000000E+02  0.51100000000E-03 0. -1.
         11   -1    0    0    0    0 -0.00000000000E+00 -0.00000000000E+00 -0.45593999997E+02  0.45594000000E+02  0.51100000000E-03 0.  1.
         23    2    1    2    0    0  0.00000000000E+00  0.71054273576E-14  0.00000000000E+00  0.91188000000E+02  0.91188000000E+02 0.  0.
    9900012    2    3    3    0    0 -0.13390926093E+02  0.32287508845E+02 -0.11574922169E+02  0.54367096259E+02  0.40000027542E+02 0.  0.
         12    1    3    3    0    0  0.13390926093E+02 -0.32287508845E+02  0.11574922169E+02  0.36820903741E+02  0.00000000000E+00 0. -1.
         11    1    4    4    0    0  0.27499736699E+01  0.16235599479E+02  0.77047039529E+01  0.18180195513E+02  0.51100000000E-03 0. -1.
        -11    1    4    4    0    0 -0.11805095349E+02  0.63658824238E+00 -0.15912005963E+02  0.19823154513E+02  0.51100000000E-03 0.  1.
        -12    1    4    4    0    0 -0.43358044137E+01  0.15415321124E+02 -0.33676201586E+01  0.16363746233E+02  0.00000000000E+00 0.  1.
</event>
<event>
 8    1  0.2490104E-006  0.9118800E+02  0.7816164E-02  0.1184000E+00
        -11   -1    0    0    0    0  0.00000000000E+00  0.00000000000E+00  0.45593999997E+02  0.45594000000E+02  0.51100000000E-03 0.  1.
         11   -1    0    0    0    0 -0.00000000000E+00 -0.00000000000E+00 -0.45593999997E+02  0.45594000000E+02  0.51100000000E-03 0. -1.
         23    2    1    2    0    0 -0.17763568394E-14 -0.35527136788E-14  0.00000000000E+00  0.91188000000E+02  0.91188000000E+02 0.  0.
    9900012    2    3    3    0    0  0.58768535780E+01 -0.24280026394E+02 -0.27050388066E+02  0.54367074100E+02  0.39999977025E+02 0.  0.
        -12    1    3    3    0    0 -0.58768535780E+01  0.24280026394E+02  0.27050388066E+02  0.36820925900E+02  0.00000000000E+00 0.  1.
         11    1    4    4    0    0 -0.95200727532E+01 -0.48840500546E+01 -0.18347392237E+02  0.21239409887E+02  0.51100000000E-03 0. -1.
        -11    1    4    4    0    0  0.92988265765E+01  0.16323154615E+01  0.32053676046E+00  0.94464476678E+01  0.51100000000E-03 0.  1.
         12    1    4    4    0    0  0.60980997547E+01 -0.21028291801E+02 -0.90235325891E+01  0.23681216545E+02  0.00000000000E+00 0. -1.
</event>
<event>
 8    1  0.2490104E-006  0.9118800E+02  0.7816164E-02  0.1184000E+00
        -11   -1    0    0    0    0  0.00000000000E+00  0.00000000000E+00  0.45593999997E+02  0.45594000000E+02  0.51100000000E-03 0.  1.
         11   -1    0    0    0    0 -0.00000000000E+00 -0.00000000000E+00 -0.45593999997E+02  0.45594000000E+02  0.51100000000E-03 0. -1.
         23    2    1    2    0    0  0.00000000000E+00  0.00000000000E+00  0.00000000000E+00  0.91188000000E+02  0.91188000000E+02 0.  0.
    9900012    2    3    3    0    0 -0.32732851602E+02 -0.12664971838E+02 -0.11132765627E+02  0.54367088058E+02  0.40000008847E+02 0.  0.
        -12    1    3    3    0    0  0.32732851602E+02  0.12664971838E+02  0.11132765627E+02  0.36820911942E+02  0.00000000000E+00 0.  1.
         11    1    4    4    0    0 -0.34178401760E+02 -0.16960242372E+01 -0.95772518140E+01  0.35535382334E+02  0.51100000000E-03 0. -1.
        -11    1    4    4    0    0 -0.65725194107E+01 -0.43285774807E+01  0.14357183590E+01  0.79997426132E+01  0.51100000000E-03 0.  1.
         12    1    4    4    0    0  0.80180695680E+01 -0.66403701206E+01 -0.29912321720E+01  0.10831963111E+02  0.00000000000E+00 0. -1.
</event>
<event>
 8    1  0.2490104E-006  0.9118800E+02  0.7816164E-02  0.1184000E+00
        -11   -1    0    0    0    0  0.00000000000E+00  0.00000000000E+00  0.45593999997E+02  0.45594000000E+02  0.51100000000E-03 0.  1.
         11   -1    0    0    0    0 -0.00000000000E+00 -0.00000000000E+00 -0.45593999997E+02  0.45594000000E+02  0.51100000000E-03 0. -1.
         23    2    1    2    0    0  0.00000000000E+00  0.00000000000E+00  0.00000000000E+00  0.91188000000E+02  0.91188000000E+02 0.  0.
    9900012    2    3    3    0    0 -0.23086390273E+02  0.19878042375E+02 -0.20679976055E+02  0.54367090260E+02  0.40000013865E+02 0.  0.
         12    1    3    3    0    0  0.23086390273E+02 -0.19878042375E+02  0.20679976055E+02  0.36820909740E+02  0.00000000000E+00 0. -1.
         11    1    4    4    0    0 -0.69314520918E+01  0.25852581122E+02 -0.57855477657E+01  0.27383818981E+02  0.51100000000E-03 0. -1.
        -11    1    4    4    0    0 -0.12061106143E+02  0.31468082196E+01 -0.90340931032E+01  0.15394399041E+02  0.51100000000E-03 0.  1.
         12    1    4    4    0    0 -0.40938320374E+01 -0.91213469670E+01 -0.58603351864E+01  0.11588872238E+02  0.00000000000E+00 0. -1.
</event>
<event>
 8    1  0.2490104E-006  0.9118800E+02  0.7816164E-02  0.1184000E+00
        -11   -1    0    0    0    0  0.00000000000E+00  0.00000000000E+00  0.45593999997E+02  0.45594000000E+02  0.51100000000E-03 0. -1.
         11   -1    0    0    0    0 -0.00000000000E+00 -0.00000000000E+00 -0.45593999997E+02  0.45594000000E+02  0.51100000000E-03 0.  1.
         23    2    1    2    0    0  0.00000000000E+00  0.26645352591E-14  0.00000000000E+00  0.91188000000E+02  0.91188000000E+02 0.  0.
    9900012    2    3    3    0    0  0.30906081596E+02 -0.10127957682E+01 -0.19989234358E+02  0.54367066754E+02  0.39999960278E+02 0.  0.
         12    1    3    3    0    0 -0.30906081596E+02  0.10127957682E+01  0.19989234358E+02  0.36820933246E+02  0.00000000000E+00 0. -1.
         11    1    4    4    0    0  0.10943009578E+02  0.10876721465E+02  0.55241056727E+01  0.16388052728E+02  0.51100000000E-03 0. -1.
        -11    1    4    4    0    0  0.21318573164E+02 -0.13972820542E+02 -0.24286220546E+02  0.35207126896E+02  0.51100000000E-03 0.  1.
        -12    1    4    4    0    0 -0.13555011456E+01  0.20833033082E+01 -0.12271194853E+01  0.27718871299E+01  0.00000000000E+00 0.  1.
</event>
<event>
 8    1  0.2490104E-006  0.9118800E+02  0.7816164E-02  0.1184000E+00
        -11   -1    0    0    0    0  0.00000000000E+00  0.00000000000E+00  0.45593999997E+02  0.45594000000E+02  0.51100000000E-03 0.  1.
         11   -1    0    0    0    0 -0.00000000000E+00 -0.00000000000E+00 -0.45593999997E+02  0.45594000000E+02  0.51100000000E-03 0. -1.
         23    2    1    2    0    0  0.00000000000E+00  0.00000000000E+00  0.00000000000E+00  0.91188000000E+02  0.91188000000E+02 0.  0.
    9900012    2    3    3    0    0 -0.17680238552E+02 -0.27012935008E+02  0.17705660942E+02  0.54367083086E+02  0.39999997511E+02 0.  0.
         12    1    3    3    0    0  0.17680238552E+02  0.27012935008E+02 -0.17705660942E+02  0.36820916914E+02  0.00000000000E+00 0. -1.
         11    1    4    4    0    0 -0.16455082862E+02 -0.18937928901E+02 -0.35349756735E+01  0.25335961720E+02  0.51100000000E-03 0. -1.
        -11    1    4    4    0    0 -0.76869472876E+01 -0.55047384536E+01  0.36835030003E+01  0.10146896011E+02  0.51100000000E-03 0.  1.
         12    1    4    4    0    0  0.64617915972E+01 -0.25702676536E+01  0.17557133615E+02  0.18884225354E+02  0.00000000000E+00 0. -1.
</event>
<event>
 8    1  0.2490104E-006  0.9118800E+02  0.7816164E-02  0.1184000E+00
        -11   -1    0    0    0    0  0.00000000000E+00  0.00000000000E+00  0.45593999997E+02  0.45594000000E+02  0.51100000000E-03 0. -1.
         11   -1    0    0    0    0 -0.00000000000E+00 -0.00000000000E+00 -0.45593999997E+02  0.45594000000E+02  0.51100000000E-03 0.  1.
         23    2    1    2    0    0  0.00000000000E+00  0.00000000000E+00  0.55511151231E-15  0.91188000000E+02  0.91188000000E+02 0.  0.
    9900012    2    3    3    0    0  0.15675477854E+02  0.33317262632E+02  0.13793639349E+00  0.54367087169E+02  0.40000006819E+02 0.  0.
         12    1    3    3    0    0 -0.15675477854E+02 -0.33317262632E+02 -0.13793639349E+00  0.36820912831E+02  0.00000000000E+00 0. -1.
         11    1    4    4    0    0  0.14662914189E+01  0.84834510175E+01  0.72733344193E+01  0.11270330320E+02  0.51100000000E-03 0. -1.
        -11    1    4    4    0    0 -0.63671085161E+01  0.77114330234E+01 -0.12281480133E+02  0.15837961505E+02  0.51100000000E-03 0.  1.
         12    1    4    4    0    0  0.20576294951E+02  0.17122378591E+02  0.51460821068E+01  0.27258795344E+02  0.00000000000E+00 0. -1.
</event>
<event>
 8    1  0.2490104E-006  0.9118800E+02  0.7816164E-02  0.1184000E+00
        -11   -1    0    0    0    0  0.00000000000E+00  0.00000000000E+00  0.45593999997E+02  0.45594000000E+02  0.51100000000E-03 0. -1.
         11   -1    0    0    0    0 -0.00000000000E+00 -0.00000000000E+00 -0.45593999997E+02  0.45594000000E+02  0.51100000000E-03 0.  1.
         23    2    1    2    0    0  0.00000000000E+00  0.00000000000E+00 -0.35527136788E-14  0.91188000000E+02  0.91188000000E+02 0.  0.
    9900012    2    3    3    0    0 -0.30072356971E+02  0.11676203705E+02 -0.17751037870E+02  0.54367085669E+02  0.40000003399E+02 0.  0.
         12    1    3    3    0    0  0.30072356971E+02 -0.11676203705E+02  0.17751037870E+02  0.36820914331E+02  0.00000000000E+00 0. -1.
         11    1    4    4    0    0 -0.79594046274E+01 -0.21572741204E+01  0.69537358936E+01  0.10787047640E+02  0.51100000000E-03 0. -1.
        -11    1    4    4    0    0 -0.13168939477E+02  0.43990284057E+01  0.18566744692E+01  0.14007842739E+02  0.51100000000E-03 0.  1.
        -12    1    4    4    0    0 -0.89440128664E+01  0.94344494202E+01 -0.26561448232E+02  0.29572195289E+02  0.00000000000E+00 0.  1.
</event>
<event>
 8    1  0.2490104E-006  0.9118800E+02  0.7816164E-02  0.1184000E+00
        -11   -1    0    0    0    0  0.00000000000E+00  0.00000000000E+00  0.45593999997E+02  0.45594000000E+02  0.51100000000E-03 0.  1.
         11   -1    0    0    0    0 -0.00000000000E+00 -0.00000000000E+00 -0.45593999997E+02  0.45594000000E+02  0.51100000000E-03 0. -1.
         23    2    1    2    0    0  0.00000000000E+00  0.00000000000E+00  0.00000000000E+00  0.91188000000E+02  0.91188000000E+02 0.  0.
    9900012    2    3    3    0    0  0.55421794107E+01  0.33381684846E+02 -0.14516379419E+02  0.54367110450E+02  0.40000059894E+02 0.  0.
        -12    1    3    3    0    0 -0.55421794107E+01 -0.33381684846E+02  0.14516379419E+02  0.36820889550E+02  0.00000000000E+00 0.  1.
         11    1    4    4    0    0  0.14864036461E+02  0.24214215334E+02 -0.16412456368E+02  0.32812139955E+02  0.51100000000E-03 0. -1.
        -11    1    4    4    0    0 -0.10248200956E+02 -0.13507829358E+01 -0.15401428702E+01  0.10450946259E+02  0.51100000000E-03 0.  1.
         12    1    4    4    0    0  0.92634390618E+00  0.10518252448E+02  0.34362198193E+01  0.11104024236E+02  0.00000000000E+00 0. -1.
</event>
<event>
 8    1  0.2490104E-006  0.9118800E+02  0.7816164E-02  0.1184000E+00
        -11   -1    0    0    0    0  0.00000000000E+00  0.00000000000E+00  0.45593999997E+02  0.45594000000E+02  0.51100000000E-03 0.  1.
         11   -1    0    0    0    0 -0.00000000000E+00 -0.00000000000E+00 -0.45593999997E+02  0.45594000000E+02  0.51100000000E-03 0. -1.
         23    2    1    2    0    0  0.00000000000E+00  0.17763568394E-14  0.88817841970E-15  0.91188000000E+02  0.91188000000E+02 0.  0.
    9900012    2    3    3    0    0  0.35059663421E+02  0.89479073404E+01 -0.68219570612E+01  0.54367025772E+02  0.39999866853E+02 0.  0.
        -12    1    3    3    0    0 -0.35059663421E+02 -0.89479073404E+01  0.68219570612E+01  0.36820974228E+02  0.00000000000E+00 0.  1.
         11    1    4    4    0    0  0.17335657935E+02  0.14479922931E+00 -0.17355088902E+02  0.24530493552E+02  0.51100000000E-03 0. -1.
        -11    1    4    4    0    0  0.63018790296E+01 -0.60274178612E+01  0.59732845620E+01  0.10569937280E+02  0.51100000000E-03 0.  1.
        -12    1    4    4    0    0  0.11422126456E+02  0.14830525972E+02  0.45598472787E+01  0.19266594941E+02  0.00000000000E+00 0.  1.
</event>
<event>
 8    1  0.2490104E-006  0.9118800E+02  0.7816164E-02  0.1184000E+00
        -11   -1    0    0    0    0  0.00000000000E+00  0.00000000000E+00  0.45593999997E+02  0.45594000000E+02  0.51100000000E-03 0. -1.
         11   -1    0    0    0    0 -0.00000000000E+00 -0.00000000000E+00 -0.45593999997E+02  0.45594000000E+02  0.51100000000E-03 0.  1.
         23    2    1    2    0    0 -0.35527136788E-14 -0.44408920985E-15  0.35527136788E-14  0.91188000000E+02  0.91188000000E+02 0.  0.
    9900012    2    3    3    0    0  0.28235913272E+02  0.13210717311E+01 -0.23595914956E+02  0.54367092468E+02  0.40000018900E+02 0.  0.
         12    1    3    3    0    0 -0.28235913272E+02 -0.13210717311E+01  0.23595914956E+02  0.36820907532E+02  0.00000000000E+00 0. -1.
         11    1    4    4    0    0 -0.59300883838E+01 -0.16748155019E+01 -0.83761445343E+01  0.10398593786E+02  0.51100000000E-03 0.  1.
        -11    1    4    4    0    0  0.96249428778E+01 -0.40518804229E+01  0.48283848754E+01  0.11505240594E+02  0.51100000000E-03 0. -1.
         12    1    4    4    0    0  0.24541058778E+02  0.70477676559E+01 -0.20048155297E+02  0.32463258088E+02  0.00000000000E+00 0. -1.
</event>
<event>
 8    1  0.2490104E-006  0.9118800E+02  0.7816164E-02  0.1184000E+00
        -11   -1    0    0    0    0  0.00000000000E+00  0.00000000000E+00  0.45593999997E+02  0.45594000000E+02  0.51100000000E-03 0.  1.
         11   -1    0    0    0    0 -0.00000000000E+00 -0.00000000000E+00 -0.45593999997E+02  0.45594000000E+02  0.51100000000E-03 0. -1.
         23    2    1    2    0    0  0.44408920985E-15 -0.35527136788E-14  0.35527136788E-14  0.91188000000E+02  0.91188000000E+02 0.  0.
    9900012    2    3    3    0    0 -0.32758532026E+01 -0.18913299436E+02  0.31421899905E+02  0.54367083344E+02  0.39999998099E+02 0.  0.
         12    1    3    3    0    0  0.32758532026E+01  0.18913299436E+02 -0.31421899905E+02  0.36820916656E+02  0.00000000000E+00 0. -1.
         11    1    4    4    0    0 -0.21976161013E+01 -0.16425992712E+02  0.19594192119E+02  0.25662718449E+02  0.51100000000E-03 0. -1.
        -11    1    4    4    0    0  0.10836337319E+02 -0.13014780423E+01  0.12644138224E+02  0.16703121962E+02  0.51100000000E-03 0.  1.
         12    1    4    4    0    0 -0.11914574420E+02 -0.11858286809E+01 -0.81643043785E+00  0.12001242933E+02  0.00000000000E+00 0. -1.
</event>
<event>
 8    1  0.2490104E-006  0.9118800E+02  0.7816164E-02  0.1184000E+00
        -11   -1    0    0    0    0  0.00000000000E+00  0.00000000000E+00  0.45593999997E+02  0.45594000000E+02  0.51100000000E-03 0. -1.
         11   -1    0    0    0    0 -0.00000000000E+00 -0.00000000000E+00 -0.45593999997E+02  0.45594000000E+02  0.51100000000E-03 0.  1.
         23    2    1    2    0    0  0.00000000000E+00 -0.22204460493E-14  0.00000000000E+00  0.91188000000E+02  0.91188000000E+02 0.  0.
    9900012    2    3    3    0    0  0.16132872612E+02 -0.33838286007E+01 -0.32925055875E+02  0.54367093180E+02  0.40000020522E+02 0.  0.
         12    1    3    3    0    0 -0.16132872612E+02  0.33838286007E+01  0.32925055875E+02  0.36820906820E+02  0.00000000000E+00 0. -1.
         11    1    4    4    0    0 -0.69340860283E+01 -0.92418692141E+01 -0.91194244029E+01  0.14719293370E+02  0.51100000000E-03 0. -1.
        -11    1    4    4    0    0  0.64100093411E+01  0.92780364478E+01 -0.11712556615E+01  0.11337637327E+02  0.51100000000E-03 0.  1.
        -12    1    4    4    0    0  0.16656949299E+02 -0.34199958343E+01 -0.22634375810E+02  0.28310162482E+02  0.00000000000E+00 0.  1.
</event>
<event>
 8    1  0.2490104E-006  0.9118800E+02  0.7816164E-02  0.1184000E+00
        -11   -1    0    0    0    0  0.00000000000E+00  0.00000000000E+00  0.45593999997E+02  0.45594000000E+02  0.51100000000E-03 0. -1.
         11   -1    0    0    0    0 -0.00000000000E+00 -0.00000000000E+00 -0.45593999997E+02  0.45594000000E+02  0.51100000000E-03 0.  1.
         23    2    1    2    0    0  0.17763568394E-14  0.00000000000E+00  0.00000000000E+00  0.91188000000E+02  0.91188000000E+02 0.  0.
    9900012    2    3    3    0    0 -0.13599347939E+02 -0.12461153870E+02  0.31867849886E+02  0.54367048403E+02  0.39999918445E+02 0.  0.
        -12    1    3    3    0    0  0.13599347939E+02  0.12461153870E+02 -0.31867849886E+02  0.36820951597E+02  0.00000000000E+00 0.  1.
         11    1    4    4    0    0  0.20017436202E+01  0.22511482003E+01 -0.16503530346E-01  0.30124605173E+01  0.51100000000E-03 0. -1.
        -11    1    4    4    0    0 -0.29012214728E+01  0.77657436540E+01  0.22341206037E+02  0.23829673686E+02  0.51100000000E-03 0.  1.
         12    1    4    4    0    0 -0.12699870086E+02 -0.22478045725E+02  0.95431473784E+01  0.27524914200E+02  0.00000000000E+00 0. -1.
</event>
<event>
 8    1  0.2490104E-006  0.9118800E+02  0.7816164E-02  0.1184000E+00
        -11   -1    0    0    0    0  0.00000000000E+00  0.00000000000E+00  0.45593999997E+02  0.45594000000E+02  0.51100000000E-03 0.  1.
         11   -1    0    0    0    0 -0.00000000000E+00 -0.00000000000E+00 -0.45593999997E+02  0.45594000000E+02  0.51100000000E-03 0. -1.
         23    2    1    2    0    0  0.00000000000E+00  0.88817841970E-15  0.00000000000E+00  0.91188000000E+02  0.91188000000E+02 0.  0.
    9900012    2    3    3    0    0 -0.23103676021E+02  0.63117501918E+01  0.27967171429E+02  0.54367072337E+02  0.39999973007E+02 0.  0.
         12    1    3    3    0    0  0.23103676021E+02 -0.63117501918E+01 -0.27967171429E+02  0.36820927663E+02  0.00000000000E+00 0. -1.
         11    1    4    4    0    0  0.31867804808E+01  0.41148866632E+01  0.34521615927E+01  0.62454208831E+01  0.51100000000E-03 0. -1.
        -11    1    4    4    0    0 -0.13187748440E+02 -0.90694341172E+01 -0.23519758747E+01  0.16177241264E+02  0.51100000000E-03 0.  1.
        -12    1    4    4    0    0 -0.13102708062E+02  0.11266297646E+02  0.26866985711E+02  0.31944410190E+02  0.00000000000E+00 0.  1.
</event>
<event>
 8    1  0.2490104E-006  0.9118800E+02  0.7816164E-02  0.1184000E+00
        -11   -1    0    0    0    0  0.00000000000E+00  0.00000000000E+00  0.45593999997E+02  0.45594000000E+02  0.51100000000E-03 0. -1.
         11   -1    0    0    0    0 -0.00000000000E+00 -0.00000000000E+00 -0.45593999997E+02  0.45594000000E+02  0.51100000000E-03 0.  1.
         23    2    1    2    0    0 -0.35527136788E-14  0.35527136788E-14  0.00000000000E+00  0.91188000000E+02  0.91188000000E+02 0.  0.
    9900012    2    3    3    0    0 -0.25882228876E+02  0.19635594921E+02  0.17330139130E+02  0.54367080921E+02  0.39999992576E+02 0.  0.
        -12    1    3    3    0    0  0.25882228876E+02 -0.19635594921E+02 -0.17330139130E+02  0.36820919079E+02  0.00000000000E+00 0.  1.
         11    1    4    4    0    0 -0.85274031675E+01  0.13299331996E+02  0.65303338113E+01  0.17094855842E+02  0.51100000000E-03 0. -1.
        -11    1    4    4    0    0 -0.22330641566E+02 -0.52200285619E+01  0.52796677637E+01  0.23532554959E+02  0.51100000000E-03 0.  1.
        -12    1    4    4    0    0  0.49758158572E+01  0.11556291487E+02  0.55201375554E+01  0.13739670120E+02  0.00000000000E+00 0.  1.
</event>
<event>
 8    1  0.2490104E-006  0.9118800E+02  0.7816164E-02  0.1184000E+00
        -11   -1    0    0    0    0  0.00000000000E+00  0.00000000000E+00  0.45593999997E+02  0.45594000000E+02  0.51100000000E-03 0.  1.
         11   -1    0    0    0    0 -0.00000000000E+00 -0.00000000000E+00 -0.45593999997E+02  0.45594000000E+02  0.51100000000E-03 0. -1.
         23    2    1    2    0    0 -0.35527136788E-14 -0.66613381478E-15  0.00000000000E+00  0.91188000000E+02  0.91188000000E+02 0.  0.
    9900012    2    3    3    0    0  0.10143360793E+02 -0.95963973898E+00 -0.35383200268E+02  0.54367088309E+02  0.40000009418E+02 0.  0.
        -12    1    3    3    0    0 -0.10143360793E+02  0.95963973898E+00  0.35383200268E+02  0.36820911691E+02  0.00000000000E+00 0.  1.
         11    1    4    4    0    0 -0.46161151009E+01  0.14793064931E+02 -0.17422069695E+02  0.23316770818E+02  0.51100000000E-03 0. -1.
        -11    1    4    4    0    0  0.59221843202E+01 -0.14221298790E+02 -0.15259160821E+02  0.21683163875E+02  0.51100000000E-03 0.  1.
         12    1    4    4    0    0  0.88372915735E+01 -0.15314058799E+01 -0.27019697514E+01  0.93671536158E+01  0.00000000000E+00 0. -1.
</event>
<event>
 8    1  0.2490104E-006  0.9118800E+02  0.7816164E-02  0.1184000E+00
        -11   -1    0    0    0    0  0.00000000000E+00  0.00000000000E+00  0.45593999997E+02  0.45594000000E+02  0.51100000000E-03 0.  1.
         11   -1    0    0    0    0 -0.00000000000E+00 -0.00000000000E+00 -0.45593999997E+02  0.45594000000E+02  0.51100000000E-03 0. -1.
         23    2    1    2    0    0  0.00000000000E+00  0.00000000000E+00  0.88817841970E-15  0.91188000000E+02  0.91188000000E+02 0.  0.
    9900012    2    3    3    0    0  0.31811591825E+02  0.17721326240E+02  0.54549988396E+01  0.54367084877E+02  0.40000001594E+02 0.  0.
         12    1    3    3    0    0 -0.31811591825E+02 -0.17721326240E+02 -0.54549988396E+01  0.36820915123E+02  0.00000000000E+00 0. -1.
         11    1    4    4    0    0 -0.25009081287E+01  0.35207782134E+01 -0.33567035968E+01  0.54697239413E+01  0.51100000000E-03 0. -1.
        -11    1    4    4    0    0  0.16968620895E+02  0.22985245514E+02  0.38148104287E+01  0.28823746899E+02  0.51100000000E-03 0.  1.
         12    1    4    4    0    0  0.17343879059E+02 -0.87846974878E+01  0.49968920076E+01  0.20073614037E+02  0.00000000000E+00 0. -1.
</event>
<event>
 8    1  0.2490104E-006  0.9118800E+02  0.7816164E-02  0.1184000E+00
        -11   -1    0    0    0    0  0.00000000000E+00  0.00000000000E+00  0.45593999997E+02  0.45594000000E+02  0.51100000000E-03 0. -1.
         11   -1    0    0    0    0 -0.00000000000E+00 -0.00000000000E+00 -0.45593999997E+02  0.45594000000E+02  0.51100000000E-03 0.  1.
         23    2    1    2    0    0 -0.88817841970E-15  0.00000000000E+00 -0.22204460493E-15  0.91188000000E+02  0.91188000000E+02 0.  0.
    9900012    2    3    3    0    0  0.54560325024E+01  0.36404125854E+02 -0.86694298028E+00  0.54367078501E+02  0.39999987059E+02 0.  0.
        -12    1    3    3    0    0 -0.54560325024E+01 -0.36404125854E+02  0.86694298028E+00  0.36820921499E+02  0.00000000000E+00 0.  1.
         11    1    4    4    0    0  0.84446908912E+01  0.13616204471E+02  0.92969793512E+00  0.16049241943E+02  0.51100000000E-03 0. -1.
        -11    1    4    4    0    0 -0.94650515977E+01  0.24203357463E+02 -0.99337865174E+01  0.27822110435E+02  0.51100000000E-03 0.  1.
        -12    1    4    4    0    0  0.64763932090E+01 -0.14154360797E+01  0.81371456020E+01  0.10495726123E+02  0.00000000000E+00 0.  1.
</event>
<event>
 8    1  0.2490104E-006  0.9118800E+02  0.7816164E-02  0.1184000E+00
        -11   -1    0    0    0    0  0.00000000000E+00  0.00000000000E+00  0.45593999997E+02  0.45594000000E+02  0.51100000000E-03 0. -1.
         11   -1    0    0    0    0 -0.00000000000E+00 -0.00000000000E+00 -0.45593999997E+02  0.45594000000E+02  0.51100000000E-03 0.  1.
         23    2    1    2    0    0  0.00000000000E+00  0.00000000000E+00 -0.35527136788E-14  0.91188000000E+02  0.91188000000E+02 0.  0.
    9900012    2    3    3    0    0  0.18071014414E+02 -0.99988293643E+01  0.30483469530E+02  0.54367081146E+02  0.39999993089E+02 0.  0.
        -12    1    3    3    0    0 -0.18071014414E+02  0.99988293643E+01 -0.30483469530E+02  0.36820918854E+02  0.00000000000E+00 0.  1.
         11    1    4    4    0    0  0.13715729777E+02 -0.59550563728E+01  0.54359215021E+01  0.15910159727E+02  0.51100000000E-03 0. -1.
        -11    1    4    4    0    0  0.56172034340E+01 -0.16041827529E+02  0.12912720034E+02  0.21345527490E+02  0.51100000000E-03 0.  1.
        -12    1    4    4    0    0 -0.12619187964E+01  0.11998054537E+02  0.12134827995E+02  0.17111393929E+02  0.00000000000E+00 0.  1.
</event>
<event>
 8    1  0.2490104E-006  0.9118800E+02  0.7816164E-02  0.1184000E+00
        -11   -1    0    0    0    0  0.00000000000E+00  0.00000000000E+00  0.45593999997E+02  0.45594000000E+02  0.51100000000E-03 0.  1.
         11   -1    0    0    0    0 -0.00000000000E+00 -0.00000000000E+00 -0.45593999997E+02  0.45594000000E+02  0.51100000000E-03 0. -1.
         23    2    1    2    0    0 -0.14432899320E-14  0.00000000000E+00  0.00000000000E+00  0.91188000000E+02  0.91188000000E+02 0.  0.
    9900012    2    3    3    0    0 -0.49854733825E+00  0.75777504050E+01  0.36029290098E+02  0.54367073944E+02  0.39999976671E+02 0.  0.
         12    1    3    3    0    0  0.49854733825E+00 -0.75777504050E+01 -0.36029290098E+02  0.36820926056E+02  0.00000000000E+00 0. -1.
         11    1    4    4    0    0  0.68457647009E+01 -0.39636521576E+01  0.29718024246E+02  0.30752820978E+02  0.51100000000E-03 0. -1.
        -11    1    4    4    0    0 -0.77413356607E+01  0.11675649845E+02  0.11673831780E+02  0.18235334541E+02  0.51100000000E-03 0.  1.
         12    1    4    4    0    0  0.39702362153E+00 -0.13424728214E+00 -0.53625659288E+01  0.53789184257E+01  0.00000000000E+00 0. -1.
</event>
<event>
 8    1  0.2490104E-006  0.9118800E+02  0.7816164E-02  0.1184000E+00
        -11   -1    0    0    0    0  0.00000000000E+00  0.00000000000E+00  0.45593999997E+02  0.45594000000E+02  0.51100000000E-03 0. -1.
         11   -1    0    0    0    0 -0.00000000000E+00 -0.00000000000E+00 -0.45593999997E+02  0.45594000000E+02  0.51100000000E-03 0.  1.
         23    2    1    2    0    0  0.00000000000E+00  0.00000000000E+00  0.35527136788E-14  0.91188000000E+02  0.91188000000E+02 0.  0.
    9900012    2    3    3    0    0 -0.30889831662E+02 -0.99581442295E+01  0.17390638293E+02  0.54367073384E+02  0.39999975394E+02 0.  0.
        -12    1    3    3    0    0  0.30889831662E+02  0.99581442295E+01 -0.17390638293E+02  0.36820926616E+02  0.00000000000E+00 0.  1.
         11    1    4    4    0    0  0.50604408303E+00  0.30501382063E+01  0.41344947220E+01  0.51626999293E+01  0.51100000000E-03 0. -1.
        -11    1    4    4    0    0 -0.20871560691E+01 -0.80258563551E+01  0.17315908538E+02  0.19199252054E+02  0.51100000000E-03 0.  1.
         12    1    4    4    0    0 -0.29308719676E+02 -0.49824260807E+01 -0.40597649668E+01  0.30005121401E+02  0.00000000000E+00 0. -1.
</event>
<event>
 8    1  0.2490104E-006  0.9118800E+02  0.7816164E-02  0.1184000E+00
        -11   -1    0    0    0    0  0.00000000000E+00  0.00000000000E+00  0.45593999997E+02  0.45594000000E+02  0.51100000000E-03 0. -1.
         11   -1    0    0    0    0 -0.00000000000E+00 -0.00000000000E+00 -0.45593999997E+02  0.45594000000E+02  0.51100000000E-03 0.  1.
         23    2    1    2    0    0 -0.35527136788E-14  0.44408920985E-15  0.00000000000E+00  0.91188000000E+02  0.91188000000E+02 0.  0.
    9900012    2    3    3    0    0  0.25305016603E+02 -0.19009468681E+01  0.26679991874E+02  0.54367089763E+02  0.40000012734E+02 0.  0.
        -12    1    3    3    0    0 -0.25305016603E+02  0.19009468681E+01 -0.26679991874E+02  0.36820910237E+02  0.00000000000E+00 0.  1.
         11    1    4    4    0    0  0.32939288287E+02  0.43868887989E+01  0.16544577355E+02  0.37120944847E+02  0.51100000000E-03 0. -1.
        -11    1    4    4    0    0 -0.46613614292E+01 -0.57218011957E+01  0.11704683802E+02  0.13837157312E+02  0.51100000000E-03 0.  1.
         12    1    4    4    0    0 -0.29729102551E+01 -0.56603447134E+00 -0.15692692832E+01  0.34089876050E+01  0.00000000000E+00 0. -1.
</event>
<event>
 8    1  0.2490104E-006  0.9118800E+02  0.7816164E-02  0.1184000E+00
        -11   -1    0    0    0    0  0.00000000000E+00  0.00000000000E+00  0.45593999997E+02  0.45594000000E+02  0.51100000000E-03 0. -1.
         11   -1    0    0    0    0 -0.00000000000E+00 -0.00000000000E+00 -0.45593999997E+02  0.45594000000E+02  0.51100000000E-03 0.  1.
         23    2    1    2    0    0  0.26645352591E-14  0.00000000000E+00  0.55511151231E-16  0.91188000000E+02  0.91188000000E+02 0.  0.
    9900012    2    3    3    0    0 -0.26652779299E+01  0.36723661477E+02  0.22192318348E+00  0.54367078385E+02  0.39999986793E+02 0.  0.
         12    1    3    3    0    0  0.26652779299E+01 -0.36723661477E+02 -0.22192318348E+00  0.36820921615E+02  0.00000000000E+00 0. -1.
         11    1    4    4    0    0 -0.17325604138E+02  0.23112044240E+02  0.49372597886E+01  0.29303919229E+02  0.51100000000E-03 0. -1.
        -11    1    4    4    0    0  0.46520524749E+01 -0.22046043890E+01  0.14649731966E+01  0.53523844657E+01  0.51100000000E-03 0.  1.
         12    1    4    4    0    0  0.10008273733E+02  0.15816221626E+02 -0.61803098017E+01  0.19710774690E+02  0.00000000000E+00 0. -1.
</event>
<event>
 8    1  0.2490104E-006  0.9118800E+02  0.7816164E-02  0.1184000E+00
        -11   -1    0    0    0    0  0.00000000000E+00  0.00000000000E+00  0.45593999997E+02  0.45594000000E+02  0.51100000000E-03 0.  1.
         11   -1    0    0    0    0 -0.00000000000E+00 -0.00000000000E+00 -0.45593999997E+02  0.45594000000E+02  0.51100000000E-03 0. -1.
         23    2    1    2    0    0  0.00000000000E+00 -0.71054273576E-14 -0.17763568394E-14  0.91188000000E+02  0.91188000000E+02 0.  0.
    9900012    2    3    3    0    0 -0.89370994995E+01  0.33910242151E+02 -0.11225102424E+02  0.54367092968E+02  0.40000020040E+02 0.  0.
        -12    1    3    3    0    0  0.89370994995E+01 -0.33910242151E+02  0.11225102424E+02  0.36820907032E+02  0.00000000000E+00 0.  1.
         11    1    4    4    0    0 -0.30994273198E+01  0.50579410155E+01 -0.36783174079E+01  0.69799166357E+01  0.51100000000E-03 0. -1.
        -11    1    4    4    0    0 -0.53020842583E+01  0.14240327448E+02  0.14453253825E+02  0.20971303481E+02  0.51100000000E-03 0.  1.
         12    1    4    4    0    0 -0.53558792137E+00  0.14611973688E+02 -0.22000038841E+02  0.26415872851E+02  0.00000000000E+00 0. -1.
</event>
<event>
 8    1  0.2490104E-006  0.9118800E+02  0.7816164E-02  0.1184000E+00
        -11   -1    0    0    0    0  0.00000000000E+00  0.00000000000E+00  0.45593999997E+02  0.45594000000E+02  0.51100000000E-03 0.  1.
         11   -1    0    0    0    0 -0.00000000000E+00 -0.00000000000E+00 -0.45593999997E+02  0.45594000000E+02  0.51100000000E-03 0. -1.
         23    2    1    2    0    0  0.22204460493E-15  0.35527136788E-14  0.71054273576E-14  0.91188000000E+02  0.91188000000E+02 0.  0.
    9900012    2    3    3    0    0  0.17739655224E+01  0.20174771871E+02 -0.30750787625E+02  0.54367091357E+02  0.40000016367E+02 0.  0.
        -12    1    3    3    0    0 -0.17739655224E+01 -0.20174771871E+02  0.30750787625E+02  0.36820908643E+02  0.00000000000E+00 0.  1.
         11    1    4    4    0    0  0.60304794994E+01  0.12599754536E+02  0.55863252772E+01  0.15044185844E+02  0.51100000000E-03 0. -1.
        -11    1    4    4    0    0 -0.42116619406E+01 -0.15357874381E+01 -0.51287238946E+01  0.68117948006E+01  0.51100000000E-03 0.  1.
         12    1    4    4    0    0 -0.44852036290E-01  0.91108047734E+01 -0.31208389007E+02  0.32511110712E+02  0.00000000000E+00 0. -1.
</event>
<event>
 8    1  0.2490104E-006  0.9118800E+02  0.7816164E-02  0.1184000E+00
        -11   -1    0    0    0    0  0.00000000000E+00  0.00000000000E+00  0.45593999997E+02  0.45594000000E+02  0.51100000000E-03 0.  1.
         11   -1    0    0    0    0 -0.00000000000E+00 -0.00000000000E+00 -0.45593999997E+02  0.45594000000E+02  0.51100000000E-03 0. -1.
         23    2    1    2    0    0 -0.17763568394E-14  0.17763568394E-14  0.00000000000E+00  0.91188000000E+02  0.91188000000E+02 0.  0.
    9900012    2    3    3    0    0 -0.11304711481E+02  0.11424392914E+02 -0.33128035707E+02  0.54367081965E+02  0.39999994956E+02 0.  0.
        -12    1    3    3    0    0  0.11304711481E+02 -0.11424392914E+02  0.33128035707E+02  0.36820918035E+02  0.00000000000E+00 0.  1.
         11    1    4    4    0    0 -0.46041528288E+01  0.18015736871E+01 -0.98741049656E+01  0.11042727931E+02  0.51100000000E-03 0. -1.
        -11    1    4    4    0    0 -0.19990433440E+02  0.26889495549E+00 -0.15611055136E+02  0.25365227701E+02  0.51100000000E-03 0.  1.
         12    1    4    4    0    0  0.13289874787E+02  0.93539242714E+01 -0.76428756059E+01  0.17959126334E+02  0.00000000000E+00 0. -1.
</event>
<event>
 8    1  0.2490104E-006  0.9118800E+02  0.7816164E-02  0.1184000E+00
        -11   -1    0    0    0    0  0.00000000000E+00  0.00000000000E+00  0.45593999997E+02  0.45594000000E+02  0.51100000000E-03 0.  1.
         11   -1    0    0    0    0 -0.00000000000E+00 -0.00000000000E+00 -0.45593999997E+02  0.45594000000E+02  0.51100000000E-03 0. -1.
         23    2    1    2    0    0  0.00000000000E+00  0.00000000000E+00  0.00000000000E+00  0.91188000000E+02  0.91188000000E+02 0.  0.
    9900012    2    3    3    0    0  0.34771265826E+02 -0.10481387203E+02 -0.60727859173E+01  0.54367093797E+02  0.40000021929E+02 0.  0.
        -12    1    3    3    0    0 -0.34771265826E+02  0.10481387203E+02  0.60727859173E+01  0.36820906203E+02  0.00000000000E+00 0.  1.
         11    1    4    4    0    0  0.32116237282E+02 -0.11259348703E+02 -0.82395576752E+01  0.35015938390E+02  0.51100000000E-03 0. -1.
        -11    1    4    4    0    0  0.99959058255E+01  0.27644365051E+01  0.46294248888E+01  0.11357456473E+02  0.51100000000E-03 0.  1.
        -12    1    4    4    0    0 -0.73408772818E+01 -0.19864750050E+01 -0.24626531309E+01  0.79936989345E+01  0.00000000000E+00 0.  1.
</event>
<event>
 8    1  0.2490104E-006  0.9118800E+02  0.7816164E-02  0.1184000E+00
        -11   -1    0    0    0    0  0.00000000000E+00  0.00000000000E+00  0.45593999997E+02  0.45594000000E+02  0.51100000000E-03 0. -1.
         11   -1    0    0    0    0 -0.00000000000E+00 -0.00000000000E+00 -0.45593999997E+02  0.45594000000E+02  0.51100000000E-03 0.  1.
         23    2    1    2    0    0  0.00000000000E+00  0.00000000000E+00  0.53290705182E-14  0.91188000000E+02  0.91188000000E+02 0.  0.
    9900012    2    3    3    0    0 -0.19774756163E+02  0.29738614890E+02  0.89639924093E+01  0.54367090767E+02  0.40000015020E+02 0.  0.
        -12    1    3    3    0    0  0.19774756163E+02 -0.29738614890E+02 -0.89639924093E+01  0.36820909233E+02  0.00000000000E+00 0.  1.
         11    1    4    4    0    0  0.44662902658E+01  0.11917265721E+02  0.15977836381E+02  0.20426948541E+02  0.51100000000E-03 0.  1.
        -11    1    4    4    0    0 -0.19763786560E+02  0.70966233321E+01 -0.75257805705E+01  0.22307099662E+02  0.51100000000E-03 0. -1.
        -12    1    4    4    0    0 -0.44772598688E+01  0.10724725837E+02  0.51193659901E+00  0.11633042563E+02  0.00000000000E+00 0.  1.
</event>
<event>
 8    1  0.2490104E-006  0.9118800E+02  0.7816164E-02  0.1184000E+00
        -11   -1    0    0    0    0  0.00000000000E+00  0.00000000000E+00  0.45593999997E+02  0.45594000000E+02  0.51100000000E-03 0. -1.
         11   -1    0    0    0    0 -0.00000000000E+00 -0.00000000000E+00 -0.45593999997E+02  0.45594000000E+02  0.51100000000E-03 0.  1.
         23    2    1    2    0    0  0.00000000000E+00  0.00000000000E+00 -0.17763568394E-14  0.91188000000E+02  0.91188000000E+02 0.  0.
    9900012    2    3    3    0    0  0.20249588014E+02 -0.27205264018E+02  0.14339111755E+02  0.54367050380E+02  0.39999922950E+02 0.  0.
        -12    1    3    3    0    0 -0.20249588014E+02  0.27205264018E+02 -0.14339111755E+02  0.36820949620E+02  0.00000000000E+00 0.  1.
         11    1    4    4    0    0 -0.13323269729E+01 -0.95252401903E+01  0.84952187177E+01  0.12832538220E+02  0.51100000000E-03 0. -1.
        -11    1    4    4    0    0  0.93378312681E+01 -0.37656744514E+01  0.17104182353E+02  0.19847630868E+02  0.51100000000E-03 0.  1.
         12    1    4    4    0    0  0.12244083718E+02 -0.13914349376E+02 -0.11260289315E+02  0.21686881291E+02  0.00000000000E+00 0. -1.
</event>
<event>
 8    1  0.2490104E-006  0.9118800E+02  0.7816164E-02  0.1184000E+00
        -11   -1    0    0    0    0  0.00000000000E+00  0.00000000000E+00  0.45593999997E+02  0.45594000000E+02  0.51100000000E-03 0.  1.
         11   -1    0    0    0    0 -0.00000000000E+00 -0.00000000000E+00 -0.45593999997E+02  0.45594000000E+02  0.51100000000E-03 0. -1.
         23    2    1    2    0    0 -0.17763568394E-14  0.88817841970E-15  0.00000000000E+00  0.91188000000E+02  0.91188000000E+02 0.  0.
    9900012    2    3    3    0    0  0.89850568549E+01  0.18113732875E+00 -0.35707371515E+02  0.54367076086E+02  0.39999981553E+02 0.  0.
        -12    1    3    3    0    0 -0.89850568549E+01 -0.18113732875E+00  0.35707371515E+02  0.36820923914E+02  0.00000000000E+00 0.  1.
         11    1    4    4    0    0  0.18804105177E+02  0.73197067999E+01 -0.11358584262E+02  0.23155775000E+02  0.51100000000E-03 0. -1.
        -11    1    4    4    0    0 -0.81900686542E+01 -0.54909110059E+01 -0.26359575876E+02  0.28143464052E+02  0.51100000000E-03 0.  1.
         12    1    4    4    0    0 -0.16289796683E+01 -0.16476584653E+01  0.20107886230E+01  0.30678370336E+01  0.00000000000E+00 0. -1.
</event>
<event>
 8    1  0.2490104E-006  0.9118800E+02  0.7816164E-02  0.1184000E+00
        -11   -1    0    0    0    0  0.00000000000E+00  0.00000000000E+00  0.45593999997E+02  0.45594000000E+02  0.51100000000E-03 0.  1.
         11   -1    0    0    0    0 -0.00000000000E+00 -0.00000000000E+00 -0.45593999997E+02  0.45594000000E+02  0.51100000000E-03 0. -1.
         23    2    1    2    0    0  0.35527136788E-14  0.00000000000E+00  0.00000000000E+00  0.91188000000E+02  0.91188000000E+02 0.  0.
    9900012    2    3    3    0    0  0.31890460710E+02 -0.13176534763E+02 -0.12851205607E+02  0.54367135830E+02  0.40000117751E+02 0.  0.
        -12    1    3    3    0    0 -0.31890460710E+02  0.13176534763E+02  0.12851205607E+02  0.36820864170E+02  0.00000000000E+00 0.  1.
         11    1    4    4    0    0  0.14465592973E+01 -0.12733222101E+01  0.88595477529E+01  0.90667232173E+01  0.51100000000E-03 0.  1.
        -11    1    4    4    0    0  0.30809006648E+02 -0.15217277042E+02 -0.14385130556E+02  0.37251743484E+02  0.51100000000E-03 0. -1.
         12    1    4    4    0    0 -0.36510523530E+00  0.33140644891E+01 -0.73256228041E+01  0.80486691284E+01  0.00000000000E+00 0. -1.
</event>
<event>
 8    1  0.2490104E-006  0.9118800E+02  0.7816164E-02  0.1184000E+00
        -11   -1    0    0    0    0  0.00000000000E+00  0.00000000000E+00  0.45593999997E+02  0.45594000000E+02  0.51100000000E-03 0.  1.
         11   -1    0    0    0    0 -0.00000000000E+00 -0.00000000000E+00 -0.45593999997E+02  0.45594000000E+02  0.51100000000E-03 0. -1.
         23    2    1    2    0    0  0.17763568394E-14 -0.17763568394E-14  0.71054273576E-14  0.91188000000E+02  0.91188000000E+02 0.  0.
    9900012    2    3    3    0    0  0.97647707529E+01 -0.10823636540E+02 -0.33812392524E+02  0.54367085508E+02  0.40000003032E+02 0.  0.
        -12    1    3    3    0    0 -0.97647707529E+01  0.10823636540E+02  0.33812392524E+02  0.36820914492E+02  0.00000000000E+00 0.  1.
         11    1    4    4    0    0 -0.36863026347E+01  0.49518266420E+01 -0.72202527177E+01  0.94995507145E+01  0.51100000000E-03 0.  1.
        -11    1    4    4    0    0  0.18098018331E+02 -0.12106454218E+02 -0.30717018028E+02  0.37651556382E+02  0.51100000000E-03 0. -1.
        -12    1    4    4    0    0 -0.46469449437E+01 -0.36690089644E+01  0.41248782209E+01  0.72159784110E+01  0.00000000000E+00 0.  1.
</event>
<event>
 8    1  0.2490104E-006  0.9118800E+02  0.7816164E-02  0.1184000E+00
        -11   -1    0    0    0    0  0.00000000000E+00  0.00000000000E+00  0.45593999997E+02  0.45594000000E+02  0.51100000000E-03 0.  1.
         11   -1    0    0    0    0 -0.00000000000E+00 -0.00000000000E+00 -0.45593999997E+02  0.45594000000E+02  0.51100000000E-03 0. -1.
         23    2    1    2    0    0  0.00000000000E+00  0.00000000000E+00  0.00000000000E+00  0.91188000000E+02  0.91188000000E+02 0.  0.
    9900012    2    3    3    0    0  0.30460932177E+02  0.17361022431E+02 -0.11247504716E+02  0.54367084052E+02  0.39999999712E+02 0.  0.
        -12    1    3    3    0    0 -0.30460932177E+02 -0.17361022431E+02  0.11247504716E+02  0.36820915948E+02  0.00000000000E+00 0.  1.
         11    1    4    4    0    0  0.36374970677E+02  0.14795190546E+02 -0.52982546771E+01  0.39624584010E+02  0.51100000000E-03 0. -1.
        -11    1    4    4    0    0  0.13696865260E+01 -0.10672569966E+01 -0.63598381240E+01  0.65926185921E+01  0.51100000000E-03 0.  1.
         12    1    4    4    0    0 -0.72837250258E+01  0.36330888814E+01  0.41058808540E+00  0.81498814499E+01  0.00000000000E+00 0. -1.
</event>
<event>
 8    1  0.2490104E-006  0.9118800E+02  0.7816164E-02  0.1184000E+00
        -11   -1    0    0    0    0  0.00000000000E+00  0.00000000000E+00  0.45593999997E+02  0.45594000000E+02  0.51100000000E-03 0.  1.
         11   -1    0    0    0    0 -0.00000000000E+00 -0.00000000000E+00 -0.45593999997E+02  0.45594000000E+02  0.51100000000E-03 0. -1.
         23    2    1    2    0    0  0.00000000000E+00  0.00000000000E+00  0.00000000000E+00  0.91188000000E+02  0.91188000000E+02 0.  0.
    9900012    2    3    3    0    0 -0.99504926007E+01  0.34179901342E+02  0.94073093478E+01  0.54367144118E+02  0.40000136645E+02 0.  0.
        -12    1    3    3    0    0  0.99504926007E+01 -0.34179901342E+02 -0.94073093478E+01  0.36820855882E+02  0.00000000000E+00 0.  1.
         11    1    4    4    0    0 -0.57443014373E+01  0.27520126146E+02  0.23275082421E+02  0.36497723272E+02  0.51100000000E-03 0. -1.
        -11    1    4    4    0    0  0.71946042166E+00  0.50632468507E+01 -0.10537629720E+02  0.11713058197E+02  0.51100000000E-03 0.  1.
         12    1    4    4    0    0 -0.49256515851E+01  0.15965283454E+01 -0.33301433540E+01  0.61563626479E+01  0.00000000000E+00 0. -1.
</event>
<event>
 8    1  0.2490104E-006  0.9118800E+02  0.7816164E-02  0.1184000E+00
        -11   -1    0    0    0    0  0.00000000000E+00  0.00000000000E+00  0.45593999997E+02  0.45594000000E+02  0.51100000000E-03 0. -1.
         11   -1    0    0    0    0 -0.00000000000E+00 -0.00000000000E+00 -0.45593999997E+02  0.45594000000E+02  0.51100000000E-03 0.  1.
         23    2    1    2    0    0 -0.17763568394E-14  0.00000000000E+00 -0.88817841970E-15  0.91188000000E+02  0.91188000000E+02 0.  0.
    9900012    2    3    3    0    0  0.11773672289E+02 -0.34444412015E+02 -0.55446536346E+01  0.54367081188E+02  0.39999993185E+02 0.  0.
         12    1    3    3    0    0 -0.11773672289E+02  0.34444412015E+02  0.55446536346E+01  0.36820918812E+02  0.00000000000E+00 0. -1.
         11    1    4    4    0    0  0.12606186849E+02 -0.93034333477E+01 -0.22596537498E+01  0.15829587937E+02  0.51100000000E-03 0. -1.
        -11    1    4    4    0    0  0.12744777957E+02 -0.16826865316E+02  0.31942131358E+01  0.21348905343E+02  0.51100000000E-03 0.  1.
        -12    1    4    4    0    0 -0.13577292517E+02 -0.83141133511E+01 -0.64792130207E+01  0.17188587908E+02  0.00000000000E+00 0.  1.
</event>
<event>
 8    1  0.2490104E-006  0.9118800E+02  0.7816164E-02  0.1184000E+00
        -11   -1    0    0    0    0  0.00000000000E+00  0.00000000000E+00  0.45593999997E+02  0.45594000000E+02  0.51100000000E-03 0. -1.
         11   -1    0    0    0    0 -0.00000000000E+00 -0.00000000000E+00 -0.45593999997E+02  0.45594000000E+02  0.51100000000E-03 0.  1.
         23    2    1    2    0    0  0.00000000000E+00  0.00000000000E+00  0.35527136788E-14  0.91188000000E+02  0.91188000000E+02 0.  0.
    9900012    2    3    3    0    0  0.31006344956E+02 -0.11594262142E+02 -0.16123167135E+02  0.54367124663E+02  0.40000092294E+02 0.  0.
        -12    1    3    3    0    0 -0.31006344956E+02  0.11594262142E+02  0.16123167135E+02  0.36820875337E+02  0.00000000000E+00 0.  1.
         11    1    4    4    0    0  0.12129790275E+02 -0.11702513078E+02  0.21125877562E+01  0.16986572690E+02  0.51100000000E-03 0. -1.
        -11    1    4    4    0    0 -0.26017320002E+00 -0.65226235788E+01 -0.15657948463E+02  0.16964187537E+02  0.51100000000E-03 0.  1.
         12    1    4    4    0    0  0.19136727881E+02  0.66308745150E+01 -0.25778064284E+01  0.20416364437E+02  0.00000000000E+00 0. -1.
</event>
<event>
 8    1  0.2490104E-006  0.9118800E+02  0.7816164E-02  0.1184000E+00
        -11   -1    0    0    0    0  0.00000000000E+00  0.00000000000E+00  0.45593999997E+02  0.45594000000E+02  0.51100000000E-03 0. -1.
         11   -1    0    0    0    0 -0.00000000000E+00 -0.00000000000E+00 -0.45593999997E+02  0.45594000000E+02  0.51100000000E-03 0.  1.
         23    2    1    2    0    0  0.88817841970E-15  0.00000000000E+00  0.00000000000E+00  0.91188000000E+02  0.91188000000E+02 0.  0.
    9900012    2    3    3    0    0 -0.48404760199E+01 -0.84562568054E+01  0.35508380977E+02  0.54367033053E+02  0.39999883451E+02 0.  0.
        -12    1    3    3    0    0  0.48404760199E+01  0.84562568054E+01 -0.35508380977E+02  0.36820966947E+02  0.00000000000E+00 0.  1.
         11    1    4    4    0    0 -0.12189878673E+02  0.34328684944E+01  0.32753883371E+02  0.35116870651E+02  0.51100000000E-03 0. -1.
        -11    1    4    4    0    0  0.97975726374E+01 -0.62590645215E+01  0.50768076682E+01  0.12686303427E+02  0.51100000000E-03 0.  1.
        -12    1    4    4    0    0 -0.24481699839E+01 -0.56300607782E+01 -0.23223100614E+01  0.65638589761E+01  0.00000000000E+00 0.  1.
</event>
<event>
 8    1  0.2490104E-006  0.9118800E+02  0.7816164E-02  0.1184000E+00
        -11   -1    0    0    0    0  0.00000000000E+00  0.00000000000E+00  0.45593999997E+02  0.45594000000E+02  0.51100000000E-03 0. -1.
         11   -1    0    0    0    0 -0.00000000000E+00 -0.00000000000E+00 -0.45593999997E+02  0.45594000000E+02  0.51100000000E-03 0.  1.
         23    2    1    2    0    0  0.00000000000E+00 -0.44408920985E-15 -0.88817841970E-15  0.91188000000E+02  0.91188000000E+02 0.  0.
    9900012    2    3    3    0    0 -0.36428940668E+02 -0.29638906119E+01 -0.44640400806E+01  0.54367081766E+02  0.39999994501E+02 0.  0.
         12    1    3    3    0    0  0.36428940668E+02  0.29638906119E+01  0.44640400806E+01  0.36820918234E+02  0.00000000000E+00 0. -1.
         11    1    4    4    0    0  0.25781088112E+01 -0.24065143896E+01  0.27773962530E+01  0.44890852918E+01  0.51100000000E-03 0. -1.
        -11    1    4    4    0    0 -0.30386466412E+02 -0.73154239518E+01  0.68832720805E+01  0.32003627973E+02  0.51100000000E-03 0.  1.
        -12    1    4    4    0    0 -0.86205830670E+01  0.67580477296E+01 -0.14124708414E+02  0.17874368501E+02  0.00000000000E+00 0.  1.
</event>
<event>
 8    1  0.2490104E-006  0.9118800E+02  0.7816164E-02  0.1184000E+00
        -11   -1    0    0    0    0  0.00000000000E+00  0.00000000000E+00  0.45593999997E+02  0.45594000000E+02  0.51100000000E-03 0.  1.
         11   -1    0    0    0    0 -0.00000000000E+00 -0.00000000000E+00 -0.45593999997E+02  0.45594000000E+02  0.51100000000E-03 0. -1.
         23    2    1    2    0    0  0.00000000000E+00  0.17763568394E-14  0.00000000000E+00  0.91188000000E+02  0.91188000000E+02 0.  0.
    9900012    2    3    3    0    0  0.16351078212E+02  0.10221395850E+02 -0.31367899932E+02  0.54367084233E+02  0.40000000125E+02 0.  0.
        -12    1    3    3    0    0 -0.16351078212E+02 -0.10221395850E+02  0.31367899932E+02  0.36820915767E+02  0.00000000000E+00 0.  1.
         11    1    4    4    0    0  0.17533669781E+01  0.11187728524E+02 -0.11811460962E+02  0.16363073538E+02  0.51100000000E-03 0. -1.
        -11    1    4    4    0    0  0.21929966675E+02  0.89818442771E+00 -0.20914561468E+02  0.30317471123E+02  0.51100000000E-03 0.  1.
         12    1    4    4    0    0 -0.73322554411E+01 -0.18645171012E+01  0.13581224982E+01  0.76865395721E+01  0.00000000000E+00 0. -1.
</event>
<event>
 8    1  0.2490104E-006  0.9118800E+02  0.7816164E-02  0.1184000E+00
        -11   -1    0    0    0    0  0.00000000000E+00  0.00000000000E+00  0.45593999997E+02  0.45594000000E+02  0.51100000000E-03 0.  1.
         11   -1    0    0    0    0 -0.00000000000E+00 -0.00000000000E+00 -0.45593999997E+02  0.45594000000E+02  0.51100000000E-03 0. -1.
         23    2    1    2    0    0  0.00000000000E+00 -0.12073675393E-14  0.00000000000E+00  0.91188000000E+02  0.91188000000E+02 0.  0.
    9900012    2    3    3    0    0 -0.97854825704E+01  0.58364688878E-01  0.35496772935E+02  0.54367082515E+02  0.39999996210E+02 0.  0.
         12    1    3    3    0    0  0.97854825704E+01 -0.58364688878E-01 -0.35496772935E+02  0.36820917485E+02  0.00000000000E+00 0. -1.
         11    1    4    4    0    0  0.10389934185E+02  0.32455052144E+01  0.96267846850E+01  0.14531311713E+02  0.51100000000E-03 0. -1.
        -11    1    4    4    0    0 -0.15473493425E+02  0.53260204907E+01  0.55012639752E+01  0.17264396851E+02  0.51100000000E-03 0.  1.
         12    1    4    4    0    0 -0.47019233301E+01 -0.85131610162E+01  0.20368724275E+02  0.22571373952E+02  0.00000000000E+00 0. -1.
</event>
<event>
 8    1  0.2490104E-006  0.9118800E+02  0.7816164E-02  0.1184000E+00
        -11   -1    0    0    0    0  0.00000000000E+00  0.00000000000E+00  0.45593999997E+02  0.45594000000E+02  0.51100000000E-03 0.  1.
         11   -1    0    0    0    0 -0.00000000000E+00 -0.00000000000E+00 -0.45593999997E+02  0.45594000000E+02  0.51100000000E-03 0. -1.
         23    2    1    2    0    0  0.17763568394E-14  0.00000000000E+00 -0.35527136788E-14  0.91188000000E+02  0.91188000000E+02 0.  0.
    9900012    2    3    3    0    0  0.13450498993E+02 -0.23610809243E+02 -0.24847415196E+02  0.54367078254E+02  0.39999986497E+02 0.  0.
        -12    1    3    3    0    0 -0.13450498993E+02  0.23610809243E+02  0.24847415196E+02  0.36820921746E+02  0.00000000000E+00 0.  1.
         11    1    4    4    0    0  0.35533054777E+01 -0.72599792182E+01 -0.68665227616E+01  0.10605772634E+02  0.51100000000E-03 0. -1.
        -11    1    4    4    0    0  0.18451678361E+02 -0.22546424838E+02 -0.11218274518E+02  0.31219471340E+02  0.51100000000E-03 0.  1.
        -12    1    4    4    0    0 -0.85544848451E+01  0.61955948131E+01 -0.67626179160E+01  0.12541834281E+02  0.00000000000E+00 0.  1.
</event>
<event>
 8    1  0.2490104E-006  0.9118800E+02  0.7816164E-02  0.1184000E+00
        -11   -1    0    0    0    0  0.00000000000E+00  0.00000000000E+00  0.45593999997E+02  0.45594000000E+02  0.51100000000E-03 0.  1.
         11   -1    0    0    0    0 -0.00000000000E+00 -0.00000000000E+00 -0.45593999997E+02  0.45594000000E+02  0.51100000000E-03 0. -1.
         23    2    1    2    0    0 -0.88817841970E-15  0.00000000000E+00  0.35527136788E-14  0.91188000000E+02  0.91188000000E+02 0.  0.
    9900012    2    3    3    0    0 -0.49002116599E+01  0.24886734312E+02  0.26691164624E+02  0.54367083552E+02  0.39999998574E+02 0.  0.
         12    1    3    3    0    0  0.49002116599E+01 -0.24886734312E+02 -0.26691164624E+02  0.36820916448E+02  0.00000000000E+00 0. -1.
         11    1    4    4    0    0 -0.70150892731E+01  0.26416049481E+02  0.11758608741E+02  0.29753722918E+02  0.51100000000E-03 0. -1.
        -11    1    4    4    0    0 -0.59241682116E+01  0.59819050593E+01  0.50044710857E+01  0.97940639290E+01  0.51100000000E-03 0.  1.
        -12    1    4    4    0    0  0.80390458248E+01 -0.75112202279E+01  0.99280847977E+01  0.14819296705E+02  0.00000000000E+00 0.  1.
</event>
<event>
 8    1  0.2490104E-006  0.9118800E+02  0.7816164E-02  0.1184000E+00
        -11   -1    0    0    0    0  0.00000000000E+00  0.00000000000E+00  0.45593999997E+02  0.45594000000E+02  0.51100000000E-03 0.  1.
         11   -1    0    0    0    0 -0.00000000000E+00 -0.00000000000E+00 -0.45593999997E+02  0.45594000000E+02  0.51100000000E-03 0. -1.
         23    2    1    2    0    0  0.00000000000E+00  0.00000000000E+00 -0.17763568394E-14  0.91188000000E+02  0.91188000000E+02 0.  0.
    9900012    2    3    3    0    0 -0.16795671560E+02  0.30589294276E+02  0.11746317451E+02  0.54367143395E+02  0.40000134997E+02 0.  0.
         12    1    3    3    0    0  0.16795671560E+02 -0.30589294276E+02 -0.11746317451E+02  0.36820856605E+02  0.00000000000E+00 0. -1.
         11    1    4    4    0    0  0.35481837546E+01  0.15427152885E+02 -0.25550650338E+01  0.16034806257E+02  0.51100000000E-03 0. -1.
        -11    1    4    4    0    0  0.41066880691E+01 -0.18182262309E+00 -0.26173696634E+01  0.48732505147E+01  0.51100000000E-03 0.  1.
        -12    1    4    4    0    0 -0.24450543384E+02  0.15343964014E+02  0.16918752148E+02  0.33459086623E+02  0.00000000000E+00 0.  1.
</event>
<event>
 8    1  0.2490104E-006  0.9118800E+02  0.7816164E-02  0.1184000E+00
        -11   -1    0    0    0    0  0.00000000000E+00  0.00000000000E+00  0.45593999997E+02  0.45594000000E+02  0.51100000000E-03 0. -1.
         11   -1    0    0    0    0 -0.00000000000E+00 -0.00000000000E+00 -0.45593999997E+02  0.45594000000E+02  0.51100000000E-03 0.  1.
         23    2    1    2    0    0  0.88817841970E-15  0.00000000000E+00  0.00000000000E+00  0.91188000000E+02  0.91188000000E+02 0.  0.
    9900012    2    3    3    0    0  0.36363924881E+01  0.30998296352E+02  0.19536096106E+02  0.54367125783E+02  0.40000094847E+02 0.  0.
        -12    1    3    3    0    0 -0.36363924881E+01 -0.30998296352E+02 -0.19536096106E+02  0.36820874217E+02  0.00000000000E+00 0.  1.
         11    1    4    4    0    0 -0.68946057965E+01  0.30869242129E+01  0.76580235314E+00  0.75928350233E+01  0.51100000000E-03 0. -1.
        -11    1    4    4    0    0  0.11552350333E+02  0.32425977334E+02  0.84215957776E+01  0.35437608271E+02  0.51100000000E-03 0.  1.
        -12    1    4    4    0    0 -0.10213520489E+01 -0.45146051945E+01  0.10348697975E+02  0.11336682488E+02  0.00000000000E+00 0.  1.
</event>
<event>
 8    1  0.2490104E-006  0.9118800E+02  0.7816164E-02  0.1184000E+00
        -11   -1    0    0    0    0  0.00000000000E+00  0.00000000000E+00  0.45593999997E+02  0.45594000000E+02  0.51100000000E-03 0. -1.
         11   -1    0    0    0    0 -0.00000000000E+00 -0.00000000000E+00 -0.45593999997E+02  0.45594000000E+02  0.51100000000E-03 0.  1.
         23    2    1    2    0    0 -0.35527136788E-14  0.00000000000E+00  0.00000000000E+00  0.91188000000E+02  0.91188000000E+02 0.  0.
    9900012    2    3    3    0    0 -0.29022762968E+02  0.12061153086E+02  0.19183014705E+02  0.54367078810E+02  0.39999987764E+02 0.  0.
        -12    1    3    3    0    0  0.29022762968E+02 -0.12061153086E+02 -0.19183014705E+02  0.36820921190E+02  0.00000000000E+00 0.  1.
         11    1    4    4    0    0 -0.53578825131E+00 -0.10387723629E+01  0.54994743905E+01  0.56223069914E+01  0.51100000000E-03 0. -1.
        -11    1    4    4    0    0 -0.13542957754E+02 -0.11508677283E+02  0.29357786822E+01  0.18013332681E+02  0.51100000000E-03 0.  1.
        -12    1    4    4    0    0 -0.14944016962E+02  0.24608602732E+02  0.10747761632E+02  0.30731439138E+02  0.00000000000E+00 0.  1.
</event>
<event>
 8    1  0.2490104E-006  0.9118800E+02  0.7816164E-02  0.1184000E+00
        -11   -1    0    0    0    0  0.00000000000E+00  0.00000000000E+00  0.45593999997E+02  0.45594000000E+02  0.51100000000E-03 0.  1.
         11   -1    0    0    0    0 -0.00000000000E+00 -0.00000000000E+00 -0.45593999997E+02  0.45594000000E+02  0.51100000000E-03 0. -1.
         23    2    1    2    0    0  0.00000000000E+00  0.00000000000E+00 -0.17763568394E-14  0.91188000000E+02  0.91188000000E+02 0.  0.
    9900012    2    3    3    0    0 -0.33215441615E+02  0.87112868041E+01 -0.13290097966E+02  0.54367098552E+02  0.40000032769E+02 0.  0.
        -12    1    3    3    0    0  0.33215441615E+02 -0.87112868041E+01  0.13290097966E+02  0.36820901448E+02  0.00000000000E+00 0.  1.
         11    1    4    4    0    0 -0.29079755628E+01  0.31105912111E+01  0.12759466042E+01  0.44452378513E+01  0.51100000000E-03 0. -1.
        -11    1    4    4    0    0 -0.26685979309E+01 -0.13513401218E+02 -0.71062334627E+01  0.15499418753E+02  0.51100000000E-03 0.  1.
        -12    1    4    4    0    0 -0.27638868121E+02  0.19114096811E+02 -0.74598111078E+01  0.34422441948E+02  0.00000000000E+00 0.  1.
</event>
<event>
 8    1  0.2490104E-006  0.9118800E+02  0.7816164E-02  0.1184000E+00
        -11   -1    0    0    0    0  0.00000000000E+00  0.00000000000E+00  0.45593999997E+02  0.45594000000E+02  0.51100000000E-03 0. -1.
         11   -1    0    0    0    0 -0.00000000000E+00 -0.00000000000E+00 -0.45593999997E+02  0.45594000000E+02  0.51100000000E-03 0.  1.
         23    2    1    2    0    0  0.00000000000E+00 -0.71054273576E-14 -0.35527136788E-14  0.91188000000E+02  0.91188000000E+02 0.  0.
    9900012    2    3    3    0    0  0.16839254694E+02 -0.26191160439E+02 -0.19653045850E+02  0.54367087532E+02  0.40000007647E+02 0.  0.
         12    1    3    3    0    0 -0.16839254694E+02  0.26191160439E+02  0.19653045850E+02  0.36820912468E+02  0.00000000000E+00 0. -1.
         11    1    4    4    0    0  0.16476462902E+02 -0.29210229903E+02 -0.69206823883E+01  0.34243352723E+02  0.51100000000E-03 0.  1.
        -11    1    4    4    0    0 -0.13133299359E+01 -0.24706131383E+01  0.25582866096E+01  0.37912524893E+01  0.51100000000E-03 0. -1.
        -12    1    4    4    0    0  0.16761217284E+01  0.54896826028E+01 -0.15290650071E+02  0.16332482320E+02  0.00000000000E+00 0.  1.
</event>
<event>
 8    1  0.2490104E-006  0.9118800E+02  0.7816164E-02  0.1184000E+00
        -11   -1    0    0    0    0  0.00000000000E+00  0.00000000000E+00  0.45593999997E+02  0.45594000000E+02  0.51100000000E-03 0. -1.
         11   -1    0    0    0    0 -0.00000000000E+00 -0.00000000000E+00 -0.45593999997E+02  0.45594000000E+02  0.51100000000E-03 0.  1.
         23    2    1    2    0    0  0.00000000000E+00  0.00000000000E+00  0.00000000000E+00  0.91188000000E+02  0.91188000000E+02 0.  0.
    9900012    2    3    3    0    0 -0.16421943632E+02 -0.24620016271E+02 -0.21907851891E+02  0.54367090067E+02  0.40000013426E+02 0.  0.
         12    1    3    3    0    0  0.16421943632E+02  0.24620016271E+02  0.21907851891E+02  0.36820909933E+02  0.00000000000E+00 0. -1.
         11    1    4    4    0    0 -0.22600517616E+02  0.51864232747E+00 -0.92360231013E+01  0.24420411736E+02  0.51100000000E-03 0. -1.
        -11    1    4    4    0    0  0.33832406522E+01 -0.50128370147E+01 -0.91494797380E-01  0.60484067163E+01  0.51100000000E-03 0.  1.
         12    1    4    4    0    0  0.27953333309E+01 -0.20125821583E+02 -0.12580333992E+02  0.23898271615E+02  0.00000000000E+00 0. -1.
</event>
<event>
 8    1  0.2490104E-006  0.9118800E+02  0.7816164E-02  0.1184000E+00
        -11   -1    0    0    0    0  0.00000000000E+00  0.00000000000E+00  0.45593999997E+02  0.45594000000E+02  0.51100000000E-03 0. -1.
         11   -1    0    0    0    0 -0.00000000000E+00 -0.00000000000E+00 -0.45593999997E+02  0.45594000000E+02  0.51100000000E-03 0.  1.
         23    2    1    2    0    0  0.00000000000E+00  0.35527136788E-14  0.00000000000E+00  0.91188000000E+02  0.91188000000E+02 0.  0.
    9900012    2    3    3    0    0 -0.12996574225E+02  0.11320409433E+02  0.32537952703E+02  0.54367068760E+02  0.39999964852E+02 0.  0.
        -12    1    3    3    0    0  0.12996574225E+02 -0.11320409433E+02 -0.32537952703E+02  0.36820931240E+02  0.00000000000E+00 0.  1.
         11    1    4    4    0    0 -0.10007368586E+02 -0.11551159552E+02  0.15670716546E+02  0.21889451119E+02  0.51100000000E-03 0. -1.
        -11    1    4    4    0    0  0.35685972194E+01 -0.15238610824E+00  0.84318463662E+00  0.36700229199E+01  0.51100000000E-03 0.  1.
        -12    1    4    4    0    0 -0.65578028585E+01  0.23023955093E+02  0.16024051521E+02  0.28807594721E+02  0.00000000000E+00 0.  1.
</event>
<event>
 8    1  0.2490104E-006  0.9118800E+02  0.7816164E-02  0.1184000E+00
        -11   -1    0    0    0    0  0.00000000000E+00  0.00000000000E+00  0.45593999997E+02  0.45594000000E+02  0.51100000000E-03 0. -1.
         11   -1    0    0    0    0 -0.00000000000E+00 -0.00000000000E+00 -0.45593999997E+02  0.45594000000E+02  0.51100000000E-03 0.  1.
         23    2    1    2    0    0 -0.35527136788E-14  0.00000000000E+00 -0.44408920985E-15  0.91188000000E+02  0.91188000000E+02 0.  0.
    9900012    2    3    3    0    0 -0.24391919200E+02 -0.27513193155E+02 -0.19592886119E+01  0.54367077528E+02  0.39999984841E+02 0.  0.
        -12    1    3    3    0    0  0.24391919200E+02  0.27513193155E+02  0.19592886119E+01  0.36820922472E+02  0.00000000000E+00 0.  1.
         11    1    4    4    0    0 -0.64673627463E+01 -0.78863438886E+01  0.88023618865E+01  0.13472296607E+02  0.51100000000E-03 0. -1.
        -11    1    4    4    0    0 -0.16235273767E+02  0.49977750127E+00  0.29149964401E+01  0.16502457282E+02  0.51100000000E-03 0.  1.
         12    1    4    4    0    0 -0.16892826862E+01 -0.20126626767E+02 -0.13676646939E+02  0.24392323639E+02  0.00000000000E+00 0. -1.
</event>
<event>
 8    1  0.2490104E-006  0.9118800E+02  0.7816164E-02  0.1184000E+00
        -11   -1    0    0    0    0  0.00000000000E+00  0.00000000000E+00  0.45593999997E+02  0.45594000000E+02  0.51100000000E-03 0.  1.
         11   -1    0    0    0    0 -0.00000000000E+00 -0.00000000000E+00 -0.45593999997E+02  0.45594000000E+02  0.51100000000E-03 0. -1.
         23    2    1    2    0    0 -0.35527136788E-14  0.00000000000E+00  0.00000000000E+00  0.91188000000E+02  0.91188000000E+02 0.  0.
    9900012    2    3    3    0    0  0.22659669322E+02 -0.23785873763E+02 -0.16629836254E+02  0.54367083956E+02  0.39999999496E+02 0.  0.
        -12    1    3    3    0    0 -0.22659669322E+02  0.23785873763E+02  0.16629836254E+02  0.36820916044E+02  0.00000000000E+00 0.  1.
         11    1    4    4    0    0  0.82269416199E+01 -0.79045015703E+01  0.98743079161E+01  0.15088594056E+02  0.51100000000E-03 0. -1.
        -11    1    4    4    0    0  0.60022121488E+01  0.19770422762E+01 -0.15345185899E+02  0.16595480631E+02  0.51100000000E-03 0.  1.
         12    1    4    4    0    0  0.84305155532E+01 -0.17858414469E+02 -0.11158958271E+02  0.22683009270E+02  0.00000000000E+00 0. -1.
</event>
<event>
 8    1  0.2490104E-006  0.9118800E+02  0.7816164E-02  0.1184000E+00
        -11   -1    0    0    0    0  0.00000000000E+00  0.00000000000E+00  0.45593999997E+02  0.45594000000E+02  0.51100000000E-03 0.  1.
         11   -1    0    0    0    0 -0.00000000000E+00 -0.00000000000E+00 -0.45593999997E+02  0.45594000000E+02  0.51100000000E-03 0. -1.
         23    2    1    2    0    0  0.00000000000E+00  0.00000000000E+00 -0.35527136788E-14  0.91188000000E+02  0.91188000000E+02 0.  0.
    9900012    2    3    3    0    0 -0.17462890507E+02  0.12174815230E+02 -0.30043370571E+02  0.54367044201E+02  0.39999908864E+02 0.  0.
        -12    1    3    3    0    0  0.17462890507E+02 -0.12174815230E+02  0.30043370571E+02  0.36820955799E+02  0.00000000000E+00 0.  1.
         11    1    4    4    0    0 -0.16125967779E+02  0.17535680064E+02 -0.30351300763E+02  0.38584302124E+02  0.51100000000E-03 0. -1.
        -11    1    4    4    0    0 -0.78455620502E+01 -0.48212821406E+01 -0.37480291566E+00  0.92161859166E+01  0.51100000000E-03 0.  1.
         12    1    4    4    0    0  0.65086393221E+01 -0.53958269401E+00  0.68273310791E+00  0.65665561602E+01  0.00000000000E+00 0. -1.
</event>
<event>
 8    1  0.2490104E-006  0.9118800E+02  0.7816164E-02  0.1184000E+00
        -11   -1    0    0    0    0  0.00000000000E+00  0.00000000000E+00  0.45593999997E+02  0.45594000000E+02  0.51100000000E-03 0. -1.
         11   -1    0    0    0    0 -0.00000000000E+00 -0.00000000000E+00 -0.45593999997E+02  0.45594000000E+02  0.51100000000E-03 0.  1.
         23    2    1    2    0    0  0.17763568394E-14  0.17763568394E-14  0.00000000000E+00  0.91188000000E+02  0.91188000000E+02 0.  0.
    9900012    2    3    3    0    0  0.13161011417E+02 -0.72432174842E+01 -0.33616998386E+02  0.54367095591E+02  0.40000026018E+02 0.  0.
         12    1    3    3    0    0 -0.13161011417E+02  0.72432174842E+01  0.33616998386E+02  0.36820904409E+02  0.00000000000E+00 0. -1.
         11    1    4    4    0    0  0.10721975748E+02 -0.53165909019E+01 -0.30401214308E+01  0.12347843590E+02  0.51100000000E-03 0. -1.
        -11    1    4    4    0    0 -0.83957996612E+01  0.62063188243E+01 -0.23387130879E+01  0.10699412342E+02  0.51100000000E-03 0.  1.
        -12    1    4    4    0    0  0.10834835330E+02 -0.81329454066E+01 -0.28238163867E+02  0.31319839658E+02  0.00000000000E+00 0.  1.
</event>
<event>
 8    1  0.2490104E-006  0.9118800E+02  0.7816164E-02  0.1184000E+00
        -11   -1    0    0    0    0  0.00000000000E+00  0.00000000000E+00  0.45593999997E+02  0.45594000000E+02  0.51100000000E-03 0.  1.
         11   -1    0    0    0    0 -0.00000000000E+00 -0.00000000000E+00 -0.45593999997E+02  0.45594000000E+02  0.51100000000E-03 0. -1.
         23    2    1    2    0    0  0.00000000000E+00  0.00000000000E+00  0.88817841970E-15  0.91188000000E+02  0.91188000000E+02 0.  0.
    9900012    2    3    3    0    0 -0.34771201015E+02 -0.10066680846E+02  0.67382854530E+01  0.54367095963E+02  0.40000026866E+02 0.  0.
         12    1    3    3    0    0  0.34771201015E+02  0.10066680846E+02 -0.67382854530E+01  0.36820904037E+02  0.00000000000E+00 0. -1.
         11    1    4    4    0    0 -0.42577772173E+01  0.21514815319E+01 -0.45262992126E+01  0.65760873198E+01  0.51100000000E-03 0. -1.
        -11    1    4    4    0    0 -0.30807201987E+02 -0.52146526763E+00  0.16524095397E+02  0.34962856709E+02  0.51100000000E-03 0.  1.
        -12    1    4    4    0    0  0.29377818904E+00 -0.11696697110E+02 -0.52595107313E+01  0.12828151934E+02  0.00000000000E+00 0.  1.
</event>
<event>
 8    1  0.2490104E-006  0.9118800E+02  0.7816164E-02  0.1184000E+00
        -11   -1    0    0    0    0  0.00000000000E+00  0.00000000000E+00  0.45593999997E+02  0.45594000000E+02  0.51100000000E-03 0.  1.
         11   -1    0    0    0    0 -0.00000000000E+00 -0.00000000000E+00 -0.45593999997E+02  0.45594000000E+02  0.51100000000E-03 0. -1.
         23    2    1    2    0    0  0.00000000000E+00  0.35527136788E-14 -0.35527136788E-14  0.91188000000E+02  0.91188000000E+02 0.  0.
    9900012    2    3    3    0    0 -0.21827737782E+01  0.22110763706E+02 -0.29362054081E+02  0.54367073982E+02  0.39999976756E+02 0.  0.
        -12    1    3    3    0    0  0.21827737782E+01 -0.22110763706E+02  0.29362054081E+02  0.36820926018E+02  0.00000000000E+00 0.  1.
         11    1    4    4    0    0 -0.57685773830E+01  0.20428975763E+00 -0.29065595786E+01  0.64626858329E+01  0.51100000000E-03 0. -1.
        -11    1    4    4    0    0 -0.88673691269E+01  0.42455709581E+01 -0.24268283809E+02  0.26184054447E+02  0.51100000000E-03 0.  1.
        -12    1    4    4    0    0  0.12453172732E+02  0.17660902990E+02 -0.21872106930E+01  0.21720333702E+02  0.00000000000E+00 0.  1.
</event>
<event>
 8    1  0.2490104E-006  0.9118800E+02  0.7816164E-02  0.1184000E+00
        -11   -1    0    0    0    0  0.00000000000E+00  0.00000000000E+00  0.45593999997E+02  0.45594000000E+02  0.51100000000E-03 0.  1.
         11   -1    0    0    0    0 -0.00000000000E+00 -0.00000000000E+00 -0.45593999997E+02  0.45594000000E+02  0.51100000000E-03 0. -1.
         23    2    1    2    0    0  0.53290705182E-14 -0.71054273576E-14 -0.71054273576E-14  0.91188000000E+02  0.91188000000E+02 0.  0.
    9900012    2    3    3    0    0  0.11982977281E+02 -0.24959118405E+02 -0.24274051284E+02  0.54367096944E+02  0.40000029104E+02 0.  0.
        -12    1    3    3    0    0 -0.11982977281E+02  0.24959118405E+02  0.24274051284E+02  0.36820903056E+02  0.00000000000E+00 0.  1.
         11    1    4    4    0    0 -0.62598057638E+01 -0.49434125058E+01 -0.80782511141E+01  0.11352560800E+02  0.51100000000E-03 0.  1.
        -11    1    4    4    0    0  0.26010842994E+02 -0.17533755149E+02 -0.15006189378E+02  0.34773297842E+02  0.51100000000E-03 0. -1.
         12    1    4    4    0    0 -0.77680599495E+01 -0.24819507511E+01 -0.11896107917E+01  0.82412383017E+01  0.00000000000E+00 0. -1.
</event>
<event>
 8    1  0.2490104E-006  0.9118800E+02  0.7816164E-02  0.1184000E+00
        -11   -1    0    0    0    0  0.00000000000E+00  0.00000000000E+00  0.45593999997E+02  0.45594000000E+02  0.51100000000E-03 0. -1.
         11   -1    0    0    0    0 -0.00000000000E+00 -0.00000000000E+00 -0.45593999997E+02  0.45594000000E+02  0.51100000000E-03 0.  1.
         23    2    1    2    0    0  0.88817841970E-15  0.44408920985E-15  0.00000000000E+00  0.91188000000E+02  0.91188000000E+02 0.  0.
    9900012    2    3    3    0    0 -0.24885707394E+01 -0.22162962685E+01 -0.36669807944E+02  0.54367085181E+02  0.40000002286E+02 0.  0.
         12    1    3    3    0    0  0.24885707394E+01  0.22162962685E+01  0.36669807944E+02  0.36820914819E+02  0.00000000000E+00 0. -1.
         11    1    4    4    0    0  0.72810780131E+01 -0.46743470591E+01 -0.52871940298E+01  0.10139922999E+02  0.51100000000E-03 0. -1.
        -11    1    4    4    0    0 -0.85763546335E+01 -0.53980834496E+00 -0.36871768892E+02  0.37859907466E+02  0.51100000000E-03 0.  1.
        -12    1    4    4    0    0 -0.11932941191E+01  0.29978591355E+01  0.54891549771E+01  0.63672547156E+01  0.00000000000E+00 0.  1.
</event>
<event>
 8    1  0.2490104E-006  0.9118800E+02  0.7816164E-02  0.1184000E+00
        -11   -1    0    0    0    0  0.00000000000E+00  0.00000000000E+00  0.45593999997E+02  0.45594000000E+02  0.51100000000E-03 0. -1.
         11   -1    0    0    0    0 -0.00000000000E+00 -0.00000000000E+00 -0.45593999997E+02  0.45594000000E+02  0.51100000000E-03 0.  1.
         23    2    1    2    0    0 -0.17763568394E-14  0.00000000000E+00  0.16653345369E-14  0.91188000000E+02  0.91188000000E+02 0.  0.
    9900012    2    3    3    0    0  0.12760536281E+02  0.34532081355E+02  0.69656293437E+00  0.54367066703E+02  0.39999960164E+02 0.  0.
         12    1    3    3    0    0 -0.12760536281E+02 -0.34532081355E+02 -0.69656293437E+00  0.36820933297E+02  0.00000000000E+00 0. -1.
         11    1    4    4    0    0  0.17885629839E+02  0.21417467700E+02 -0.13128493949E+02  0.30837656056E+02  0.51100000000E-03 0.  1.
        -11    1    4    4    0    0 -0.63951930356E+01  0.30318483048E+01  0.97160440963E+00  0.71438514470E+01  0.51100000000E-03 0. -1.
         12    1    4    4    0    0  0.12700994784E+01  0.10082765351E+02  0.12853452474E+02  0.16385559200E+02  0.00000000000E+00 0. -1.
</event>
<event>
 8    1  0.2490104E-006  0.9118800E+02  0.7816164E-02  0.1184000E+00
        -11   -1    0    0    0    0  0.00000000000E+00  0.00000000000E+00  0.45593999997E+02  0.45594000000E+02  0.51100000000E-03 0. -1.
         11   -1    0    0    0    0 -0.00000000000E+00 -0.00000000000E+00 -0.45593999997E+02  0.45594000000E+02  0.51100000000E-03 0.  1.
         23    2    1    2    0    0  0.00000000000E+00  0.26645352591E-14  0.00000000000E+00  0.91188000000E+02  0.91188000000E+02 0.  0.
    9900012    2    3    3    0    0  0.30776828403E+02  0.76303761474E+01  0.18717463412E+02  0.54367092308E+02  0.40000018534E+02 0.  0.
         12    1    3    3    0    0 -0.30776828403E+02 -0.76303761474E+01 -0.18717463412E+02  0.36820907692E+02  0.00000000000E+00 0. -1.
         11    1    4    4    0    0 -0.11660071112E+01  0.13023400679E+00 -0.27614445094E+00  0.12053171776E+01  0.51100000000E-03 0. -1.
        -11    1    4    4    0    0  0.83320029637E+01 -0.12780519083E+02  0.15652431714E+02  0.21857780314E+02  0.51100000000E-03 0.  1.
         12    1    4    4    0    0  0.23610832551E+02  0.20280661224E+02  0.33411761488E+01  0.31303994816E+02  0.00000000000E+00 0. -1.
</event>
<event>
 8    1  0.2490104E-006  0.9118800E+02  0.7816164E-02  0.1184000E+00
        -11   -1    0    0    0    0  0.00000000000E+00  0.00000000000E+00  0.45593999997E+02  0.45594000000E+02  0.51100000000E-03 0.  1.
         11   -1    0    0    0    0 -0.00000000000E+00 -0.00000000000E+00 -0.45593999997E+02  0.45594000000E+02  0.51100000000E-03 0. -1.
         23    2    1    2    0    0  0.35527136788E-14  0.00000000000E+00 -0.35527136788E-14  0.91188000000E+02  0.91188000000E+02 0.  0.
    9900012    2    3    3    0    0 -0.16581223948E+02 -0.20202768422E+02  0.25936238080E+02  0.54367118896E+02  0.40000079148E+02 0.  0.
         12    1    3    3    0    0  0.16581223948E+02  0.20202768422E+02 -0.25936238080E+02  0.36820881104E+02  0.00000000000E+00 0. -1.
         11    1    4    4    0    0  0.27201333212E+01 -0.87055408369E+01 -0.22133831890E+01  0.93853413337E+01  0.51100000000E-03 0. -1.
        -11    1    4    4    0    0 -0.23806458341E+01 -0.53207941534E+01 -0.47198160755E+01  0.75003325965E+01  0.51100000000E-03 0.  1.
        -12    1    4    4    0    0 -0.16920711435E+02 -0.61764334318E+01  0.32869437344E+02  0.37481444966E+02  0.00000000000E+00 0.  1.
</event>
<event>
 8    1  0.2490104E-006  0.9118800E+02  0.7816164E-02  0.1184000E+00
        -11   -1    0    0    0    0  0.00000000000E+00  0.00000000000E+00  0.45593999997E+02  0.45594000000E+02  0.51100000000E-03 0.  1.
         11   -1    0    0    0    0 -0.00000000000E+00 -0.00000000000E+00 -0.45593999997E+02  0.45594000000E+02  0.51100000000E-03 0. -1.
         23    2    1    2    0    0  0.35527136788E-14  0.71054273576E-14 -0.17763568394E-14  0.91188000000E+02  0.91188000000E+02 0.  0.
    9900012    2    3    3    0    0  0.18528699010E+02  0.30269133503E+02  0.98105047851E+01  0.54367093789E+02  0.40000021911E+02 0.  0.
         12    1    3    3    0    0 -0.18528699010E+02 -0.30269133503E+02 -0.98105047851E+01  0.36820906211E+02  0.00000000000E+00 0. -1.
         11    1    4    4    0    0 -0.33030432379E-02  0.27296603341E+01  0.77371401751E-01  0.27307586940E+01  0.51100000000E-03 0. -1.
        -11    1    4    4    0    0  0.39182689398E+01  0.11043866388E+02  0.23071090395E+02  0.25876534323E+02  0.51100000000E-03 0.  1.
        -12    1    4    4    0    0  0.14613733113E+02  0.16495606781E+02 -0.13337957012E+02  0.25759800772E+02  0.00000000000E+00 0.  1.
</event>
<event>
 8    1  0.2490104E-006  0.9118800E+02  0.7816164E-02  0.1184000E+00
        -11   -1    0    0    0    0  0.00000000000E+00  0.00000000000E+00  0.45593999997E+02  0.45594000000E+02  0.51100000000E-03 0.  1.
         11   -1    0    0    0    0 -0.00000000000E+00 -0.00000000000E+00 -0.45593999997E+02  0.45594000000E+02  0.51100000000E-03 0. -1.
         23    2    1    2    0    0  0.17763568394E-14  0.00000000000E+00  0.00000000000E+00  0.91188000000E+02  0.91188000000E+02 0.  0.
    9900012    2    3    3    0    0  0.89961646802E+01 -0.33143211978E+02  0.13279975566E+02  0.54367336912E+02  0.40000576154E+02 0.  0.
         12    1    3    3    0    0 -0.89961646802E+01  0.33143211978E+02 -0.13279975566E+02  0.36820663088E+02  0.00000000000E+00 0. -1.
         11    1    4    4    0    0  0.93200597368E+01 -0.57967667478E+01 -0.96987618862E+01  0.14646910958E+02  0.51100000000E-03 0. -1.
        -11    1    4    4    0    0  0.79159845251E+01 -0.11278625295E+02  0.13649918719E+02  0.19395630457E+02  0.51100000000E-03 0.  1.
        -12    1    4    4    0    0 -0.82398795816E+01 -0.16067819936E+02  0.93288187337E+01  0.20324795497E+02  0.00000000000E+00 0.  1.
</event>
<event>
 8    1  0.2490104E-006  0.9118800E+02  0.7816164E-02  0.1184000E+00
        -11   -1    0    0    0    0  0.00000000000E+00  0.00000000000E+00  0.45593999997E+02  0.45594000000E+02  0.51100000000E-03 0.  1.
         11   -1    0    0    0    0 -0.00000000000E+00 -0.00000000000E+00 -0.45593999997E+02  0.45594000000E+02  0.51100000000E-03 0. -1.
         23    2    1    2    0    0  0.00000000000E+00  0.88817841970E-15  0.00000000000E+00  0.91188000000E+02  0.91188000000E+02 0.  0.
    9900012    2    3    3    0    0 -0.70128690814E+01 -0.41453927672E+01 -0.35908426998E+02  0.54367085516E+02  0.40000003050E+02 0.  0.
        -12    1    3    3    0    0  0.70128690814E+01  0.41453927672E+01  0.35908426998E+02  0.36820914484E+02  0.00000000000E+00 0.  1.
         11    1    4    4    0    0 -0.62716289118E-01 -0.15205092227E+02 -0.28104010500E+02  0.31953625294E+02  0.51100000000E-03 0. -1.
        -11    1    4    4    0    0  0.41775873775E+01  0.16725901100E+01 -0.63498029790E+01  0.77826597064E+01  0.51100000000E-03 0.  1.
        -12    1    4    4    0    0 -0.11127740170E+02  0.93871093501E+01 -0.14546135195E+01  0.14630800516E+02  0.00000000000E+00 0.  1.
</event>
<event>
 8    1  0.2490104E-006  0.9118800E+02  0.7816164E-02  0.1184000E+00
        -11   -1    0    0    0    0  0.00000000000E+00  0.00000000000E+00  0.45593999997E+02  0.45594000000E+02  0.51100000000E-03 0.  1.
         11   -1    0    0    0    0 -0.00000000000E+00 -0.00000000000E+00 -0.45593999997E+02  0.45594000000E+02  0.51100000000E-03 0. -1.
         23    2    1    2    0    0  0.00000000000E+00  0.00000000000E+00  0.00000000000E+00  0.91188000000E+02  0.91188000000E+02 0.  0.
    9900012    2    3    3    0    0  0.19995879669E+02  0.99920930966E+01 -0.29259490591E+02  0.54366879460E+02  0.39999533302E+02 0.  0.
        -12    1    3    3    0    0 -0.19995879669E+02 -0.99920930966E+01  0.29259490591E+02  0.36821120540E+02  0.00000000000E+00 0.  1.
         11    1    4    4    0    0 -0.14630816435E+00  0.14422700755E+02 -0.11726136674E+02  0.18588652041E+02  0.51100000000E-03 0. -1.
        -11    1    4    4    0    0  0.73969409796E+01 -0.11560527703E+02 -0.16021479546E+02  0.21096168935E+02  0.51100000000E-03 0.  1.
        -12    1    4    4    0    0  0.12745246853E+02  0.71299200453E+01 -0.15118743709E+01  0.14682058484E+02  0.00000000000E+00 0.  1.
</event>
<event>
 8    1  0.2490104E-006  0.9118800E+02  0.7816164E-02  0.1184000E+00
        -11   -1    0    0    0    0  0.00000000000E+00  0.00000000000E+00  0.45593999997E+02  0.45594000000E+02  0.51100000000E-03 0. -1.
         11   -1    0    0    0    0 -0.00000000000E+00 -0.00000000000E+00 -0.45593999997E+02  0.45594000000E+02  0.51100000000E-03 0.  1.
         23    2    1    2    0    0  0.00000000000E+00  0.00000000000E+00  0.35527136788E-14  0.91188000000E+02  0.91188000000E+02 0.  0.
    9900012    2    3    3    0    0  0.18871029961E+02  0.24808160969E+02 -0.19601494682E+02  0.54367092676E+02  0.40000019372E+02 0.  0.
         12    1    3    3    0    0 -0.18871029961E+02 -0.24808160969E+02  0.19601494682E+02  0.36820907324E+02  0.00000000000E+00 0. -1.
         11    1    4    4    0    0  0.12767543815E+02  0.54284998164E+01  0.91042997383E+01  0.16594187516E+02  0.51100000000E-03 0. -1.
        -11    1    4    4    0    0  0.79769493652E+01  0.53722504269E+01 -0.16505631176E+02  0.19103105941E+02  0.51100000000E-03 0.  1.
         12    1    4    4    0    0 -0.18734632197E+01  0.14007410726E+02 -0.12200163244E+02  0.18669799219E+02  0.00000000000E+00 0. -1.
</event>
<event>
 8    1  0.2490104E-006  0.9118800E+02  0.7816164E-02  0.1184000E+00
        -11   -1    0    0    0    0  0.00000000000E+00  0.00000000000E+00  0.45593999997E+02  0.45594000000E+02  0.51100000000E-03 0.  1.
         11   -1    0    0    0    0 -0.00000000000E+00 -0.00000000000E+00 -0.45593999997E+02  0.45594000000E+02  0.51100000000E-03 0. -1.
         23    2    1    2    0    0  0.00000000000E+00  0.88817841970E-15  0.35527136788E-14  0.91188000000E+02  0.91188000000E+02 0.  0.
    9900012    2    3    3    0    0 -0.19507683705E+02 -0.49532372332E+01 -0.30833356134E+02  0.54367080225E+02  0.39999990988E+02 0.  0.
        -12    1    3    3    0    0  0.19507683705E+02  0.49532372332E+01  0.30833356134E+02  0.36820919775E+02  0.00000000000E+00 0.  1.
         11    1    4    4    0    0 -0.24815372737E+02  0.29397230838E+01 -0.89319197983E+01  0.26537217025E+02  0.51100000000E-03 0. -1.
        -11    1    4    4    0    0  0.40419023745E+01 -0.35072286146E+01  0.10754504196E+00  0.53524941436E+01  0.51100000000E-03 0.  1.
         12    1    4    4    0    0  0.12657866574E+01 -0.43857317024E+01 -0.22008981377E+02  0.22477369056E+02  0.00000000000E+00 0. -1.
</event>
<event>
 8    1  0.2490104E-006  0.9118800E+02  0.7816164E-02  0.1184000E+00
        -11   -1    0    0    0    0  0.00000000000E+00  0.00000000000E+00  0.45593999997E+02  0.45594000000E+02  0.51100000000E-03 0.  1.
         11   -1    0    0    0    0 -0.00000000000E+00 -0.00000000000E+00 -0.45593999997E+02  0.45594000000E+02  0.51100000000E-03 0. -1.
         23    2    1    2    0    0  0.00000000000E+00 -0.35527136788E-14  0.00000000000E+00  0.91188000000E+02  0.91188000000E+02 0.  0.
    9900012    2    3    3    0    0 -0.64606942102E+01 -0.30158047135E+02  0.20112938106E+02  0.54367100284E+02  0.40000036717E+02 0.  0.
         12    1    3    3    0    0  0.64606942102E+01  0.30158047135E+02 -0.20112938106E+02  0.36820899716E+02  0.00000000000E+00 0. -1.
         11    1    4    4    0    0 -0.33765581100E+01 -0.13793020749E+02 -0.92984644824E+01  0.16973803582E+02  0.51100000000E-03 0. -1.
        -11    1    4    4    0    0  0.50501525689E+01 -0.11176610001E+02  0.10427070062E+02  0.16097963921E+02  0.51100000000E-03 0.  1.
         12    1    4    4    0    0 -0.81342886691E+01 -0.51884163844E+01  0.18984332526E+02  0.21295332780E+02  0.00000000000E+00 0. -1.
</event>
<event>
 8    1  0.2490104E-006  0.9118800E+02  0.7816164E-02  0.1184000E+00
        -11   -1    0    0    0    0  0.00000000000E+00  0.00000000000E+00  0.45593999997E+02  0.45594000000E+02  0.51100000000E-03 0. -1.
         11   -1    0    0    0    0 -0.00000000000E+00 -0.00000000000E+00 -0.45593999997E+02  0.45594000000E+02  0.51100000000E-03 0.  1.
         23    2    1    2    0    0  0.11102230246E-14  0.00000000000E+00  0.00000000000E+00  0.91188000000E+02  0.91188000000E+02 0.  0.
    9900012    2    3    3    0    0 -0.56395081212E+00  0.35463551626E+02 -0.98892461620E+01  0.54367099358E+02  0.40000034606E+02 0.  0.
        -12    1    3    3    0    0  0.56395081212E+00 -0.35463551626E+02  0.98892461620E+01  0.36820900642E+02  0.00000000000E+00 0.  1.
         11    1    4    4    0    0  0.80210214068E+01  0.26059030691E+01 -0.50665096199E+01  0.98385484297E+01  0.51100000000E-03 0.  1.
        -11    1    4    4    0    0  0.24495963782E+01  0.17871321321E+02  0.10100422794E+02  0.20673731861E+02  0.51100000000E-03 0. -1.
         12    1    4    4    0    0 -0.11034568597E+02  0.14986327236E+02 -0.14923159336E+02  0.23854819067E+02  0.00000000000E+00 0. -1.
</event>
<event>
 8    1  0.2490104E-006  0.9118800E+02  0.7816164E-02  0.1184000E+00
        -11   -1    0    0    0    0  0.00000000000E+00  0.00000000000E+00  0.45593999997E+02  0.45594000000E+02  0.51100000000E-03 0. -1.
         11   -1    0    0    0    0 -0.00000000000E+00 -0.00000000000E+00 -0.45593999997E+02  0.45594000000E+02  0.51100000000E-03 0.  1.
         23    2    1    2    0    0 -0.35527136788E-14  0.35527136788E-14  0.00000000000E+00  0.91188000000E+02  0.91188000000E+02 0.  0.
    9900012    2    3    3    0    0  0.20187066462E+02 -0.30280173224E+02  0.56011687686E+01  0.54367086997E+02  0.40000006426E+02 0.  0.
        -12    1    3    3    0    0 -0.20187066462E+02  0.30280173224E+02 -0.56011687686E+01  0.36820913003E+02  0.00000000000E+00 0.  1.
         11    1    4    4    0    0 -0.43208951006E+01 -0.20184951450E+02  0.74552157890E+01  0.21947269585E+02  0.51100000000E-03 0.  1.
        -11    1    4    4    0    0  0.10819144150E+02 -0.13260525084E+02  0.33463247078E+01  0.17438270985E+02  0.51100000000E-03 0. -1.
        -12    1    4    4    0    0  0.13688817413E+02  0.31653033102E+01 -0.52003717282E+01  0.14981546426E+02  0.00000000000E+00 0.  1.
</event>
<event>
 8    1  0.2490104E-006  0.9118800E+02  0.7816164E-02  0.1184000E+00
        -11   -1    0    0    0    0  0.00000000000E+00  0.00000000000E+00  0.45593999997E+02  0.45594000000E+02  0.51100000000E-03 0.  1.
         11   -1    0    0    0    0 -0.00000000000E+00 -0.00000000000E+00 -0.45593999997E+02  0.45594000000E+02  0.51100000000E-03 0. -1.
         23    2    1    2    0    0 -0.35527136788E-14  0.00000000000E+00  0.35527136788E-14  0.91188000000E+02  0.91188000000E+02 0.  0.
    9900012    2    3    3    0    0  0.26141157571E+02  0.13483433118E+02  0.22149871227E+02  0.54367083619E+02  0.39999998725E+02 0.  0.
         12    1    3    3    0    0 -0.26141157571E+02 -0.13483433118E+02 -0.22149871227E+02  0.36820916381E+02  0.00000000000E+00 0. -1.
         11    1    4    4    0    0 -0.71619776364E+01  0.93098106461E+01  0.12068316838E+01  0.11807749189E+02  0.51100000000E-03 0. -1.
        -11    1    4    4    0    0  0.25904953758E+02  0.62012063010E+01  0.22336702903E+02  0.34762765793E+02  0.51100000000E-03 0.  1.
         12    1    4    4    0    0  0.73981814494E+01 -0.20275838293E+01 -0.13936633592E+01  0.77965686364E+01  0.00000000000E+00 0. -1.
</event>
<event>
 8    1  0.2490104E-006  0.9118800E+02  0.7816164E-02  0.1184000E+00
        -11   -1    0    0    0    0  0.00000000000E+00  0.00000000000E+00  0.45593999997E+02  0.45594000000E+02  0.51100000000E-03 0. -1.
         11   -1    0    0    0    0 -0.00000000000E+00 -0.00000000000E+00 -0.45593999997E+02  0.45594000000E+02  0.51100000000E-03 0.  1.
         23    2    1    2    0    0  0.00000000000E+00  0.00000000000E+00  0.35527136788E-14  0.91188000000E+02  0.91188000000E+02 0.  0.
    9900012    2    3    3    0    0  0.70232215207E+01  0.22299351594E+02  0.28446328348E+02  0.54367077707E+02  0.39999985248E+02 0.  0.
        -12    1    3    3    0    0 -0.70232215207E+01 -0.22299351594E+02 -0.28446328348E+02  0.36820922293E+02  0.00000000000E+00 0.  1.
         11    1    4    4    0    0  0.75962918918E+01  0.10007012689E+01  0.24799016143E+01  0.80532580868E+01  0.51100000000E-03 0. -1.
        -11    1    4    4    0    0  0.30496951720E+01  0.11391803022E+02 -0.55829475346E+01  0.13047724713E+02  0.51100000000E-03 0.  1.
        -12    1    4    4    0    0 -0.36227655432E+01  0.99068473031E+01  0.31549374268E+02  0.33266094907E+02  0.00000000000E+00 0.  1.
</event>
<event>
 8    1  0.2490104E-006  0.9118800E+02  0.7816164E-02  0.1184000E+00
        -11   -1    0    0    0    0  0.00000000000E+00  0.00000000000E+00  0.45593999997E+02  0.45594000000E+02  0.51100000000E-03 0. -1.
         11   -1    0    0    0    0 -0.00000000000E+00 -0.00000000000E+00 -0.45593999997E+02  0.45594000000E+02  0.51100000000E-03 0.  1.
         23    2    1    2    0    0  0.00000000000E+00  0.35527136788E-14  0.00000000000E+00  0.91188000000E+02  0.91188000000E+02 0.  0.
    9900012    2    3    3    0    0 -0.10412507923E+02 -0.20197844938E+02 -0.28972506343E+02  0.54367090381E+02  0.40000014141E+02 0.  0.
         12    1    3    3    0    0  0.10412507923E+02  0.20197844938E+02  0.28972506343E+02  0.36820909619E+02  0.00000000000E+00 0. -1.
         11    1    4    4    0    0 -0.82960728421E+01 -0.70435262224E+01 -0.11880285859E+02  0.16111402130E+02  0.51100000000E-03 0. -1.
        -11    1    4    4    0    0  0.63043217635E+01 -0.17993644434E+02 -0.20469012179E+02  0.27973133053E+02  0.51100000000E-03 0.  1.
         12    1    4    4    0    0 -0.84207568443E+01  0.48393257193E+01  0.33767916950E+01  0.10282555198E+02  0.00000000000E+00 0. -1.
</event>
<event>
 8    1  0.2490104E-006  0.9118800E+02  0.7816164E-02  0.1184000E+00
        -11   -1    0    0    0    0  0.00000000000E+00  0.00000000000E+00  0.45593999997E+02  0.45594000000E+02  0.51100000000E-03 0. -1.
         11   -1    0    0    0    0 -0.00000000000E+00 -0.00000000000E+00 -0.45593999997E+02  0.45594000000E+02  0.51100000000E-03 0.  1.
         23    2    1    2    0    0  0.35527136788E-14  0.35527136788E-14  0.00000000000E+00  0.91188000000E+02  0.91188000000E+02 0.  0.
    9900012    2    3    3    0    0  0.16697530618E+02 -0.30875030234E+02  0.11122273186E+02  0.54367082283E+02  0.39999995681E+02 0.  0.
         12    1    3    3    0    0 -0.16697530618E+02  0.30875030234E+02 -0.11122273186E+02  0.36820917717E+02  0.00000000000E+00 0. -1.
         11    1    4    4    0    0  0.10349568174E+02 -0.20463456774E+02  0.41668081750E+00  0.22935567307E+02  0.51100000000E-03 0. -1.
        -11    1    4    4    0    0  0.85890669281E+01  0.70482954892E+01  0.78359020534E+01  0.13596025200E+02  0.51100000000E-03 0.  1.
         12    1    4    4    0    0 -0.22411044843E+01 -0.17459868950E+02  0.28696903155E+01  0.17835489776E+02  0.00000000000E+00 0. -1.
</event>
<event>
 8    1  0.2490104E-006  0.9118800E+02  0.7816164E-02  0.1184000E+00
        -11   -1    0    0    0    0  0.00000000000E+00  0.00000000000E+00  0.45593999997E+02  0.45594000000E+02  0.51100000000E-03 0. -1.
         11   -1    0    0    0    0 -0.00000000000E+00 -0.00000000000E+00 -0.45593999997E+02  0.45594000000E+02  0.51100000000E-03 0.  1.
         23    2    1    2    0    0  0.00000000000E+00 -0.88817841970E-15  0.00000000000E+00  0.91188000000E+02  0.91188000000E+02 0.  0.
    9900012    2    3    3    0    0  0.92043205955E+01 -0.96924474859E+00  0.35638747781E+02  0.54367091586E+02  0.40000016889E+02 0.  0.
        -12    1    3    3    0    0 -0.92043205955E+01  0.96924474859E+00 -0.35638747781E+02  0.36820908414E+02  0.00000000000E+00 0.  1.
         11    1    4    4    0    0  0.85001807277E+01  0.11199279504E+02  0.79802186101E+01  0.16166657761E+02  0.51100000000E-03 0.  1.
        -11    1    4    4    0    0  0.11304401015E+01 -0.10105143787E+01  0.26970519747E+02  0.27013107370E+02  0.51100000000E-03 0. -1.
        -12    1    4    4    0    0 -0.42630023365E+00 -0.11158009874E+02  0.68800942435E+00  0.11187326455E+02  0.00000000000E+00 0.  1.
</event>
<event>
 8    1  0.2490104E-006  0.9118800E+02  0.7816164E-02  0.1184000E+00
        -11   -1    0    0    0    0  0.00000000000E+00  0.00000000000E+00  0.45593999997E+02  0.45594000000E+02  0.51100000000E-03 0.  1.
         11   -1    0    0    0    0 -0.00000000000E+00 -0.00000000000E+00 -0.45593999997E+02  0.45594000000E+02  0.51100000000E-03 0. -1.
         23    2    1    2    0    0  0.00000000000E+00  0.00000000000E+00 -0.88817841970E-15  0.91188000000E+02  0.91188000000E+02 0.  0.
    9900012    2    3    3    0    0  0.36156772192E+02 -0.53006329723E+01 -0.45133917805E+01  0.54367087591E+02  0.40000007782E+02 0.  0.
        -12    1    3    3    0    0 -0.36156772192E+02  0.53006329723E+01  0.45133917805E+01  0.36820912409E+02  0.00000000000E+00 0.  1.
         11    1    4    4    0    0  0.12829720204E+02 -0.37895227387E+01  0.10116832243E+02  0.16772373058E+02  0.51100000000E-03 0. -1.
        -11    1    4    4    0    0  0.12349311189E+02 -0.12131488290E+02 -0.13661259544E+01  0.17365045216E+02  0.51100000000E-03 0.  1.
        -12    1    4    4    0    0  0.10977740799E+02  0.10620378056E+02 -0.13264098069E+02  0.20229669317E+02  0.00000000000E+00 0.  1.
</event>
<event>
 8    1  0.2490104E-006  0.9118800E+02  0.7816164E-02  0.1184000E+00
        -11   -1    0    0    0    0  0.00000000000E+00  0.00000000000E+00  0.45593999997E+02  0.45594000000E+02  0.51100000000E-03 0.  1.
         11   -1    0    0    0    0 -0.00000000000E+00 -0.00000000000E+00 -0.45593999997E+02  0.45594000000E+02  0.51100000000E-03 0. -1.
         23    2    1    2    0    0 -0.44408920985E-15  0.00000000000E+00  0.00000000000E+00  0.91188000000E+02  0.91188000000E+02 0.  0.
    9900012    2    3    3    0    0 -0.33493352307E+01 -0.35524107326E+02 -0.90878836817E+01  0.54367219487E+02  0.40000308462E+02 0.  0.
         12    1    3    3    0    0  0.33493352307E+01  0.35524107326E+02  0.90878836817E+01  0.36820780513E+02  0.00000000000E+00 0. -1.
         11    1    4    4    0    0 -0.12199827222E+02 -0.29780418488E+02 -0.11557212043E+02  0.34194710996E+02  0.51100000000E-03 0. -1.
        -11    1    4    4    0    0 -0.41393311267E+01  0.22142765998E+01 -0.23683952409E+00  0.47003378877E+01  0.51100000000E-03 0.  1.
         12    1    4    4    0    0  0.12989823118E+02 -0.79579654374E+01  0.27061678858E+01  0.15472170603E+02  0.00000000000E+00 0. -1.
</event>
<event>
 8    1  0.2490104E-006  0.9118800E+02  0.7816164E-02  0.1184000E+00
        -11   -1    0    0    0    0  0.00000000000E+00  0.00000000000E+00  0.45593999997E+02  0.45594000000E+02  0.51100000000E-03 0. -1.
         11   -1    0    0    0    0 -0.00000000000E+00 -0.00000000000E+00 -0.45593999997E+02  0.45594000000E+02  0.51100000000E-03 0.  1.
         23    2    1    2    0    0 -0.88817841970E-15 -0.19984014443E-14  0.00000000000E+00  0.91188000000E+02  0.91188000000E+02 0.  0.
    9900012    2    3    3    0    0 -0.39170200729E+01 -0.13404466426E+01 -0.36587414407E+02  0.54367099190E+02  0.40000034224E+02 0.  0.
         12    1    3    3    0    0  0.39170200729E+01  0.13404466426E+01  0.36587414407E+02  0.36820900810E+02  0.00000000000E+00 0. -1.
         11    1    4    4    0    0 -0.31765175691E+01 -0.37351042004E+01 -0.78943315114E+01  0.92931016097E+01  0.51100000000E-03 0.  1.
        -11    1    4    4    0    0 -0.13372974349E+02  0.12712403866E+02 -0.15236567379E+02  0.23928949847E+02  0.51100000000E-03 0. -1.
        -12    1    4    4    0    0  0.12632471845E+02 -0.10317746308E+02 -0.13456515516E+02  0.21145047734E+02  0.00000000000E+00 0.  1.
</event>
<event>
 8    1  0.2490104E-006  0.9118800E+02  0.7816164E-02  0.1184000E+00
        -11   -1    0    0    0    0  0.00000000000E+00  0.00000000000E+00  0.45593999997E+02  0.45594000000E+02  0.51100000000E-03 0.  1.
         11   -1    0    0    0    0 -0.00000000000E+00 -0.00000000000E+00 -0.45593999997E+02  0.45594000000E+02  0.51100000000E-03 0. -1.
         23    2    1    2    0    0  0.00000000000E+00  0.00000000000E+00  0.00000000000E+00  0.91188000000E+02  0.91188000000E+02 0.  0.
    9900012    2    3    3    0    0  0.16258978414E+02  0.26589558457E+02  0.19606655786E+02  0.54367082723E+02  0.39999996684E+02 0.  0.
        -12    1    3    3    0    0 -0.16258978414E+02 -0.26589558457E+02 -0.19606655786E+02  0.36820917277E+02  0.00000000000E+00 0.  1.
         11    1    4    4    0    0  0.17743703321E+01 -0.65383669006E+01 -0.54446438796E+01  0.86915349070E+01  0.51100000000E-03 0.  1.
        -11    1    4    4    0    0  0.47139846876E+01  0.91031658027E+01  0.99242274959E+00  0.10299232129E+02  0.51100000000E-03 0. -1.
        -12    1    4    4    0    0  0.97706233947E+01  0.24024759554E+02  0.24058876916E+02  0.35376315688E+02  0.00000000000E+00 0.  1.
</event>
<event>
 8    1  0.2490104E-006  0.9118800E+02  0.7816164E-02  0.1184000E+00
        -11   -1    0    0    0    0  0.00000000000E+00  0.00000000000E+00  0.45593999997E+02  0.45594000000E+02  0.51100000000E-03 0.  1.
         11   -1    0    0    0    0 -0.00000000000E+00 -0.00000000000E+00 -0.45593999997E+02  0.45594000000E+02  0.51100000000E-03 0. -1.
         23    2    1    2    0    0 -0.35527136788E-14  0.35527136788E-14 -0.17763568394E-14  0.91188000000E+02  0.91188000000E+02 0.  0.
    9900012    2    3    3    0    0  0.28596391095E+02 -0.20790733957E+02 -0.10284568761E+02  0.54367074472E+02  0.39999977874E+02 0.  0.
         12    1    3    3    0    0 -0.28596391095E+02  0.20790733957E+02  0.10284568761E+02  0.36820925528E+02  0.00000000000E+00 0. -1.
         11    1    4    4    0    0  0.14910580842E+01 -0.48109826031E+01 -0.17068578293E+02  0.17796212322E+02  0.51100000000E-03 0. -1.
        -11    1    4    4    0    0  0.74526280273E+01 -0.31569222644E+01  0.10022449210E+02  0.12882441970E+02  0.51100000000E-03 0.  1.
         12    1    4    4    0    0  0.19652704984E+02 -0.12822829089E+02 -0.32384396786E+01  0.23688420179E+02  0.00000000000E+00 0. -1.
</event>
<event>
 8    1  0.2490104E-006  0.9118800E+02  0.7816164E-02  0.1184000E+00
        -11   -1    0    0    0    0  0.00000000000E+00  0.00000000000E+00  0.45593999997E+02  0.45594000000E+02  0.51100000000E-03 0. -1.
         11   -1    0    0    0    0 -0.00000000000E+00 -0.00000000000E+00 -0.45593999997E+02  0.45594000000E+02  0.51100000000E-03 0.  1.
         23    2    1    2    0    0  0.00000000000E+00  0.35527136788E-14  0.00000000000E+00  0.91188000000E+02  0.91188000000E+02 0.  0.
    9900012    2    3    3    0    0 -0.29515434584E+02  0.19644640923E+02  0.99351300150E+01  0.54367087408E+02  0.40000007364E+02 0.  0.
        -12    1    3    3    0    0  0.29515434584E+02 -0.19644640923E+02 -0.99351300150E+01  0.36820912592E+02  0.00000000000E+00 0.  1.
         11    1    4    4    0    0 -0.76651394920E+01  0.23199999644E+02  0.43038767910E+00  0.24437258045E+02  0.51100000000E-03 0. -1.
        -11    1    4    4    0    0 -0.98117737441E+01 -0.10307036222E+02  0.71575238847E+01  0.15929094391E+02  0.51100000000E-03 0.  1.
         12    1    4    4    0    0 -0.12038521348E+02  0.67516775006E+01  0.23472184512E+01  0.14000734973E+02  0.00000000000E+00 0. -1.
</event>
<event>
 8    1  0.2490104E-006  0.9118800E+02  0.7816164E-02  0.1184000E+00
        -11   -1    0    0    0    0  0.00000000000E+00  0.00000000000E+00  0.45593999997E+02  0.45594000000E+02  0.51100000000E-03 0.  1.
         11   -1    0    0    0    0 -0.00000000000E+00 -0.00000000000E+00 -0.45593999997E+02  0.45594000000E+02  0.51100000000E-03 0. -1.
         23    2    1    2    0    0  0.17763568394E-14  0.35527136788E-14  0.35527136788E-14  0.91188000000E+02  0.91188000000E+02 0.  0.
    9900012    2    3    3    0    0  0.56274468223E+01 -0.24556340055E+02 -0.26853275513E+02  0.54367076594E+02  0.39999982712E+02 0.  0.
        -12    1    3    3    0    0 -0.56274468223E+01  0.24556340055E+02  0.26853275513E+02  0.36820923406E+02  0.00000000000E+00 0.  1.
         11    1    4    4    0    0 -0.14349537531E+02 -0.14358709216E+02 -0.13628389854E+01  0.20345493066E+02  0.51100000000E-03 0. -1.
        -11    1    4    4    0    0  0.13665135730E+02 -0.62918201455E+01 -0.15822007379E+02  0.21832518247E+02  0.51100000000E-03 0.  1.
         12    1    4    4    0    0  0.63118486234E+01 -0.39058106930E+01 -0.96684291493E+01  0.12189065281E+02  0.00000000000E+00 0. -1.
</event>
<event>
 8    1  0.2490104E-006  0.9118800E+02  0.7816164E-02  0.1184000E+00
        -11   -1    0    0    0    0  0.00000000000E+00  0.00000000000E+00  0.45593999997E+02  0.45594000000E+02  0.51100000000E-03 0.  1.
         11   -1    0    0    0    0 -0.00000000000E+00 -0.00000000000E+00 -0.45593999997E+02  0.45594000000E+02  0.51100000000E-03 0. -1.
         23    2    1    2    0    0  0.00000000000E+00  0.00000000000E+00  0.00000000000E+00  0.91188000000E+02  0.91188000000E+02 0.  0.
    9900012    2    3    3    0    0 -0.33314418058E+02 -0.13029817029E+02  0.87265550821E+01  0.54367090913E+02  0.40000015355E+02 0.  0.
         12    1    3    3    0    0  0.33314418058E+02  0.13029817029E+02 -0.87265550821E+01  0.36820909087E+02  0.00000000000E+00 0. -1.
         11    1    4    4    0    0 -0.27621626706E+01 -0.86176202017E+01 -0.14208799888E+01  0.91603395550E+01  0.51100000000E-03 0. -1.
        -11    1    4    4    0    0 -0.21614712923E+02 -0.57074326168E+01  0.21285060022E+02  0.30867853541E+02  0.51100000000E-03 0.  1.
        -12    1    4    4    0    0 -0.89375424642E+01  0.12952357890E+01 -0.11137624951E+02  0.14338897817E+02  0.00000000000E+00 0.  1.
</event>
<event>
 8    1  0.2490104E-006  0.9118800E+02  0.7816164E-02  0.1184000E+00
        -11   -1    0    0    0    0  0.00000000000E+00  0.00000000000E+00  0.45593999997E+02  0.45594000000E+02  0.51100000000E-03 0.  1.
         11   -1    0    0    0    0 -0.00000000000E+00 -0.00000000000E+00 -0.45593999997E+02  0.45594000000E+02  0.51100000000E-03 0. -1.
         23    2    1    2    0    0 -0.35527136788E-14  0.00000000000E+00  0.35527136788E-14  0.91188000000E+02  0.91188000000E+02 0.  0.
    9900012    2    3    3    0    0  0.24959472987E+02 -0.20990838540E+02  0.17093563761E+02  0.54367075019E+02  0.39999979121E+02 0.  0.
         12    1    3    3    0    0 -0.24959472987E+02  0.20990838540E+02 -0.17093563761E+02  0.36820924981E+02  0.00000000000E+00 0. -1.
         11    1    4    4    0    0  0.35503888445E+01 -0.39697281509E+01 -0.38360676896E+01  0.65634913056E+01  0.51100000000E-03 0. -1.
        -11    1    4    4    0    0  0.15463837496E+02  0.19939861103E+01 -0.37988657564E+01  0.16047979063E+02  0.51100000000E-03 0.  1.
        -12    1    4    4    0    0  0.59452466465E+01 -0.19015096500E+02  0.24728497207E+02  0.31755604650E+02  0.00000000000E+00 0.  1.
</event>
<event>
 8    1  0.2490104E-006  0.9118800E+02  0.7816164E-02  0.1184000E+00
        -11   -1    0    0    0    0  0.00000000000E+00  0.00000000000E+00  0.45593999997E+02  0.45594000000E+02  0.51100000000E-03 0. -1.
         11   -1    0    0    0    0 -0.00000000000E+00 -0.00000000000E+00 -0.45593999997E+02  0.45594000000E+02  0.51100000000E-03 0.  1.
         23    2    1    2    0    0 -0.17763568394E-14  0.00000000000E+00  0.00000000000E+00  0.91188000000E+02  0.91188000000E+02 0.  0.
    9900012    2    3    3    0    0 -0.98864064718E+01 -0.27821088803E+02  0.22000602861E+02  0.54367074681E+02  0.39999978350E+02 0.  0.
        -12    1    3    3    0    0  0.98864064718E+01  0.27821088803E+02 -0.22000602861E+02  0.36820925319E+02  0.00000000000E+00 0.  1.
         11    1    4    4    0    0 -0.11601755608E+02 -0.19310034126E+02  0.67904667282E+01  0.23528463396E+02  0.51100000000E-03 0. -1.
        -11    1    4    4    0    0 -0.83557929119E+01 -0.57549454875E+01  0.17426179192E+02  0.20164582670E+02  0.51100000000E-03 0.  1.
        -12    1    4    4    0    0  0.10071142048E+02 -0.27561091893E+01 -0.22160430597E+01  0.10674028615E+02  0.00000000000E+00 0.  1.
</event>
<event>
 8    1  0.2490104E-006  0.9118800E+02  0.7816164E-02  0.1184000E+00
        -11   -1    0    0    0    0  0.00000000000E+00  0.00000000000E+00  0.45593999997E+02  0.45594000000E+02  0.51100000000E-03 0. -1.
         11   -1    0    0    0    0 -0.00000000000E+00 -0.00000000000E+00 -0.45593999997E+02  0.45594000000E+02  0.51100000000E-03 0.  1.
         23    2    1    2    0    0  0.17763568394E-14  0.00000000000E+00  0.00000000000E+00  0.91188000000E+02  0.91188000000E+02 0.  0.
    9900012    2    3    3    0    0 -0.90590643868E+01  0.29798982618E+02  0.19640087315E+02  0.54367095036E+02  0.40000024754E+02 0.  0.
         12    1    3    3    0    0  0.90590643868E+01 -0.29798982618E+02 -0.19640087315E+02  0.36820904964E+02  0.00000000000E+00 0. -1.
         11    1    4    4    0    0 -0.20745991617E+02  0.90627774510E+01  0.16094863007E+02  0.27777233821E+02  0.51100000000E-03 0. -1.
        -11    1    4    4    0    0  0.10674220883E+02  0.17960485587E+02  0.70087519551E+01  0.22037255687E+02  0.51100000000E-03 0.  1.
         12    1    4    4    0    0  0.10127063471E+01  0.27757195794E+01 -0.34635276472E+01  0.45526055279E+01  0.00000000000E+00 0. -1.
</event>
<event>
 8    1  0.2490104E-006  0.9118800E+02  0.7816164E-02  0.1184000E+00
        -11   -1    0    0    0    0  0.00000000000E+00  0.00000000000E+00  0.45593999997E+02  0.45594000000E+02  0.51100000000E-03 0. -1.
         11   -1    0    0    0    0 -0.00000000000E+00 -0.00000000000E+00 -0.45593999997E+02  0.45594000000E+02  0.51100000000E-03 0.  1.
         23    2    1    2    0    0  0.35527136788E-14 -0.17763568394E-14  0.00000000000E+00  0.91188000000E+02  0.91188000000E+02 0.  0.
    9900012    2    3    3    0    0 -0.28355159982E+02 -0.15708404061E+02 -0.17464567269E+02  0.54367079783E+02  0.39999989981E+02 0.  0.
         12    1    3    3    0    0  0.28355159982E+02  0.15708404061E+02  0.17464567269E+02  0.36820920217E+02  0.00000000000E+00 0. -1.
         11    1    4    4    0    0  0.26165666732E+00  0.51019173163E+00  0.30122041107E+01  0.30662898885E+01  0.51100000000E-03 0. -1.
        -11    1    4    4    0    0 -0.23722380413E+02 -0.16515865789E+02  0.13432003022E+01  0.28936643594E+02  0.51100000000E-03 0.  1.
        -12    1    4    4    0    0 -0.48944362370E+01  0.29726999625E+00 -0.21819971682E+02  0.22364146300E+02  0.00000000000E+00 0.  1.
</event>
<event>
 8    1  0.2490104E-006  0.9118800E+02  0.7816164E-02  0.1184000E+00
        -11   -1    0    0    0    0  0.00000000000E+00  0.00000000000E+00  0.45593999997E+02  0.45594000000E+02  0.51100000000E-03 0.  1.
         11   -1    0    0    0    0 -0.00000000000E+00 -0.00000000000E+00 -0.45593999997E+02  0.45594000000E+02  0.51100000000E-03 0. -1.
         23    2    1    2    0    0  0.00000000000E+00  0.00000000000E+00 -0.35527136788E-14  0.91188000000E+02  0.91188000000E+02 0.  0.
    9900012    2    3    3    0    0 -0.17720827329E+02 -0.18611947263E+02 -0.26369538796E+02  0.54367015786E+02  0.39999844087E+02 0.  0.
        -12    1    3    3    0    0  0.17720827329E+02  0.18611947263E+02  0.26369538796E+02  0.36820984214E+02  0.00000000000E+00 0.  1.
         11    1    4    4    0    0 -0.53317301789E+00 -0.14045516757E+01 -0.11059719776E+02  0.11161292070E+02  0.51100000000E-03 0. -1.
        -11    1    4    4    0    0  0.76965396756E+00 -0.20840571715E+02 -0.28486588040E+01  0.21048435901E+02  0.51100000000E-03 0.  1.
        -12    1    4    4    0    0 -0.17957308279E+02  0.36331761274E+01 -0.12461160216E+02  0.22157287815E+02  0.00000000000E+00 0.  1.
</event>
<event>
 8    1  0.2490104E-006  0.9118800E+02  0.7816164E-02  0.1184000E+00
        -11   -1    0    0    0    0  0.00000000000E+00  0.00000000000E+00  0.45593999997E+02  0.45594000000E+02  0.51100000000E-03 0. -1.
         11   -1    0    0    0    0 -0.00000000000E+00 -0.00000000000E+00 -0.45593999997E+02  0.45594000000E+02  0.51100000000E-03 0.  1.
         23    2    1    2    0    0 -0.17763568394E-14  0.71054273576E-14  0.35527136788E-14  0.91188000000E+02  0.91188000000E+02 0.  0.
    9900012    2    3    3    0    0 -0.10995047998E+02  0.19470060320E+02  0.29254195192E+02  0.54367051266E+02  0.39999924971E+02 0.  0.
        -12    1    3    3    0    0  0.10995047998E+02 -0.19470060320E+02 -0.29254195192E+02  0.36820948734E+02  0.00000000000E+00 0.  1.
         11    1    4    4    0    0 -0.54806413839E+01 -0.48881751657E+01  0.68510145473E+00  0.73757067929E+01  0.51100000000E-03 0. -1.
        -11    1    4    4    0    0  0.23721450158E+01  0.73284623097E+01 -0.45341875428E+01  0.89382486392E+01  0.51100000000E-03 0.  1.
         12    1    4    4    0    0 -0.78865516301E+01  0.17029773176E+02  0.33103281280E+02  0.38053095834E+02  0.00000000000E+00 0. -1.
</event>
<event>
 8    1  0.2490104E-006  0.9118800E+02  0.7816164E-02  0.1184000E+00
        -11   -1    0    0    0    0  0.00000000000E+00  0.00000000000E+00  0.45593999997E+02  0.45594000000E+02  0.51100000000E-03 0.  1.
         11   -1    0    0    0    0 -0.00000000000E+00 -0.00000000000E+00 -0.45593999997E+02  0.45594000000E+02  0.51100000000E-03 0. -1.
         23    2    1    2    0    0  0.35527136788E-14  0.00000000000E+00  0.00000000000E+00  0.91188000000E+02  0.91188000000E+02 0.  0.
    9900012    2    3    3    0    0  0.12504215164E+02  0.96396407810E+01  0.33264101526E+02  0.54367102108E+02  0.40000040875E+02 0.  0.
         12    1    3    3    0    0 -0.12504215164E+02 -0.96396407810E+01 -0.33264101526E+02  0.36820897892E+02  0.00000000000E+00 0. -1.
         11    1    4    4    0    0 -0.63626220667E+01 -0.39801616716E+01  0.46588533142E+01  0.88334342676E+01  0.51100000000E-03 0. -1.
        -11    1    4    4    0    0 -0.24085640425E+01  0.34074062401E+01  0.19974175592E+02  0.20405374020E+02  0.51100000000E-03 0.  1.
         12    1    4    4    0    0  0.21275401273E+02  0.10212396212E+02  0.86310726196E+01  0.25128293820E+02  0.00000000000E+00 0. -1.
</event>
<event>
 8    1  0.2490104E-006  0.9118800E+02  0.7816164E-02  0.1184000E+00
        -11   -1    0    0    0    0  0.00000000000E+00  0.00000000000E+00  0.45593999997E+02  0.45594000000E+02  0.51100000000E-03 0.  1.
         11   -1    0    0    0    0 -0.00000000000E+00 -0.00000000000E+00 -0.45593999997E+02  0.45594000000E+02  0.51100000000E-03 0. -1.
         23    2    1    2    0    0  0.00000000000E+00  0.44408920985E-15  0.71054273576E-14  0.91188000000E+02  0.91188000000E+02 0.  0.
    9900012    2    3    3    0    0 -0.11845020251E+02 -0.33832078981E+01 -0.34699113687E+02  0.54367094374E+02  0.40000023245E+02 0.  0.
        -12    1    3    3    0    0  0.11845020251E+02  0.33832078981E+01  0.34699113687E+02  0.36820905626E+02  0.00000000000E+00 0.  1.
         11    1    4    4    0    0 -0.11588333566E+02 -0.86342839573E+01 -0.54440514424E+01  0.15442733911E+02  0.51100000000E-03 0. -1.
        -11    1    4    4    0    0  0.10100521361E+02  0.80055807863E+01 -0.23393535500E+02  0.26708937811E+02  0.51100000000E-03 0.  1.
        -12    1    4    4    0    0 -0.10357208046E+02 -0.27545047271E+01 -0.58615267442E+01  0.12215422652E+02  0.00000000000E+00 0.  1.
</event>
<event>
 8    1  0.2490104E-006  0.9118800E+02  0.7816164E-02  0.1184000E+00
        -11   -1    0    0    0    0  0.00000000000E+00  0.00000000000E+00  0.45593999997E+02  0.45594000000E+02  0.51100000000E-03 0. -1.
         11   -1    0    0    0    0 -0.00000000000E+00 -0.00000000000E+00 -0.45593999997E+02  0.45594000000E+02  0.51100000000E-03 0.  1.
         23    2    1    2    0    0  0.00000000000E+00  0.00000000000E+00  0.71054273576E-14  0.91188000000E+02  0.91188000000E+02 0.  0.
    9900012    2    3    3    0    0 -0.19273827458E+01 -0.17495695396E+02  0.32341369517E+02  0.54367104521E+02  0.40000046376E+02 0.  0.
        -12    1    3    3    0    0  0.19273827458E+01  0.17495695396E+02 -0.32341369517E+02  0.36820895479E+02  0.00000000000E+00 0.  1.
         11    1    4    4    0    0 -0.81129570089E+01 -0.57842168414E+01  0.34249995927E+02  0.35669867636E+02  0.51100000000E-03 0. -1.
        -11    1    4    4    0    0 -0.25058576470E+01 -0.35124364303E+01 -0.47484637969E+01  0.64159520662E+01  0.51100000000E-03 0.  1.
        -12    1    4    4    0    0  0.86914319101E+01 -0.81990421244E+01  0.28398373870E+01  0.12281284818E+02  0.00000000000E+00 0.  1.
</event>
<event>
 8    1  0.2490104E-006  0.9118800E+02  0.7816164E-02  0.1184000E+00
        -11   -1    0    0    0    0  0.00000000000E+00  0.00000000000E+00  0.45593999997E+02  0.45594000000E+02  0.51100000000E-03 0. -1.
         11   -1    0    0    0    0 -0.00000000000E+00 -0.00000000000E+00 -0.45593999997E+02  0.45594000000E+02  0.51100000000E-03 0.  1.
         23    2    1    2    0    0  0.00000000000E+00  0.00000000000E+00  0.00000000000E+00  0.91188000000E+02  0.91188000000E+02 0.  0.
    9900012    2    3    3    0    0  0.20468983885E+02  0.29338900944E+02 -0.87195186657E+01  0.54367076388E+02  0.39999982242E+02 0.  0.
        -12    1    3    3    0    0 -0.20468983885E+02 -0.29338900944E+02  0.87195186657E+01  0.36820923612E+02  0.00000000000E+00 0.  1.
         11    1    4    4    0    0  0.18990605041E+02  0.81646035544E+01 -0.33301950287E+01  0.20937861166E+02  0.51100000000E-03 0. -1.
        -11    1    4    4    0    0 -0.83139783008E+01  0.99738869478E+01  0.63724171220E+01  0.14464036652E+02  0.51100000000E-03 0.  1.
        -12    1    4    4    0    0  0.97923571455E+01  0.11200410441E+02 -0.11761740759E+02  0.18965178570E+02  0.00000000000E+00 0.  1.
</event>
<event>
 8    1  0.2490104E-006  0.9118800E+02  0.7816164E-02  0.1184000E+00
        -11   -1    0    0    0    0  0.00000000000E+00  0.00000000000E+00  0.45593999997E+02  0.45594000000E+02  0.51100000000E-03 0.  1.
         11   -1    0    0    0    0 -0.00000000000E+00 -0.00000000000E+00 -0.45593999997E+02  0.45594000000E+02  0.51100000000E-03 0. -1.
         23    2    1    2    0    0  0.00000000000E+00  0.00000000000E+00 -0.35527136788E-14  0.91188000000E+02  0.91188000000E+02 0.  0.
    9900012    2    3    3    0    0  0.12307083599E+02  0.23573021265E+02  0.25468243815E+02  0.54367040190E+02  0.39999899722E+02 0.  0.
         12    1    3    3    0    0 -0.12307083599E+02 -0.23573021265E+02 -0.25468243815E+02  0.36820959810E+02  0.00000000000E+00 0. -1.
         11    1    4    4    0    0 -0.87452651626E+01  0.12887284633E+02  0.78034672187E+00  0.15593931808E+02  0.51100000000E-03 0. -1.
        -11    1    4    4    0    0  0.78784982391E+00  0.12714479321E+00 -0.28672175932E+01  0.29762073401E+01  0.51100000000E-03 0.  1.
        -12    1    4    4    0    0  0.20264498938E+02  0.10558591839E+02  0.27555114686E+02  0.35796901042E+02  0.00000000000E+00 0.  1.
</event>
<event>
 8    1  0.2490104E-006  0.9118800E+02  0.7816164E-02  0.1184000E+00
        -11   -1    0    0    0    0  0.00000000000E+00  0.00000000000E+00  0.45593999997E+02  0.45594000000E+02  0.51100000000E-03 0. -1.
         11   -1    0    0    0    0 -0.00000000000E+00 -0.00000000000E+00 -0.45593999997E+02  0.45594000000E+02  0.51100000000E-03 0.  1.
         23    2    1    2    0    0  0.00000000000E+00  0.00000000000E+00  0.00000000000E+00  0.91188000000E+02  0.91188000000E+02 0.  0.
    9900012    2    3    3    0    0  0.28949361435E+02 -0.18662620957E+02 -0.13016261408E+02  0.54367054745E+02  0.39999932901E+02 0.  0.
         12    1    3    3    0    0 -0.28949361435E+02  0.18662620957E+02  0.13016261408E+02  0.36820945255E+02  0.00000000000E+00 0. -1.
         11    1    4    4    0    0 -0.76224573698E+01 -0.16667966406E+00  0.27280900297E+01  0.80976610164E+01  0.51100000000E-03 0. -1.
        -11    1    4    4    0    0  0.10738767197E+02 -0.12086023311E+02 -0.19325716787E+01  0.16282748967E+02  0.51100000000E-03 0.  1.
        -12    1    4    4    0    0  0.25833051608E+02 -0.64099179820E+01 -0.13811779759E+02  0.29986644761E+02  0.00000000000E+00 0.  1.
</event>
<event>
 8    1  0.2490104E-006  0.9118800E+02  0.7816164E-02  0.1184000E+00
        -11   -1    0    0    0    0  0.00000000000E+00  0.00000000000E+00  0.45593999997E+02  0.45594000000E+02  0.51100000000E-03 0.  1.
         11   -1    0    0    0    0 -0.00000000000E+00 -0.00000000000E+00 -0.45593999997E+02  0.45594000000E+02  0.51100000000E-03 0. -1.
         23    2    1    2    0    0  0.00000000000E+00  0.00000000000E+00  0.00000000000E+00  0.91188000000E+02  0.91188000000E+02 0.  0.
    9900012    2    3    3    0    0 -0.35743122859E+02 -0.48547947712E+01 -0.73918912154E+01  0.54367083122E+02  0.39999997593E+02 0.  0.
        -12    1    3    3    0    0  0.35743122859E+02  0.48547947712E+01  0.73918912154E+01  0.36820916878E+02  0.00000000000E+00 0.  1.
         11    1    4    4    0    0 -0.30731267538E+02  0.14339362571E+01 -0.16042724472E+02  0.34696339669E+02  0.51100000000E-03 0. -1.
        -11    1    4    4    0    0 -0.10262371603E+02 -0.55881165450E+01  0.83560836630E+01  0.14365495184E+02  0.51100000000E-03 0.  1.
         12    1    4    4    0    0  0.52505162812E+01 -0.70061448323E+00  0.29474959339E+00  0.53052482690E+01  0.00000000000E+00 0. -1.
</event>
<event>
 8    1  0.2490104E-006  0.9118800E+02  0.7816164E-02  0.1184000E+00
        -11   -1    0    0    0    0  0.00000000000E+00  0.00000000000E+00  0.45593999997E+02  0.45594000000E+02  0.51100000000E-03 0. -1.
         11   -1    0    0    0    0 -0.00000000000E+00 -0.00000000000E+00 -0.45593999997E+02  0.45594000000E+02  0.51100000000E-03 0.  1.
         23    2    1    2    0    0  0.71054273576E-14  0.17763568394E-14  0.00000000000E+00  0.91188000000E+02  0.91188000000E+02 0.  0.
    9900012    2    3    3    0    0 -0.31531159462E+02 -0.14457596774E+02  0.12350836723E+02  0.54367091683E+02  0.40000017110E+02 0.  0.
        -12    1    3    3    0    0  0.31531159462E+02  0.14457596774E+02 -0.12350836723E+02  0.36820908317E+02  0.00000000000E+00 0.  1.
         11    1    4    4    0    0 -0.70778203152E+01 -0.65591967720E+01  0.94967239751E+01  0.13539068256E+02  0.51100000000E-03 0. -1.
        -11    1    4    4    0    0 -0.59947316974E+01 -0.17152519667E+02  0.75106456011E+01  0.19661015657E+02  0.51100000000E-03 0.  1.
        -12    1    4    4    0    0 -0.18458607450E+02  0.92541196644E+01 -0.46565328533E+01  0.21167007771E+02  0.00000000000E+00 0.  1.
</event>
<event>
 8    1  0.2490104E-006  0.9118800E+02  0.7816164E-02  0.1184000E+00
        -11   -1    0    0    0    0  0.00000000000E+00  0.00000000000E+00  0.45593999997E+02  0.45594000000E+02  0.51100000000E-03 0.  1.
         11   -1    0    0    0    0 -0.00000000000E+00 -0.00000000000E+00 -0.45593999997E+02  0.45594000000E+02  0.51100000000E-03 0. -1.
         23    2    1    2    0    0  0.00000000000E+00  0.00000000000E+00  0.00000000000E+00  0.91188000000E+02  0.91188000000E+02 0.  0.
    9900012    2    3    3    0    0 -0.15553227389E+02  0.31798348498E+02  0.10136395769E+02  0.54367022710E+02  0.39999859872E+02 0.  0.
         12    1    3    3    0    0  0.15553227389E+02 -0.31798348498E+02 -0.10136395769E+02  0.36820977290E+02  0.00000000000E+00 0. -1.
         11    1    4    4    0    0  0.68072086903E+01  0.47748616389E+01  0.40456556017E+01  0.92468764095E+01  0.51100000000E-03 0. -1.
        -11    1    4    4    0    0 -0.11296481157E+02  0.26801586857E+02 -0.49328231598E+01  0.29500309984E+02  0.51100000000E-03 0.  1.
        -12    1    4    4    0    0 -0.11063954922E+02  0.22190000237E+00  0.11023563327E+02  0.15619836317E+02  0.00000000000E+00 0.  1.
</event>
<event>
 8    1  0.2490104E-006  0.9118800E+02  0.7816164E-02  0.1184000E+00
        -11   -1    0    0    0    0  0.00000000000E+00  0.00000000000E+00  0.45593999997E+02  0.45594000000E+02  0.51100000000E-03 0. -1.
         11   -1    0    0    0    0 -0.00000000000E+00 -0.00000000000E+00 -0.45593999997E+02  0.45594000000E+02  0.51100000000E-03 0.  1.
         23    2    1    2    0    0  0.00000000000E+00 -0.35527136788E-14  0.35527136788E-14  0.91188000000E+02  0.91188000000E+02 0.  0.
    9900012    2    3    3    0    0  0.23647674091E+02  0.20018508193E+02  0.19895417718E+02  0.54367071082E+02  0.39999970147E+02 0.  0.
        -12    1    3    3    0    0 -0.23647674091E+02 -0.20018508193E+02 -0.19895417718E+02  0.36820928918E+02  0.00000000000E+00 0.  1.
         11    1    4    4    0    0  0.19732276509E+02 -0.45626499037E+01  0.86196742246E+01  0.22010890358E+02  0.51100000000E-03 0. -1.
        -11    1    4    4    0    0  0.44953619353E+00  0.17044823702E+02 -0.15076699760E+01  0.17117276852E+02  0.51100000000E-03 0.  1.
         12    1    4    4    0    0  0.34658613881E+01  0.75363343947E+01  0.12783413470E+02  0.15238903871E+02  0.00000000000E+00 0. -1.
</event>
<event>
 8    1  0.2490104E-006  0.9118800E+02  0.7816164E-02  0.1184000E+00
        -11   -1    0    0    0    0  0.00000000000E+00  0.00000000000E+00  0.45593999997E+02  0.45594000000E+02  0.51100000000E-03 0.  1.
         11   -1    0    0    0    0 -0.00000000000E+00 -0.00000000000E+00 -0.45593999997E+02  0.45594000000E+02  0.51100000000E-03 0. -1.
         23    2    1    2    0    0  0.00000000000E+00  0.00000000000E+00  0.00000000000E+00  0.91188000000E+02  0.91188000000E+02 0.  0.
    9900012    2    3    3    0    0  0.55937427463E+01 -0.32263846942E+02 -0.16838484763E+02  0.54367077327E+02  0.39999984382E+02 0.  0.
        -12    1    3    3    0    0 -0.55937427463E+01  0.32263846942E+02  0.16838484763E+02  0.36820922673E+02  0.00000000000E+00 0.  1.
         11    1    4    4    0    0 -0.93664665212E+00 -0.28564222832E+02 -0.23443586016E+02  0.36964765094E+02  0.51100000000E-03 0. -1.
        -11    1    4    4    0    0 -0.18281269659E+01 -0.22305272669E+01  0.82660141621E+01  0.87546724942E+01  0.51100000000E-03 0.  1.
         12    1    4    4    0    0  0.83585163643E+01 -0.14690968427E+01 -0.16609129100E+01  0.86476397381E+01  0.00000000000E+00 0. -1.
</event>
<event>
 8    1  0.2490104E-006  0.9118800E+02  0.7816164E-02  0.1184000E+00
        -11   -1    0    0    0    0  0.00000000000E+00  0.00000000000E+00  0.45593999997E+02  0.45594000000E+02  0.51100000000E-03 0.  1.
         11   -1    0    0    0    0 -0.00000000000E+00 -0.00000000000E+00 -0.45593999997E+02  0.45594000000E+02  0.51100000000E-03 0. -1.
         23    2    1    2    0    0  0.35527136788E-14  0.00000000000E+00 -0.17763568394E-14  0.91188000000E+02  0.91188000000E+02 0.  0.
    9900012    2    3    3    0    0 -0.30735270181E+02 -0.13255903291E+02  0.15342982655E+02  0.54367042355E+02  0.39999904656E+02 0.  0.
         12    1    3    3    0    0  0.30735270181E+02  0.13255903291E+02 -0.15342982655E+02  0.36820957645E+02  0.00000000000E+00 0. -1.
         11    1    4    4    0    0 -0.83371625818E+01 -0.62425927513E+01  0.29505012401E+01  0.10825142124E+02  0.51100000000E-03 0.  1.
        -11    1    4    4    0    0  0.86303813302E+01 -0.13227550861E+01  0.77143197079E+01  0.11650918064E+02  0.51100000000E-03 0. -1.
         12    1    4    4    0    0 -0.31028488929E+02 -0.56905554534E+01  0.46781617071E+01  0.31890982167E+02  0.00000000000E+00 0. -1.
</event>
<event>
 8    1  0.2490104E-006  0.9118800E+02  0.7816164E-02  0.1184000E+00
        -11   -1    0    0    0    0  0.00000000000E+00  0.00000000000E+00  0.45593999997E+02  0.45594000000E+02  0.51100000000E-03 0. -1.
         11   -1    0    0    0    0 -0.00000000000E+00 -0.00000000000E+00 -0.45593999997E+02  0.45594000000E+02  0.51100000000E-03 0.  1.
         23    2    1    2    0    0  0.00000000000E+00 -0.13322676296E-14  0.00000000000E+00  0.91188000000E+02  0.91188000000E+02 0.  0.
    9900012    2    3    3    0    0  0.21255460536E+02 -0.32175278973E+01  0.29893693293E+02  0.54367082208E+02  0.39999995509E+02 0.  0.
        -12    1    3    3    0    0 -0.21255460536E+02  0.32175278973E+01 -0.29893693293E+02  0.36820917792E+02  0.00000000000E+00 0.  1.
         11    1    4    4    0    0  0.12019092340E+02  0.14658005377E+02  0.42016169096E+01  0.19415696929E+02  0.51100000000E-03 0. -1.
        -11    1    4    4    0    0  0.39458328928E+01 -0.38761113791E+01  0.37769744226E+00  0.55440501675E+01  0.51100000000E-03 0.  1.
         12    1    4    4    0    0  0.52905353025E+01 -0.13999421895E+02  0.25314378941E+02  0.29407335112E+02  0.00000000000E+00 0. -1.
</event>
<event>
 8    1  0.2490104E-006  0.9118800E+02  0.7816164E-02  0.1184000E+00
        -11   -1    0    0    0    0  0.00000000000E+00  0.00000000000E+00  0.45593999997E+02  0.45594000000E+02  0.51100000000E-03 0. -1.
         11   -1    0    0    0    0 -0.00000000000E+00 -0.00000000000E+00 -0.45593999997E+02  0.45594000000E+02  0.51100000000E-03 0.  1.
         23    2    1    2    0    0  0.00000000000E+00  0.00000000000E+00  0.00000000000E+00  0.91188000000E+02  0.91188000000E+02 0.  0.
    9900012    2    3    3    0    0 -0.16282401824E+02 -0.60219147101E+01 -0.32471632727E+02  0.54366987006E+02  0.39999778476E+02 0.  0.
         12    1    3    3    0    0  0.16282401824E+02  0.60219147101E+01  0.32471632727E+02  0.36821012994E+02  0.00000000000E+00 0. -1.
         11    1    4    4    0    0  0.58427019060E+01 -0.60999882333E+01  0.46008193376E+01  0.96184489834E+01  0.51100000000E-03 0. -1.
        -11    1    4    4    0    0 -0.16807184085E+01  0.16512032405E+01 -0.12613407001E+02  0.12831575232E+02  0.51100000000E-03 0.  1.
         12    1    4    4    0    0 -0.20444385322E+02 -0.15731297173E+01 -0.24459045064E+02  0.31916962790E+02  0.00000000000E+00 0. -1.
</event>
<event>
 8    1  0.2490104E-006  0.9118800E+02  0.7816164E-02  0.1184000E+00
        -11   -1    0    0    0    0  0.00000000000E+00  0.00000000000E+00  0.45593999997E+02  0.45594000000E+02  0.51100000000E-03 0. -1.
         11   -1    0    0    0    0 -0.00000000000E+00 -0.00000000000E+00 -0.45593999997E+02  0.45594000000E+02  0.51100000000E-03 0.  1.
         23    2    1    2    0    0  0.17763568394E-14 -0.71054273576E-14 -0.35527136788E-14  0.91188000000E+02  0.91188000000E+02 0.  0.
    9900012    2    3    3    0    0 -0.85067848514E+01  0.29795112989E+02  0.19891354834E+02  0.54367080081E+02  0.39999990661E+02 0.  0.
        -12    1    3    3    0    0  0.85067848514E+01 -0.29795112989E+02 -0.19891354834E+02  0.36820919919E+02  0.00000000000E+00 0.  1.
         11    1    4    4    0    0  0.10576091795E+02  0.11581947153E+01  0.34608662289E+01  0.11188061851E+02  0.51100000000E-03 0. -1.
        -11    1    4    4    0    0 -0.12717199479E+02  0.11776676142E+02 -0.19445284959E+01  0.17441285929E+02  0.51100000000E-03 0.  1.
        -12    1    4    4    0    0 -0.63656771683E+01  0.16860242131E+02  0.18375017101E+02  0.25737732301E+02  0.00000000000E+00 0.  1.
</event>
<event>
 8    1  0.2490104E-006  0.9118800E+02  0.7816164E-02  0.1184000E+00
        -11   -1    0    0    0    0  0.00000000000E+00  0.00000000000E+00  0.45593999997E+02  0.45594000000E+02  0.51100000000E-03 0. -1.
         11   -1    0    0    0    0 -0.00000000000E+00 -0.00000000000E+00 -0.45593999997E+02  0.45594000000E+02  0.51100000000E-03 0.  1.
         23    2    1    2    0    0 -0.17763568394E-14  0.00000000000E+00 -0.71054273576E-14  0.91188000000E+02  0.91188000000E+02 0.  0.
    9900012    2    3    3    0    0  0.93636835505E+01  0.14797705353E+02  0.32390247363E+02  0.54367098631E+02  0.40000032950E+02 0.  0.
        -12    1    3    3    0    0 -0.93636835505E+01 -0.14797705353E+02 -0.32390247363E+02  0.36820901369E+02  0.00000000000E+00 0.  1.
         11    1    4    4    0    0  0.19489852132E+02  0.16582739064E+02  0.11443848202E+02  0.28032182093E+02  0.51100000000E-03 0. -1.
        -11    1    4    4    0    0  0.17002239744E+01 -0.31526712466E+01  0.78937002258E+01  0.86683678434E+01  0.51100000000E-03 0.  1.
         12    1    4    4    0    0 -0.11826392555E+02  0.13676375361E+01  0.13052698935E+02  0.17666548695E+02  0.00000000000E+00 0. -1.
</event>
<event>
 8    1  0.2490104E-006  0.9118800E+02  0.7816164E-02  0.1184000E+00
        -11   -1    0    0    0    0  0.00000000000E+00  0.00000000000E+00  0.45593999997E+02  0.45594000000E+02  0.51100000000E-03 0.  1.
         11   -1    0    0    0    0 -0.00000000000E+00 -0.00000000000E+00 -0.45593999997E+02  0.45594000000E+02  0.51100000000E-03 0. -1.
         23    2    1    2    0    0  0.88817841970E-15  0.00000000000E+00  0.00000000000E+00  0.91188000000E+02  0.91188000000E+02 0.  0.
    9900012    2    3    3    0    0 -0.76004964680E+01  0.32906366400E+02 -0.14669105557E+02  0.54367093519E+02  0.40000021296E+02 0.  0.
        -12    1    3    3    0    0  0.76004964680E+01 -0.32906366400E+02  0.14669105557E+02  0.36820906481E+02  0.00000000000E+00 0.  1.
         11    1    4    4    0    0 -0.39568896262E+01  0.24927549372E+02 -0.32463409015E+01  0.25447562216E+02  0.51100000000E-03 0. -1.
        -11    1    4    4    0    0 -0.24665417565E+01 -0.85958550076E+01 -0.34575442161E+00  0.89494188598E+01  0.51100000000E-03 0.  1.
        -12    1    4    4    0    0 -0.11770650854E+01  0.16574672036E+02 -0.11077010233E+02  0.19970112444E+02  0.00000000000E+00 0.  1.
</event>
<event>
 8    1  0.2490104E-006  0.9118800E+02  0.7816164E-02  0.1184000E+00
        -11   -1    0    0    0    0  0.00000000000E+00  0.00000000000E+00  0.45593999997E+02  0.45594000000E+02  0.51100000000E-03 0. -1.
         11   -1    0    0    0    0 -0.00000000000E+00 -0.00000000000E+00 -0.45593999997E+02  0.45594000000E+02  0.51100000000E-03 0.  1.
         23    2    1    2    0    0  0.00000000000E+00  0.44408920985E-15  0.00000000000E+00  0.91188000000E+02  0.91188000000E+02 0.  0.
    9900012    2    3    3    0    0  0.86469369135E+01  0.19408186025E+01 -0.35738527064E+02  0.54367100886E+02  0.40000038090E+02 0.  0.
         12    1    3    3    0    0 -0.86469369135E+01 -0.19408186025E+01  0.35738527064E+02  0.36820899114E+02  0.00000000000E+00 0. -1.
         11    1    4    4    0    0 -0.67609928961E+01  0.40136754979E+01 -0.15410112340E+01  0.80121989384E+01  0.51100000000E-03 0. -1.
        -11    1    4    4    0    0  0.15892472626E+02 -0.11402535809E+02 -0.13855080456E+02  0.23969809423E+02  0.51100000000E-03 0.  1.
        -12    1    4    4    0    0 -0.48454281668E+00  0.93296789140E+01 -0.20342435374E+02  0.22385092525E+02  0.00000000000E+00 0.  1.
</event>
<event>
 8    1  0.2490104E-006  0.9118800E+02  0.7816164E-02  0.1184000E+00
        -11   -1    0    0    0    0  0.00000000000E+00  0.00000000000E+00  0.45593999997E+02  0.45594000000E+02  0.51100000000E-03 0. -1.
         11   -1    0    0    0    0 -0.00000000000E+00 -0.00000000000E+00 -0.45593999997E+02  0.45594000000E+02  0.51100000000E-03 0.  1.
         23    2    1    2    0    0  0.88817841970E-15  0.00000000000E+00  0.00000000000E+00  0.91188000000E+02  0.91188000000E+02 0.  0.
    9900012    2    3    3    0    0 -0.50347202390E+01  0.20451091572E+02  0.30202395332E+02  0.54367078798E+02  0.39999987736E+02 0.  0.
         12    1    3    3    0    0  0.50347202390E+01 -0.20451091572E+02 -0.30202395332E+02  0.36820921202E+02  0.00000000000E+00 0. -1.
         11    1    4    4    0    0  0.42929886012E+01 -0.48912775367E+01  0.10814338889E+02  0.12621579653E+02  0.51100000000E-03 0. -1.
        -11    1    4    4    0    0 -0.14437873276E+02  0.51483774034E+01  0.39827553049E+01  0.15837307685E+02  0.51100000000E-03 0.  1.
        -12    1    4    4    0    0  0.51101644361E+01  0.20193991706E+02  0.15405301138E+02  0.25908191460E+02  0.00000000000E+00 0.  1.
</event>
<event>
 8    1  0.2490104E-006  0.9118800E+02  0.7816164E-02  0.1184000E+00
        -11   -1    0    0    0    0  0.00000000000E+00  0.00000000000E+00  0.45593999997E+02  0.45594000000E+02  0.51100000000E-03 0.  1.
         11   -1    0    0    0    0 -0.00000000000E+00 -0.00000000000E+00 -0.45593999997E+02  0.45594000000E+02  0.51100000000E-03 0. -1.
         23    2    1    2    0    0 -0.71054273576E-14  0.33306690739E-15 -0.44408920985E-15  0.91188000000E+02  0.91188000000E+02 0.  0.
    9900012    2    3    3    0    0  0.36712397123E+02 -0.30352667450E+00  0.28085404658E+01  0.54367080260E+02  0.39999991069E+02 0.  0.
         12    1    3    3    0    0 -0.36712397123E+02  0.30352667450E+00 -0.28085404658E+01  0.36820919740E+02  0.00000000000E+00 0. -1.
         11    1    4    4    0    0  0.76317676974E+01  0.18028408574E+02  0.28657733419E+01  0.19785854821E+02  0.51100000000E-03 0. -1.
        -11    1    4    4    0    0  0.11047709971E+02 -0.56514751840E+01 -0.14420044993E+01  0.12492815719E+02  0.51100000000E-03 0.  1.
         12    1    4    4    0    0  0.18032919455E+02 -0.12680460064E+02  0.13847716233E+01  0.22088409720E+02  0.00000000000E+00 0. -1.
</event>
<event>
 8    1  0.2490104E-006  0.9118800E+02  0.7816164E-02  0.1184000E+00
        -11   -1    0    0    0    0  0.00000000000E+00  0.00000000000E+00  0.45593999997E+02  0.45594000000E+02  0.51100000000E-03 0.  1.
         11   -1    0    0    0    0 -0.00000000000E+00 -0.00000000000E+00 -0.45593999997E+02  0.45594000000E+02  0.51100000000E-03 0. -1.
         23    2    1    2    0    0  0.71054273576E-14 -0.88817841970E-15  0.00000000000E+00  0.91188000000E+02  0.91188000000E+02 0.  0.
    9900012    2    3    3    0    0 -0.35729594943E+02  0.62127123264E+01  0.63701032025E+01  0.54367082520E+02  0.39999996220E+02 0.  0.
        -12    1    3    3    0    0  0.35729594943E+02 -0.62127123264E+01 -0.63701032025E+01  0.36820917480E+02  0.00000000000E+00 0.  1.
         11    1    4    4    0    0 -0.26373504783E+02 -0.26734403911E+01 -0.37327997819E+01  0.26770185516E+02  0.51100000000E-03 0. -1.
        -11    1    4    4    0    0 -0.32550872818E+01 -0.75075643549E+01  0.29406439646E+01  0.86951999944E+01  0.51100000000E-03 0.  1.
        -12    1    4    4    0    0 -0.61010028787E+01  0.16393717073E+02  0.71622590199E+01  0.18901697010E+02  0.00000000000E+00 0.  1.
</event>
<event>
 8    1  0.2490104E-006  0.9118800E+02  0.7816164E-02  0.1184000E+00
        -11   -1    0    0    0    0  0.00000000000E+00  0.00000000000E+00  0.45593999997E+02  0.45594000000E+02  0.51100000000E-03 0.  1.
         11   -1    0    0    0    0 -0.00000000000E+00 -0.00000000000E+00 -0.45593999997E+02  0.45594000000E+02  0.51100000000E-03 0. -1.
         23    2    1    2    0    0 -0.17763568394E-14  0.00000000000E+00 -0.26645352591E-14  0.91188000000E+02  0.91188000000E+02 0.  0.
    9900012    2    3    3    0    0  0.12245618085E+02  0.34084545472E+02  0.66384786549E+01  0.54367071153E+02  0.39999970307E+02 0.  0.
         12    1    3    3    0    0 -0.12245618085E+02 -0.34084545472E+02 -0.66384786549E+01  0.36820928847E+02  0.00000000000E+00 0. -1.
         11    1    4    4    0    0  0.10953307261E+02  0.13909418880E+00 -0.59304534081E+01  0.12456506936E+02  0.51100000000E-03 0. -1.
        -11    1    4    4    0    0  0.58776523410E+01  0.81878820108E+01  0.12094505628E+02  0.15743737660E+02  0.51100000000E-03 0.  1.
         12    1    4    4    0    0 -0.45853415169E+01  0.25757569272E+02  0.47442643514E+00  0.26166826557E+02  0.00000000000E+00 0. -1.
</event>
<event>
 8    1  0.2490104E-006  0.9118800E+02  0.7816164E-02  0.1184000E+00
        -11   -1    0    0    0    0  0.00000000000E+00  0.00000000000E+00  0.45593999997E+02  0.45594000000E+02  0.51100000000E-03 0.  1.
         11   -1    0    0    0    0 -0.00000000000E+00 -0.00000000000E+00 -0.45593999997E+02  0.45594000000E+02  0.51100000000E-03 0. -1.
         23    2    1    2    0    0  0.00000000000E+00 -0.17763568394E-14  0.71054273576E-14  0.91188000000E+02  0.91188000000E+02 0.  0.
    9900012    2    3    3    0    0  0.93714569025E+01  0.78879353557E+01 -0.34723707496E+02  0.54367087587E+02  0.40000007772E+02 0.  0.
        -12    1    3    3    0    0 -0.93714569025E+01 -0.78879353557E+01  0.34723707496E+02  0.36820912413E+02  0.00000000000E+00 0.  1.
         11    1    4    4    0    0  0.48656940632E+01  0.14379149061E+02 -0.39187662277E+02  0.42025085145E+02  0.51100000000E-03 0. -1.
        -11    1    4    4    0    0  0.53742535541E+01 -0.54950059164E+01 -0.32315045303E-03  0.76862013798E+01  0.51100000000E-03 0.  1.
         12    1    4    4    0    0 -0.86849071479E+00 -0.99620778840E+00  0.44642779317E+01  0.46558010622E+01  0.00000000000E+00 0. -1.
</event>
<event>
 8    1  0.2490104E-006  0.9118800E+02  0.7816164E-02  0.1184000E+00
        -11   -1    0    0    0    0  0.00000000000E+00  0.00000000000E+00  0.45593999997E+02  0.45594000000E+02  0.51100000000E-03 0. -1.
         11   -1    0    0    0    0 -0.00000000000E+00 -0.00000000000E+00 -0.45593999997E+02  0.45594000000E+02  0.51100000000E-03 0.  1.
         23    2    1    2    0    0 -0.71054273576E-14  0.00000000000E+00  0.00000000000E+00  0.91188000000E+02  0.91188000000E+02 0.  0.
    9900012    2    3    3    0    0 -0.34253935777E+02  0.34995748801E+01  0.13046076625E+02  0.54367092137E+02  0.40000018144E+02 0.  0.
        -12    1    3    3    0    0  0.34253935777E+02 -0.34995748801E+01 -0.13046076625E+02  0.36820907863E+02  0.00000000000E+00 0.  1.
         11    1    4    4    0    0 -0.10123559167E+02 -0.88446015504E+01 -0.41980078145E+01  0.14083206192E+02  0.51100000000E-03 0. -1.
        -11    1    4    4    0    0 -0.13458140207E+02  0.69957697947E+01 -0.42021803843E+01  0.15739143976E+02  0.51100000000E-03 0.  1.
         12    1    4    4    0    0 -0.10672236403E+02  0.53484066358E+01  0.21446264824E+02  0.24544741968E+02  0.00000000000E+00 0. -1.
</event>
<event>
 8    1  0.2490104E-006  0.9118800E+02  0.7816164E-02  0.1184000E+00
        -11   -1    0    0    0    0  0.00000000000E+00  0.00000000000E+00  0.45593999997E+02  0.45594000000E+02  0.51100000000E-03 0.  1.
         11   -1    0    0    0    0 -0.00000000000E+00 -0.00000000000E+00 -0.45593999997E+02  0.45594000000E+02  0.51100000000E-03 0. -1.
         23    2    1    2    0    0  0.17763568394E-14  0.00000000000E+00  0.00000000000E+00  0.91188000000E+02  0.91188000000E+02 0.  0.
    9900012    2    3    3    0    0  0.14612512764E+02 -0.33696816170E+02  0.26041695163E+01  0.54367046073E+02  0.39999913132E+02 0.  0.
         12    1    3    3    0    0 -0.14612512764E+02  0.33696816170E+02 -0.26041695163E+01  0.36820953927E+02  0.00000000000E+00 0. -1.
         11    1    4    4    0    0 -0.33504971560E+01 -0.24975686035E+02  0.55438045923E+01  0.25802024992E+02  0.51100000000E-03 0. -1.
        -11    1    4    4    0    0 -0.36680752407E+01 -0.50401654163E+01 -0.22002134194E+01  0.66105206109E+01  0.51100000000E-03 0.  1.
         12    1    4    4    0    0  0.21631085160E+02 -0.36809647188E+01 -0.73942165655E+00  0.21954500469E+02  0.00000000000E+00 0. -1.
</event>
<event>
 8    1  0.2490104E-006  0.9118800E+02  0.7816164E-02  0.1184000E+00
        -11   -1    0    0    0    0  0.00000000000E+00  0.00000000000E+00  0.45593999997E+02  0.45594000000E+02  0.51100000000E-03 0.  1.
         11   -1    0    0    0    0 -0.00000000000E+00 -0.00000000000E+00 -0.45593999997E+02  0.45594000000E+02  0.51100000000E-03 0. -1.
         23    2    1    2    0    0  0.00000000000E+00  0.00000000000E+00  0.00000000000E+00  0.91188000000E+02  0.91188000000E+02 0.  0.
    9900012    2    3    3    0    0  0.19822323878E+02  0.13155380522E+02  0.28103219483E+02  0.54367088742E+02  0.40000010404E+02 0.  0.
         12    1    3    3    0    0 -0.19822323878E+02 -0.13155380522E+02 -0.28103219483E+02  0.36820911258E+02  0.00000000000E+00 0. -1.
         11    1    4    4    0    0  0.31712953787E+01  0.96651022610E+01  0.41514492670E+01  0.10986621290E+02  0.51100000000E-03 0. -1.
        -11    1    4    4    0    0 -0.38093546396E+00  0.12670739295E+02  0.19927566524E+02  0.23617803749E+02  0.51100000000E-03 0.  1.
         12    1    4    4    0    0  0.17031963964E+02 -0.91804610343E+01  0.40242036919E+01  0.19762663702E+02  0.00000000000E+00 0. -1.
</event>
<event>
 8    1  0.2490104E-006  0.9118800E+02  0.7816164E-02  0.1184000E+00
        -11   -1    0    0    0    0  0.00000000000E+00  0.00000000000E+00  0.45593999997E+02  0.45594000000E+02  0.51100000000E-03 0.  1.
         11   -1    0    0    0    0 -0.00000000000E+00 -0.00000000000E+00 -0.45593999997E+02  0.45594000000E+02  0.51100000000E-03 0. -1.
         23    2    1    2    0    0  0.00000000000E+00  0.88817841970E-15 -0.17763568394E-14  0.91188000000E+02  0.91188000000E+02 0.  0.
    9900012    2    3    3    0    0  0.35481602400E+02  0.56262323394E+01  0.80735032696E+01  0.54367081295E+02  0.39999993428E+02 0.  0.
        -12    1    3    3    0    0 -0.35481602400E+02 -0.56262323394E+01 -0.80735032696E+01  0.36820918705E+02  0.00000000000E+00 0.  1.
         11    1    4    4    0    0  0.21261510348E+02  0.11281099331E+02  0.68447732011E+01  0.25023308031E+02  0.51100000000E-03 0. -1.
        -11    1    4    4    0    0  0.18872051654E+01 -0.49809148367E+01  0.11889402590E+02  0.13028006377E+02  0.51100000000E-03 0.  1.
         12    1    4    4    0    0  0.12332886887E+02 -0.67395215465E+00 -0.10660672522E+02  0.16315766887E+02  0.00000000000E+00 0. -1.
</event>
<event>
 8    1  0.2490104E-006  0.9118800E+02  0.7816164E-02  0.1184000E+00
        -11   -1    0    0    0    0  0.00000000000E+00  0.00000000000E+00  0.45593999997E+02  0.45594000000E+02  0.51100000000E-03 0.  1.
         11   -1    0    0    0    0 -0.00000000000E+00 -0.00000000000E+00 -0.45593999997E+02  0.45594000000E+02  0.51100000000E-03 0. -1.
         23    2    1    2    0    0 -0.88817841970E-15  0.00000000000E+00  0.00000000000E+00  0.91188000000E+02  0.91188000000E+02 0.  0.
    9900012    2    3    3    0    0 -0.70824963231E+01  0.35026237525E+02  0.88758722143E+01  0.54367079630E+02  0.39999989632E+02 0.  0.
         12    1    3    3    0    0  0.70824963231E+01 -0.35026237525E+02 -0.88758722143E+01  0.36820920370E+02  0.00000000000E+00 0. -1.
         11    1    4    4    0    0 -0.27511869144E+01  0.92309895017E+00 -0.10612478028E+02  0.11002083042E+02  0.51100000000E-03 0. -1.
        -11    1    4    4    0    0 -0.49557567850E+01  0.22598225110E+02  0.21600033928E+02  0.31651236459E+02  0.51100000000E-03 0.  1.
         12    1    4    4    0    0  0.62444737640E+00  0.11504913465E+02 -0.21116836852E+01  0.11713760129E+02  0.00000000000E+00 0. -1.
</event>
<event>
 8    1  0.2490104E-006  0.9118800E+02  0.7816164E-02  0.1184000E+00
        -11   -1    0    0    0    0  0.00000000000E+00  0.00000000000E+00  0.45593999997E+02  0.45594000000E+02  0.51100000000E-03 0.  1.
         11   -1    0    0    0    0 -0.00000000000E+00 -0.00000000000E+00 -0.45593999997E+02  0.45594000000E+02  0.51100000000E-03 0. -1.
         23    2    1    2    0    0  0.00000000000E+00  0.88817841970E-15  0.00000000000E+00  0.91188000000E+02  0.91188000000E+02 0.  0.
    9900012    2    3    3    0    0 -0.26477021474E+02  0.24481916731E+01 -0.25470723732E+02  0.54367026682E+02  0.39999868928E+02 0.  0.
         12    1    3    3    0    0  0.26477021474E+02 -0.24481916731E+01  0.25470723732E+02  0.36820973318E+02  0.00000000000E+00 0. -1.
         11    1    4    4    0    0  0.34307802190E+01  0.97784475680E+01 -0.15443703921E+02  0.18598287039E+02  0.51100000000E-03 0. -1.
        -11    1    4    4    0    0 -0.30645565768E+02 -0.39863962576E+01 -0.92342263290E+01  0.32253883371E+02  0.51100000000E-03 0.  1.
        -12    1    4    4    0    0  0.73776407506E+00 -0.33438596373E+01 -0.79279348260E+00  0.35148562717E+01  0.00000000000E+00 0.  1.
</event>
<event>
 8    1  0.2490104E-006  0.9118800E+02  0.7816164E-02  0.1184000E+00
        -11   -1    0    0    0    0  0.00000000000E+00  0.00000000000E+00  0.45593999997E+02  0.45594000000E+02  0.51100000000E-03 0.  1.
         11   -1    0    0    0    0 -0.00000000000E+00 -0.00000000000E+00 -0.45593999997E+02  0.45594000000E+02  0.51100000000E-03 0. -1.
         23    2    1    2    0    0  0.00000000000E+00  0.00000000000E+00 -0.17763568394E-14  0.91188000000E+02  0.91188000000E+02 0.  0.
    9900012    2    3    3    0    0  0.90639794706E+01  0.32631397002E+02  0.14450519229E+02  0.54367064378E+02  0.39999954862E+02 0.  0.
         12    1    3    3    0    0 -0.90639794706E+01 -0.32631397002E+02 -0.14450519229E+02  0.36820935622E+02  0.00000000000E+00 0. -1.
         11    1    4    4    0    0 -0.36825781900E+01  0.38225013702E+01 -0.29284988192E+01  0.60620957140E+01  0.51100000000E-03 0. -1.
        -11    1    4    4    0    0  0.65598535498E+01  0.31931698229E+02  0.22567354001E+02  0.39647830928E+02  0.51100000000E-03 0.  1.
        -12    1    4    4    0    0  0.61867041109E+01 -0.31228025979E+01 -0.51883359527E+01  0.86571377359E+01  0.00000000000E+00 0.  1.
</event>
<event>
 8    1  0.2490104E-006  0.9118800E+02  0.7816164E-02  0.1184000E+00
        -11   -1    0    0    0    0  0.00000000000E+00  0.00000000000E+00  0.45593999997E+02  0.45594000000E+02  0.51100000000E-03 0. -1.
         11   -1    0    0    0    0 -0.00000000000E+00 -0.00000000000E+00 -0.45593999997E+02  0.45594000000E+02  0.51100000000E-03 0.  1.
         23    2    1    2    0    0  0.00000000000E+00  0.22204460493E-14 -0.17763568394E-14  0.91188000000E+02  0.91188000000E+02 0.  0.
    9900012    2    3    3    0    0  0.33215513581E+02 -0.22364758971E+01  0.15732379713E+02  0.54367082869E+02  0.39999997018E+02 0.  0.
        -12    1    3    3    0    0 -0.33215513581E+02  0.22364758971E+01 -0.15732379713E+02  0.36820917131E+02  0.00000000000E+00 0.  1.
         11    1    4    4    0    0  0.13046960001E+02  0.58758808142E+01  0.96606554659E+01  0.17264918329E+02  0.51100000000E-03 0. -1.
        -11    1    4    4    0    0  0.90241146667E+00  0.24148044656E+01 -0.97212961978E+01  0.10057297206E+02  0.51100000000E-03 0.  1.
         12    1    4    4    0    0  0.19266142114E+02 -0.10527161177E+02  0.15793020445E+02  0.27044867335E+02  0.00000000000E+00 0. -1.
</event>
<event>
 8    1  0.2490104E-006  0.9118800E+02  0.7816164E-02  0.1184000E+00
        -11   -1    0    0    0    0  0.00000000000E+00  0.00000000000E+00  0.45593999997E+02  0.45594000000E+02  0.51100000000E-03 0. -1.
         11   -1    0    0    0    0 -0.00000000000E+00 -0.00000000000E+00 -0.45593999997E+02  0.45594000000E+02  0.51100000000E-03 0.  1.
         23    2    1    2    0    0  0.00000000000E+00 -0.22204460493E-15  0.00000000000E+00  0.91188000000E+02  0.91188000000E+02 0.  0.
    9900012    2    3    3    0    0  0.25307785114E+02 -0.18627652488E+01 -0.26680068670E+02  0.54367082766E+02  0.39999996781E+02 0.  0.
         12    1    3    3    0    0 -0.25307785114E+02  0.18627652488E+01  0.26680068670E+02  0.36820917234E+02  0.00000000000E+00 0. -1.
         11    1    4    4    0    0 -0.50292529710E+00 -0.16756511461E+01  0.67454375556E+01  0.69686202864E+01  0.51100000000E-03 0. -1.
        -11    1    4    4    0    0 -0.16911885276E+01  0.45479160816E+01 -0.93834898513E+01  0.10563784425E+02  0.51100000000E-03 0.  1.
         12    1    4    4    0    0  0.27501898939E+02 -0.47350301843E+01 -0.24042016374E+02  0.36834678055E+02  0.00000000000E+00 0. -1.
</event>
<event>
 8    1  0.2490104E-006  0.9118800E+02  0.7816164E-02  0.1184000E+00
        -11   -1    0    0    0    0  0.00000000000E+00  0.00000000000E+00  0.45593999997E+02  0.45594000000E+02  0.51100000000E-03 0.  1.
         11   -1    0    0    0    0 -0.00000000000E+00 -0.00000000000E+00 -0.45593999997E+02  0.45594000000E+02  0.51100000000E-03 0. -1.
         23    2    1    2    0    0 -0.17763568394E-14  0.00000000000E+00  0.00000000000E+00  0.91188000000E+02  0.91188000000E+02 0.  0.
    9900012    2    3    3    0    0 -0.82736841146E+01  0.34148504573E+02  0.11009369241E+02  0.54367076268E+02  0.39999981967E+02 0.  0.
         12    1    3    3    0    0  0.82736841146E+01 -0.34148504573E+02 -0.11009369241E+02  0.36820923732E+02  0.00000000000E+00 0. -1.
         11    1    4    4    0    0 -0.25697474550E+00  0.24227111018E+01 -0.31892691279E+01  0.40133530787E+01  0.51100000000E-03 0. -1.
        -11    1    4    4    0    0 -0.16324230247E+02  0.25069944638E+02 -0.30640951749E+01  0.30072766697E+02  0.51100000000E-03 0.  1.
        -12    1    4    4    0    0  0.83075208775E+01  0.66558488338E+01  0.17262733544E+02  0.20280956492E+02  0.00000000000E+00 0.  1.
</event>
<event>
 8    1  0.2490104E-006  0.9118800E+02  0.7816164E-02  0.1184000E+00
        -11   -1    0    0    0    0  0.00000000000E+00  0.00000000000E+00  0.45593999997E+02  0.45594000000E+02  0.51100000000E-03 0.  1.
         11   -1    0    0    0    0 -0.00000000000E+00 -0.00000000000E+00 -0.45593999997E+02  0.45594000000E+02  0.51100000000E-03 0. -1.
         23    2    1    2    0    0  0.44408920985E-15  0.00000000000E+00 -0.35527136788E-14  0.91188000000E+02  0.91188000000E+02 0.  0.
    9900012    2    3    3    0    0 -0.14100463010E+01 -0.25794318144E+02 -0.26238238708E+02  0.54367078643E+02  0.39999987382E+02 0.  0.
        -12    1    3    3    0    0  0.14100463010E+01  0.25794318144E+02  0.26238238708E+02  0.36820921357E+02  0.00000000000E+00 0.  1.
         11    1    4    4    0    0  0.15660004813E+02 -0.11451800462E+02 -0.16501426556E+02  0.25469129612E+02  0.51100000000E-03 0. -1.
        -11    1    4    4    0    0 -0.14218052467E+01 -0.17268438903E+01 -0.84670794773E+01  0.87575655930E+01  0.51100000000E-03 0.  1.
        -12    1    4    4    0    0 -0.15648245867E+02 -0.12615673792E+02 -0.12697326753E+01  0.20140383438E+02  0.00000000000E+00 0.  1.
</event>
<event>
 8    1  0.2490104E-006  0.9118800E+02  0.7816164E-02  0.1184000E+00
        -11   -1    0    0    0    0  0.00000000000E+00  0.00000000000E+00  0.45593999997E+02  0.45594000000E+02  0.51100000000E-03 0.  1.
         11   -1    0    0    0    0 -0.00000000000E+00 -0.00000000000E+00 -0.45593999997E+02  0.45594000000E+02  0.51100000000E-03 0. -1.
         23    2    1    2    0    0  0.00000000000E+00  0.00000000000E+00  0.00000000000E+00  0.91188000000E+02  0.91188000000E+02 0.  0.
    9900012    2    3    3    0    0  0.57975447261E+01 -0.26096419630E+02  0.25320855909E+02  0.54367076786E+02  0.39999983149E+02 0.  0.
         12    1    3    3    0    0 -0.57975447261E+01  0.26096419630E+02 -0.25320855909E+02  0.36820923214E+02  0.00000000000E+00 0. -1.
         11    1    4    4    0    0 -0.84159786829E+01 -0.17567345568E+02  0.88140859517E+01  0.21380562175E+02  0.51100000000E-03 0. -1.
        -11    1    4    4    0    0 -0.18394981886E+01 -0.48617717856E+00  0.14831865566E+02  0.14953406243E+02  0.51100000000E-03 0.  1.
         12    1    4    4    0    0  0.16053021598E+02 -0.80428968834E+01  0.16749043913E+01  0.18033108368E+02  0.00000000000E+00 0. -1.
</event>
<event>
 8    1  0.2490104E-006  0.9118800E+02  0.7816164E-02  0.1184000E+00
        -11   -1    0    0    0    0  0.00000000000E+00  0.00000000000E+00  0.45593999997E+02  0.45594000000E+02  0.51100000000E-03 0.  1.
         11   -1    0    0    0    0 -0.00000000000E+00 -0.00000000000E+00 -0.45593999997E+02  0.45594000000E+02  0.51100000000E-03 0. -1.
         23    2    1    2    0    0  0.00000000000E+00  0.35527136788E-14  0.00000000000E+00  0.91188000000E+02  0.91188000000E+02 0.  0.
    9900012    2    3    3    0    0 -0.18249245542E+02 -0.26358096946E+02  0.18110659967E+02  0.54367078747E+02  0.39999987620E+02 0.  0.
         12    1    3    3    0    0  0.18249245542E+02  0.26358096946E+02 -0.18110659967E+02  0.36820921253E+02  0.00000000000E+00 0. -1.
         11    1    4    4    0    0 -0.51440559386E+01  0.34052522797E+01 -0.15119075598E+01  0.63516076168E+01  0.51100000000E-03 0. -1.
        -11    1    4    4    0    0 -0.12832659515E+02 -0.51641468190E+01  0.18877974959E+02  0.23403493360E+02  0.51100000000E-03 0.  1.
        -12    1    4    4    0    0 -0.27253008789E+00 -0.24599202407E+02  0.74459256759E+00  0.24611977771E+02  0.00000000000E+00 0.  1.
</event>
<event>
 8    1  0.2490104E-006  0.9118800E+02  0.7816164E-02  0.1184000E+00
        -11   -1    0    0    0    0  0.00000000000E+00  0.00000000000E+00  0.45593999997E+02  0.45594000000E+02  0.51100000000E-03 0.  1.
         11   -1    0    0    0    0 -0.00000000000E+00 -0.00000000000E+00 -0.45593999997E+02  0.45594000000E+02  0.51100000000E-03 0. -1.
         23    2    1    2    0    0  0.00000000000E+00  0.35527136788E-14  0.00000000000E+00  0.91188000000E+02  0.91188000000E+02 0.  0.
    9900012    2    3    3    0    0  0.97022121377E+01  0.29392065012E+02  0.19943755567E+02  0.54367084855E+02  0.40000001544E+02 0.  0.
         12    1    3    3    0    0 -0.97022121377E+01 -0.29392065012E+02 -0.19943755567E+02  0.36820915145E+02  0.00000000000E+00 0. -1.
         11    1    4    4    0    0  0.43849554556E+01 -0.30460340985E+01 -0.15521249191E+01  0.55601483885E+01  0.51100000000E-03 0. -1.
        -11    1    4    4    0    0  0.35188355840E+01  0.11357851185E+02  0.24696055126E+02  0.27409453232E+02  0.51100000000E-03 0.  1.
        -12    1    4    4    0    0  0.17984210981E+01  0.21080247925E+02 -0.32001746406E+01  0.21397483234E+02  0.00000000000E+00 0.  1.
</event>
<event>
 8    1  0.2490104E-006  0.9118800E+02  0.7816164E-02  0.1184000E+00
        -11   -1    0    0    0    0  0.00000000000E+00  0.00000000000E+00  0.45593999997E+02  0.45594000000E+02  0.51100000000E-03 0. -1.
         11   -1    0    0    0    0 -0.00000000000E+00 -0.00000000000E+00 -0.45593999997E+02  0.45594000000E+02  0.51100000000E-03 0.  1.
         23    2    1    2    0    0 -0.35527136788E-14  0.00000000000E+00  0.00000000000E+00  0.91188000000E+02  0.91188000000E+02 0.  0.
    9900012    2    3    3    0    0  0.28624160912E+02  0.99395528499E+01  0.20919917717E+02  0.54367078555E+02  0.39999987181E+02 0.  0.
        -12    1    3    3    0    0 -0.28624160912E+02 -0.99395528499E+01 -0.20919917717E+02  0.36820921445E+02  0.00000000000E+00 0.  1.
         11    1    4    4    0    0  0.25586512191E+02  0.92959048784E+01  0.28398203711E+02  0.39338803081E+02  0.51100000000E-03 0. -1.
        -11    1    4    4    0    0  0.65157917265E+01 -0.34832725994E+01 -0.57466340771E+01  0.93601566922E+01  0.51100000000E-03 0.  1.
         12    1    4    4    0    0 -0.34781430052E+01  0.41269205709E+01 -0.17316519161E+01  0.56681187815E+01  0.00000000000E+00 0. -1.
</event>
<event>
 8    1  0.2490104E-006  0.9118800E+02  0.7816164E-02  0.1184000E+00
        -11   -1    0    0    0    0  0.00000000000E+00  0.00000000000E+00  0.45593999997E+02  0.45594000000E+02  0.51100000000E-03 0. -1.
         11   -1    0    0    0    0 -0.00000000000E+00 -0.00000000000E+00 -0.45593999997E+02  0.45594000000E+02  0.51100000000E-03 0.  1.
         23    2    1    2    0    0 -0.44408920985E-15  0.00000000000E+00 -0.14432899320E-14  0.91188000000E+02  0.91188000000E+02 0.  0.
    9900012    2    3    3    0    0 -0.17442940527E+01  0.36774032188E+02 -0.64154278424E+00  0.54367033388E+02  0.39999884213E+02 0.  0.
         12    1    3    3    0    0  0.17442940527E+01 -0.36774032188E+02  0.64154278424E+00  0.36820966612E+02  0.00000000000E+00 0. -1.
         11    1    4    4    0    0  0.14049186070E+02  0.20814193429E+02 -0.77335590530E+01  0.26275810419E+02  0.51100000000E-03 0. -1.
        -11    1    4    4    0    0 -0.13864565781E+01  0.11771969912E+02  0.52894405785E+01  0.12979973781E+02  0.51100000000E-03 0.  1.
        -12    1    4    4    0    0 -0.14407023544E+02  0.41878688476E+01  0.18025756903E+01  0.15111249188E+02  0.00000000000E+00 0.  1.
</event>
<event>
 8    1  0.2490104E-006  0.9118800E+02  0.7816164E-02  0.1184000E+00
        -11   -1    0    0    0    0  0.00000000000E+00  0.00000000000E+00  0.45593999997E+02  0.45594000000E+02  0.51100000000E-03 0.  1.
         11   -1    0    0    0    0 -0.00000000000E+00 -0.00000000000E+00 -0.45593999997E+02  0.45594000000E+02  0.51100000000E-03 0. -1.
         23    2    1    2    0    0 -0.38857805862E-15  0.88817841970E-15 -0.71054273576E-14  0.91188000000E+02  0.91188000000E+02 0.  0.
    9900012    2    3    3    0    0 -0.14209075023E+00  0.43728040139E+01 -0.36560042971E+02  0.54367104482E+02  0.40000046287E+02 0.  0.
        -12    1    3    3    0    0  0.14209075023E+00 -0.43728040139E+01  0.36560042971E+02  0.36820895518E+02  0.00000000000E+00 0.  1.
         11    1    4    4    0    0 -0.84916948931E+01  0.54626988589E+01 -0.14333809269E+02  0.17533055906E+02  0.51100000000E-03 0. -1.
        -11    1    4    4    0    0 -0.10204666624E+02 -0.10538991118E+01 -0.46032580546E+01  0.11244372336E+02  0.51100000000E-03 0.  1.
         12    1    4    4    0    0  0.18554270767E+02 -0.35995733271E-01 -0.17622975647E+02  0.25589676240E+02  0.00000000000E+00 0. -1.
</event>
<event>
 8    1  0.2490104E-006  0.9118800E+02  0.7816164E-02  0.1184000E+00
        -11   -1    0    0    0    0  0.00000000000E+00  0.00000000000E+00  0.45593999997E+02  0.45594000000E+02  0.51100000000E-03 0.  1.
         11   -1    0    0    0    0 -0.00000000000E+00 -0.00000000000E+00 -0.45593999997E+02  0.45594000000E+02  0.51100000000E-03 0. -1.
         23    2    1    2    0    0  0.00000000000E+00 -0.35527136788E-14 -0.88817841970E-15  0.91188000000E+02  0.91188000000E+02 0.  0.
    9900012    2    3    3    0    0  0.24516857032E+02  0.27316245922E+02  0.29199213140E+01  0.54367088679E+02  0.40000010262E+02 0.  0.
         12    1    3    3    0    0 -0.24516857032E+02 -0.27316245922E+02 -0.29199213140E+01  0.36820911321E+02  0.00000000000E+00 0. -1.
         11    1    4    4    0    0  0.11260823884E+02  0.79356061570E+01 -0.62227738080E+01  0.15116312836E+02  0.51100000000E-03 0. -1.
        -11    1    4    4    0    0  0.21775707104E+02  0.74566401800E+01  0.24729858598E+01  0.23149482974E+02  0.51100000000E-03 0.  1.
         12    1    4    4    0    0 -0.85196739556E+01  0.11923999585E+02  0.66697092622E+01  0.16101292869E+02  0.00000000000E+00 0. -1.
</event>
<event>
 8    1  0.2490104E-006  0.9118800E+02  0.7816164E-02  0.1184000E+00
        -11   -1    0    0    0    0  0.00000000000E+00  0.00000000000E+00  0.45593999997E+02  0.45594000000E+02  0.51100000000E-03 0.  1.
         11   -1    0    0    0    0 -0.00000000000E+00 -0.00000000000E+00 -0.45593999997E+02  0.45594000000E+02  0.51100000000E-03 0. -1.
         23    2    1    2    0    0  0.88817841970E-15 -0.33306690739E-15  0.71054273576E-14  0.91188000000E+02  0.91188000000E+02 0.  0.
    9900012    2    3    3    0    0  0.59652684875E+01  0.34456705664E+00  0.36332865285E+02  0.54367078578E+02  0.39999987233E+02 0.  0.
         12    1    3    3    0    0 -0.59652684875E+01 -0.34456705664E+00 -0.36332865285E+02  0.36820921422E+02  0.00000000000E+00 0. -1.
         11    1    4    4    0    0 -0.28565739319E+00  0.13105451756E+01  0.22749106978E+01  0.26408990416E+01  0.51100000000E-03 0. -1.
        -11    1    4    4    0    0  0.21295989645E+02  0.55881572931E+01  0.23553326624E+02  0.32241368957E+02  0.51100000000E-03 0.  1.
         12    1    4    4    0    0 -0.15045063764E+02 -0.65541354121E+01  0.10504627963E+02  0.19484810579E+02  0.00000000000E+00 0. -1.
</event>
<event>
 8    1  0.2490104E-006  0.9118800E+02  0.7816164E-02  0.1184000E+00
        -11   -1    0    0    0    0  0.00000000000E+00  0.00000000000E+00  0.45593999997E+02  0.45594000000E+02  0.51100000000E-03 0. -1.
         11   -1    0    0    0    0 -0.00000000000E+00 -0.00000000000E+00 -0.45593999997E+02  0.45594000000E+02  0.51100000000E-03 0.  1.
         23    2    1    2    0    0  0.00000000000E+00 -0.66613381478E-15 -0.35527136788E-14  0.91188000000E+02  0.91188000000E+02 0.  0.
    9900012    2    3    3    0    0 -0.32430256016E+02 -0.39431478440E+00  0.17432803097E+02  0.54367087284E+02  0.40000007082E+02 0.  0.
        -12    1    3    3    0    0  0.32430256016E+02  0.39431478440E+00 -0.17432803097E+02  0.36820912716E+02  0.00000000000E+00 0.  1.
         11    1    4    4    0    0 -0.17019177621E+02  0.81837129932E+01  0.22976324906E+02  0.29741167961E+02  0.51100000000E-03 0. -1.
        -11    1    4    4    0    0 -0.12845299093E+02 -0.66809501462E+01 -0.11082568375E+02  0.18233489125E+02  0.51100000000E-03 0.  1.
        -12    1    4    4    0    0 -0.25657793025E+01 -0.18970776314E+01  0.55390465666E+01  0.63924301979E+01  0.00000000000E+00 0.  1.
</event>
<event>
 8    1  0.2490104E-006  0.9118800E+02  0.7816164E-02  0.1184000E+00
        -11   -1    0    0    0    0  0.00000000000E+00  0.00000000000E+00  0.45593999997E+02  0.45594000000E+02  0.51100000000E-03 0.  1.
         11   -1    0    0    0    0 -0.00000000000E+00 -0.00000000000E+00 -0.45593999997E+02  0.45594000000E+02  0.51100000000E-03 0. -1.
         23    2    1    2    0    0  0.71054273576E-14  0.35527136788E-14 -0.55511151231E-16  0.91188000000E+02  0.91188000000E+02 0.  0.
    9900012    2    3    3    0    0 -0.28719876908E+02 -0.23041717323E+02  0.16481679863E+00  0.54367092470E+02  0.40000018903E+02 0.  0.
        -12    1    3    3    0    0  0.28719876908E+02  0.23041717323E+02 -0.16481679863E+00  0.36820907530E+02  0.00000000000E+00 0.  1.
         11    1    4    4    0    0  0.15689904748E+01 -0.77776642131E+01  0.11366197538E+02  0.13861610240E+02  0.51100000000E-03 0. -1.
        -11    1    4    4    0    0 -0.13357229249E+02 -0.37220776220E+01  0.46215778730E+01  0.14616032886E+02  0.51100000000E-03 0.  1.
         12    1    4    4    0    0 -0.16931638134E+02 -0.11541975487E+02 -0.15822958612E+02  0.25889449343E+02  0.00000000000E+00 0. -1.
</event>
<event>
 8    1  0.2490104E-006  0.9118800E+02  0.7816164E-02  0.1184000E+00
        -11   -1    0    0    0    0  0.00000000000E+00  0.00000000000E+00  0.45593999997E+02  0.45594000000E+02  0.51100000000E-03 0. -1.
         11   -1    0    0    0    0 -0.00000000000E+00 -0.00000000000E+00 -0.45593999997E+02  0.45594000000E+02  0.51100000000E-03 0.  1.
         23    2    1    2    0    0  0.00000000000E+00 -0.17763568394E-14  0.00000000000E+00  0.91188000000E+02  0.91188000000E+02 0.  0.
    9900012    2    3    3    0    0 -0.24188329317E+02 -0.11492444588E+02  0.25271086556E+02  0.54367090539E+02  0.40000014503E+02 0.  0.
        -12    1    3    3    0    0  0.24188329317E+02  0.11492444588E+02 -0.25271086556E+02  0.36820909461E+02  0.00000000000E+00 0.  1.
         11    1    4    4    0    0 -0.27137549142E+02 -0.89652326624E+01  0.29881734700E+02  0.41349002879E+02  0.51100000000E-03 0. -1.
        -11    1    4    4    0    0  0.72860726890E+01 -0.32655321389E+00 -0.24217954465E+01  0.76849584043E+01  0.51100000000E-03 0.  1.
        -12    1    4    4    0    0 -0.43368528642E+01 -0.22006587122E+01 -0.21888526975E+01  0.53331292563E+01  0.00000000000E+00 0.  1.
</event>
<event>
 8    1  0.2490104E-006  0.9118800E+02  0.7816164E-02  0.1184000E+00
        -11   -1    0    0    0    0  0.00000000000E+00  0.00000000000E+00  0.45593999997E+02  0.45594000000E+02  0.51100000000E-03 0.  1.
         11   -1    0    0    0    0 -0.00000000000E+00 -0.00000000000E+00 -0.45593999997E+02  0.45594000000E+02  0.51100000000E-03 0. -1.
         23    2    1    2    0    0  0.00000000000E+00  0.13322676296E-14 -0.71054273576E-14  0.91188000000E+02  0.91188000000E+02 0.  0.
    9900012    2    3    3    0    0 -0.18805695111E+02  0.32168194755E+01 -0.31492495196E+02  0.54367090862E+02  0.40000015237E+02 0.  0.
        -12    1    3    3    0    0  0.18805695111E+02 -0.32168194755E+01  0.31492495196E+02  0.36820909138E+02  0.00000000000E+00 0.  1.
         11    1    4    4    0    0 -0.14837930647E+02  0.20489259832E+00 -0.31061599407E+02  0.34424251987E+02  0.51100000000E-03 0. -1.
        -11    1    4    4    0    0 -0.91406437639E+01  0.68165599207E+01  0.40634715265E+01  0.12104902258E+02  0.51100000000E-03 0.  1.
         12    1    4    4    0    0  0.51728792999E+01 -0.38046330435E+01 -0.44943673151E+01  0.78379366169E+01  0.00000000000E+00 0. -1.
</event>
<event>
 8    1  0.2490104E-006  0.9118800E+02  0.7816164E-02  0.1184000E+00
        -11   -1    0    0    0    0  0.00000000000E+00  0.00000000000E+00  0.45593999997E+02  0.45594000000E+02  0.51100000000E-03 0. -1.
         11   -1    0    0    0    0 -0.00000000000E+00 -0.00000000000E+00 -0.45593999997E+02  0.45594000000E+02  0.51100000000E-03 0.  1.
         23    2    1    2    0    0 -0.66613381478E-15  0.71054273576E-14  0.00000000000E+00  0.91188000000E+02  0.91188000000E+02 0.  0.
    9900012    2    3    3    0    0 -0.13629747549E+01 -0.35573183531E+02 -0.94058817520E+01  0.54367086130E+02  0.40000004449E+02 0.  0.
        -12    1    3    3    0    0  0.13629747549E+01  0.35573183531E+02  0.94058817520E+01  0.36820913870E+02  0.00000000000E+00 0.  1.
         11    1    4    4    0    0 -0.17850849995E+00 -0.66586716265E+01 -0.96225348910E+01  0.11703117153E+02  0.51100000000E-03 0.  1.
        -11    1    4    4    0    0 -0.11714453968E+02 -0.19088799113E+02  0.10728368205E+02  0.24833617697E+02  0.51100000000E-03 0. -1.
         12    1    4    4    0    0  0.10529987713E+02 -0.98257127920E+01 -0.10511715066E+02  0.17830351279E+02  0.00000000000E+00 0. -1.
</event>
<event>
 8    1  0.2490104E-006  0.9118800E+02  0.7816164E-02  0.1184000E+00
        -11   -1    0    0    0    0  0.00000000000E+00  0.00000000000E+00  0.45593999997E+02  0.45594000000E+02  0.51100000000E-03 0. -1.
         11   -1    0    0    0    0 -0.00000000000E+00 -0.00000000000E+00 -0.45593999997E+02  0.45594000000E+02  0.51100000000E-03 0.  1.
         23    2    1    2    0    0  0.17763568394E-14  0.00000000000E+00  0.00000000000E+00  0.91188000000E+02  0.91188000000E+02 0.  0.
    9900012    2    3    3    0    0 -0.15545376603E+02 -0.81829167543E+01 -0.32359857652E+02  0.54367092249E+02  0.40000018400E+02 0.  0.
         12    1    3    3    0    0  0.15545376603E+02  0.81829167543E+01  0.32359857652E+02  0.36820907751E+02  0.00000000000E+00 0. -1.
         11    1    4    4    0    0  0.41109707998E+01  0.19638405709E+01  0.43401245527E+01  0.62923312134E+01  0.51100000000E-03 0. -1.
        -11    1    4    4    0    0 -0.22500556751E+02 -0.83097294796E+01 -0.20585399553E+02  0.31608311141E+02  0.51100000000E-03 0.  1.
        -12    1    4    4    0    0  0.28442093480E+01 -0.18370278456E+01 -0.16114582651E+02  0.16466449895E+02  0.00000000000E+00 0.  1.
</event>
<event>
 8    1  0.2490104E-006  0.9118800E+02  0.7816164E-02  0.1184000E+00
        -11   -1    0    0    0    0  0.00000000000E+00  0.00000000000E+00  0.45593999997E+02  0.45594000000E+02  0.51100000000E-03 0.  1.
         11   -1    0    0    0    0 -0.00000000000E+00 -0.00000000000E+00 -0.45593999997E+02  0.45594000000E+02  0.51100000000E-03 0. -1.
         23    2    1    2    0    0  0.00000000000E+00  0.00000000000E+00 -0.35527136788E-14  0.91188000000E+02  0.91188000000E+02 0.  0.
    9900012    2    3    3    0    0 -0.12177737054E+02 -0.20614195217E+02 -0.27973864369E+02  0.54367090017E+02  0.40000013312E+02 0.  0.
        -12    1    3    3    0    0  0.12177737054E+02  0.20614195217E+02  0.27973864369E+02  0.36820909983E+02  0.00000000000E+00 0.  1.
         11    1    4    4    0    0 -0.92006521715E+01 -0.22570826394E+02 -0.32945204510E+02  0.40981467824E+02  0.51100000000E-03 0. -1.
        -11    1    4    4    0    0  0.45402053935E+01  0.39947391922E+00  0.30106184916E+01  0.54623134651E+01  0.51100000000E-03 0.  1.
         12    1    4    4    0    0 -0.75172902763E+01  0.15571572577E+01  0.19607216493E+01  0.79233087286E+01  0.00000000000E+00 0. -1.
</event>
<event>
 8    1  0.2490104E-006  0.9118800E+02  0.7816164E-02  0.1184000E+00
        -11   -1    0    0    0    0  0.00000000000E+00  0.00000000000E+00  0.45593999997E+02  0.45594000000E+02  0.51100000000E-03 0. -1.
         11   -1    0    0    0    0 -0.00000000000E+00 -0.00000000000E+00 -0.45593999997E+02  0.45594000000E+02  0.51100000000E-03 0.  1.
         23    2    1    2    0    0  0.00000000000E+00  0.00000000000E+00  0.00000000000E+00  0.91188000000E+02  0.91188000000E+02 0.  0.
    9900012    2    3    3    0    0 -0.25976327532E+02 -0.20498101099E+02 -0.16150430841E+02  0.54367107058E+02  0.40000052160E+02 0.  0.
         12    1    3    3    0    0  0.25976327532E+02  0.20498101099E+02  0.16150430841E+02  0.36820892942E+02  0.00000000000E+00 0. -1.
         11    1    4    4    0    0 -0.10343255253E+02  0.10409763217E+02 -0.82506636763E+01  0.16835069077E+02  0.51100000000E-03 0. -1.
        -11    1    4    4    0    0 -0.14583727646E+02 -0.19229035433E+02 -0.89939230617E+01  0.25755224092E+02  0.51100000000E-03 0.  1.
         12    1    4    4    0    0 -0.10493446330E+01 -0.11678828883E+02  0.10941558973E+01  0.11776813889E+02  0.00000000000E+00 0. -1.
</event>
<event>
 8    1  0.2490104E-006  0.9118800E+02  0.7816164E-02  0.1184000E+00
        -11   -1    0    0    0    0  0.00000000000E+00  0.00000000000E+00  0.45593999997E+02  0.45594000000E+02  0.51100000000E-03 0. -1.
         11   -1    0    0    0    0 -0.00000000000E+00 -0.00000000000E+00 -0.45593999997E+02  0.45594000000E+02  0.51100000000E-03 0.  1.
         23    2    1    2    0    0 -0.35527136788E-14  0.00000000000E+00 -0.35527136788E-14  0.91188000000E+02  0.91188000000E+02 0.  0.
    9900012    2    3    3    0    0  0.17474707534E+02  0.23583013200E+02  0.22231863637E+02  0.54367086435E+02  0.40000005145E+02 0.  0.
        -12    1    3    3    0    0 -0.17474707534E+02 -0.23583013200E+02 -0.22231863637E+02  0.36820913565E+02  0.00000000000E+00 0.  1.
         11    1    4    4    0    0  0.23703486492E+01  0.90891655807E+01  0.19347089312E+02  0.21506774486E+02  0.51100000000E-03 0. -1.
        -11    1    4    4    0    0 -0.69355412160E+01  0.57544955103E+01  0.39588905000E+00  0.90206806250E+01  0.51100000000E-03 0.  1.
         12    1    4    4    0    0  0.22039900101E+02  0.87393521093E+01  0.24888852749E+01  0.23839631324E+02  0.00000000000E+00 0. -1.
</event>
<event>
 8    1  0.2490104E-006  0.9118800E+02  0.7816164E-02  0.1184000E+00
        -11   -1    0    0    0    0  0.00000000000E+00  0.00000000000E+00  0.45593999997E+02  0.45594000000E+02  0.51100000000E-03 0. -1.
         11   -1    0    0    0    0 -0.00000000000E+00 -0.00000000000E+00 -0.45593999997E+02  0.45594000000E+02  0.51100000000E-03 0.  1.
         23    2    1    2    0    0  0.00000000000E+00 -0.26645352591E-14  0.14210854715E-13  0.91188000000E+02  0.91188000000E+02 0.  0.
    9900012    2    3    3    0    0  0.94071114957E+01  0.53349512386E+01  0.35196938510E+02  0.54367082957E+02  0.39999997217E+02 0.  0.
        -12    1    3    3    0    0 -0.94071114957E+01 -0.53349512386E+01 -0.35196938510E+02  0.36820917043E+02  0.00000000000E+00 0.  1.
         11    1    4    4    0    0  0.22049922463E+01  0.51270187861E+01  0.17392194127E+02  0.18265725533E+02  0.51100000000E-03 0. -1.
        -11    1    4    4    0    0 -0.53692486379E+01 -0.96951988239E+01 -0.13234840528E+01  0.11161421122E+02  0.51100000000E-03 0.  1.
        -12    1    4    4    0    0  0.12571367887E+02  0.99031312764E+01  0.19128228436E+02  0.24939936302E+02  0.00000000000E+00 0.  1.
</event>
<event>
 8    1  0.2490104E-006  0.9118800E+02  0.7816164E-02  0.1184000E+00
        -11   -1    0    0    0    0  0.00000000000E+00  0.00000000000E+00  0.45593999997E+02  0.45594000000E+02  0.51100000000E-03 0.  1.
         11   -1    0    0    0    0 -0.00000000000E+00 -0.00000000000E+00 -0.45593999997E+02  0.45594000000E+02  0.51100000000E-03 0. -1.
         23    2    1    2    0    0  0.00000000000E+00  0.22204460493E-15  0.71054273576E-14  0.91188000000E+02  0.91188000000E+02 0.  0.
    9900012    2    3    3    0    0  0.78887019969E+01 -0.74494157637E+00 -0.35958217701E+02  0.54367082339E+02  0.39999995809E+02 0.  0.
        -12    1    3    3    0    0 -0.78887019969E+01  0.74494157637E+00  0.35958217701E+02  0.36820917661E+02  0.00000000000E+00 0.  1.
         11    1    4    4    0    0  0.12058143878E+02  0.80412095174E+01 -0.35115099800E+01  0.14912765903E+02  0.51100000000E-03 0. -1.
        -11    1    4    4    0    0  0.82026946157E+01 -0.25428049121E+01 -0.12569295066E+02  0.15222918068E+02  0.51100000000E-03 0.  1.
        -12    1    4    4    0    0 -0.12372136496E+02 -0.62433461816E+01 -0.19877412655E+02  0.24231398368E+02  0.00000000000E+00 0.  1.
</event>
<event>
 8    1  0.2490104E-006  0.9118800E+02  0.7816164E-02  0.1184000E+00
        -11   -1    0    0    0    0  0.00000000000E+00  0.00000000000E+00  0.45593999997E+02  0.45594000000E+02  0.51100000000E-03 0.  1.
         11   -1    0    0    0    0 -0.00000000000E+00 -0.00000000000E+00 -0.45593999997E+02  0.45594000000E+02  0.51100000000E-03 0. -1.
         23    2    1    2    0    0  0.71054273576E-14  0.00000000000E+00 -0.99920072216E-15  0.91188000000E+02  0.91188000000E+02 0.  0.
    9900012    2    3    3    0    0 -0.34647750427E+02  0.12450485463E+02  0.54639467749E+00  0.54367085495E+02  0.40000003002E+02 0.  0.
        -12    1    3    3    0    0  0.34647750427E+02 -0.12450485463E+02 -0.54639467749E+00  0.36820914505E+02  0.00000000000E+00 0.  1.
         11    1    4    4    0    0 -0.40470162673E+00 -0.45758314187E+01  0.14023907663E+01  0.48029903915E+01  0.51100000000E-03 0. -1.
        -11    1    4    4    0    0 -0.70650691987E+01 -0.59482982063E+01  0.87293603149E+01  0.12708233005E+02  0.51100000000E-03 0.  1.
         12    1    4    4    0    0 -0.27177979601E+02  0.22974615088E+02 -0.95853564037E+01  0.36855862098E+02  0.00000000000E+00 0. -1.
</event>
<event>
 8    1  0.2490104E-006  0.9118800E+02  0.7816164E-02  0.1184000E+00
        -11   -1    0    0    0    0  0.00000000000E+00  0.00000000000E+00  0.45593999997E+02  0.45594000000E+02  0.51100000000E-03 0.  1.
         11   -1    0    0    0    0 -0.00000000000E+00 -0.00000000000E+00 -0.45593999997E+02  0.45594000000E+02  0.51100000000E-03 0. -1.
         23    2    1    2    0    0  0.35527136788E-14  0.35527136788E-14  0.00000000000E+00  0.91188000000E+02  0.91188000000E+02 0.  0.
    9900012    2    3    3    0    0 -0.17713438971E+02  0.30452435038E+02  0.10708055382E+02  0.54367093303E+02  0.40000020802E+02 0.  0.
         12    1    3    3    0    0  0.17713438971E+02 -0.30452435038E+02 -0.10708055382E+02  0.36820906697E+02  0.00000000000E+00 0. -1.
         11    1    4    4    0    0  0.11602380804E+02  0.26074189485E+01  0.10253915505E+01  0.11935882958E+02  0.51100000000E-03 0. -1.
        -11    1    4    4    0    0 -0.23641303852E+02  0.17161066887E+02  0.69835123082E+01  0.30036359782E+02  0.51100000000E-03 0.  1.
        -12    1    4    4    0    0 -0.56745159234E+01  0.10683949203E+02  0.26991515231E+01  0.12394850563E+02  0.00000000000E+00 0.  1.
</event>
<event>
 8    1  0.2490104E-006  0.9118800E+02  0.7816164E-02  0.1184000E+00
        -11   -1    0    0    0    0  0.00000000000E+00  0.00000000000E+00  0.45593999997E+02  0.45594000000E+02  0.51100000000E-03 0.  1.
         11   -1    0    0    0    0 -0.00000000000E+00 -0.00000000000E+00 -0.45593999997E+02  0.45594000000E+02  0.51100000000E-03 0. -1.
         23    2    1    2    0    0 -0.35527136788E-14  0.35527136788E-14  0.17763568394E-14  0.91188000000E+02  0.91188000000E+02 0.  0.
    9900012    2    3    3    0    0  0.28209050478E+02 -0.19992835208E+02 -0.12661548352E+02  0.54367098392E+02  0.40000032405E+02 0.  0.
        -12    1    3    3    0    0 -0.28209050478E+02  0.19992835208E+02  0.12661548352E+02  0.36820901608E+02  0.00000000000E+00 0.  1.
         11    1    4    4    0    0  0.58526755298E+01 -0.88463855810E+01  0.43693070825E+00  0.10616179040E+02  0.51100000000E-03 0. -1.
        -11    1    4    4    0    0  0.28116635381E+02 -0.11051478426E+02 -0.85835572642E+00  0.30222791654E+02  0.51100000000E-03 0.  1.
         12    1    4    4    0    0 -0.57602604331E+01 -0.94971200522E-01 -0.12240123334E+02  0.13528127698E+02  0.00000000000E+00 0. -1.
</event>
<event>
 8    1  0.2490104E-006  0.9118800E+02  0.7816164E-02  0.1184000E+00
        -11   -1    0    0    0    0  0.00000000000E+00  0.00000000000E+00  0.45593999997E+02  0.45594000000E+02  0.51100000000E-03 0. -1.
         11   -1    0    0    0    0 -0.00000000000E+00 -0.00000000000E+00 -0.45593999997E+02  0.45594000000E+02  0.51100000000E-03 0.  1.
         23    2    1    2    0    0  0.00000000000E+00  0.88817841970E-15  0.00000000000E+00  0.91188000000E+02  0.91188000000E+02 0.  0.
    9900012    2    3    3    0    0 -0.34188016655E+02  0.50274973265E+01  0.12715956090E+02  0.54366922457E+02  0.39999631323E+02 0.  0.
        -12    1    3    3    0    0  0.34188016655E+02 -0.50274973265E+01 -0.12715956090E+02  0.36821077543E+02  0.00000000000E+00 0.  1.
         11    1    4    4    0    0 -0.33428586340E+02  0.11185809277E+02  0.13503797418E+02  0.37748447106E+02  0.51100000000E-03 0. -1.
        -11    1    4    4    0    0 -0.53594609030E+01 -0.92161910569E+01 -0.22682576580E+01  0.10899862010E+02  0.51100000000E-03 0.  1.
         12    1    4    4    0    0  0.46000305885E+01  0.30578791060E+01  0.14804163293E+01  0.57186133416E+01  0.00000000000E+00 0. -1.
</event>
<event>
 8    1  0.2490104E-006  0.9118800E+02  0.7816164E-02  0.1184000E+00
        -11   -1    0    0    0    0  0.00000000000E+00  0.00000000000E+00  0.45593999997E+02  0.45594000000E+02  0.51100000000E-03 0. -1.
         11   -1    0    0    0    0 -0.00000000000E+00 -0.00000000000E+00 -0.45593999997E+02  0.45594000000E+02  0.51100000000E-03 0.  1.
         23    2    1    2    0    0  0.00000000000E+00  0.00000000000E+00  0.88817841970E-15  0.91188000000E+02  0.91188000000E+02 0.  0.
    9900012    2    3    3    0    0 -0.11927967677E+02  0.34228716972E+02 -0.64729397475E+01  0.54367076228E+02  0.39999981877E+02 0.  0.
        -12    1    3    3    0    0  0.11927967677E+02 -0.34228716972E+02  0.64729397475E+01  0.36820923772E+02  0.00000000000E+00 0.  1.
         11    1    4    4    0    0 -0.10120773323E+02  0.15600614402E+02 -0.17702382392E+02  0.25674570396E+02  0.51100000000E-03 0. -1.
        -11    1    4    4    0    0  0.22603055415E-01  0.98317128646E+01 -0.43160388526E+01  0.10737377724E+02  0.51100000000E-03 0.  1.
        -12    1    4    4    0    0 -0.18297974093E+01  0.87963897051E+01  0.15545481497E+02  0.17955128108E+02  0.00000000000E+00 0.  1.
</event>
<event>
 8    1  0.2490104E-006  0.9118800E+02  0.7816164E-02  0.1184000E+00
        -11   -1    0    0    0    0  0.00000000000E+00  0.00000000000E+00  0.45593999997E+02  0.45594000000E+02  0.51100000000E-03 0.  1.
         11   -1    0    0    0    0 -0.00000000000E+00 -0.00000000000E+00 -0.45593999997E+02  0.45594000000E+02  0.51100000000E-03 0. -1.
         23    2    1    2    0    0  0.17763568394E-14  0.00000000000E+00  0.00000000000E+00  0.91188000000E+02  0.91188000000E+02 0.  0.
    9900012    2    3    3    0    0  0.11151872584E+02 -0.10332015626E+02 -0.33536199270E+02  0.54366926271E+02  0.39999640019E+02 0.  0.
        -12    1    3    3    0    0 -0.11151872584E+02  0.10332015626E+02  0.33536199270E+02  0.36821073729E+02  0.00000000000E+00 0.  1.
         11    1    4    4    0    0  0.27013076381E+01 -0.24028212470E+01 -0.60622806634E+01  0.70584601723E+01  0.51100000000E-03 0. -1.
        -11    1    4    4    0    0  0.11708854920E+02  0.99070053178E+00 -0.33875661735E+02  0.35855811653E+02  0.51100000000E-03 0.  1.
         12    1    4    4    0    0 -0.32582899737E+01 -0.89198949111E+01  0.64017431282E+01  0.11452654446E+02  0.00000000000E+00 0. -1.
</event>
<event>
 8    1  0.2490104E-006  0.9118800E+02  0.7816164E-02  0.1184000E+00
        -11   -1    0    0    0    0  0.00000000000E+00  0.00000000000E+00  0.45593999997E+02  0.45594000000E+02  0.51100000000E-03 0.  1.
         11   -1    0    0    0    0 -0.00000000000E+00 -0.00000000000E+00 -0.45593999997E+02  0.45594000000E+02  0.51100000000E-03 0. -1.
         23    2    1    2    0    0  0.00000000000E+00  0.44408920985E-15  0.17763568394E-14  0.91188000000E+02  0.91188000000E+02 0.  0.
    9900012    2    3    3    0    0 -0.35468700604E+02  0.23270152059E+01  0.96088564619E+01  0.54367165615E+02  0.40000185652E+02 0.  0.
         12    1    3    3    0    0  0.35468700604E+02 -0.23270152059E+01 -0.96088564619E+01  0.36820834385E+02  0.00000000000E+00 0. -1.
         11    1    4    4    0    0  0.15636368343E+01  0.26865964482E+01 -0.71821366282E+01  0.78259726189E+01  0.51100000000E-03 0. -1.
        -11    1    4    4    0    0 -0.17841455861E+01  0.54466023911E+01  0.78437369612E+01  0.97145696177E+01  0.51100000000E-03 0.  1.
        -12    1    4    4    0    0 -0.35248191852E+02 -0.58061836334E+01  0.89472561289E+01  0.36826623379E+02  0.00000000000E+00 0.  1.
</event>
<event>
 8    1  0.2490104E-006  0.9118800E+02  0.7816164E-02  0.1184000E+00
        -11   -1    0    0    0    0  0.00000000000E+00  0.00000000000E+00  0.45593999997E+02  0.45594000000E+02  0.51100000000E-03 0.  1.
         11   -1    0    0    0    0 -0.00000000000E+00 -0.00000000000E+00 -0.45593999997E+02  0.45594000000E+02  0.51100000000E-03 0. -1.
         23    2    1    2    0    0 -0.14210854715E-13  0.00000000000E+00 -0.22204460493E-15  0.91188000000E+02  0.91188000000E+02 0.  0.
    9900012    2    3    3    0    0 -0.36657849713E+02  0.29386675012E+01  0.18292154990E+01  0.54367085540E+02  0.40000003106E+02 0.  0.
         12    1    3    3    0    0  0.36657849713E+02 -0.29386675012E+01 -0.18292154990E+01  0.36820914460E+02  0.00000000000E+00 0. -1.
         11    1    4    4    0    0 -0.22790765149E+01  0.10357955950E+01  0.16156577615E+01  0.29794987060E+01  0.51100000000E-03 0. -1.
        -11    1    4    4    0    0  0.55698746526E+01  0.64846353260E+01  0.64335683060E+01  0.10698822382E+02  0.51100000000E-03 0.  1.
         12    1    4    4    0    0 -0.39948647851E+02 -0.45817634197E+01 -0.62200105685E+01  0.40688764452E+02  0.00000000000E+00 0. -1.
</event>
<event>
 8    1  0.2490104E-006  0.9118800E+02  0.7816164E-02  0.1184000E+00
        -11   -1    0    0    0    0  0.00000000000E+00  0.00000000000E+00  0.45593999997E+02  0.45594000000E+02  0.51100000000E-03 0.  1.
         11   -1    0    0    0    0 -0.00000000000E+00 -0.00000000000E+00 -0.45593999997E+02  0.45594000000E+02  0.51100000000E-03 0. -1.
         23    2    1    2    0    0  0.44408920985E-15 -0.35527136788E-14  0.00000000000E+00  0.91188000000E+02  0.91188000000E+02 0.  0.
    9900012    2    3    3    0    0  0.35079712532E+01 -0.84609140047E+01 -0.35663472745E+02  0.54367133412E+02  0.40000112238E+02 0.  0.
        -12    1    3    3    0    0 -0.35079712532E+01  0.84609140047E+01  0.35663472745E+02  0.36820866588E+02  0.00000000000E+00 0.  1.
         11    1    4    4    0    0  0.52226127743E+01  0.42612952057E+01 -0.23615223702E+01  0.71422061848E+01  0.51100000000E-03 0. -1.
        -11    1    4    4    0    0 -0.25228320476E+01  0.37977886373E+01  0.42242171223E+01  0.62154557863E+01  0.51100000000E-03 0.  1.
         12    1    4    4    0    0  0.80819052657E+00 -0.16519997848E+02 -0.37526167497E+02  0.41009471440E+02  0.00000000000E+00 0. -1.
</event>
<event>
 8    1  0.2490104E-006  0.9118800E+02  0.7816164E-02  0.1184000E+00
        -11   -1    0    0    0    0  0.00000000000E+00  0.00000000000E+00  0.45593999997E+02  0.45594000000E+02  0.51100000000E-03 0.  1.
         11   -1    0    0    0    0 -0.00000000000E+00 -0.00000000000E+00 -0.45593999997E+02  0.45594000000E+02  0.51100000000E-03 0. -1.
         23    2    1    2    0    0 -0.88817841970E-15  0.00000000000E+00  0.00000000000E+00  0.91188000000E+02  0.91188000000E+02 0.  0.
    9900012    2    3    3    0    0 -0.75189272538E+01 -0.29307355112E+02 -0.20983902975E+02  0.54367088621E+02  0.40000010129E+02 0.  0.
        -12    1    3    3    0    0  0.75189272538E+01  0.29307355112E+02  0.20983902975E+02  0.36820911379E+02  0.00000000000E+00 0.  1.
         11    1    4    4    0    0  0.25166395912E+01 -0.14084844187E+02  0.38069201606E+01  0.14805706737E+02  0.51100000000E-03 0. -1.
        -11    1    4    4    0    0 -0.10426965735E+02 -0.20792675760E+02 -0.24767093667E+02  0.33977432344E+02  0.51100000000E-03 0.  1.
        -12    1    4    4    0    0  0.39139889036E+00  0.55701648347E+01 -0.23729468523E-01  0.55839495399E+01  0.00000000000E+00 0.  1.
</event>
<event>
 8    1  0.2490104E-006  0.9118800E+02  0.7816164E-02  0.1184000E+00
        -11   -1    0    0    0    0  0.00000000000E+00  0.00000000000E+00  0.45593999997E+02  0.45594000000E+02  0.51100000000E-03 0.  1.
         11   -1    0    0    0    0 -0.00000000000E+00 -0.00000000000E+00 -0.45593999997E+02  0.45594000000E+02  0.51100000000E-03 0. -1.
         23    2    1    2    0    0  0.35527136788E-14  0.00000000000E+00  0.00000000000E+00  0.91188000000E+02  0.91188000000E+02 0.  0.
    9900012    2    3    3    0    0  0.29759629559E+02  0.51051572286E+01  0.21073246646E+02  0.54367083309E+02  0.39999998019E+02 0.  0.
         12    1    3    3    0    0 -0.29759629559E+02 -0.51051572286E+01 -0.21073246646E+02  0.36820916691E+02  0.00000000000E+00 0. -1.
         11    1    4    4    0    0  0.16212269761E+02  0.91026862335E+01  0.84526377001E+01  0.20424095374E+02  0.51100000000E-03 0. -1.
        -11    1    4    4    0    0  0.60176181306E+01  0.67215001458E+01  0.17721304304E+02  0.19885545471E+02  0.51100000000E-03 0.  1.
         12    1    4    4    0    0  0.75297416664E+01 -0.10719029151E+02 -0.51006953585E+01  0.14057442464E+02  0.00000000000E+00 0. -1.
</event>
<event>
 8    1  0.2490104E-006  0.9118800E+02  0.7816164E-02  0.1184000E+00
        -11   -1    0    0    0    0  0.00000000000E+00  0.00000000000E+00  0.45593999997E+02  0.45594000000E+02  0.51100000000E-03 0. -1.
         11   -1    0    0    0    0 -0.00000000000E+00 -0.00000000000E+00 -0.45593999997E+02  0.45594000000E+02  0.51100000000E-03 0.  1.
         23    2    1    2    0    0  0.44408920985E-15  0.00000000000E+00 -0.17763568394E-14  0.91188000000E+02  0.91188000000E+02 0.  0.
    9900012    2    3    3    0    0 -0.36311849615E+00 -0.35582221450E+02  0.94632197485E+01  0.54367097426E+02  0.40000030203E+02 0.  0.
        -12    1    3    3    0    0  0.36311849615E+00  0.35582221450E+02 -0.94632197485E+01  0.36820902574E+02  0.00000000000E+00 0.  1.
         11    1    4    4    0    0 -0.63639431808E+01 -0.12490089768E+02  0.10068694675E+02  0.17259221534E+02  0.51100000000E-03 0. -1.
        -11    1    4    4    0    0 -0.67913307659E+01 -0.15666410494E+02 -0.98041636809E+01  0.19689596671E+02  0.51100000000E-03 0.  1.
         12    1    4    4    0    0  0.12792155451E+02 -0.74257211873E+01  0.91986887546E+01  0.17418279221E+02  0.00000000000E+00 0. -1.
</event>
<event>
 8    1  0.2490104E-006  0.9118800E+02  0.7816164E-02  0.1184000E+00
        -11   -1    0    0    0    0  0.00000000000E+00  0.00000000000E+00  0.45593999997E+02  0.45594000000E+02  0.51100000000E-03 0. -1.
         11   -1    0    0    0    0 -0.00000000000E+00 -0.00000000000E+00 -0.45593999997E+02  0.45594000000E+02  0.51100000000E-03 0.  1.
         23    2    1    2    0    0  0.00000000000E+00  0.00000000000E+00  0.35527136788E-14  0.91188000000E+02  0.91188000000E+02 0.  0.
    9900012    2    3    3    0    0  0.85694006969E+01  0.22292053240E+02  0.28025287328E+02  0.54366987035E+02  0.39999778544E+02 0.  0.
        -12    1    3    3    0    0 -0.85694006969E+01 -0.22292053240E+02 -0.28025287328E+02  0.36821012965E+02  0.00000000000E+00 0.  1.
         11    1    4    4    0    0  0.20864579261E+01  0.26382605902E+02  0.28721838797E+02  0.39055591469E+02  0.51100000000E-03 0. -1.
        -11    1    4    4    0    0 -0.24160039052E+01  0.27748694449E+01 -0.16485241750E+01  0.40317003265E+01  0.51100000000E-03 0.  1.
        -12    1    4    4    0    0  0.88989466760E+01 -0.68654221077E+01  0.95197270580E+00  0.11279695239E+02  0.00000000000E+00 0.  1.
</event>
<event>
 8    1  0.2490104E-006  0.9118800E+02  0.7816164E-02  0.1184000E+00
        -11   -1    0    0    0    0  0.00000000000E+00  0.00000000000E+00  0.45593999997E+02  0.45594000000E+02  0.51100000000E-03 0. -1.
         11   -1    0    0    0    0 -0.00000000000E+00 -0.00000000000E+00 -0.45593999997E+02  0.45594000000E+02  0.51100000000E-03 0.  1.
         23    2    1    2    0    0  0.00000000000E+00 -0.71054273576E-14  0.00000000000E+00  0.91188000000E+02  0.91188000000E+02 0.  0.
    9900012    2    3    3    0    0  0.12542722754E+02 -0.16635945836E+02 -0.30359652564E+02  0.54367040048E+02  0.39999899398E+02 0.  0.
         12    1    3    3    0    0 -0.12542722754E+02  0.16635945836E+02  0.30359652564E+02  0.36820959952E+02  0.00000000000E+00 0. -1.
         11    1    4    4    0    0  0.24086860353E+01 -0.23290417466E+01 -0.21956319612E+01  0.40058711717E+01  0.51100000000E-03 0. -1.
        -11    1    4    4    0    0  0.11437993856E+02  0.10571522083E+02 -0.50390857497E+01  0.16370008187E+02  0.51100000000E-03 0.  1.
        -12    1    4    4    0    0 -0.13039571375E+01 -0.24878426172E+02 -0.23124934853E+02  0.33991160689E+02  0.00000000000E+00 0.  1.
</event>
<event>
 8    1  0.2490104E-006  0.9118800E+02  0.7816164E-02  0.1184000E+00
        -11   -1    0    0    0    0  0.00000000000E+00  0.00000000000E+00  0.45593999997E+02  0.45594000000E+02  0.51100000000E-03 0. -1.
         11   -1    0    0    0    0 -0.00000000000E+00 -0.00000000000E+00 -0.45593999997E+02  0.45594000000E+02  0.51100000000E-03 0.  1.
         23    2    1    2    0    0  0.00000000000E+00  0.00000000000E+00 -0.26645352591E-14  0.91188000000E+02  0.91188000000E+02 0.  0.
    9900012    2    3    3    0    0 -0.25082248702E+02  0.25879405055E+02 -0.75444083241E+01  0.54367069771E+02  0.39999967156E+02 0.  0.
         12    1    3    3    0    0  0.25082248702E+02 -0.25879405055E+02  0.75444083241E+01  0.36820930229E+02  0.00000000000E+00 0. -1.
         11    1    4    4    0    0 -0.11978396414E+02  0.94836990874E+00 -0.15539204578E+02  0.19643020779E+02  0.51100000000E-03 0. -1.
        -11    1    4    4    0    0 -0.14645024503E+02  0.90911862048E+01  0.79258642734E+00  0.17255567299E+02  0.51100000000E-03 0.  1.
         12    1    4    4    0    0  0.15411722136E+01  0.15839848942E+02  0.72022098268E+01  0.17468481694E+02  0.00000000000E+00 0. -1.
</event>
<event>
 8    1  0.2490104E-006  0.9118800E+02  0.7816164E-02  0.1184000E+00
        -11   -1    0    0    0    0  0.00000000000E+00  0.00000000000E+00  0.45593999997E+02  0.45594000000E+02  0.51100000000E-03 0. -1.
         11   -1    0    0    0    0 -0.00000000000E+00 -0.00000000000E+00 -0.45593999997E+02  0.45594000000E+02  0.51100000000E-03 0.  1.
         23    2    1    2    0    0  0.00000000000E+00 -0.71054273576E-14  0.31086244690E-14  0.91188000000E+02  0.91188000000E+02 0.  0.
    9900012    2    3    3    0    0  0.10882146700E+02  0.35036259602E+02 -0.31331766270E+01  0.54367117345E+02  0.40000075611E+02 0.  0.
         12    1    3    3    0    0 -0.10882146700E+02 -0.35036259602E+02  0.31331766270E+01  0.36820882655E+02  0.00000000000E+00 0. -1.
         11    1    4    4    0    0  0.32866215795E+01  0.63907060650E+01  0.13065409588E+02  0.14911335735E+02  0.51100000000E-03 0. -1.
        -11    1    4    4    0    0 -0.38655088705E+01  0.22773952006E+02 -0.10435778358E+02  0.25347593948E+02  0.51100000000E-03 0.  1.
         12    1    4    4    0    0  0.11461033991E+02  0.58716015319E+01 -0.57628078574E+01  0.14108187662E+02  0.00000000000E+00 0. -1.
</event>
<event>
 8    1  0.2490104E-006  0.9118800E+02  0.7816164E-02  0.1184000E+00
        -11   -1    0    0    0    0  0.00000000000E+00  0.00000000000E+00  0.45593999997E+02  0.45594000000E+02  0.51100000000E-03 0. -1.
         11   -1    0    0    0    0 -0.00000000000E+00 -0.00000000000E+00 -0.45593999997E+02  0.45594000000E+02  0.51100000000E-03 0.  1.
         23    2    1    2    0    0  0.35527136788E-14  0.00000000000E+00 -0.44408920985E-15  0.91188000000E+02  0.91188000000E+02 0.  0.
    9900012    2    3    3    0    0  0.16402508657E+02  0.32735012367E+02 -0.38932007740E+01  0.54367077454E+02  0.39999984671E+02 0.  0.
        -12    1    3    3    0    0 -0.16402508657E+02 -0.32735012367E+02  0.38932007740E+01  0.36820922546E+02  0.00000000000E+00 0.  1.
         11    1    4    4    0    0 -0.34571463697E+01  0.69342900105E+01  0.39474546422E+01  0.86958977331E+01  0.51100000000E-03 0. -1.
        -11    1    4    4    0    0  0.12465347154E+02  0.32107538852E+02 -0.96870023713E+01  0.35778721973E+02  0.51100000000E-03 0.  1.
         12    1    4    4    0    0  0.73943078720E+01 -0.63068164956E+01  0.18463469551E+01  0.98924577479E+01  0.00000000000E+00 0. -1.
</event>
<event>
 8    1  0.2490104E-006  0.9118800E+02  0.7816164E-02  0.1184000E+00
        -11   -1    0    0    0    0  0.00000000000E+00  0.00000000000E+00  0.45593999997E+02  0.45594000000E+02  0.51100000000E-03 0.  1.
         11   -1    0    0    0    0 -0.00000000000E+00 -0.00000000000E+00 -0.45593999997E+02  0.45594000000E+02  0.51100000000E-03 0. -1.
         23    2    1    2    0    0  0.35527136788E-14  0.00000000000E+00 -0.35527136788E-14  0.91188000000E+02  0.91188000000E+02 0.  0.
    9900012    2    3    3    0    0 -0.22699527172E+02 -0.16133801358E+02  0.24087583199E+02  0.54367085502E+02  0.40000003019E+02 0.  0.
         12    1    3    3    0    0  0.22699527172E+02  0.16133801358E+02 -0.24087583199E+02  0.36820914498E+02  0.00000000000E+00 0. -1.
         11    1    4    4    0    0 -0.19544532401E+02  0.69470049140E+01  0.86049574075E+01  0.22456511668E+02  0.51100000000E-03 0. -1.
        -11    1    4    4    0    0 -0.65049135844E+01 -0.21345754467E+02  0.83205972056E+01  0.23815698030E+02  0.51100000000E-03 0.  1.
        -12    1    4    4    0    0  0.33499188132E+01 -0.17350518044E+01  0.71620285861E+01  0.80948758043E+01  0.00000000000E+00 0.  1.
</event>
<event>
 8    1  0.2490104E-006  0.9118800E+02  0.7816164E-02  0.1184000E+00
        -11   -1    0    0    0    0  0.00000000000E+00  0.00000000000E+00  0.45593999997E+02  0.45594000000E+02  0.51100000000E-03 0.  1.
         11   -1    0    0    0    0 -0.00000000000E+00 -0.00000000000E+00 -0.45593999997E+02  0.45594000000E+02  0.51100000000E-03 0. -1.
         23    2    1    2    0    0  0.00000000000E+00  0.00000000000E+00 -0.17763568394E-14  0.91188000000E+02  0.91188000000E+02 0.  0.
    9900012    2    3    3    0    0 -0.12568604975E+02 -0.33004992151E+02 -0.10415420970E+02  0.54367077525E+02  0.39999984835E+02 0.  0.
        -12    1    3    3    0    0  0.12568604975E+02  0.33004992151E+02  0.10415420970E+02  0.36820922475E+02  0.00000000000E+00 0.  1.
         11    1    4    4    0    0 -0.35268104060E+01 -0.10091091313E+02 -0.85042576871E+01  0.13659828498E+02  0.51100000000E-03 0. -1.
        -11    1    4    4    0    0 -0.18860314562E+02 -0.17780942972E+02 -0.91325600278E+01  0.27482304330E+02  0.51100000000E-03 0.  1.
        -12    1    4    4    0    0  0.98185199932E+01 -0.51329578668E+01  0.72213967449E+01  0.13224944698E+02  0.00000000000E+00 0.  1.
</event>
<event>
 8    1  0.2490104E-006  0.9118800E+02  0.7816164E-02  0.1184000E+00
        -11   -1    0    0    0    0  0.00000000000E+00  0.00000000000E+00  0.45593999997E+02  0.45594000000E+02  0.51100000000E-03 0.  1.
         11   -1    0    0    0    0 -0.00000000000E+00 -0.00000000000E+00 -0.45593999997E+02  0.45594000000E+02  0.51100000000E-03 0. -1.
         23    2    1    2    0    0 -0.35527136788E-14  0.35527136788E-14  0.00000000000E+00  0.91188000000E+02  0.91188000000E+02 0.  0.
    9900012    2    3    3    0    0 -0.21162184707E+02  0.29384415395E+02  0.66708872463E+01  0.54367045826E+02  0.39999912569E+02 0.  0.
         12    1    3    3    0    0  0.21162184707E+02 -0.29384415395E+02 -0.66708872463E+01  0.36820954174E+02  0.00000000000E+00 0. -1.
         11    1    4    4    0    0  0.88377736101E+00 -0.59655213052E+01  0.61428043319E+01  0.86082839281E+01  0.51100000000E-03 0. -1.
        -11    1    4    4    0    0 -0.21407155908E+02  0.29076239945E+02  0.69375740621E+01  0.36767159090E+02  0.51100000000E-03 0.  1.
         12    1    4    4    0    0 -0.63880615940E+00  0.62736967552E+01 -0.64094911477E+01  0.89916028080E+01  0.00000000000E+00 0. -1.
</event>
<event>
 8    1  0.2490104E-006  0.9118800E+02  0.7816164E-02  0.1184000E+00
        -11   -1    0    0    0    0  0.00000000000E+00  0.00000000000E+00  0.45593999997E+02  0.45594000000E+02  0.51100000000E-03 0.  1.
         11   -1    0    0    0    0 -0.00000000000E+00 -0.00000000000E+00 -0.45593999997E+02  0.45594000000E+02  0.51100000000E-03 0. -1.
         23    2    1    2    0    0  0.00000000000E+00 -0.17763568394E-14  0.00000000000E+00  0.91188000000E+02  0.91188000000E+02 0.  0.
    9900012    2    3    3    0    0 -0.32035454400E+02 -0.10101101675E+02  0.15082331153E+02  0.54367091447E+02  0.40000016572E+02 0.  0.
         12    1    3    3    0    0  0.32035454400E+02  0.10101101675E+02 -0.15082331153E+02  0.36820908553E+02  0.00000000000E+00 0. -1.
         11    1    4    4    0    0 -0.32740337552E+02 -0.10435910176E+02  0.14734762542E+01  0.34394898703E+02  0.51100000000E-03 0. -1.
        -11    1    4    4    0    0 -0.30989805908E+01  0.21717109381E+01 -0.16581923955E+01  0.41315386216E+01  0.51100000000E-03 0.  1.
         12    1    4    4    0    0  0.38038637436E+01 -0.18369024368E+01  0.15267047295E+02  0.15840654123E+02  0.00000000000E+00 0. -1.
</event>
<event>
 8    1  0.2490104E-006  0.9118800E+02  0.7816164E-02  0.1184000E+00
        -11   -1    0    0    0    0  0.00000000000E+00  0.00000000000E+00  0.45593999997E+02  0.45594000000E+02  0.51100000000E-03 0. -1.
         11   -1    0    0    0    0 -0.00000000000E+00 -0.00000000000E+00 -0.45593999997E+02  0.45594000000E+02  0.51100000000E-03 0.  1.
         23    2    1    2    0    0  0.00000000000E+00  0.00000000000E+00  0.44408920985E-15  0.91188000000E+02  0.91188000000E+02 0.  0.
    9900012    2    3    3    0    0  0.24954025099E+02  0.27010735930E+02 -0.18701071809E+01  0.54367074903E+02  0.39999978857E+02 0.  0.
         12    1    3    3    0    0 -0.24954025099E+02 -0.27010735930E+02  0.18701071809E+01  0.36820925097E+02  0.00000000000E+00 0. -1.
         11    1    4    4    0    0  0.18768512135E+02  0.12666351605E+02 -0.30477301746E+01  0.22846929120E+02  0.51100000000E-03 0. -1.
        -11    1    4    4    0    0  0.12984063638E+02  0.14364522943E+02 -0.72644901915E+01  0.20680866663E+02  0.51100000000E-03 0.  1.
         12    1    4    4    0    0 -0.67985506732E+01 -0.20138617663E-01  0.84421131853E+01  0.10839279121E+02  0.00000000000E+00 0. -1.
</event>
<event>
 8    1  0.2490104E-006  0.9118800E+02  0.7816164E-02  0.1184000E+00
        -11   -1    0    0    0    0  0.00000000000E+00  0.00000000000E+00  0.45593999997E+02  0.45594000000E+02  0.51100000000E-03 0.  1.
         11   -1    0    0    0    0 -0.00000000000E+00 -0.00000000000E+00 -0.45593999997E+02  0.45594000000E+02  0.51100000000E-03 0. -1.
         23    2    1    2    0    0 -0.17763568394E-14  0.61062266354E-15  0.00000000000E+00  0.91188000000E+02  0.91188000000E+02 0.  0.
    9900012    2    3    3    0    0  0.15516546899E+02 -0.12398246742E+00  0.33391635341E+02  0.54367083254E+02  0.39999997893E+02 0.  0.
         12    1    3    3    0    0 -0.15516546899E+02  0.12398246742E+00 -0.33391635341E+02  0.36820916746E+02  0.00000000000E+00 0. -1.
         11    1    4    4    0    0  0.74911740592E+01 -0.99749889536E+01  0.11525804386E+02  0.16984176766E+02  0.51100000000E-03 0. -1.
        -11    1    4    4    0    0  0.43666075956E+01 -0.26271942242E+01  0.23708016779E+02  0.24249525175E+02  0.51100000000E-03 0.  1.
        -12    1    4    4    0    0  0.36587652439E+01  0.12478200710E+02 -0.18421858241E+01  0.13133381312E+02  0.00000000000E+00 0.  1.
</event>
<event>
 8    1  0.2490104E-006  0.9118800E+02  0.7816164E-02  0.1184000E+00
        -11   -1    0    0    0    0  0.00000000000E+00  0.00000000000E+00  0.45593999997E+02  0.45594000000E+02  0.51100000000E-03 0.  1.
         11   -1    0    0    0    0 -0.00000000000E+00 -0.00000000000E+00 -0.45593999997E+02  0.45594000000E+02  0.51100000000E-03 0. -1.
         23    2    1    2    0    0  0.35527136788E-14  0.00000000000E+00  0.17763568394E-14  0.91188000000E+02  0.91188000000E+02 0.  0.
    9900012    2    3    3    0    0 -0.15362969998E+02  0.31779974587E+02 -0.10478098567E+02  0.54367106726E+02  0.40000051403E+02 0.  0.
        -12    1    3    3    0    0  0.15362969998E+02 -0.31779974587E+02  0.10478098567E+02  0.36820893274E+02  0.00000000000E+00 0.  1.
         11    1    4    4    0    0  0.38840226067E+01  0.10610170060E+02  0.69371373974E+01  0.13258401708E+02  0.51100000000E-03 0.  1.
        -11    1    4    4    0    0 -0.42480595986E+01  0.61140762878E+00 -0.14935459393E+02  0.15539877001E+02  0.51100000000E-03 0. -1.
         12    1    4    4    0    0 -0.14998933007E+02  0.20558396898E+02 -0.24797765710E+01  0.25568828018E+02  0.00000000000E+00 0. -1.
</event>
<event>
 8    1  0.2490104E-006  0.9118800E+02  0.7816164E-02  0.1184000E+00
        -11   -1    0    0    0    0  0.00000000000E+00  0.00000000000E+00  0.45593999997E+02  0.45594000000E+02  0.51100000000E-03 0.  1.
         11   -1    0    0    0    0 -0.00000000000E+00 -0.00000000000E+00 -0.45593999997E+02  0.45594000000E+02  0.51100000000E-03 0. -1.
         23    2    1    2    0    0  0.00000000000E+00  0.00000000000E+00 -0.35527136788E-14  0.91188000000E+02  0.91188000000E+02 0.  0.
    9900012    2    3    3    0    0  0.22656054811E+02  0.18718874179E+02  0.22183026103E+02  0.54367085872E+02  0.40000003862E+02 0.  0.
         12    1    3    3    0    0 -0.22656054811E+02 -0.18718874179E+02 -0.22183026103E+02  0.36820914128E+02  0.00000000000E+00 0. -1.
         11    1    4    4    0    0  0.79717554688E+01  0.10246486225E+02 -0.50530529883E+01  0.13930998169E+02  0.51100000000E-03 0. -1.
        -11    1    4    4    0    0  0.97950786446E+01  0.11340446045E+02  0.26655515515E+01  0.15220198668E+02  0.51100000000E-03 0.  1.
         12    1    4    4    0    0  0.48892206981E+01 -0.28680580910E+01  0.24570527540E+02  0.25215889035E+02  0.00000000000E+00 0. -1.
</event>
<event>
 8    1  0.2490104E-006  0.9118800E+02  0.7816164E-02  0.1184000E+00
        -11   -1    0    0    0    0  0.00000000000E+00  0.00000000000E+00  0.45593999997E+02  0.45594000000E+02  0.51100000000E-03 0.  1.
         11   -1    0    0    0    0 -0.00000000000E+00 -0.00000000000E+00 -0.45593999997E+02  0.45594000000E+02  0.51100000000E-03 0. -1.
         23    2    1    2    0    0  0.17763568394E-14  0.00000000000E+00  0.00000000000E+00  0.91188000000E+02  0.91188000000E+02 0.  0.
    9900012    2    3    3    0    0  0.14819432233E+02 -0.16645508584E+02  0.29310239108E+02  0.54367100441E+02  0.40000037076E+02 0.  0.
         12    1    3    3    0    0 -0.14819432233E+02  0.16645508584E+02 -0.29310239108E+02  0.36820899559E+02  0.00000000000E+00 0. -1.
         11    1    4    4    0    0  0.42274946971E+01  0.57154010606E+01  0.83543379318E+01  0.10969616367E+02  0.51100000000E-03 0. -1.
        -11    1    4    4    0    0  0.99594727758E+00  0.15830596929E+01  0.17233865430E+02  0.17335054280E+02  0.51100000000E-03 0.  1.
         12    1    4    4    0    0  0.95959902587E+01 -0.23943969337E+02  0.37220357466E+01  0.26062429794E+02  0.00000000000E+00 0. -1.
</event>
<event>
 8    1  0.2490104E-006  0.9118800E+02  0.7816164E-02  0.1184000E+00
        -11   -1    0    0    0    0  0.00000000000E+00  0.00000000000E+00  0.45593999997E+02  0.45594000000E+02  0.51100000000E-03 0.  1.
         11   -1    0    0    0    0 -0.00000000000E+00 -0.00000000000E+00 -0.45593999997E+02  0.45594000000E+02  0.51100000000E-03 0. -1.
         23    2    1    2    0    0  0.88817841970E-15  0.00000000000E+00  0.00000000000E+00  0.91188000000E+02  0.91188000000E+02 0.  0.
    9900012    2    3    3    0    0 -0.38228699020E+01 -0.17655177717E+02  0.32085196932E+02  0.54367088867E+02  0.40000010689E+02 0.  0.
         12    1    3    3    0    0  0.38228699020E+01  0.17655177717E+02 -0.32085196932E+02  0.36820911133E+02  0.00000000000E+00 0. -1.
         11    1    4    4    0    0  0.49050187369E+01 -0.41918687061E+01 -0.35105506878E+01  0.73454025384E+01  0.51100000000E-03 0. -1.
        -11    1    4    4    0    0 -0.27328202668E+01 -0.52839740991E+01  0.36367885411E+02  0.36851211356E+02  0.51100000000E-03 0.  1.
        -12    1    4    4    0    0 -0.59950683722E+01 -0.81793349118E+01 -0.77213779077E+00  0.10170474972E+02  0.00000000000E+00 0.  1.
</event>
<event>
 8    1  0.2490104E-006  0.9118800E+02  0.7816164E-02  0.1184000E+00
        -11   -1    0    0    0    0  0.00000000000E+00  0.00000000000E+00  0.45593999997E+02  0.45594000000E+02  0.51100000000E-03 0. -1.
         11   -1    0    0    0    0 -0.00000000000E+00 -0.00000000000E+00 -0.45593999997E+02  0.45594000000E+02  0.51100000000E-03 0.  1.
         23    2    1    2    0    0  0.88817841970E-15  0.00000000000E+00  0.00000000000E+00  0.91188000000E+02  0.91188000000E+02 0.  0.
    9900012    2    3    3    0    0 -0.68227230766E+01 -0.23746497972E+02 -0.27300807939E+02  0.54367084337E+02  0.40000000364E+02 0.  0.
         12    1    3    3    0    0  0.68227230766E+01  0.23746497972E+02  0.27300807939E+02  0.36820915663E+02  0.00000000000E+00 0. -1.
         11    1    4    4    0    0 -0.87655499797E+01 -0.22312051512E+02 -0.26755521919E+02  0.35923814699E+02  0.51100000000E-03 0.  1.
        -11    1    4    4    0    0  0.75173562673E+01 -0.61234780903E+01  0.32544995907E+01  0.10227384662E+02  0.51100000000E-03 0. -1.
        -12    1    4    4    0    0 -0.55745293642E+01  0.46890316303E+01 -0.37997856110E+01  0.82158849768E+01  0.00000000000E+00 0.  1.
</event>
<event>
 8    1  0.2490104E-006  0.9118800E+02  0.7816164E-02  0.1184000E+00
        -11   -1    0    0    0    0  0.00000000000E+00  0.00000000000E+00  0.45593999997E+02  0.45594000000E+02  0.51100000000E-03 0. -1.
         11   -1    0    0    0    0 -0.00000000000E+00 -0.00000000000E+00 -0.45593999997E+02  0.45594000000E+02  0.51100000000E-03 0.  1.
         23    2    1    2    0    0 -0.35527136788E-14 -0.18873791419E-14 -0.35527136788E-14  0.91188000000E+02  0.91188000000E+02 0.  0.
    9900012    2    3    3    0    0  0.27911552001E+02 -0.91667539279E+00  0.23997641795E+02  0.54367057039E+02  0.39999938131E+02 0.  0.
        -12    1    3    3    0    0 -0.27911552001E+02  0.91667539279E+00 -0.23997641795E+02  0.36820942961E+02  0.00000000000E+00 0.  1.
         11    1    4    4    0    0  0.16362542034E+02  0.39859405002E+01 -0.36405897621E+01  0.17230043458E+02  0.51100000000E-03 0. -1.
        -11    1    4    4    0    0  0.53373996286E+01  0.81880051557E+01  0.74615526686E+01  0.12296586181E+02  0.51100000000E-03 0.  1.
         12    1    4    4    0    0  0.62116103381E+01 -0.13090621049E+02  0.20176678888E+02  0.24840427400E+02  0.00000000000E+00 0. -1.
</event>
<event>
 8    1  0.2490104E-006  0.9118800E+02  0.7816164E-02  0.1184000E+00
        -11   -1    0    0    0    0  0.00000000000E+00  0.00000000000E+00  0.45593999997E+02  0.45594000000E+02  0.51100000000E-03 0. -1.
         11   -1    0    0    0    0 -0.00000000000E+00 -0.00000000000E+00 -0.45593999997E+02  0.45594000000E+02  0.51100000000E-03 0.  1.
         23    2    1    2    0    0  0.35527136788E-14  0.00000000000E+00  0.00000000000E+00  0.91188000000E+02  0.91188000000E+02 0.  0.
    9900012    2    3    3    0    0 -0.19059034223E+02  0.24596903883E+02  0.19685647978E+02  0.54367092863E+02  0.40000019799E+02 0.  0.
        -12    1    3    3    0    0  0.19059034223E+02 -0.24596903883E+02 -0.19685647978E+02  0.36820907137E+02  0.00000000000E+00 0.  1.
         11    1    4    4    0    0 -0.84792711072E+01  0.58762029426E+01 -0.80179854419E+01  0.13065829110E+02  0.51100000000E-03 0. -1.
        -11    1    4    4    0    0 -0.50837896170E+01  0.92812374293E+01 -0.96111730364E+00  0.10625913223E+02  0.51100000000E-03 0.  1.
         12    1    4    4    0    0 -0.54959734989E+01  0.94394635107E+01  0.28664750723E+02  0.30675350529E+02  0.00000000000E+00 0. -1.
</event>
<event>
 8    1  0.2490104E-006  0.9118800E+02  0.7816164E-02  0.1184000E+00
        -11   -1    0    0    0    0  0.00000000000E+00  0.00000000000E+00  0.45593999997E+02  0.45594000000E+02  0.51100000000E-03 0. -1.
         11   -1    0    0    0    0 -0.00000000000E+00 -0.00000000000E+00 -0.45593999997E+02  0.45594000000E+02  0.51100000000E-03 0.  1.
         23    2    1    2    0    0  0.44408920985E-15  0.00000000000E+00  0.00000000000E+00  0.91188000000E+02  0.91188000000E+02 0.  0.
    9900012    2    3    3    0    0  0.26719904304E+01 -0.25352283177E+02 -0.26568845959E+02  0.54367063419E+02  0.39999952676E+02 0.  0.
         12    1    3    3    0    0 -0.26719904304E+01  0.25352283177E+02  0.26568845959E+02  0.36820936581E+02  0.00000000000E+00 0. -1.
         11    1    4    4    0    0 -0.76924670119E+00 -0.28588835322E+01  0.77949189415E+01  0.83382082670E+01  0.51100000000E-03 0. -1.
        -11    1    4    4    0    0  0.61714758939E+01  0.84622426502E+00 -0.12337808905E+02  0.13821169960E+02  0.51100000000E-03 0.  1.
        -12    1    4    4    0    0 -0.27302387624E+01 -0.23339623909E+02 -0.22025955995E+02  0.32207685192E+02  0.00000000000E+00 0.  1.
</event>
<event>
 8    1  0.2490104E-006  0.9118800E+02  0.7816164E-02  0.1184000E+00
        -11   -1    0    0    0    0  0.00000000000E+00  0.00000000000E+00  0.45593999997E+02  0.45594000000E+02  0.51100000000E-03 0.  1.
         11   -1    0    0    0    0 -0.00000000000E+00 -0.00000000000E+00 -0.45593999997E+02  0.45594000000E+02  0.51100000000E-03 0. -1.
         23    2    1    2    0    0  0.44408920985E-15  0.00000000000E+00  0.00000000000E+00  0.91188000000E+02  0.91188000000E+02 0.  0.
    9900012    2    3    3    0    0  0.85194798566E+00 -0.10402459111E+02 -0.35310646658E+02  0.54367099164E+02  0.40000034165E+02 0.  0.
        -12    1    3    3    0    0 -0.85194798566E+00  0.10402459111E+02  0.35310646658E+02  0.36820900836E+02  0.00000000000E+00 0.  1.
         11    1    4    4    0    0  0.35568284923E+01 -0.84866317524E+01 -0.41447233143E+02  0.42456413919E+02  0.51100000000E-03 0. -1.
        -11    1    4    4    0    0  0.21647399129E+01  0.23542162872E+01  0.39335589228E+01  0.50696468593E+01  0.51100000000E-03 0.  1.
         12    1    4    4    0    0 -0.48696204195E+01 -0.42700436454E+01  0.22030275614E+01  0.68410383861E+01  0.00000000000E+00 0. -1.
</event>
<event>
 8    1  0.2490104E-006  0.9118800E+02  0.7816164E-02  0.1184000E+00
        -11   -1    0    0    0    0  0.00000000000E+00  0.00000000000E+00  0.45593999997E+02  0.45594000000E+02  0.51100000000E-03 0.  1.
         11   -1    0    0    0    0 -0.00000000000E+00 -0.00000000000E+00 -0.45593999997E+02  0.45594000000E+02  0.51100000000E-03 0. -1.
         23    2    1    2    0    0  0.35527136788E-14  0.00000000000E+00 -0.35527136788E-14  0.91188000000E+02  0.91188000000E+02 0.  0.
    9900012    2    3    3    0    0  0.18780758986E+02  0.21757627742E+02  0.23014555515E+02  0.54367067929E+02  0.39999962958E+02 0.  0.
         12    1    3    3    0    0 -0.18780758986E+02 -0.21757627742E+02 -0.23014555515E+02  0.36820932071E+02  0.00000000000E+00 0. -1.
         11    1    4    4    0    0 -0.24421638072E+01  0.74214501487E+01  0.18219261663E+01  0.80225620338E+01  0.51100000000E-03 0. -1.
        -11    1    4    4    0    0  0.18478694060E+01  0.19093473378E+02  0.31385658747E+01  0.19437745316E+02  0.51100000000E-03 0.  1.
         12    1    4    4    0    0  0.19375053387E+02 -0.47572957850E+01  0.18054063474E+02  0.26906760579E+02  0.00000000000E+00 0. -1.
</event>
<event>
 8    1  0.2490104E-006  0.9118800E+02  0.7816164E-02  0.1184000E+00
        -11   -1    0    0    0    0  0.00000000000E+00  0.00000000000E+00  0.45593999997E+02  0.45594000000E+02  0.51100000000E-03 0.  1.
         11   -1    0    0    0    0 -0.00000000000E+00 -0.00000000000E+00 -0.45593999997E+02  0.45594000000E+02  0.51100000000E-03 0. -1.
         23    2    1    2    0    0  0.35527136788E-14 -0.35527136788E-14  0.00000000000E+00  0.91188000000E+02  0.91188000000E+02 0.  0.
    9900012    2    3    3    0    0  0.23810913957E+02 -0.26592551503E+02  0.90363987347E+01  0.54367083105E+02  0.39999997554E+02 0.  0.
         12    1    3    3    0    0 -0.23810913957E+02  0.26592551503E+02 -0.90363987347E+01  0.36820916895E+02  0.00000000000E+00 0. -1.
         11    1    4    4    0    0  0.16176579101E+02 -0.12036167774E+02  0.16609525243E+02  0.26123310953E+02  0.51100000000E-03 0. -1.
        -11    1    4    4    0    0  0.11552850812E+02 -0.58899205655E+01  0.37088354933E+01  0.13487586409E+02  0.51100000000E-03 0.  1.
         12    1    4    4    0    0 -0.39185159567E+01 -0.86664631634E+01 -0.11281962002E+02  0.14756185743E+02  0.00000000000E+00 0. -1.
</event>
<event>
 8    1  0.2490104E-006  0.9118800E+02  0.7816164E-02  0.1184000E+00
        -11   -1    0    0    0    0  0.00000000000E+00  0.00000000000E+00  0.45593999997E+02  0.45594000000E+02  0.51100000000E-03 0. -1.
         11   -1    0    0    0    0 -0.00000000000E+00 -0.00000000000E+00 -0.45593999997E+02  0.45594000000E+02  0.51100000000E-03 0.  1.
         23    2    1    2    0    0 -0.71054273576E-14 -0.88817841970E-15  0.00000000000E+00  0.91188000000E+02  0.91188000000E+02 0.  0.
    9900012    2    3    3    0    0  0.33420427055E+02  0.65336483617E+01 -0.14005950898E+02  0.54367079778E+02  0.39999989970E+02 0.  0.
         12    1    3    3    0    0 -0.33420427055E+02 -0.65336483617E+01  0.14005950898E+02  0.36820920222E+02  0.00000000000E+00 0. -1.
         11    1    4    4    0    0  0.75048589650E+01  0.46302861886E+01 -0.22262936588E+02  0.23945788858E+02  0.51100000000E-03 0. -1.
        -11    1    4    4    0    0  0.60611838794E+01  0.25798451217E+01 -0.33738100811E+01  0.74010908383E+01  0.51100000000E-03 0.  1.
         12    1    4    4    0    0  0.19854384210E+02 -0.67648294860E+00  0.11630795771E+02  0.23020200082E+02  0.00000000000E+00 0. -1.
</event>
<event>
 8    1  0.2490104E-006  0.9118800E+02  0.7816164E-02  0.1184000E+00
        -11   -1    0    0    0    0  0.00000000000E+00  0.00000000000E+00  0.45593999997E+02  0.45594000000E+02  0.51100000000E-03 0. -1.
         11   -1    0    0    0    0 -0.00000000000E+00 -0.00000000000E+00 -0.45593999997E+02  0.45594000000E+02  0.51100000000E-03 0.  1.
         23    2    1    2    0    0  0.00000000000E+00 -0.71054273576E-14  0.00000000000E+00  0.91188000000E+02  0.91188000000E+02 0.  0.
    9900012    2    3    3    0    0  0.61835503399E+01  0.35947394386E+02 -0.50326019913E+01  0.54367101848E+02  0.40000040283E+02 0.  0.
        -12    1    3    3    0    0 -0.61835503399E+01 -0.35947394386E+02  0.50326019913E+01  0.36820898152E+02  0.00000000000E+00 0.  1.
         11    1    4    4    0    0  0.14928750067E+02  0.13798096635E+02  0.76293273363E+01  0.21713168474E+02  0.51100000000E-03 0. -1.
        -11    1    4    4    0    0  0.53656253085E+01  0.86469817196E+01 -0.68870047622E+01  0.12287842067E+02  0.51100000000E-03 0.  1.
        -12    1    4    4    0    0 -0.14110825036E+02  0.13502316030E+02 -0.57749245653E+01  0.20366091307E+02  0.00000000000E+00 0.  1.
</event>
<event>
 8    1  0.2490104E-006  0.9118800E+02  0.7816164E-02  0.1184000E+00
        -11   -1    0    0    0    0  0.00000000000E+00  0.00000000000E+00  0.45593999997E+02  0.45594000000E+02  0.51100000000E-03 0.  1.
         11   -1    0    0    0    0 -0.00000000000E+00 -0.00000000000E+00 -0.45593999997E+02  0.45594000000E+02  0.51100000000E-03 0. -1.
         23    2    1    2    0    0  0.00000000000E+00 -0.44408920985E-15  0.00000000000E+00  0.91188000000E+02  0.91188000000E+02 0.  0.
    9900012    2    3    3    0    0 -0.24032515850E+02  0.25137355023E+01  0.27783064301E+02  0.54367090911E+02  0.40000015349E+02 0.  0.
         12    1    3    3    0    0  0.24032515850E+02 -0.25137355023E+01 -0.27783064301E+02  0.36820909089E+02  0.00000000000E+00 0. -1.
         11    1    4    4    0    0 -0.20583138563E+02 -0.61375398767E+01  0.20230024017E+01  0.21573769439E+02  0.51100000000E-03 0. -1.
        -11    1    4    4    0    0  0.84212929468E-01  0.13092830036E+02  0.23037915149E+02  0.26498581563E+02  0.51100000000E-03 0.  1.
        -12    1    4    4    0    0 -0.35335902161E+01 -0.44415546571E+01  0.27221467500E+01  0.62947399085E+01  0.00000000000E+00 0.  1.
</event>
<event>
 8    1  0.2490104E-006  0.9118800E+02  0.7816164E-02  0.1184000E+00
        -11   -1    0    0    0    0  0.00000000000E+00  0.00000000000E+00  0.45593999997E+02  0.45594000000E+02  0.51100000000E-03 0.  1.
         11   -1    0    0    0    0 -0.00000000000E+00 -0.00000000000E+00 -0.45593999997E+02  0.45594000000E+02  0.51100000000E-03 0. -1.
         23    2    1    2    0    0  0.17763568394E-14  0.88817841970E-15  0.71054273576E-14  0.91188000000E+02  0.91188000000E+02 0.  0.
    9900012    2    3    3    0    0  0.83615816423E+01 -0.57233131750E+01 -0.35399262511E+02  0.54367080028E+02  0.39999990539E+02 0.  0.
        -12    1    3    3    0    0 -0.83615816423E+01  0.57233131750E+01  0.35399262511E+02  0.36820919972E+02  0.00000000000E+00 0.  1.
         11    1    4    4    0    0  0.52298544532E+01 -0.67173068375E+01 -0.25932248857E+02  0.27293865974E+02  0.51100000000E-03 0. -1.
        -11    1    4    4    0    0  0.10958107621E+02  0.55194053944E+01 -0.12521225390E+02  0.17530688636E+02  0.51100000000E-03 0.  1.
        -12    1    4    4    0    0 -0.78263804320E+01 -0.45254117318E+01  0.30542117361E+01  0.95425254172E+01  0.00000000000E+00 0.  1.
</event>
<event>
 8    1  0.2490104E-006  0.9118800E+02  0.7816164E-02  0.1184000E+00
        -11   -1    0    0    0    0  0.00000000000E+00  0.00000000000E+00  0.45593999997E+02  0.45594000000E+02  0.51100000000E-03 0. -1.
         11   -1    0    0    0    0 -0.00000000000E+00 -0.00000000000E+00 -0.45593999997E+02  0.45594000000E+02  0.51100000000E-03 0.  1.
         23    2    1    2    0    0 -0.71054273576E-14 -0.88817841970E-15  0.35527136788E-14  0.91188000000E+02  0.91188000000E+02 0.  0.
    9900012    2    3    3    0    0 -0.30420756508E+02 -0.57589992239E+01  0.19929797035E+02  0.54367009948E+02  0.39999830778E+02 0.  0.
        -12    1    3    3    0    0  0.30420756508E+02  0.57589992239E+01 -0.19929797035E+02  0.36820990052E+02  0.00000000000E+00 0.  1.
         11    1    4    4    0    0 -0.21662203713E+02 -0.11102508322E+02  0.18957920393E+02  0.30853192811E+02  0.51100000000E-03 0. -1.
        -11    1    4    4    0    0 -0.12725140258E+02 -0.40022934673E+01  0.42933298099E+00  0.13346605361E+02  0.51100000000E-03 0.  1.
        -12    1    4    4    0    0  0.39665874628E+01  0.93458025649E+01  0.54254366084E+00  0.10167211776E+02  0.00000000000E+00 0.  1.
</event>
<event>
 8    1  0.2490104E-006  0.9118800E+02  0.7816164E-02  0.1184000E+00
        -11   -1    0    0    0    0  0.00000000000E+00  0.00000000000E+00  0.45593999997E+02  0.45594000000E+02  0.51100000000E-03 0. -1.
         11   -1    0    0    0    0 -0.00000000000E+00 -0.00000000000E+00 -0.45593999997E+02  0.45594000000E+02  0.51100000000E-03 0.  1.
         23    2    1    2    0    0  0.17763568394E-14  0.35527136788E-14  0.35527136788E-14  0.91188000000E+02  0.91188000000E+02 0.  0.
    9900012    2    3    3    0    0 -0.14145784822E+02 -0.16688055899E+02 -0.29617325883E+02  0.54367076188E+02  0.39999981785E+02 0.  0.
         12    1    3    3    0    0  0.14145784822E+02  0.16688055899E+02  0.29617325883E+02  0.36820923812E+02  0.00000000000E+00 0. -1.
         11    1    4    4    0    0 -0.78193412187E+01  0.87403878286E+01  0.11990535575E+01  0.11788732170E+02  0.51100000000E-03 0. -1.
        -11    1    4    4    0    0 -0.82407149915E+01 -0.24179555555E+02 -0.22792711258E+02  0.34235478340E+02  0.51100000000E-03 0.  1.
         12    1    4    4    0    0  0.19142713880E+01 -0.12488881729E+01 -0.80236681823E+01  0.83428656777E+01  0.00000000000E+00 0. -1.
</event>
<event>
 8    1  0.2490104E-006  0.9118800E+02  0.7816164E-02  0.1184000E+00
        -11   -1    0    0    0    0  0.00000000000E+00  0.00000000000E+00  0.45593999997E+02  0.45594000000E+02  0.51100000000E-03 0. -1.
         11   -1    0    0    0    0 -0.00000000000E+00 -0.00000000000E+00 -0.45593999997E+02  0.45594000000E+02  0.51100000000E-03 0.  1.
         23    2    1    2    0    0  0.00000000000E+00  0.17763568394E-14  0.00000000000E+00  0.91188000000E+02  0.91188000000E+02 0.  0.
    9900012    2    3    3    0    0  0.25899613539E+02 -0.15222608716E+02  0.21289948583E+02  0.54367085993E+02  0.40000004139E+02 0.  0.
        -12    1    3    3    0    0 -0.25899613539E+02  0.15222608716E+02 -0.21289948583E+02  0.36820914007E+02  0.00000000000E+00 0.  1.
         11    1    4    4    0    0  0.33477910200E+01  0.75259280382E+01 -0.26023760033E+01  0.86382671106E+01  0.51100000000E-03 0. -1.
        -11    1    4    4    0    0  0.17563921285E+02 -0.61230614458E+01  0.34611684273E+01  0.18919907492E+02  0.51100000000E-03 0.  1.
         12    1    4    4    0    0  0.49879012347E+01 -0.16625475309E+02  0.20431156159E+02  0.26808911391E+02  0.00000000000E+00 0. -1.
</event>
<event>
 8    1  0.2490104E-006  0.9118800E+02  0.7816164E-02  0.1184000E+00
        -11   -1    0    0    0    0  0.00000000000E+00  0.00000000000E+00  0.45593999997E+02  0.45594000000E+02  0.51100000000E-03 0.  1.
         11   -1    0    0    0    0 -0.00000000000E+00 -0.00000000000E+00 -0.45593999997E+02  0.45594000000E+02  0.51100000000E-03 0. -1.
         23    2    1    2    0    0  0.00000000000E+00  0.00000000000E+00  0.00000000000E+00  0.91188000000E+02  0.91188000000E+02 0.  0.
    9900012    2    3    3    0    0  0.22905351588E+02 -0.26821650115E+02  0.10570222365E+02  0.54367005349E+02  0.39999820293E+02 0.  0.
        -12    1    3    3    0    0 -0.22905351588E+02  0.26821650115E+02 -0.10570222365E+02  0.36820994651E+02  0.00000000000E+00 0.  1.
         11    1    4    4    0    0  0.81967793096E+01 -0.27520175799E+02  0.72186625199E+01  0.29608383203E+02  0.51100000000E-03 0. -1.
        -11    1    4    4    0    0 -0.21452416216E+01  0.62870371256E+01  0.20621481749E+01  0.69556705493E+01  0.51100000000E-03 0.  1.
         12    1    4    4    0    0  0.16853813900E+02 -0.55885114419E+01  0.12894116700E+01  0.17802951597E+02  0.00000000000E+00 0. -1.
</event>
<event>
 8    1  0.2490104E-006  0.9118800E+02  0.7816164E-02  0.1184000E+00
        -11   -1    0    0    0    0  0.00000000000E+00  0.00000000000E+00  0.45593999997E+02  0.45594000000E+02  0.51100000000E-03 0.  1.
         11   -1    0    0    0    0 -0.00000000000E+00 -0.00000000000E+00 -0.45593999997E+02  0.45594000000E+02  0.51100000000E-03 0. -1.
         23    2    1    2    0    0  0.00000000000E+00  0.35527136788E-14 -0.35527136788E-14  0.91188000000E+02  0.91188000000E+02 0.  0.
    9900012    2    3    3    0    0 -0.94991911291E+01 -0.25354931543E+02  0.24953391120E+02  0.54367096778E+02  0.40000028725E+02 0.  0.
         12    1    3    3    0    0  0.94991911291E+01  0.25354931543E+02 -0.24953391120E+02  0.36820903222E+02  0.00000000000E+00 0. -1.
         11    1    4    4    0    0 -0.10329504158E+02 -0.43171540270E+01  0.40598960863E+00  0.11202736400E+02  0.51100000000E-03 0. -1.
        -11    1    4    4    0    0 -0.89653519804E+01 -0.13972698405E+02  0.91769792847E+00  0.16626966248E+02  0.51100000000E-03 0.  1.
         12    1    4    4    0    0  0.97956650088E+01 -0.70650791114E+01  0.23629703583E+02  0.26537394130E+02  0.00000000000E+00 0. -1.
</event>
<event>
 8    1  0.2490104E-006  0.9118800E+02  0.7816164E-02  0.1184000E+00
        -11   -1    0    0    0    0  0.00000000000E+00  0.00000000000E+00  0.45593999997E+02  0.45594000000E+02  0.51100000000E-03 0. -1.
         11   -1    0    0    0    0 -0.00000000000E+00 -0.00000000000E+00 -0.45593999997E+02  0.45594000000E+02  0.51100000000E-03 0.  1.
         23    2    1    2    0    0  0.00000000000E+00  0.17763568394E-14 -0.35527136788E-14  0.91188000000E+02  0.91188000000E+02 0.  0.
    9900012    2    3    3    0    0  0.25046284753E+02  0.42441672881E+01  0.26654090589E+02  0.54367219440E+02  0.40000308356E+02 0.  0.
        -12    1    3    3    0    0 -0.25046284753E+02 -0.42441672881E+01 -0.26654090589E+02  0.36820780560E+02  0.00000000000E+00 0.  1.
         11    1    4    4    0    0  0.27923996700E+02  0.12847308102E+02  0.21531879113E+02  0.37528985273E+02  0.51100000000E-03 0. -1.
        -11    1    4    4    0    0 -0.37250169807E+00 -0.34815170950E+01 -0.44708531732E+01  0.56787540143E+01  0.51100000000E-03 0.  1.
         12    1    4    4    0    0 -0.25052102488E+01 -0.51216237194E+01  0.95930646495E+01  0.11159480153E+02  0.00000000000E+00 0. -1.
</event>
<event>
 8    1  0.2490104E-006  0.9118800E+02  0.7816164E-02  0.1184000E+00
        -11   -1    0    0    0    0  0.00000000000E+00  0.00000000000E+00  0.45593999997E+02  0.45594000000E+02  0.51100000000E-03 0.  1.
         11   -1    0    0    0    0 -0.00000000000E+00 -0.00000000000E+00 -0.45593999997E+02  0.45594000000E+02  0.51100000000E-03 0. -1.
         23    2    1    2    0    0  0.35527136788E-14 -0.17763568394E-14  0.00000000000E+00  0.91188000000E+02  0.91188000000E+02 0.  0.
    9900012    2    3    3    0    0  0.17627572160E+02  0.14337396002E+02 -0.28973902243E+02  0.54367092413E+02  0.40000018773E+02 0.  0.
        -12    1    3    3    0    0 -0.17627572160E+02 -0.14337396002E+02  0.28973902243E+02  0.36820907587E+02  0.00000000000E+00 0.  1.
         11    1    4    4    0    0 -0.56934901936E+01 -0.50504439218E+01 -0.13887233315E+02  0.15835973724E+02  0.51100000000E-03 0.  1.
        -11    1    4    4    0    0 -0.15685955118E+00 -0.25482423369E+01 -0.35899039625E+01  0.44051736229E+01  0.51100000000E-03 0. -1.
         12    1    4    4    0    0  0.23477921905E+02  0.21936082261E+02 -0.11496764966E+02  0.34125945065E+02  0.00000000000E+00 0. -1.
</event>
<event>
 8    1  0.2490104E-006  0.9118800E+02  0.7816164E-02  0.1184000E+00
        -11   -1    0    0    0    0  0.00000000000E+00  0.00000000000E+00  0.45593999997E+02  0.45594000000E+02  0.51100000000E-03 0.  1.
         11   -1    0    0    0    0 -0.00000000000E+00 -0.00000000000E+00 -0.45593999997E+02  0.45594000000E+02  0.51100000000E-03 0. -1.
         23    2    1    2    0    0  0.00000000000E+00  0.00000000000E+00  0.00000000000E+00  0.91188000000E+02  0.91188000000E+02 0.  0.
    9900012    2    3    3    0    0  0.10678138265E+02 -0.85426141340E+01 -0.34187438576E+02  0.54367084076E+02  0.39999999769E+02 0.  0.
        -12    1    3    3    0    0 -0.10678138265E+02  0.85426141340E+01  0.34187438576E+02  0.36820915924E+02  0.00000000000E+00 0.  1.
         11    1    4    4    0    0 -0.24438255597E+01 -0.55249046539E+01 -0.19294062564E+01  0.63418817053E+01  0.51100000000E-03 0. -1.
        -11    1    4    4    0    0  0.87139604479E+01 -0.15557854696E+02 -0.63908609986E+01  0.18942625319E+02  0.51100000000E-03 0.  1.
         12    1    4    4    0    0  0.44080033768E+01  0.12540145216E+02 -0.25867171321E+02  0.29082577052E+02  0.00000000000E+00 0. -1.
</event>
<event>
 8    1  0.2490104E-006  0.9118800E+02  0.7816164E-02  0.1184000E+00
        -11   -1    0    0    0    0  0.00000000000E+00  0.00000000000E+00  0.45593999997E+02  0.45594000000E+02  0.51100000000E-03 0.  1.
         11   -1    0    0    0    0 -0.00000000000E+00 -0.00000000000E+00 -0.45593999997E+02  0.45594000000E+02  0.51100000000E-03 0. -1.
         23    2    1    2    0    0  0.17763568394E-14  0.00000000000E+00  0.88817841970E-15  0.91188000000E+02  0.91188000000E+02 0.  0.
    9900012    2    3    3    0    0 -0.15590376920E+02  0.33032647837E+02  0.46436540560E+01  0.54367092914E+02  0.40000019916E+02 0.  0.
         12    1    3    3    0    0  0.15590376920E+02 -0.33032647837E+02 -0.46436540560E+01  0.36820907086E+02  0.00000000000E+00 0. -1.
         11    1    4    4    0    0  0.13921084436E+01  0.19861724216E+01 -0.26271563714E+01  0.35755835423E+01  0.51100000000E-03 0. -1.
        -11    1    4    4    0    0 -0.62930381684E+01 -0.77673857556E+01  0.19043404337E+01  0.10176498593E+02  0.51100000000E-03 0.  1.
        -12    1    4    4    0    0 -0.10689447195E+02  0.38813861171E+02  0.53664699936E+01  0.40615010779E+02  0.00000000000E+00 0.  1.
</event>
<event>
 8    1  0.2490104E-006  0.9118800E+02  0.7816164E-02  0.1184000E+00
        -11   -1    0    0    0    0  0.00000000000E+00  0.00000000000E+00  0.45593999997E+02  0.45594000000E+02  0.51100000000E-03 0. -1.
         11   -1    0    0    0    0 -0.00000000000E+00 -0.00000000000E+00 -0.45593999997E+02  0.45594000000E+02  0.51100000000E-03 0.  1.
         23    2    1    2    0    0  0.35527136788E-14  0.17763568394E-14 -0.71054273576E-14  0.91188000000E+02  0.91188000000E+02 0.  0.
    9900012    2    3    3    0    0  0.20379899966E+02  0.11520191525E+02 -0.28420451606E+02  0.54367119988E+02  0.40000081637E+02 0.  0.
         12    1    3    3    0    0 -0.20379899966E+02 -0.11520191525E+02  0.28420451606E+02  0.36820880012E+02  0.00000000000E+00 0. -1.
         11    1    4    4    0    0 -0.31006488884E+01  0.16086353090E+02 -0.34640312314E+01  0.16744679510E+02  0.51100000000E-03 0. -1.
        -11    1    4    4    0    0  0.73885532892E+01  0.38090290924E+01 -0.14417785682E+02  0.16642474773E+02  0.51100000000E-03 0.  1.
         12    1    4    4    0    0  0.16091995565E+02 -0.83751906575E+01 -0.10538634692E+02  0.20979965705E+02  0.00000000000E+00 0. -1.
</event>
<event>
 8    1  0.2490104E-006  0.9118800E+02  0.7816164E-02  0.1184000E+00
        -11   -1    0    0    0    0  0.00000000000E+00  0.00000000000E+00  0.45593999997E+02  0.45594000000E+02  0.51100000000E-03 0. -1.
         11   -1    0    0    0    0 -0.00000000000E+00 -0.00000000000E+00 -0.45593999997E+02  0.45594000000E+02  0.51100000000E-03 0.  1.
         23    2    1    2    0    0  0.88817841970E-15 -0.71054273576E-14 -0.17763568394E-14  0.91188000000E+02  0.91188000000E+02 0.  0.
    9900012    2    3    3    0    0  0.29163763992E+01 -0.35060839842E+02 -0.10863355711E+02  0.54367078786E+02  0.39999987709E+02 0.  0.
         12    1    3    3    0    0 -0.29163763992E+01  0.35060839842E+02  0.10863355711E+02  0.36820921214E+02  0.00000000000E+00 0. -1.
         11    1    4    4    0    0  0.77390493962E+01 -0.80091564576E+01  0.97358137592E+01  0.14792753041E+02  0.51100000000E-03 0. -1.
        -11    1    4    4    0    0  0.58907571352E+01 -0.19340796535E+02 -0.15282139271E+02  0.25343859437E+02  0.51100000000E-03 0.  1.
         12    1    4    4    0    0 -0.10713430132E+02 -0.77108868497E+01 -0.53170301990E+01  0.14230466308E+02  0.00000000000E+00 0. -1.
</event>
<event>
 8    1  0.2490104E-006  0.9118800E+02  0.7816164E-02  0.1184000E+00
        -11   -1    0    0    0    0  0.00000000000E+00  0.00000000000E+00  0.45593999997E+02  0.45594000000E+02  0.51100000000E-03 0. -1.
         11   -1    0    0    0    0 -0.00000000000E+00 -0.00000000000E+00 -0.45593999997E+02  0.45594000000E+02  0.51100000000E-03 0.  1.
         23    2    1    2    0    0 -0.71054273576E-14  0.00000000000E+00  0.00000000000E+00  0.91188000000E+02  0.91188000000E+02 0.  0.
    9900012    2    3    3    0    0 -0.36289821189E+02  0.55116397857E+01  0.29070210134E+01  0.54367081133E+02  0.39999993058E+02 0.  0.
        -12    1    3    3    0    0  0.36289821189E+02 -0.55116397857E+01 -0.29070210134E+01  0.36820918867E+02  0.00000000000E+00 0.  1.
         11    1    4    4    0    0 -0.27121677375E+02  0.26321147755E+01  0.35914359930E+00  0.27251465946E+02  0.51100000000E-03 0. -1.
        -11    1    4    4    0    0 -0.17158427331E+02  0.60964758635E+01  0.29239070218E+00  0.18211648443E+02  0.51100000000E-03 0.  1.
        -12    1    4    4    0    0  0.79902835166E+01 -0.32169508532E+01  0.22554867119E+01  0.89039667438E+01  0.00000000000E+00 0.  1.
</event>
<event>
 8    1  0.2490104E-006  0.9118800E+02  0.7816164E-02  0.1184000E+00
        -11   -1    0    0    0    0  0.00000000000E+00  0.00000000000E+00  0.45593999997E+02  0.45594000000E+02  0.51100000000E-03 0.  1.
         11   -1    0    0    0    0 -0.00000000000E+00 -0.00000000000E+00 -0.45593999997E+02  0.45594000000E+02  0.51100000000E-03 0. -1.
         23    2    1    2    0    0  0.00000000000E+00  0.00000000000E+00  0.00000000000E+00  0.91188000000E+02  0.91188000000E+02 0.  0.
    9900012    2    3    3    0    0 -0.17518748279E+02 -0.26226035649E+02  0.19001788295E+02  0.54367089562E+02  0.40000012274E+02 0.  0.
        -12    1    3    3    0    0  0.17518748279E+02  0.26226035649E+02 -0.19001788295E+02  0.36820910438E+02  0.00000000000E+00 0.  1.
         11    1    4    4    0    0 -0.15462037985E+02 -0.20925631664E+02  0.13320700788E+02  0.29230082944E+02  0.51100000000E-03 0. -1.
        -11    1    4    4    0    0 -0.11592667605E+02 -0.69422801153E+01 -0.72582428660E+00  0.13531888876E+02  0.51100000000E-03 0.  1.
        -12    1    4    4    0    0  0.95359573114E+01  0.16418761303E+01  0.64069117935E+01  0.11605117742E+02  0.00000000000E+00 0.  1.
</event>
<event>
 8    1  0.2490104E-006  0.9118800E+02  0.7816164E-02  0.1184000E+00
        -11   -1    0    0    0    0  0.00000000000E+00  0.00000000000E+00  0.45593999997E+02  0.45594000000E+02  0.51100000000E-03 0. -1.
         11   -1    0    0    0    0 -0.00000000000E+00 -0.00000000000E+00 -0.45593999997E+02  0.45594000000E+02  0.51100000000E-03 0.  1.
         23    2    1    2    0    0 -0.66613381478E-15  0.00000000000E+00  0.00000000000E+00  0.91188000000E+02  0.91188000000E+02 0.  0.
    9900012    2    3    3    0    0  0.14113509425E+01  0.26794447099E+02  0.25215924505E+02  0.54367120659E+02  0.40000083167E+02 0.  0.
        -12    1    3    3    0    0 -0.14113509425E+01 -0.26794447099E+02 -0.25215924505E+02  0.36820879341E+02  0.00000000000E+00 0.  1.
         11    1    4    4    0    0  0.68090076668E+01  0.23479682082E+02  0.51982750308E+01  0.24993601574E+02  0.51100000000E-03 0. -1.
        -11    1    4    4    0    0 -0.11259381265E+02 -0.63385138787E+00  0.41738623094E+01  0.12024831013E+02  0.51100000000E-03 0.  1.
        -12    1    4    4    0    0  0.58617245409E+01  0.39486164043E+01  0.15843787164E+02  0.17348688072E+02  0.00000000000E+00 0.  1.
</event>
<event>
 8    1  0.2490104E-006  0.9118800E+02  0.7816164E-02  0.1184000E+00
        -11   -1    0    0    0    0  0.00000000000E+00  0.00000000000E+00  0.45593999997E+02  0.45594000000E+02  0.51100000000E-03 0. -1.
         11   -1    0    0    0    0 -0.00000000000E+00 -0.00000000000E+00 -0.45593999997E+02  0.45594000000E+02  0.51100000000E-03 0.  1.
         23    2    1    2    0    0 -0.17763568394E-14  0.00000000000E+00  0.00000000000E+00  0.91188000000E+02  0.91188000000E+02 0.  0.
    9900012    2    3    3    0    0 -0.14537398047E+02 -0.32290104067E+02  0.10089285044E+02  0.54367076121E+02  0.39999981632E+02 0.  0.
        -12    1    3    3    0    0  0.14537398047E+02  0.32290104067E+02 -0.10089285044E+02  0.36820923879E+02  0.00000000000E+00 0.  1.
         11    1    4    4    0    0 -0.86699741181E+01 -0.10873637152E+02 -0.13723861082E+02  0.19538392958E+02  0.51100000000E-03 0. -1.
        -11    1    4    4    0    0  0.32247989382E+01 -0.15852895378E+01  0.36449601404E+01  0.51184182905E+01  0.51100000000E-03 0.  1.
         12    1    4    4    0    0 -0.90922228668E+01 -0.19831177378E+02  0.20168185985E+02  0.29710264872E+02  0.00000000000E+00 0. -1.
</event>
<event>
 8    1  0.2490104E-006  0.9118800E+02  0.7816164E-02  0.1184000E+00
        -11   -1    0    0    0    0  0.00000000000E+00  0.00000000000E+00  0.45593999997E+02  0.45594000000E+02  0.51100000000E-03 0.  1.
         11   -1    0    0    0    0 -0.00000000000E+00 -0.00000000000E+00 -0.45593999997E+02  0.45594000000E+02  0.51100000000E-03 0. -1.
         23    2    1    2    0    0  0.44408920985E-15  0.44408920985E-15  0.00000000000E+00  0.91188000000E+02  0.91188000000E+02 0.  0.
    9900012    2    3    3    0    0  0.36269174364E+01 -0.35431162410E+01 -0.36470195521E+02  0.54367036350E+02  0.39999890967E+02 0.  0.
        -12    1    3    3    0    0 -0.36269174364E+01  0.35431162410E+01  0.36470195521E+02  0.36820963650E+02  0.00000000000E+00 0.  1.
         11    1    4    4    0    0 -0.98731133923E+01 -0.27213455171E+01 -0.14337480600E+02  0.17619518714E+02  0.51100000000E-03 0. -1.
        -11    1    4    4    0    0 -0.64019119715E+00 -0.97105409816E+01 -0.95814706778E+00  0.97786756255E+01  0.51100000000E-03 0.  1.
         12    1    4    4    0    0  0.14140222026E+02  0.88887702577E+01 -0.21174567853E+02  0.26968842011E+02  0.00000000000E+00 0. -1.
</event>
<event>
 8    1  0.2490104E-006  0.9118800E+02  0.7816164E-02  0.1184000E+00
        -11   -1    0    0    0    0  0.00000000000E+00  0.00000000000E+00  0.45593999997E+02  0.45594000000E+02  0.51100000000E-03 0.  1.
         11   -1    0    0    0    0 -0.00000000000E+00 -0.00000000000E+00 -0.45593999997E+02  0.45594000000E+02  0.51100000000E-03 0. -1.
         23    2    1    2    0    0  0.35527136788E-14  0.00000000000E+00  0.00000000000E+00  0.91188000000E+02  0.91188000000E+02 0.  0.
    9900012    2    3    3    0    0 -0.28705179379E+02 -0.59599537389E+01  0.22277159865E+02  0.54367078998E+02  0.39999988193E+02 0.  0.
         12    1    3    3    0    0  0.28705179379E+02  0.59599537389E+01 -0.22277159865E+02  0.36820921002E+02  0.00000000000E+00 0. -1.
         11    1    4    4    0    0 -0.13101255406E+02 -0.19138376777E+01 -0.10061849295E+02  0.16629686688E+02  0.51100000000E-03 0. -1.
        -11    1    4    4    0    0 -0.19430119053E+01 -0.37851929449E+01  0.15387377954E+02  0.15964785669E+02  0.51100000000E-03 0.  1.
        -12    1    4    4    0    0 -0.13660912068E+02 -0.26092311626E+00  0.16951631205E+02  0.21772606641E+02  0.00000000000E+00 0.  1.
</event>
<event>
 8    1  0.2490104E-006  0.9118800E+02  0.7816164E-02  0.1184000E+00
        -11   -1    0    0    0    0  0.00000000000E+00  0.00000000000E+00  0.45593999997E+02  0.45594000000E+02  0.51100000000E-03 0.  1.
         11   -1    0    0    0    0 -0.00000000000E+00 -0.00000000000E+00 -0.45593999997E+02  0.45594000000E+02  0.51100000000E-03 0. -1.
         23    2    1    2    0    0  0.00000000000E+00  0.35527136788E-14 -0.71054273576E-14  0.91188000000E+02  0.91188000000E+02 0.  0.
    9900012    2    3    3    0    0  0.90113346910E+01  0.18567480101E+02 -0.30492967038E+02  0.54367129437E+02  0.40000103178E+02 0.  0.
        -12    1    3    3    0    0 -0.90113346910E+01 -0.18567480101E+02  0.30492967038E+02  0.36820870563E+02  0.00000000000E+00 0.  1.
         11    1    4    4    0    0  0.62131960534E+01  0.20441747633E+02 -0.12036056799E+01  0.21399007416E+02  0.51100000000E-03 0.  1.
        -11    1    4    4    0    0  0.51849691529E+01 -0.50620495973E+01 -0.27779729703E+02  0.28709260421E+02  0.51100000000E-03 0. -1.
         12    1    4    4    0    0 -0.23868305154E+01  0.31877820651E+01 -0.15096316546E+01  0.42588616009E+01  0.00000000000E+00 0. -1.
</event>
<event>
 8    1  0.2490104E-006  0.9118800E+02  0.7816164E-02  0.1184000E+00
        -11   -1    0    0    0    0  0.00000000000E+00  0.00000000000E+00  0.45593999997E+02  0.45594000000E+02  0.51100000000E-03 0. -1.
         11   -1    0    0    0    0 -0.00000000000E+00 -0.00000000000E+00 -0.45593999997E+02  0.45594000000E+02  0.51100000000E-03 0.  1.
         23    2    1    2    0    0 -0.66613381478E-15  0.71054273576E-14  0.00000000000E+00  0.91188000000E+02  0.91188000000E+02 0.  0.
    9900012    2    3    3    0    0 -0.84489537313E+00  0.32323583853E+02 -0.17613420784E+02  0.54367346652E+02  0.40000598357E+02 0.  0.
         12    1    3    3    0    0  0.84489537313E+00 -0.32323583853E+02  0.17613420784E+02  0.36820653348E+02  0.00000000000E+00 0. -1.
         11    1    4    4    0    0 -0.33436660713E+01 -0.51208221546E+01  0.51852925791E+01  0.80181158465E+01  0.51100000000E-03 0. -1.
        -11    1    4    4    0    0  0.53908243216E+01  0.78549784959E+01 -0.12016514428E+01  0.96023768146E+01  0.51100000000E-03 0.  1.
        -12    1    4    4    0    0 -0.28920536234E+01  0.29589427512E+02 -0.21597061920E+02  0.36746853991E+02  0.00000000000E+00 0.  1.
</event>
<event>
 8    1  0.2490104E-006  0.9118800E+02  0.7816164E-02  0.1184000E+00
        -11   -1    0    0    0    0  0.00000000000E+00  0.00000000000E+00  0.45593999997E+02  0.45594000000E+02  0.51100000000E-03 0.  1.
         11   -1    0    0    0    0 -0.00000000000E+00 -0.00000000000E+00 -0.45593999997E+02  0.45594000000E+02  0.51100000000E-03 0. -1.
         23    2    1    2    0    0  0.35527136788E-14  0.11102230246E-15 -0.35527136788E-14  0.91188000000E+02  0.91188000000E+02 0.  0.
    9900012    2    3    3    0    0  0.19716586945E+02  0.77097734161E+00 -0.31087664816E+02  0.54367066951E+02  0.39999960729E+02 0.  0.
         12    1    3    3    0    0 -0.19716586945E+02 -0.77097734161E+00  0.31087664816E+02  0.36820933049E+02  0.00000000000E+00 0. -1.
         11    1    4    4    0    0  0.20564018284E+02 -0.66421395845E+01 -0.10003101181E+02  0.23812998546E+02  0.51100000000E-03 0. -1.
        -11    1    4    4    0    0  0.76661433047E+01  0.17461837563E+01 -0.18356226035E+02  0.19969224957E+02  0.51100000000E-03 0.  1.
        -12    1    4    4    0    0 -0.85135746434E+01  0.56669331698E+01 -0.27283376002E+01  0.10584843448E+02  0.00000000000E+00 0.  1.
</event>
<event>
 8    1  0.2490104E-006  0.9118800E+02  0.7816164E-02  0.1184000E+00
        -11   -1    0    0    0    0  0.00000000000E+00  0.00000000000E+00  0.45593999997E+02  0.45594000000E+02  0.51100000000E-03 0.  1.
         11   -1    0    0    0    0 -0.00000000000E+00 -0.00000000000E+00 -0.45593999997E+02  0.45594000000E+02  0.51100000000E-03 0. -1.
         23    2    1    2    0    0  0.00000000000E+00 -0.88817841970E-15  0.00000000000E+00  0.91188000000E+02  0.91188000000E+02 0.  0.
    9900012    2    3    3    0    0  0.16186388619E+02  0.75117286207E+01 -0.32207985669E+02  0.54367087678E+02  0.40000007979E+02 0.  0.
        -12    1    3    3    0    0 -0.16186388619E+02 -0.75117286207E+01  0.32207985669E+02  0.36820912322E+02  0.00000000000E+00 0.  1.
         11    1    4    4    0    0  0.13626618290E+02 -0.44016619232E+01  0.42594793923E+00  0.14326227194E+02  0.51100000000E-03 0. -1.
        -11    1    4    4    0    0 -0.70753143710E+01  0.36280120391E+01 -0.44199214721E+01  0.90971561977E+01  0.51100000000E-03 0.  1.
         12    1    4    4    0    0  0.96350847002E+01  0.82853785048E+01 -0.28214012136E+02  0.30943704286E+02  0.00000000000E+00 0. -1.
</event>
<event>
 8    1  0.2490104E-006  0.9118800E+02  0.7816164E-02  0.1184000E+00
        -11   -1    0    0    0    0  0.00000000000E+00  0.00000000000E+00  0.45593999997E+02  0.45594000000E+02  0.51100000000E-03 0. -1.
         11   -1    0    0    0    0 -0.00000000000E+00 -0.00000000000E+00 -0.45593999997E+02  0.45594000000E+02  0.51100000000E-03 0.  1.
         23    2    1    2    0    0  0.35527136788E-14  0.35527136788E-14  0.17763568394E-14  0.91188000000E+02  0.91188000000E+02 0.  0.
    9900012    2    3    3    0    0 -0.31643470774E+02 -0.16274629846E+02  0.94664271280E+01  0.54366999717E+02  0.39999807455E+02 0.  0.
         12    1    3    3    0    0  0.31643470774E+02  0.16274629846E+02 -0.94664271280E+01  0.36821000283E+02  0.00000000000E+00 0. -1.
         11    1    4    4    0    0  0.83514772022E+00  0.11266744309E+00  0.51610264949E+01  0.52293747628E+01  0.51100000000E-03 0.  1.
        -11    1    4    4    0    0 -0.12580970927E+02 -0.99837657110E+00  0.16831183418E+02  0.21037260296E+02  0.51100000000E-03 0. -1.
        -12    1    4    4    0    0 -0.19897647567E+02 -0.15388920718E+02 -0.12525782785E+02  0.28100364658E+02  0.00000000000E+00 0.  1.
</event>
<event>
 8    1  0.2490104E-006  0.9118800E+02  0.7816164E-02  0.1184000E+00
        -11   -1    0    0    0    0  0.00000000000E+00  0.00000000000E+00  0.45593999997E+02  0.45594000000E+02  0.51100000000E-03 0.  1.
         11   -1    0    0    0    0 -0.00000000000E+00 -0.00000000000E+00 -0.45593999997E+02  0.45594000000E+02  0.51100000000E-03 0. -1.
         23    2    1    2    0    0 -0.71054273576E-14  0.00000000000E+00  0.17763568394E-14  0.91188000000E+02  0.91188000000E+02 0.  0.
    9900012    2    3    3    0    0  0.32605493304E+02  0.62800426051E+01  0.15912978021E+02  0.54367082057E+02  0.39999995164E+02 0.  0.
         12    1    3    3    0    0 -0.32605493304E+02 -0.62800426051E+01 -0.15912978021E+02  0.36820917943E+02  0.00000000000E+00 0. -1.
         11    1    4    4    0    0  0.11096000046E+02  0.17918447311E+01 -0.13269944734E+02  0.17390323691E+02  0.51100000000E-03 0. -1.
        -11    1    4    4    0    0  0.11886967722E+02  0.46871208748E+01  0.19583046936E+02  0.23383003042E+02  0.51100000000E-03 0.  1.
         12    1    4    4    0    0  0.96225255358E+01 -0.19892300079E+00  0.95998758193E+01  0.13593755323E+02  0.00000000000E+00 0. -1.
</event>
<event>
 8    1  0.2490104E-006  0.9118800E+02  0.7816164E-02  0.1184000E+00
        -11   -1    0    0    0    0  0.00000000000E+00  0.00000000000E+00  0.45593999997E+02  0.45594000000E+02  0.51100000000E-03 0.  1.
         11   -1    0    0    0    0 -0.00000000000E+00 -0.00000000000E+00 -0.45593999997E+02  0.45594000000E+02  0.51100000000E-03 0. -1.
         23    2    1    2    0    0  0.00000000000E+00  0.35527136788E-14  0.00000000000E+00  0.91188000000E+02  0.91188000000E+02 0.  0.
    9900012    2    3    3    0    0  0.12932585269E+02  0.31869773235E+02 -0.13147083222E+02  0.54367081963E+02  0.39999994952E+02 0.  0.
        -12    1    3    3    0    0 -0.12932585269E+02 -0.31869773235E+02  0.13147083222E+02  0.36820918037E+02  0.00000000000E+00 0.  1.
         11    1    4    4    0    0  0.11892830482E+02  0.21360191373E+01 -0.16119533491E+01  0.12190175900E+02  0.51100000000E-03 0. -1.
        -11    1    4    4    0    0  0.32160730630E+01  0.26714617163E+02  0.30912015583E+01  0.27084486767E+02  0.51100000000E-03 0.  1.
         12    1    4    4    0    0 -0.21763182751E+01  0.30191369349E+01 -0.14626331431E+02  0.15092419296E+02  0.00000000000E+00 0. -1.
</event>
<event>
 8    1  0.2490104E-006  0.9118800E+02  0.7816164E-02  0.1184000E+00
        -11   -1    0    0    0    0  0.00000000000E+00  0.00000000000E+00  0.45593999997E+02  0.45594000000E+02  0.51100000000E-03 0.  1.
         11   -1    0    0    0    0 -0.00000000000E+00 -0.00000000000E+00 -0.45593999997E+02  0.45594000000E+02  0.51100000000E-03 0. -1.
         23    2    1    2    0    0 -0.35527136788E-14  0.35527136788E-14  0.17763568394E-14  0.91188000000E+02  0.91188000000E+02 0.  0.
    9900012    2    3    3    0    0  0.20861265713E+02 -0.26632937673E+02 -0.14535289511E+02  0.54367076364E+02  0.39999982187E+02 0.  0.
        -12    1    3    3    0    0 -0.20861265713E+02  0.26632937673E+02  0.14535289511E+02  0.36820923636E+02  0.00000000000E+00 0.  1.
         11    1    4    4    0    0 -0.13181558077E+00 -0.17374573217E+02 -0.60041183436E+01  0.18383215366E+02  0.51100000000E-03 0. -1.
        -11    1    4    4    0    0 -0.49808279761E+01  0.23493091322E+01  0.16793427522E+01  0.57574380645E+01  0.51100000000E-03 0.  1.
         12    1    4    4    0    0  0.25973909270E+02 -0.11607673587E+02 -0.10210513920E+02  0.30226422934E+02  0.00000000000E+00 0. -1.
</event>
<event>
 8    1  0.2490104E-006  0.9118800E+02  0.7816164E-02  0.1184000E+00
        -11   -1    0    0    0    0  0.00000000000E+00  0.00000000000E+00  0.45593999997E+02  0.45594000000E+02  0.51100000000E-03 0.  1.
         11   -1    0    0    0    0 -0.00000000000E+00 -0.00000000000E+00 -0.45593999997E+02  0.45594000000E+02  0.51100000000E-03 0. -1.
         23    2    1    2    0    0  0.00000000000E+00  0.00000000000E+00  0.17763568394E-14  0.91188000000E+02  0.91188000000E+02 0.  0.
    9900012    2    3    3    0    0 -0.29848284069E+02  0.14618579099E+02  0.15847930029E+02  0.54367084708E+02  0.40000001209E+02 0.  0.
        -12    1    3    3    0    0  0.29848284069E+02 -0.14618579099E+02 -0.15847930029E+02  0.36820915292E+02  0.00000000000E+00 0.  1.
         11    1    4    4    0    0 -0.22020766032E+01  0.27297371389E+01 -0.86584655527E+01  0.93418216747E+01  0.51100000000E-03 0. -1.
        -11    1    4    4    0    0 -0.37726679300E+01 -0.60013358945E+01  0.12489308588E+01  0.71978388687E+01  0.51100000000E-03 0.  1.
         12    1    4    4    0    0 -0.23873539536E+02  0.17890177855E+02  0.23257464722E+02  0.37827424165E+02  0.00000000000E+00 0. -1.
</event>
<event>
 8    1  0.2490104E-006  0.9118800E+02  0.7816164E-02  0.1184000E+00
        -11   -1    0    0    0    0  0.00000000000E+00  0.00000000000E+00  0.45593999997E+02  0.45594000000E+02  0.51100000000E-03 0. -1.
         11   -1    0    0    0    0 -0.00000000000E+00 -0.00000000000E+00 -0.45593999997E+02  0.45594000000E+02  0.51100000000E-03 0.  1.
         23    2    1    2    0    0  0.00000000000E+00 -0.88817841970E-15  0.00000000000E+00  0.91188000000E+02  0.91188000000E+02 0.  0.
    9900012    2    3    3    0    0 -0.17605673616E+02 -0.71845559877E+01 -0.31530974092E+02  0.54367083181E+02  0.39999997727E+02 0.  0.
         12    1    3    3    0    0  0.17605673616E+02  0.71845559877E+01  0.31530974092E+02  0.36820916819E+02  0.00000000000E+00 0. -1.
         11    1    4    4    0    0  0.58320275824E+01  0.55466103687E+00 -0.70733482863E+01  0.91843590320E+01  0.51100000000E-03 0. -1.
        -11    1    4    4    0    0 -0.21762050452E+02 -0.12179929021E+02 -0.29249656726E+02  0.38438001115E+02  0.51100000000E-03 0.  1.
        -12    1    4    4    0    0 -0.16756507462E+01  0.44407119966E+01  0.47920309206E+01  0.67447230339E+01  0.00000000000E+00 0.  1.
</event>
<event>
 8    1  0.2490104E-006  0.9118800E+02  0.7816164E-02  0.1184000E+00
        -11   -1    0    0    0    0  0.00000000000E+00  0.00000000000E+00  0.45593999997E+02  0.45594000000E+02  0.51100000000E-03 0. -1.
         11   -1    0    0    0    0 -0.00000000000E+00 -0.00000000000E+00 -0.45593999997E+02  0.45594000000E+02  0.51100000000E-03 0.  1.
         23    2    1    2    0    0  0.00000000000E+00 -0.17763568394E-14 -0.35527136788E-14  0.91188000000E+02  0.91188000000E+02 0.  0.
    9900012    2    3    3    0    0  0.10453553045E+02 -0.15729282049E+02 -0.31608429510E+02  0.54367083375E+02  0.39999998170E+02 0.  0.
         12    1    3    3    0    0 -0.10453553045E+02  0.15729282049E+02  0.31608429510E+02  0.36820916625E+02  0.00000000000E+00 0. -1.
         11    1    4    4    0    0  0.27253605630E+01  0.14984715859E+01  0.75237653447E+01  0.81412562001E+01  0.51100000000E-03 0. -1.
        -11    1    4    4    0    0  0.64655884948E+01 -0.58996562737E+01 -0.46554780397E+01  0.99137911402E+01  0.51100000000E-03 0.  1.
        -12    1    4    4    0    0  0.12626039876E+01 -0.11328097361E+02 -0.34476716815E+02  0.36312036035E+02  0.00000000000E+00 0.  1.
</event>
<event>
 8    1  0.2490104E-006  0.9118800E+02  0.7816164E-02  0.1184000E+00
        -11   -1    0    0    0    0  0.00000000000E+00  0.00000000000E+00  0.45593999997E+02  0.45594000000E+02  0.51100000000E-03 0. -1.
         11   -1    0    0    0    0 -0.00000000000E+00 -0.00000000000E+00 -0.45593999997E+02  0.45594000000E+02  0.51100000000E-03 0.  1.
         23    2    1    2    0    0  0.35527136788E-14 -0.17763568394E-14  0.00000000000E+00  0.91188000000E+02  0.91188000000E+02 0.  0.
    9900012    2    3    3    0    0  0.12427033222E+02 -0.11614758960E+02 -0.32656480958E+02  0.54367088428E+02  0.40000009690E+02 0.  0.
         12    1    3    3    0    0 -0.12427033222E+02  0.11614758960E+02  0.32656480958E+02  0.36820911572E+02  0.00000000000E+00 0. -1.
         11    1    4    4    0    0 -0.72805772616E+01 -0.12413014125E+02 -0.12281196445E+01  0.14442922248E+02  0.51100000000E-03 0. -1.
        -11    1    4    4    0    0  0.90670621541E+00  0.83077092384E+00 -0.14721394858E+02  0.14772669472E+02  0.51100000000E-03 0.  1.
         12    1    4    4    0    0  0.18800904268E+02 -0.32515758739E-01 -0.16706966455E+02  0.25151496709E+02  0.00000000000E+00 0. -1.
</event>
<event>
 8    1  0.2490104E-006  0.9118800E+02  0.7816164E-02  0.1184000E+00
        -11   -1    0    0    0    0  0.00000000000E+00  0.00000000000E+00  0.45593999997E+02  0.45594000000E+02  0.51100000000E-03 0.  1.
         11   -1    0    0    0    0 -0.00000000000E+00 -0.00000000000E+00 -0.45593999997E+02  0.45594000000E+02  0.51100000000E-03 0. -1.
         23    2    1    2    0    0  0.88817841970E-15  0.00000000000E+00  0.00000000000E+00  0.91188000000E+02  0.91188000000E+02 0.  0.
    9900012    2    3    3    0    0 -0.14933110634E+01  0.13728655619E+02 -0.34133175886E+02  0.54367086662E+02  0.40000005662E+02 0.  0.
        -12    1    3    3    0    0  0.14933110634E+01 -0.13728655619E+02  0.34133175886E+02  0.36820913338E+02  0.00000000000E+00 0.  1.
         11    1    4    4    0    0  0.50340805025E+01  0.40656032008E+01 -0.62014673065E+01  0.89626610394E+01  0.51100000000E-03 0. -1.
        -11    1    4    4    0    0 -0.58329379961E+01  0.20637788716E+02 -0.84848189833E+01  0.23063686657E+02  0.51100000000E-03 0.  1.
        -12    1    4    4    0    0 -0.69445356977E+00 -0.10974736298E+02 -0.19446889596E+02  0.22340738966E+02  0.00000000000E+00 0.  1.
</event>
<event>
 8    1  0.2490104E-006  0.9118800E+02  0.7816164E-02  0.1184000E+00
        -11   -1    0    0    0    0  0.00000000000E+00  0.00000000000E+00  0.45593999997E+02  0.45594000000E+02  0.51100000000E-03 0.  1.
         11   -1    0    0    0    0 -0.00000000000E+00 -0.00000000000E+00 -0.45593999997E+02  0.45594000000E+02  0.51100000000E-03 0. -1.
         23    2    1    2    0    0 -0.88817841970E-15 -0.44408920985E-15  0.00000000000E+00  0.91188000000E+02  0.91188000000E+02 0.  0.
    9900012    2    3    3    0    0  0.34556821976E+01  0.38740093159E+01  0.36453132641E+02  0.54367074333E+02  0.39999977557E+02 0.  0.
         12    1    3    3    0    0 -0.34556821976E+01 -0.38740093159E+01 -0.36453132641E+02  0.36820925667E+02  0.00000000000E+00 0. -1.
         11    1    4    4    0    0 -0.65616798987E+01 -0.24487364503E+01  0.29391473707E+01  0.75954289427E+01  0.51100000000E-03 0. -1.
        -11    1    4    4    0    0 -0.15570545255E+01  0.14559461884E+02  0.27876141702E+02  0.31487801219E+02  0.51100000000E-03 0.  1.
        -12    1    4    4    0    0  0.11574416622E+02 -0.82367161182E+01  0.56378435688E+01  0.15283844171E+02  0.00000000000E+00 0.  1.
</event>
<event>
 8    1  0.2490104E-006  0.9118800E+02  0.7816164E-02  0.1184000E+00
        -11   -1    0    0    0    0  0.00000000000E+00  0.00000000000E+00  0.45593999997E+02  0.45594000000E+02  0.51100000000E-03 0.  1.
         11   -1    0    0    0    0 -0.00000000000E+00 -0.00000000000E+00 -0.45593999997E+02  0.45594000000E+02  0.51100000000E-03 0. -1.
         23    2    1    2    0    0 -0.35527136788E-14  0.00000000000E+00  0.35527136788E-14  0.91188000000E+02  0.91188000000E+02 0.  0.
    9900012    2    3    3    0    0  0.28622764163E+02  0.13874820801E+02 -0.18547423016E+02  0.54367079573E+02  0.39999989501E+02 0.  0.
        -12    1    3    3    0    0 -0.28622764163E+02 -0.13874820801E+02  0.18547423016E+02  0.36820920427E+02  0.00000000000E+00 0.  1.
         11    1    4    4    0    0  0.24202613195E+02 -0.29124833618E+01 -0.70215901037E+01  0.25368322227E+02  0.51100000000E-03 0. -1.
        -11    1    4    4    0    0  0.96646784729E+01  0.42069986911E+01  0.86837478142E+00  0.10576337882E+02  0.51100000000E-03 0.  1.
        -12    1    4    4    0    0 -0.52445275049E+01  0.12580305472E+02 -0.12394207694E+02  0.18422419463E+02  0.00000000000E+00 0.  1.
</event>
<event>
 8    1  0.2490104E-006  0.9118800E+02  0.7816164E-02  0.1184000E+00
        -11   -1    0    0    0    0  0.00000000000E+00  0.00000000000E+00  0.45593999997E+02  0.45594000000E+02  0.51100000000E-03 0. -1.
         11   -1    0    0    0    0 -0.00000000000E+00 -0.00000000000E+00 -0.45593999997E+02  0.45594000000E+02  0.51100000000E-03 0.  1.
         23    2    1    2    0    0 -0.88817841970E-15  0.00000000000E+00  0.00000000000E+00  0.91188000000E+02  0.91188000000E+02 0.  0.
    9900012    2    3    3    0    0 -0.41727953119E+01  0.33446021914E+02 -0.14823453882E+02  0.54367036031E+02  0.39999890240E+02 0.  0.
         12    1    3    3    0    0  0.41727953119E+01 -0.33446021914E+02  0.14823453882E+02  0.36820963969E+02  0.00000000000E+00 0. -1.
         11    1    4    4    0    0  0.99844487020E+01  0.21265475229E+01 -0.33905999878E+01  0.10756746199E+02  0.51100000000E-03 0. -1.
        -11    1    4    4    0    0 -0.17304898630E+02  0.28712191880E+02 -0.16281763885E+02  0.37268556648E+02  0.51100000000E-03 0.  1.
         12    1    4    4    0    0  0.31476546164E+01  0.26072825107E+01  0.48489099909E+01  0.63417331838E+01  0.00000000000E+00 0. -1.
</event>
<event>
 8    1  0.2490104E-006  0.9118800E+02  0.7816164E-02  0.1184000E+00
        -11   -1    0    0    0    0  0.00000000000E+00  0.00000000000E+00  0.45593999997E+02  0.45594000000E+02  0.51100000000E-03 0. -1.
         11   -1    0    0    0    0 -0.00000000000E+00 -0.00000000000E+00 -0.45593999997E+02  0.45594000000E+02  0.51100000000E-03 0.  1.
         23    2    1    2    0    0  0.35527136788E-14  0.00000000000E+00  0.88817841970E-15  0.91188000000E+02  0.91188000000E+02 0.  0.
    9900012    2    3    3    0    0  0.31711703082E+02 -0.17226256376E+02  0.73077592728E+01  0.54367090632E+02  0.40000014714E+02 0.  0.
         12    1    3    3    0    0 -0.31711703082E+02  0.17226256376E+02 -0.73077592728E+01  0.36820909368E+02  0.00000000000E+00 0. -1.
         11    1    4    4    0    0  0.10689230796E+02  0.88000787773E+01  0.65366186632E+01  0.15311055656E+02  0.51100000000E-03 0. -1.
        -11    1    4    4    0    0  0.14035103747E+02 -0.37438050913E+01  0.49230328583E+01  0.15337420465E+02  0.51100000000E-03 0.  1.
        -12    1    4    4    0    0  0.69873685398E+01 -0.22282530062E+02 -0.41518922488E+01  0.23718614511E+02  0.00000000000E+00 0.  1.
</event>
<event>
 8    1  0.2490104E-006  0.9118800E+02  0.7816164E-02  0.1184000E+00
        -11   -1    0    0    0    0  0.00000000000E+00  0.00000000000E+00  0.45593999997E+02  0.45594000000E+02  0.51100000000E-03 0. -1.
         11   -1    0    0    0    0 -0.00000000000E+00 -0.00000000000E+00 -0.45593999997E+02  0.45594000000E+02  0.51100000000E-03 0.  1.
         23    2    1    2    0    0  0.00000000000E+00  0.44408920985E-15  0.26645352591E-14  0.91188000000E+02  0.91188000000E+02 0.  0.
    9900012    2    3    3    0    0 -0.36217319137E+02  0.22678320357E+01 -0.62402982000E+01  0.54367101189E+02  0.40000038781E+02 0.  0.
         12    1    3    3    0    0  0.36217319137E+02 -0.22678320357E+01  0.62402982000E+01  0.36820898811E+02  0.00000000000E+00 0. -1.
         11    1    4    4    0    0 -0.26447889249E+01  0.40058411695E+01  0.12305132028E+02  0.13208252967E+02  0.51100000000E-03 0. -1.
        -11    1    4    4    0    0 -0.29205822269E+02  0.64699350234E+00 -0.92965536141E+01  0.30656558260E+02  0.51100000000E-03 0.  1.
         12    1    4    4    0    0 -0.43667079430E+01 -0.23850026362E+01 -0.92488766143E+01  0.10502289963E+02  0.00000000000E+00 0. -1.
</event>
<event>
 8    1  0.2490104E-006  0.9118800E+02  0.7816164E-02  0.1184000E+00
        -11   -1    0    0    0    0  0.00000000000E+00  0.00000000000E+00  0.45593999997E+02  0.45594000000E+02  0.51100000000E-03 0. -1.
         11   -1    0    0    0    0 -0.00000000000E+00 -0.00000000000E+00 -0.45593999997E+02  0.45594000000E+02  0.51100000000E-03 0.  1.
         23    2    1    2    0    0  0.00000000000E+00 -0.35527136788E-14  0.00000000000E+00  0.91188000000E+02  0.91188000000E+02 0.  0.
    9900012    2    3    3    0    0  0.20876348515E+02 -0.27974497769E+02  0.11721204715E+02  0.54367067194E+02  0.39999961282E+02 0.  0.
         12    1    3    3    0    0 -0.20876348515E+02  0.27974497769E+02 -0.11721204715E+02  0.36820932806E+02  0.00000000000E+00 0. -1.
         11    1    4    4    0    0 -0.33007649674E+01  0.24385053831E+01 -0.17553420412E+01  0.44634721704E+01  0.51100000000E-03 0. -1.
        -11    1    4    4    0    0  0.27638006768E+02 -0.32366521756E+02  0.82758721814E+01  0.43358288819E+02  0.51100000000E-03 0.  1.
        -12    1    4    4    0    0 -0.34608932858E+01  0.19535186046E+01  0.52006745748E+01  0.65453062042E+01  0.00000000000E+00 0.  1.
</event>
<event>
 8    1  0.2490104E-006  0.9118800E+02  0.7816164E-02  0.1184000E+00
        -11   -1    0    0    0    0  0.00000000000E+00  0.00000000000E+00  0.45593999997E+02  0.45594000000E+02  0.51100000000E-03 0.  1.
         11   -1    0    0    0    0 -0.00000000000E+00 -0.00000000000E+00 -0.45593999997E+02  0.45594000000E+02  0.51100000000E-03 0. -1.
         23    2    1    2    0    0  0.00000000000E+00  0.17763568394E-14  0.88817841970E-15  0.91188000000E+02  0.91188000000E+02 0.  0.
    9900012    2    3    3    0    0  0.35976605024E+02 -0.52468631309E+01 -0.58252496807E+01  0.54367092683E+02  0.40000019390E+02 0.  0.
        -12    1    3    3    0    0 -0.35976605024E+02  0.52468631309E+01  0.58252496807E+01  0.36820907317E+02  0.00000000000E+00 0.  1.
         11    1    4    4    0    0 -0.53803046988E+01  0.48770553329E+00 -0.23219101681E+01  0.58802042846E+01  0.51100000000E-03 0. -1.
        -11    1    4    4    0    0  0.22773547115E+02 -0.86701480310E+01  0.89110529050E+01  0.25946344236E+02  0.51100000000E-03 0.  1.
         12    1    4    4    0    0  0.18583362608E+02  0.29355793669E+01 -0.12414392418E+02  0.22540544163E+02  0.00000000000E+00 0. -1.
</event>
<event>
 8    1  0.2490104E-006  0.9118800E+02  0.7816164E-02  0.1184000E+00
        -11   -1    0    0    0    0  0.00000000000E+00  0.00000000000E+00  0.45593999997E+02  0.45594000000E+02  0.51100000000E-03 0.  1.
         11   -1    0    0    0    0 -0.00000000000E+00 -0.00000000000E+00 -0.45593999997E+02  0.45594000000E+02  0.51100000000E-03 0. -1.
         23    2    1    2    0    0  0.00000000000E+00  0.35527136788E-14  0.00000000000E+00  0.91188000000E+02  0.91188000000E+02 0.  0.
    9900012    2    3    3    0    0  0.12939038012E+02  0.29593779756E+02 -0.17679629642E+02  0.54367084623E+02  0.40000001015E+02 0.  0.
        -12    1    3    3    0    0 -0.12939038012E+02 -0.29593779756E+02  0.17679629642E+02  0.36820915377E+02  0.00000000000E+00 0.  1.
         11    1    4    4    0    0  0.12310583782E+02  0.25108603279E+02 -0.73347708958E+01  0.28910055275E+02  0.51100000000E-03 0. -1.
        -11    1    4    4    0    0 -0.99129700100E+01  0.32556827811E+01  0.28273818147E+00  0.10437738545E+02  0.51100000000E-03 0.  1.
         12    1    4    4    0    0  0.10541424240E+02  0.12294936960E+01 -0.10627596928E+02  0.15019290803E+02  0.00000000000E+00 0. -1.
</event>
<event>
 8    1  0.2490104E-006  0.9118800E+02  0.7816164E-02  0.1184000E+00
        -11   -1    0    0    0    0  0.00000000000E+00  0.00000000000E+00  0.45593999997E+02  0.45594000000E+02  0.51100000000E-03 0.  1.
         11   -1    0    0    0    0 -0.00000000000E+00 -0.00000000000E+00 -0.45593999997E+02  0.45594000000E+02  0.51100000000E-03 0. -1.
         23    2    1    2    0    0  0.00000000000E+00  0.26645352591E-14  0.35527136788E-14  0.91188000000E+02  0.91188000000E+02 0.  0.
    9900012    2    3    3    0    0 -0.23656803021E+02  0.51167789851E+01  0.27748022989E+02  0.54367101910E+02  0.40000040423E+02 0.  0.
         12    1    3    3    0    0  0.23656803021E+02 -0.51167789851E+01 -0.27748022989E+02  0.36820898090E+02  0.00000000000E+00 0. -1.
         11    1    4    4    0    0 -0.40066494548E+01  0.14383867607E+02  0.23966012414E+02  0.28236831240E+02  0.51100000000E-03 0. -1.
        -11    1    4    4    0    0 -0.20558345501E+02 -0.10068255289E+02  0.59454985848E+01  0.23650883450E+02  0.51100000000E-03 0.  1.
        -12    1    4    4    0    0  0.90819193436E+00  0.80116666771E+00 -0.21634880093E+01  0.24793872197E+01  0.00000000000E+00 0.  1.
</event>
<event>
 8    1  0.2490104E-006  0.9118800E+02  0.7816164E-02  0.1184000E+00
        -11   -1    0    0    0    0  0.00000000000E+00  0.00000000000E+00  0.45593999997E+02  0.45594000000E+02  0.51100000000E-03 0.  1.
         11   -1    0    0    0    0 -0.00000000000E+00 -0.00000000000E+00 -0.45593999997E+02  0.45594000000E+02  0.51100000000E-03 0. -1.
         23    2    1    2    0    0  0.00000000000E+00  0.00000000000E+00  0.00000000000E+00  0.91188000000E+02  0.91188000000E+02 0.  0.
    9900012    2    3    3    0    0 -0.13226556512E+02  0.33802138018E+02 -0.61850715070E+01  0.54367062460E+02  0.39999950491E+02 0.  0.
         12    1    3    3    0    0  0.13226556512E+02 -0.33802138018E+02  0.61850715070E+01  0.36820937540E+02  0.00000000000E+00 0. -1.
         11    1    4    4    0    0 -0.15518936773E+02  0.28055236384E+02 -0.11883625716E+02  0.34192897619E+02  0.51100000000E-03 0. -1.
        -11    1    4    4    0    0  0.50164047211E+01  0.11663667768E+02  0.25962048588E+01  0.12959388182E+02  0.51100000000E-03 0.  1.
         12    1    4    4    0    0 -0.27240244601E+01 -0.59167661349E+01  0.31023493500E+01  0.72147766593E+01  0.00000000000E+00 0. -1.
</event>
<event>
 8    1  0.2490104E-006  0.9118800E+02  0.7816164E-02  0.1184000E+00
        -11   -1    0    0    0    0  0.00000000000E+00  0.00000000000E+00  0.45593999997E+02  0.45594000000E+02  0.51100000000E-03 0. -1.
         11   -1    0    0    0    0 -0.00000000000E+00 -0.00000000000E+00 -0.45593999997E+02  0.45594000000E+02  0.51100000000E-03 0.  1.
         23    2    1    2    0    0  0.17763568394E-14  0.71054273576E-14  0.35527136788E-14  0.91188000000E+02  0.91188000000E+02 0.  0.
    9900012    2    3    3    0    0  0.87744271653E+01  0.21382747591E+02  0.28662985673E+02  0.54367092701E+02  0.40000019430E+02 0.  0.
        -12    1    3    3    0    0 -0.87744271653E+01 -0.21382747591E+02 -0.28662985673E+02  0.36820907299E+02  0.00000000000E+00 0.  1.
         11    1    4    4    0    0  0.70353748497E+01  0.38002403546E+01  0.16948214453E+02  0.18739805213E+02  0.51100000000E-03 0. -1.
        -11    1    4    4    0    0  0.45038918129E+01 -0.20468151830E+01  0.14764221419E+02  0.15571022067E+02  0.51100000000E-03 0.  1.
         12    1    4    4    0    0 -0.27648394974E+01  0.19629322420E+02 -0.30494501982E+01  0.20056265420E+02  0.00000000000E+00 0. -1.
</event>
<event>
 8    1  0.2490104E-006  0.9118800E+02  0.7816164E-02  0.1184000E+00
        -11   -1    0    0    0    0  0.00000000000E+00  0.00000000000E+00  0.45593999997E+02  0.45594000000E+02  0.51100000000E-03 0. -1.
         11   -1    0    0    0    0 -0.00000000000E+00 -0.00000000000E+00 -0.45593999997E+02  0.45594000000E+02  0.51100000000E-03 0.  1.
         23    2    1    2    0    0 -0.17763568394E-14  0.71054273576E-14 -0.88817841970E-15  0.91188000000E+02  0.91188000000E+02 0.  0.
    9900012    2    3    3    0    0 -0.12651027807E+02  0.34245473155E+02 -0.47936523239E+01  0.54367081506E+02  0.39999993908E+02 0.  0.
        -12    1    3    3    0    0  0.12651027807E+02 -0.34245473155E+02  0.47936523239E+01  0.36820918494E+02  0.00000000000E+00 0.  1.
         11    1    4    4    0    0  0.93620406936E+00  0.94341985055E+01  0.76918574693E+01  0.12208409032E+02  0.51100000000E-03 0. -1.
        -11    1    4    4    0    0  0.38169534098E+01  0.12863852486E+01  0.62328256302E+01  0.74210535599E+01  0.51100000000E-03 0.  1.
        -12    1    4    4    0    0 -0.17404185286E+02  0.23524889401E+02 -0.18718335423E+02  0.34737618914E+02  0.00000000000E+00 0.  1.
</event>
<event>
 8    1  0.2490104E-006  0.9118800E+02  0.7816164E-02  0.1184000E+00
        -11   -1    0    0    0    0  0.00000000000E+00  0.00000000000E+00  0.45593999997E+02  0.45594000000E+02  0.51100000000E-03 0.  1.
         11   -1    0    0    0    0 -0.00000000000E+00 -0.00000000000E+00 -0.45593999997E+02  0.45594000000E+02  0.51100000000E-03 0. -1.
         23    2    1    2    0    0  0.00000000000E+00 -0.71054273576E-14  0.35527136788E-14  0.91188000000E+02  0.91188000000E+02 0.  0.
    9900012    2    3    3    0    0 -0.16620307555E+02  0.31430954540E+02  0.95727724998E+01  0.54367115982E+02  0.40000072505E+02 0.  0.
         12    1    3    3    0    0  0.16620307555E+02 -0.31430954540E+02 -0.95727724998E+01  0.36820884018E+02  0.00000000000E+00 0. -1.
         11    1    4    4    0    0 -0.35811045321E+01  0.22460105674E+02 -0.81409210490E+01  0.24156888301E+02  0.51100000000E-03 0. -1.
        -11    1    4    4    0    0 -0.13154997279E+02  0.12911880226E+02  0.18581284229E+02  0.26173168098E+02  0.51100000000E-03 0.  1.
        -12    1    4    4    0    0  0.11579425626E+00 -0.39410313610E+01 -0.86759068068E+00  0.40370595843E+01  0.00000000000E+00 0.  1.
</event>
<event>
 8    1  0.2490104E-006  0.9118800E+02  0.7816164E-02  0.1184000E+00
        -11   -1    0    0    0    0  0.00000000000E+00  0.00000000000E+00  0.45593999997E+02  0.45594000000E+02  0.51100000000E-03 0. -1.
         11   -1    0    0    0    0 -0.00000000000E+00 -0.00000000000E+00 -0.45593999997E+02  0.45594000000E+02  0.51100000000E-03 0.  1.
         23    2    1    2    0    0  0.00000000000E+00  0.00000000000E+00  0.44408920985E-15  0.91188000000E+02  0.91188000000E+02 0.  0.
    9900012    2    3    3    0    0 -0.17680940709E+02 -0.32179068979E+02 -0.27699385310E+01  0.54367072470E+02  0.39999973309E+02 0.  0.
        -12    1    3    3    0    0  0.17680940709E+02  0.32179068979E+02  0.27699385310E+01  0.36820927530E+02  0.00000000000E+00 0.  1.
         11    1    4    4    0    0 -0.10213106982E+01  0.30371651823E+00 -0.38728553476E+01  0.40167559138E+01  0.51100000000E-03 0. -1.
        -11    1    4    4    0    0 -0.83912560569E+01 -0.10279108159E+00 -0.11840096391E+02  0.14512464540E+02  0.51100000000E-03 0.  1.
         12    1    4    4    0    0 -0.82683739541E+01 -0.32379994416E+02  0.12943013208E+02  0.35837852016E+02  0.00000000000E+00 0. -1.
</event>
<event>
 8    1  0.2490104E-006  0.9118800E+02  0.7816164E-02  0.1184000E+00
        -11   -1    0    0    0    0  0.00000000000E+00  0.00000000000E+00  0.45593999997E+02  0.45594000000E+02  0.51100000000E-03 0. -1.
         11   -1    0    0    0    0 -0.00000000000E+00 -0.00000000000E+00 -0.45593999997E+02  0.45594000000E+02  0.51100000000E-03 0.  1.
         23    2    1    2    0    0  0.00000000000E+00  0.00000000000E+00  0.00000000000E+00  0.91188000000E+02  0.91188000000E+02 0.  0.
    9900012    2    3    3    0    0  0.27994983325E+02 -0.14677708702E+02  0.18884532247E+02  0.54367084989E+02  0.40000001849E+02 0.  0.
        -12    1    3    3    0    0 -0.27994983325E+02  0.14677708702E+02 -0.18884532247E+02  0.36820915011E+02  0.00000000000E+00 0.  1.
         11    1    4    4    0    0  0.10566096767E+02 -0.14892585508E+02  0.18666711205E+01  0.18355270778E+02  0.51100000000E-03 0.  1.
        -11    1    4    4    0    0 -0.53911792279E+01 -0.39909780211E+01  0.94814268955E+01  0.11614222973E+02  0.51100000000E-03 0. -1.
        -12    1    4    4    0    0  0.22820065785E+02  0.42058548273E+01  0.75364342313E+01  0.24397591237E+02  0.00000000000E+00 0.  1.
</event>
<event>
 8    1  0.2490104E-006  0.9118800E+02  0.7816164E-02  0.1184000E+00
        -11   -1    0    0    0    0  0.00000000000E+00  0.00000000000E+00  0.45593999997E+02  0.45594000000E+02  0.51100000000E-03 0. -1.
         11   -1    0    0    0    0 -0.00000000000E+00 -0.00000000000E+00 -0.45593999997E+02  0.45594000000E+02  0.51100000000E-03 0.  1.
         23    2    1    2    0    0  0.00000000000E+00  0.00000000000E+00 -0.35527136788E-14  0.91188000000E+02  0.91188000000E+02 0.  0.
    9900012    2    3    3    0    0 -0.14773263549E+02 -0.13791220776E+02 -0.30778775047E+02  0.54367080948E+02  0.39999992638E+02 0.  0.
         12    1    3    3    0    0  0.14773263549E+02  0.13791220776E+02  0.30778775047E+02  0.36820919052E+02  0.00000000000E+00 0. -1.
         11    1    4    4    0    0  0.27085293866E+01  0.16122818306E+01  0.75398434329E+01  0.81721981983E+01  0.51100000000E-03 0. -1.
        -11    1    4    4    0    0 -0.60190605073E+01 -0.12634077240E+02 -0.21525965845E+02  0.25675205996E+02  0.51100000000E-03 0.  1.
         12    1    4    4    0    0 -0.11462732428E+02 -0.27694253671E+01 -0.16792652635E+02  0.20519676755E+02  0.00000000000E+00 0. -1.
</event>
<event>
 8    1  0.2490104E-006  0.9118800E+02  0.7816164E-02  0.1184000E+00
        -11   -1    0    0    0    0  0.00000000000E+00  0.00000000000E+00  0.45593999997E+02  0.45594000000E+02  0.51100000000E-03 0. -1.
         11   -1    0    0    0    0 -0.00000000000E+00 -0.00000000000E+00 -0.45593999997E+02  0.45594000000E+02  0.51100000000E-03 0.  1.
         23    2    1    2    0    0  0.00000000000E+00 -0.35527136788E-14  0.00000000000E+00  0.91188000000E+02  0.91188000000E+02 0.  0.
    9900012    2    3    3    0    0  0.22768283187E+02  0.22410328116E+02  0.18307261314E+02  0.54367172438E+02  0.40000201206E+02 0.  0.
        -12    1    3    3    0    0 -0.22768283187E+02 -0.22410328116E+02 -0.18307261314E+02  0.36820827562E+02  0.00000000000E+00 0.  1.
         11    1    4    4    0    0  0.11166311864E+02  0.34352956027E+01  0.12601014636E+02  0.17183519624E+02  0.51100000000E-03 0. -1.
        -11    1    4    4    0    0  0.18584682313E+02  0.32972889774E+01 -0.63913465047E+00  0.18885736010E+02  0.51100000000E-03 0.  1.
         12    1    4    4    0    0 -0.69827109906E+01  0.15677743536E+02  0.63453813277E+01  0.18297916804E+02  0.00000000000E+00 0. -1.
</event>
<event>
 8    1  0.2490104E-006  0.9118800E+02  0.7816164E-02  0.1184000E+00
        -11   -1    0    0    0    0  0.00000000000E+00  0.00000000000E+00  0.45593999997E+02  0.45594000000E+02  0.51100000000E-03 0.  1.
         11   -1    0    0    0    0 -0.00000000000E+00 -0.00000000000E+00 -0.45593999997E+02  0.45594000000E+02  0.51100000000E-03 0. -1.
         23    2    1    2    0    0  0.00000000000E+00  0.00000000000E+00 -0.17763568394E-14  0.91188000000E+02  0.91188000000E+02 0.  0.
    9900012    2    3    3    0    0  0.33823776076E+02  0.12717971969E+02  0.70699805232E+01  0.54367092032E+02  0.40000017904E+02 0.  0.
         12    1    3    3    0    0 -0.33823776076E+02 -0.12717971969E+02 -0.70699805232E+01  0.36820907968E+02  0.00000000000E+00 0. -1.
         11    1    4    4    0    0 -0.29955253144E+01 -0.18424726082E+01 -0.42975027021E+01  0.55530538406E+01  0.51100000000E-03 0. -1.
        -11    1    4    4    0    0  0.13943391892E+02  0.91917071104E+01  0.17844360461E+02  0.24440271225E+02  0.51100000000E-03 0.  1.
        -12    1    4    4    0    0  0.22875909499E+02  0.53687374664E+01 -0.64768772356E+01  0.24373766966E+02  0.00000000000E+00 0.  1.
</event>
<event>
 8    1  0.2490104E-006  0.9118800E+02  0.7816164E-02  0.1184000E+00
        -11   -1    0    0    0    0  0.00000000000E+00  0.00000000000E+00  0.45593999997E+02  0.45594000000E+02  0.51100000000E-03 0.  1.
         11   -1    0    0    0    0 -0.00000000000E+00 -0.00000000000E+00 -0.45593999997E+02  0.45594000000E+02  0.51100000000E-03 0. -1.
         23    2    1    2    0    0  0.00000000000E+00 -0.44408920985E-15  0.17763568394E-14  0.91188000000E+02  0.91188000000E+02 0.  0.
    9900012    2    3    3    0    0  0.34866157117E+02  0.38623828801E+01 -0.11189926778E+02  0.54367063362E+02  0.39999952547E+02 0.  0.
        -12    1    3    3    0    0 -0.34866157117E+02 -0.38623828801E+01  0.11189926778E+02  0.36820936638E+02  0.00000000000E+00 0.  1.
         11    1    4    4    0    0  0.97548005806E+01 -0.96570858871E+01  0.87270196934E+01  0.16265802015E+02  0.51100000000E-03 0. -1.
        -11    1    4    4    0    0  0.40614858408E+01  0.39821566784E+00  0.24004984625E+01  0.47346210073E+01  0.51100000000E-03 0.  1.
         12    1    4    4    0    0  0.21049870695E+02  0.13121253099E+02 -0.22317444934E+02  0.33366640340E+02  0.00000000000E+00 0. -1.
</event>
<event>
 8    1  0.2490104E-006  0.9118800E+02  0.7816164E-02  0.1184000E+00
        -11   -1    0    0    0    0  0.00000000000E+00  0.00000000000E+00  0.45593999997E+02  0.45594000000E+02  0.51100000000E-03 0. -1.
         11   -1    0    0    0    0 -0.00000000000E+00 -0.00000000000E+00 -0.45593999997E+02  0.45594000000E+02  0.51100000000E-03 0.  1.
         23    2    1    2    0    0  0.35527136788E-14  0.00000000000E+00 -0.17763568394E-14  0.91188000000E+02  0.91188000000E+02 0.  0.
    9900012    2    3    3    0    0  0.30109042913E+02  0.18220421315E+02 -0.10827768786E+02  0.54367098396E+02  0.40000032414E+02 0.  0.
         12    1    3    3    0    0 -0.30109042913E+02 -0.18220421315E+02  0.10827768786E+02  0.36820901604E+02  0.00000000000E+00 0. -1.
         11    1    4    4    0    0  0.43839557529E+01  0.21904606633E+02  0.35218192147E+01  0.22614908150E+02  0.51100000000E-03 0. -1.
        -11    1    4    4    0    0  0.81031087120E+01 -0.10204908880E+01  0.10039297372E+01  0.82285872195E+01  0.51100000000E-03 0.  1.
         12    1    4    4    0    0  0.17621978448E+02 -0.26636944297E+01 -0.15353517738E+02  0.23523603027E+02  0.00000000000E+00 0. -1.
</event>
<event>
 8    1  0.2490104E-006  0.9118800E+02  0.7816164E-02  0.1184000E+00
        -11   -1    0    0    0    0  0.00000000000E+00  0.00000000000E+00  0.45593999997E+02  0.45594000000E+02  0.51100000000E-03 0. -1.
         11   -1    0    0    0    0 -0.00000000000E+00 -0.00000000000E+00 -0.45593999997E+02  0.45594000000E+02  0.51100000000E-03 0.  1.
         23    2    1    2    0    0 -0.35527136788E-14  0.00000000000E+00  0.35527136788E-14  0.91188000000E+02  0.91188000000E+02 0.  0.
    9900012    2    3    3    0    0 -0.22022953551E+02 -0.23222759857E+02 -0.18206394274E+02  0.54367084056E+02  0.39999999723E+02 0.  0.
        -12    1    3    3    0    0  0.22022953551E+02  0.23222759857E+02  0.18206394274E+02  0.36820915944E+02  0.00000000000E+00 0.  1.
         11    1    4    4    0    0 -0.15944421007E+02 -0.39862927951E+01 -0.22103536335E+02  0.27544171984E+02  0.51100000000E-03 0. -1.
        -11    1    4    4    0    0 -0.10783620026E+02 -0.58397168542E+01  0.79521683959E+00  0.12289065216E+02  0.51100000000E-03 0.  1.
        -12    1    4    4    0    0  0.47050874825E+01 -0.13396750208E+02  0.31019252215E+01  0.14533846856E+02  0.00000000000E+00 0.  1.
</event>
<event>
 8    1  0.2490104E-006  0.9118800E+02  0.7816164E-02  0.1184000E+00
        -11   -1    0    0    0    0  0.00000000000E+00  0.00000000000E+00  0.45593999997E+02  0.45594000000E+02  0.51100000000E-03 0.  1.
         11   -1    0    0    0    0 -0.00000000000E+00 -0.00000000000E+00 -0.45593999997E+02  0.45594000000E+02  0.51100000000E-03 0. -1.
         23    2    1    2    0    0 -0.35527136788E-14  0.00000000000E+00  0.00000000000E+00  0.91188000000E+02  0.91188000000E+02 0.  0.
    9900012    2    3    3    0    0 -0.30830958114E+02 -0.19588865129E+02  0.46377240990E+01  0.54367080673E+02  0.39999992011E+02 0.  0.
         12    1    3    3    0    0  0.30830958114E+02  0.19588865129E+02 -0.46377240990E+01  0.36820919327E+02  0.00000000000E+00 0. -1.
         11    1    4    4    0    0 -0.16146564525E+02 -0.50208011398E+01  0.54223339701E+01  0.17757299795E+02  0.51100000000E-03 0. -1.
        -11    1    4    4    0    0 -0.17227661548E+02  0.41381398034E+01 -0.66156669266E-01  0.17717813082E+02  0.51100000000E-03 0.  1.
         12    1    4    4    0    0  0.25432679592E+01 -0.18706203792E+02 -0.71845320182E+00  0.18891967797E+02  0.00000000000E+00 0. -1.
</event>
<event>
 8    1  0.2490104E-006  0.9118800E+02  0.7816164E-02  0.1184000E+00
        -11   -1    0    0    0    0  0.00000000000E+00  0.00000000000E+00  0.45593999997E+02  0.45594000000E+02  0.51100000000E-03 0.  1.
         11   -1    0    0    0    0 -0.00000000000E+00 -0.00000000000E+00 -0.45593999997E+02  0.45594000000E+02  0.51100000000E-03 0. -1.
         23    2    1    2    0    0  0.00000000000E+00  0.00000000000E+00  0.00000000000E+00  0.91188000000E+02  0.91188000000E+02 0.  0.
    9900012    2    3    3    0    0  0.18474184831E+02  0.22298159412E+02  0.22743754746E+02  0.54367057613E+02  0.39999939440E+02 0.  0.
         12    1    3    3    0    0 -0.18474184831E+02 -0.22298159412E+02 -0.22743754746E+02  0.36820942387E+02  0.00000000000E+00 0. -1.
         11    1    4    4    0    0 -0.22451404080E+01  0.28186143315E+01 -0.21880026152E+01  0.42157559116E+01  0.51100000000E-03 0. -1.
        -11    1    4    4    0    0  0.26331875617E+02  0.34828542109E+01  0.15042437710E+02  0.30524955028E+02  0.51100000000E-03 0.  1.
        -12    1    4    4    0    0 -0.56125503787E+01  0.15996690870E+02  0.98893196515E+01  0.19626346673E+02  0.00000000000E+00 0.  1.
</event>
<event>
 8    1  0.2490104E-006  0.9118800E+02  0.7816164E-02  0.1184000E+00
        -11   -1    0    0    0    0  0.00000000000E+00  0.00000000000E+00  0.45593999997E+02  0.45594000000E+02  0.51100000000E-03 0.  1.
         11   -1    0    0    0    0 -0.00000000000E+00 -0.00000000000E+00 -0.45593999997E+02  0.45594000000E+02  0.51100000000E-03 0. -1.
         23    2    1    2    0    0 -0.88817841970E-15 -0.71054273576E-14  0.00000000000E+00  0.91188000000E+02  0.91188000000E+02 0.  0.
    9900012    2    3    3    0    0 -0.63624727517E+01 -0.35934561884E+02  0.48996766790E+01  0.54367073492E+02  0.39999975640E+02 0.  0.
         12    1    3    3    0    0  0.63624727517E+01  0.35934561884E+02 -0.48996766790E+01  0.36820926508E+02  0.00000000000E+00 0. -1.
         11    1    4    4    0    0 -0.57634350540E+01  0.43071037201E+00  0.39425750978E+01  0.69961842249E+01  0.51100000000E-03 0. -1.
        -11    1    4    4    0    0  0.85912730073E+01  0.11462017313E+01  0.11942141150E+01  0.87492798508E+01  0.51100000000E-03 0.  1.
        -12    1    4    4    0    0 -0.91903107049E+01 -0.37511473988E+02 -0.23711253379E+00  0.38621609417E+02  0.00000000000E+00 0.  1.
</event>
<event>
 8    1  0.2490104E-006  0.9118800E+02  0.7816164E-02  0.1184000E+00
        -11   -1    0    0    0    0  0.00000000000E+00  0.00000000000E+00  0.45593999997E+02  0.45594000000E+02  0.51100000000E-03 0.  1.
         11   -1    0    0    0    0 -0.00000000000E+00 -0.00000000000E+00 -0.45593999997E+02  0.45594000000E+02  0.51100000000E-03 0. -1.
         23    2    1    2    0    0  0.00000000000E+00  0.00000000000E+00  0.35527136788E-14  0.91188000000E+02  0.91188000000E+02 0.  0.
    9900012    2    3    3    0    0 -0.20875441163E+02  0.18614971357E+02 -0.23947424831E+02  0.54367077166E+02  0.39999984014E+02 0.  0.
        -12    1    3    3    0    0  0.20875441163E+02 -0.18614971357E+02  0.23947424831E+02  0.36820922834E+02  0.00000000000E+00 0.  1.
         11    1    4    4    0    0 -0.20773749314E+02  0.45263240457E+01 -0.29033586236E+02  0.35985905573E+02  0.51100000000E-03 0. -1.
        -11    1    4    4    0    0  0.49447226762E+01  0.72699951582E+01  0.45028519493E+01  0.98781976029E+01  0.51100000000E-03 0.  1.
         12    1    4    4    0    0 -0.50464145253E+01  0.68186521529E+01  0.58330945616E+00  0.85029739895E+01  0.00000000000E+00 0. -1.
</event>
<event>
 8    1  0.2490104E-006  0.9118800E+02  0.7816164E-02  0.1184000E+00
        -11   -1    0    0    0    0  0.00000000000E+00  0.00000000000E+00  0.45593999997E+02  0.45594000000E+02  0.51100000000E-03 0. -1.
         11   -1    0    0    0    0 -0.00000000000E+00 -0.00000000000E+00 -0.45593999997E+02  0.45594000000E+02  0.51100000000E-03 0.  1.
         23    2    1    2    0    0 -0.35527136788E-14 -0.17763568394E-14  0.35527136788E-14  0.91188000000E+02  0.91188000000E+02 0.  0.
    9900012    2    3    3    0    0 -0.27934972812E+02  0.56063016900E+01  0.23323528718E+02  0.54367077734E+02  0.39999985311E+02 0.  0.
        -12    1    3    3    0    0  0.27934972812E+02 -0.56063016900E+01 -0.23323528718E+02  0.36820922266E+02  0.00000000000E+00 0.  1.
         11    1    4    4    0    0 -0.11538482600E+02  0.18589256721E+02  0.19474551478E+02  0.29290872327E+02  0.51100000000E-03 0. -1.
        -11    1    4    4    0    0  0.82532651243E+00 -0.59916734359E+01 -0.20789581126E+00  0.60518208288E+01  0.51100000000E-03 0.  1.
        -12    1    4    4    0    0 -0.17221816724E+02 -0.69912815955E+01  0.40568730513E+01  0.19024384578E+02  0.00000000000E+00 0.  1.
</event>
<event>
 8    1  0.2490104E-006  0.9118800E+02  0.7816164E-02  0.1184000E+00
        -11   -1    0    0    0    0  0.00000000000E+00  0.00000000000E+00  0.45593999997E+02  0.45594000000E+02  0.51100000000E-03 0.  1.
         11   -1    0    0    0    0 -0.00000000000E+00 -0.00000000000E+00 -0.45593999997E+02  0.45594000000E+02  0.51100000000E-03 0. -1.
         23    2    1    2    0    0 -0.17763568394E-14  0.71054273576E-14 -0.35527136788E-14  0.91188000000E+02  0.91188000000E+02 0.  0.
    9900012    2    3    3    0    0 -0.13706301453E+02  0.33214673710E+02 -0.80433585460E+01  0.54367178908E+02  0.40000215957E+02 0.  0.
        -12    1    3    3    0    0  0.13706301453E+02 -0.33214673710E+02  0.80433585460E+01  0.36820821092E+02  0.00000000000E+00 0.  1.
         11    1    4    4    0    0 -0.34619617640E+01  0.13750307326E+02  0.11377696307E+02  0.18179881856E+02  0.51100000000E-03 0. -1.
        -11    1    4    4    0    0 -0.36322073729E+01  0.94609729885E+01  0.31637305007E+01  0.10616596970E+02  0.51100000000E-03 0.  1.
        -12    1    4    4    0    0 -0.66121323162E+01  0.10003393396E+02 -0.22584785353E+02  0.25570700081E+02  0.00000000000E+00 0.  1.
</event>
<event>
 8    1  0.2490104E-006  0.9118800E+02  0.7816164E-02  0.1184000E+00
        -11   -1    0    0    0    0  0.00000000000E+00  0.00000000000E+00  0.45593999997E+02  0.45594000000E+02  0.51100000000E-03 0. -1.
         11   -1    0    0    0    0 -0.00000000000E+00 -0.00000000000E+00 -0.45593999997E+02  0.45594000000E+02  0.51100000000E-03 0.  1.
         23    2    1    2    0    0 -0.35527136788E-14  0.00000000000E+00 -0.11102230246E-15  0.91188000000E+02  0.91188000000E+02 0.  0.
    9900012    2    3    3    0    0  0.21336300772E+02  0.29999394850E+02 -0.76078267866E+00  0.54367079150E+02  0.39999988537E+02 0.  0.
         12    1    3    3    0    0 -0.21336300772E+02 -0.29999394850E+02  0.76078267866E+00  0.36820920850E+02  0.00000000000E+00 0. -1.
         11    1    4    4    0    0 -0.73884856992E+01  0.62530689764E+01 -0.17045155755E+01  0.98283246873E+01  0.51100000000E-03 0. -1.
        -11    1    4    4    0    0  0.27952395453E+02  0.27606321692E+02  0.40904978643E+01  0.39499083306E+02  0.51100000000E-03 0.  1.
        -12    1    4    4    0    0  0.77239101830E+00 -0.38599958189E+01 -0.31467649674E+01  0.50396711567E+01  0.00000000000E+00 0.  1.
</event>
<event>
 8    1  0.2490104E-006  0.9118800E+02  0.7816164E-02  0.1184000E+00
        -11   -1    0    0    0    0  0.00000000000E+00  0.00000000000E+00  0.45593999997E+02  0.45594000000E+02  0.51100000000E-03 0.  1.
         11   -1    0    0    0    0 -0.00000000000E+00 -0.00000000000E+00 -0.45593999997E+02  0.45594000000E+02  0.51100000000E-03 0. -1.
         23    2    1    2    0    0  0.00000000000E+00 -0.35527136788E-14 -0.35527136788E-14  0.91188000000E+02  0.91188000000E+02 0.  0.
    9900012    2    3    3    0    0  0.26639861183E+02 -0.19739338912E+02 -0.16014249472E+02  0.54367083517E+02  0.39999998493E+02 0.  0.
        -12    1    3    3    0    0 -0.26639861183E+02  0.19739338912E+02  0.16014249472E+02  0.36820916483E+02  0.00000000000E+00 0.  1.
         11    1    4    4    0    0 -0.30680511938E+01  0.26276219907E+01  0.15644733037E+01  0.43318486161E+01  0.51100000000E-03 0. -1.
        -11    1    4    4    0    0  0.45949520421E+01  0.54582736109E+01  0.24421361458E+01  0.75412442140E+01  0.51100000000E-03 0.  1.
        -12    1    4    4    0    0  0.25112960334E+02 -0.27825234514E+02 -0.20020858921E+02  0.42493990686E+02  0.00000000000E+00 0.  1.
</event>
<event>
 8    1  0.2490104E-006  0.9118800E+02  0.7816164E-02  0.1184000E+00
        -11   -1    0    0    0    0  0.00000000000E+00  0.00000000000E+00  0.45593999997E+02  0.45594000000E+02  0.51100000000E-03 0.  1.
         11   -1    0    0    0    0 -0.00000000000E+00 -0.00000000000E+00 -0.45593999997E+02  0.45594000000E+02  0.51100000000E-03 0. -1.
         23    2    1    2    0    0  0.00000000000E+00  0.00000000000E+00  0.00000000000E+00  0.91188000000E+02  0.91188000000E+02 0.  0.
    9900012    2    3    3    0    0 -0.16482901223E+02  0.31314343105E+02 -0.10173872266E+02  0.54367057675E+02  0.39999939581E+02 0.  0.
         12    1    3    3    0    0  0.16482901223E+02 -0.31314343105E+02  0.10173872266E+02  0.36820942325E+02  0.00000000000E+00 0. -1.
         11    1    4    4    0    0 -0.62507710912E+01  0.32496634046E+01  0.64639203548E+01  0.95611044389E+01  0.51100000000E-03 0.  1.
        -11    1    4    4    0    0 -0.95856701643E+01  0.33541324555E+02 -0.17810709487E+02  0.39167932012E+02  0.51100000000E-03 0. -1.
         12    1    4    4    0    0 -0.64645996795E+00 -0.54766448541E+01  0.11729168662E+01  0.56380212241E+01  0.00000000000E+00 0. -1.
</event>
<event>
 8    1  0.2490104E-006  0.9118800E+02  0.7816164E-02  0.1184000E+00
        -11   -1    0    0    0    0  0.00000000000E+00  0.00000000000E+00  0.45593999997E+02  0.45594000000E+02  0.51100000000E-03 0.  1.
         11   -1    0    0    0    0 -0.00000000000E+00 -0.00000000000E+00 -0.45593999997E+02  0.45594000000E+02  0.51100000000E-03 0. -1.
         23    2    1    2    0    0 -0.71054273576E-14 -0.17763568394E-14  0.00000000000E+00  0.91188000000E+02  0.91188000000E+02 0.  0.
    9900012    2    3    3    0    0  0.32695012148E+02 -0.12373970506E+02 -0.11562833027E+02  0.54367108199E+02  0.40000054761E+02 0.  0.
        -12    1    3    3    0    0 -0.32695012148E+02  0.12373970506E+02  0.11562833027E+02  0.36820891801E+02  0.00000000000E+00 0.  1.
         11    1    4    4    0    0  0.84120086472E+01 -0.18307818697E+02 -0.57431558875E+01  0.20950464309E+02  0.51100000000E-03 0. -1.
        -11    1    4    4    0    0  0.46715442168E+01 -0.37764706063E+01 -0.94858184574E+01  0.11227903085E+02  0.51100000000E-03 0.  1.
        -12    1    4    4    0    0  0.19611459284E+02  0.97103187972E+01  0.36661413183E+01  0.22188740806E+02  0.00000000000E+00 0.  1.
</event>
<event>
 8    1  0.2490104E-006  0.9118800E+02  0.7816164E-02  0.1184000E+00
        -11   -1    0    0    0    0  0.00000000000E+00  0.00000000000E+00  0.45593999997E+02  0.45594000000E+02  0.51100000000E-03 0.  1.
         11   -1    0    0    0    0 -0.00000000000E+00 -0.00000000000E+00 -0.45593999997E+02  0.45594000000E+02  0.51100000000E-03 0. -1.
         23    2    1    2    0    0  0.00000000000E+00 -0.35527136788E-14  0.00000000000E+00  0.91188000000E+02  0.91188000000E+02 0.  0.
    9900012    2    3    3    0    0  0.59691884339E+01 -0.16081169085E+02  0.32581336652E+02  0.54367099580E+02  0.40000035112E+02 0.  0.
         12    1    3    3    0    0 -0.59691884339E+01  0.16081169085E+02 -0.32581336652E+02  0.36820900420E+02  0.00000000000E+00 0. -1.
         11    1    4    4    0    0  0.58656050000E+01 -0.14850632574E+02  0.67212414878E+01  0.17324020817E+02  0.51100000000E-03 0. -1.
        -11    1    4    4    0    0 -0.40848415894E+01  0.60417480206E+01  0.27535778936E+02  0.28485220235E+02  0.51100000000E-03 0.  1.
        -12    1    4    4    0    0  0.41884250233E+01 -0.72722845315E+01 -0.16756837716E+01  0.85578585280E+01  0.00000000000E+00 0.  1.
</event>
<event>
 8    1  0.2490104E-006  0.9118800E+02  0.7816164E-02  0.1184000E+00
        -11   -1    0    0    0    0  0.00000000000E+00  0.00000000000E+00  0.45593999997E+02  0.45594000000E+02  0.51100000000E-03 0. -1.
         11   -1    0    0    0    0 -0.00000000000E+00 -0.00000000000E+00 -0.45593999997E+02  0.45594000000E+02  0.51100000000E-03 0.  1.
         23    2    1    2    0    0  0.35527136788E-14  0.00000000000E+00 -0.35527136788E-14  0.91188000000E+02  0.91188000000E+02 0.  0.
    9900012    2    3    3    0    0  0.29966012682E+02  0.99100114659E+01 -0.18963436510E+02  0.54367052598E+02  0.39999928008E+02 0.  0.
         12    1    3    3    0    0 -0.29966012682E+02 -0.99100114659E+01  0.18963436510E+02  0.36820947402E+02  0.00000000000E+00 0. -1.
         11    1    4    4    0    0  0.98418278494E+01  0.16283348536E+02 -0.21767303289E+01  0.19150644119E+02  0.51100000000E-03 0. -1.
        -11    1    4    4    0    0  0.24846421755E+02 -0.28314947025E+01 -0.14335629734E+02  0.28824855878E+02  0.51100000000E-03 0.  1.
         12    1    4    4    0    0 -0.47222369225E+01 -0.35418423678E+01 -0.24510764466E+01  0.63915526015E+01  0.00000000000E+00 0. -1.
</event>
<event>
 8    1  0.2490104E-006  0.9118800E+02  0.7816164E-02  0.1184000E+00
        -11   -1    0    0    0    0  0.00000000000E+00  0.00000000000E+00  0.45593999997E+02  0.45594000000E+02  0.51100000000E-03 0. -1.
         11   -1    0    0    0    0 -0.00000000000E+00 -0.00000000000E+00 -0.45593999997E+02  0.45594000000E+02  0.51100000000E-03 0.  1.
         23    2    1    2    0    0  0.00000000000E+00 -0.35527136788E-14  0.17763568394E-14  0.91188000000E+02  0.91188000000E+02 0.  0.
    9900012    2    3    3    0    0 -0.31220031243E+02  0.16422767033E+02 -0.10553801572E+02  0.54367077205E+02  0.39999984104E+02 0.  0.
         12    1    3    3    0    0  0.31220031243E+02 -0.16422767033E+02  0.10553801572E+02  0.36820922795E+02  0.00000000000E+00 0. -1.
         11    1    4    4    0    0 -0.17917258340E+02  0.49116502583E+01 -0.60787765848E+01  0.19547480137E+02  0.51100000000E-03 0. -1.
        -11    1    4    4    0    0  0.23228042992E+01  0.17605455807E+02 -0.21816005368E+01  0.17891530821E+02  0.51100000000E-03 0.  1.
        -12    1    4    4    0    0 -0.15625577202E+02 -0.60943390316E+01 -0.22934244507E+01  0.16928066246E+02  0.00000000000E+00 0.  1.
</event>
<event>
 8    1  0.2490104E-006  0.9118800E+02  0.7816164E-02  0.1184000E+00
        -11   -1    0    0    0    0  0.00000000000E+00  0.00000000000E+00  0.45593999997E+02  0.45594000000E+02  0.51100000000E-03 0. -1.
         11   -1    0    0    0    0 -0.00000000000E+00 -0.00000000000E+00 -0.45593999997E+02  0.45594000000E+02  0.51100000000E-03 0.  1.
         23    2    1    2    0    0  0.35527136788E-14  0.66613381478E-15  0.35527136788E-14  0.91188000000E+02  0.91188000000E+02 0.  0.
    9900012    2    3    3    0    0 -0.23155847145E+02  0.89729303376E+00 -0.28614329028E+02  0.54367106237E+02  0.40000050288E+02 0.  0.
         12    1    3    3    0    0  0.23155847145E+02 -0.89729303376E+00  0.28614329028E+02  0.36820893763E+02  0.00000000000E+00 0. -1.
         11    1    4    4    0    0 -0.30465489127E+01  0.19929750806E+01  0.34601123262E+01  0.50225280010E+01  0.51100000000E-03 0. -1.
        -11    1    4    4    0    0  0.10582566808E+01  0.85325850784E+01  0.12709223043E+01  0.86913841871E+01  0.51100000000E-03 0.  1.
        -12    1    4    4    0    0 -0.21167554913E+02 -0.96282671253E+01 -0.33345363659E+02  0.40653194049E+02  0.00000000000E+00 0.  1.
</event>
<event>
 8    1  0.2490104E-006  0.9118800E+02  0.7816164E-02  0.1184000E+00
        -11   -1    0    0    0    0  0.00000000000E+00  0.00000000000E+00  0.45593999997E+02  0.45594000000E+02  0.51100000000E-03 0. -1.
         11   -1    0    0    0    0 -0.00000000000E+00 -0.00000000000E+00 -0.45593999997E+02  0.45594000000E+02  0.51100000000E-03 0.  1.
         23    2    1    2    0    0  0.00000000000E+00 -0.35527136788E-14  0.00000000000E+00  0.91188000000E+02  0.91188000000E+02 0.  0.
    9900012    2    3    3    0    0  0.88248164372E+01  0.31854197418E+02 -0.16223764777E+02  0.54367111610E+02  0.40000062536E+02 0.  0.
         12    1    3    3    0    0 -0.88248164372E+01 -0.31854197418E+02  0.16223764777E+02  0.36820888390E+02  0.00000000000E+00 0. -1.
         11    1    4    4    0    0  0.62407921249E+01  0.39933250507E+02 -0.17009841385E+02  0.43851416016E+02  0.51100000000E-03 0. -1.
        -11    1    4    4    0    0  0.43209207610E+01 -0.66324353728E+01 -0.47001081398E+00  0.79297204001E+01  0.51100000000E-03 0.  1.
         12    1    4    4    0    0 -0.17368964487E+01 -0.14466177161E+01  0.12560874217E+01  0.25859751934E+01  0.00000000000E+00 0. -1.
</event>
<event>
 8    1  0.2490104E-006  0.9118800E+02  0.7816164E-02  0.1184000E+00
        -11   -1    0    0    0    0  0.00000000000E+00  0.00000000000E+00  0.45593999997E+02  0.45594000000E+02  0.51100000000E-03 0. -1.
         11   -1    0    0    0    0 -0.00000000000E+00 -0.00000000000E+00 -0.45593999997E+02  0.45594000000E+02  0.51100000000E-03 0.  1.
         23    2    1    2    0    0  0.00000000000E+00 -0.17763568394E-14  0.35527136788E-14  0.91188000000E+02  0.91188000000E+02 0.  0.
    9900012    2    3    3    0    0 -0.22677928293E+02  0.13637330245E+02  0.25603016896E+02  0.54367086350E+02  0.40000004951E+02 0.  0.
        -12    1    3    3    0    0  0.22677928293E+02 -0.13637330245E+02 -0.25603016896E+02  0.36820913650E+02  0.00000000000E+00 0.  1.
         11    1    4    4    0    0 -0.95806136416E+00 -0.67534760100E+01  0.84222409962E+01  0.10837963990E+02  0.51100000000E-03 0. -1.
        -11    1    4    4    0    0 -0.12458302479E+02  0.22556243797E+02  0.23028815309E+01  0.25870769190E+02  0.51100000000E-03 0.  1.
        -12    1    4    4    0    0 -0.92615644499E+01 -0.21654375418E+01  0.14877894369E+02  0.17658353170E+02  0.00000000000E+00 0.  1.
</event>
<event>
 8    1  0.2490104E-006  0.9118800E+02  0.7816164E-02  0.1184000E+00
        -11   -1    0    0    0    0  0.00000000000E+00  0.00000000000E+00  0.45593999997E+02  0.45594000000E+02  0.51100000000E-03 0. -1.
         11   -1    0    0    0    0 -0.00000000000E+00 -0.00000000000E+00 -0.45593999997E+02  0.45594000000E+02  0.51100000000E-03 0.  1.
         23    2    1    2    0    0  0.35527136788E-14  0.35527136788E-14 -0.17763568394E-14  0.91188000000E+02  0.91188000000E+02 0.  0.
    9900012    2    3    3    0    0 -0.20528306858E+02 -0.27762232734E+02  0.12791731089E+02  0.54367063930E+02  0.39999953842E+02 0.  0.
        -12    1    3    3    0    0  0.20528306858E+02  0.27762232734E+02 -0.12791731089E+02  0.36820936070E+02  0.00000000000E+00 0.  1.
         11    1    4    4    0    0  0.85623688686E+01 -0.94026490010E+01  0.38701604641E+01  0.13292934633E+02  0.51100000000E-03 0. -1.
        -11    1    4    4    0    0  0.29826589958E+01 -0.38944065995E+01  0.12768203369E+01  0.50688191802E+01  0.51100000000E-03 0.  1.
         12    1    4    4    0    0 -0.32073334722E+02 -0.14465177133E+02  0.76447502877E+01  0.36005310117E+02  0.00000000000E+00 0. -1.
</event>
<event>
 8    1  0.2490104E-006  0.9118800E+02  0.7816164E-02  0.1184000E+00
        -11   -1    0    0    0    0  0.00000000000E+00  0.00000000000E+00  0.45593999997E+02  0.45594000000E+02  0.51100000000E-03 0. -1.
         11   -1    0    0    0    0 -0.00000000000E+00 -0.00000000000E+00 -0.45593999997E+02  0.45594000000E+02  0.51100000000E-03 0.  1.
         23    2    1    2    0    0  0.00000000000E+00  0.00000000000E+00 -0.88817841970E-15  0.91188000000E+02  0.91188000000E+02 0.  0.
    9900012    2    3    3    0    0 -0.19216412261E+02 -0.30876461020E+02  0.57577594942E+01  0.54367107293E+02  0.40000052697E+02 0.  0.
        -12    1    3    3    0    0  0.19216412261E+02  0.30876461020E+02 -0.57577594942E+01  0.36820892707E+02  0.00000000000E+00 0.  1.
         11    1    4    4    0    0  0.47699675991E+01 -0.16292536316E+01  0.72641477698E+01  0.88416571623E+01  0.51100000000E-03 0. -1.
        -11    1    4    4    0    0 -0.15726010277E+02 -0.65817140437E+00 -0.30477977146E+00  0.15742727839E+02  0.51100000000E-03 0.  1.
        -12    1    4    4    0    0 -0.82603695831E+01 -0.28589035984E+02 -0.12016085041E+01  0.29782722292E+02  0.00000000000E+00 0.  1.
</event>
<event>
 8    1  0.2490104E-006  0.9118800E+02  0.7816164E-02  0.1184000E+00
        -11   -1    0    0    0    0  0.00000000000E+00  0.00000000000E+00  0.45593999997E+02  0.45594000000E+02  0.51100000000E-03 0. -1.
         11   -1    0    0    0    0 -0.00000000000E+00 -0.00000000000E+00 -0.45593999997E+02  0.45594000000E+02  0.51100000000E-03 0.  1.
         23    2    1    2    0    0 -0.17763568394E-14  0.00000000000E+00 -0.35527136788E-14  0.91188000000E+02  0.91188000000E+02 0.  0.
    9900012    2    3    3    0    0 -0.10427246202E+02 -0.18897286528E+02 -0.29831952573E+02  0.54367078016E+02  0.39999985952E+02 0.  0.
        -12    1    3    3    0    0  0.10427246202E+02  0.18897286528E+02  0.29831952573E+02  0.36820921984E+02  0.00000000000E+00 0.  1.
         11    1    4    4    0    0  0.12778311815E+02 -0.55552575720E+01 -0.99012734769E+01  0.17093313203E+02  0.51100000000E-03 0. -1.
        -11    1    4    4    0    0 -0.22529080936E+02 -0.12511044687E+02 -0.10572313832E+02  0.27854255456E+02  0.51100000000E-03 0.  1.
         12    1    4    4    0    0 -0.67647708026E+00 -0.83098426925E+00 -0.93583652645E+01  0.94195093566E+01  0.00000000000E+00 0. -1.
</event>
<event>
 8    1  0.2490104E-006  0.9118800E+02  0.7816164E-02  0.1184000E+00
        -11   -1    0    0    0    0  0.00000000000E+00  0.00000000000E+00  0.45593999997E+02  0.45594000000E+02  0.51100000000E-03 0.  1.
         11   -1    0    0    0    0 -0.00000000000E+00 -0.00000000000E+00 -0.45593999997E+02  0.45594000000E+02  0.51100000000E-03 0. -1.
         23    2    1    2    0    0 -0.17763568394E-14  0.22204460493E-15  0.00000000000E+00  0.91188000000E+02  0.91188000000E+02 0.  0.
    9900012    2    3    3    0    0 -0.85809974010E+01  0.16474152296E+01 -0.35769147121E+02  0.54367090463E+02  0.40000014328E+02 0.  0.
        -12    1    3    3    0    0  0.85809974010E+01 -0.16474152296E+01  0.35769147121E+02  0.36820909537E+02  0.00000000000E+00 0.  1.
         11    1    4    4    0    0  0.49804573004E+00  0.13026569087E+02 -0.90306911587E+00  0.13067328947E+02  0.51100000000E-03 0. -1.
        -11    1    4    4    0    0 -0.16278385645E+01 -0.96279731070E+01 -0.60557312439E+01  0.11489978490E+02  0.51100000000E-03 0.  1.
         12    1    4    4    0    0 -0.74512045665E+01 -0.17511807505E+01 -0.28810346762E+02  0.29809783026E+02  0.00000000000E+00 0. -1.
</event>
<event>
 8    1  0.2490104E-006  0.9118800E+02  0.7816164E-02  0.1184000E+00
        -11   -1    0    0    0    0  0.00000000000E+00  0.00000000000E+00  0.45593999997E+02  0.45594000000E+02  0.51100000000E-03 0.  1.
         11   -1    0    0    0    0 -0.00000000000E+00 -0.00000000000E+00 -0.45593999997E+02  0.45594000000E+02  0.51100000000E-03 0. -1.
         23    2    1    2    0    0 -0.17763568394E-14  0.35527136788E-14  0.00000000000E+00  0.91188000000E+02  0.91188000000E+02 0.  0.
    9900012    2    3    3    0    0 -0.52427054331E+01  0.24834822191E+02  0.26674424450E+02  0.54367091901E+02  0.40000017606E+02 0.  0.
         12    1    3    3    0    0  0.52427054331E+01 -0.24834822191E+02 -0.26674424450E+02  0.36820908099E+02  0.00000000000E+00 0. -1.
         11    1    4    4    0    0  0.75123860089E+01 -0.34385682332E+01  0.68144740412E+00  0.82899979413E+01  0.51100000000E-03 0. -1.
        -11    1    4    4    0    0  0.40212496412E+01  0.11060623759E+01 -0.97447460961E+00  0.42829223297E+01  0.51100000000E-03 0.  1.
        -12    1    4    4    0    0 -0.16776341083E+02  0.27167328048E+02  0.26967451655E+02  0.41794171630E+02  0.00000000000E+00 0.  1.
</event>
<event>
 8    1  0.2490104E-006  0.9118800E+02  0.7816164E-02  0.1184000E+00
        -11   -1    0    0    0    0  0.00000000000E+00  0.00000000000E+00  0.45593999997E+02  0.45594000000E+02  0.51100000000E-03 0. -1.
         11   -1    0    0    0    0 -0.00000000000E+00 -0.00000000000E+00 -0.45593999997E+02  0.45594000000E+02  0.51100000000E-03 0.  1.
         23    2    1    2    0    0 -0.17763568394E-14 -0.15404344467E-14  0.00000000000E+00  0.91188000000E+02  0.91188000000E+02 0.  0.
    9900012    2    3    3    0    0 -0.99794108391E+01 -0.64766774281E-01  0.35442723797E+02  0.54367088746E+02  0.40000010414E+02 0.  0.
        -12    1    3    3    0    0  0.99794108391E+01  0.64766774281E-01 -0.35442723797E+02  0.36820911254E+02  0.00000000000E+00 0.  1.
         11    1    4    4    0    0 -0.11592026893E+02 -0.14445809368E+01  0.26956827529E+02  0.29379115921E+02  0.51100000000E-03 0. -1.
        -11    1    4    4    0    0 -0.18141748335E+01 -0.51345802871E+01  0.14496083831E+02  0.15485205577E+02  0.51100000000E-03 0.  1.
        -12    1    4    4    0    0  0.34267908871E+01  0.65143944496E+01 -0.60101875635E+01  0.95027672484E+01  0.00000000000E+00 0.  1.
</event>
<event>
 8    1  0.2490104E-006  0.9118800E+02  0.7816164E-02  0.1184000E+00
        -11   -1    0    0    0    0  0.00000000000E+00  0.00000000000E+00  0.45593999997E+02  0.45594000000E+02  0.51100000000E-03 0. -1.
         11   -1    0    0    0    0 -0.00000000000E+00 -0.00000000000E+00 -0.45593999997E+02  0.45594000000E+02  0.51100000000E-03 0.  1.
         23    2    1    2    0    0  0.88817841970E-15  0.00000000000E+00  0.00000000000E+00  0.91188000000E+02  0.91188000000E+02 0.  0.
    9900012    2    3    3    0    0 -0.70371689423E+01 -0.93044335311E+01 -0.34923998935E+02  0.54367082960E+02  0.39999997223E+02 0.  0.
         12    1    3    3    0    0  0.70371689423E+01  0.93044335311E+01  0.34923998935E+02  0.36820917040E+02  0.00000000000E+00 0. -1.
         11    1    4    4    0    0  0.90674016072E+01  0.95742984711E+01 -0.13123696846E+02  0.18604203350E+02  0.51100000000E-03 0. -1.
        -11    1    4    4    0    0 -0.81464078533E-01 -0.97695807584E+01 -0.58451619889E+01  0.11384957775E+02  0.51100000000E-03 0.  1.
         12    1    4    4    0    0 -0.16023106471E+02 -0.91091512438E+01 -0.15955140101E+02  0.24377921835E+02  0.00000000000E+00 0. -1.
</event>
<event>
 8    1  0.2490104E-006  0.9118800E+02  0.7816164E-02  0.1184000E+00
        -11   -1    0    0    0    0  0.00000000000E+00  0.00000000000E+00  0.45593999997E+02  0.45594000000E+02  0.51100000000E-03 0. -1.
         11   -1    0    0    0    0 -0.00000000000E+00 -0.00000000000E+00 -0.45593999997E+02  0.45594000000E+02  0.51100000000E-03 0.  1.
         23    2    1    2    0    0  0.00000000000E+00  0.00000000000E+00 -0.26645352591E-14  0.91188000000E+02  0.91188000000E+02 0.  0.
    9900012    2    3    3    0    0  0.35883577232E+01  0.36252318529E+02  0.53547422439E+01  0.54367079665E+02  0.39999989711E+02 0.  0.
         12    1    3    3    0    0 -0.35883577232E+01 -0.36252318529E+02 -0.53547422439E+01  0.36820920335E+02  0.00000000000E+00 0. -1.
         11    1    4    4    0    0 -0.16192332795E+01  0.74744326755E+01  0.14014744866E+02  0.15965654830E+02  0.51100000000E-03 0. -1.
        -11    1    4    4    0    0  0.84676004690E+01  0.18074780177E+02  0.51638635340E+01  0.20617066305E+02  0.51100000000E-03 0.  1.
         12    1    4    4    0    0 -0.32600094663E+01  0.10703105676E+02 -0.13823866156E+02  0.17784358530E+02  0.00000000000E+00 0. -1.
</event>
<event>
 8    1  0.2490104E-006  0.9118800E+02  0.7816164E-02  0.1184000E+00
        -11   -1    0    0    0    0  0.00000000000E+00  0.00000000000E+00  0.45593999997E+02  0.45594000000E+02  0.51100000000E-03 0. -1.
         11   -1    0    0    0    0 -0.00000000000E+00 -0.00000000000E+00 -0.45593999997E+02  0.45594000000E+02  0.51100000000E-03 0.  1.
         23    2    1    2    0    0  0.35527136788E-14 -0.35527136788E-14 -0.17763568394E-14  0.91188000000E+02  0.91188000000E+02 0.  0.
    9900012    2    3    3    0    0 -0.24218307145E+02  0.23811631512E+02  0.14221855870E+02  0.54367063284E+02  0.39999952369E+02 0.  0.
        -12    1    3    3    0    0  0.24218307145E+02 -0.23811631512E+02 -0.14221855870E+02  0.36820936716E+02  0.00000000000E+00 0.  1.
         11    1    4    4    0    0 -0.63347881380E+01  0.12777581180E+02  0.11604767535E+02  0.18386591619E+02  0.51100000000E-03 0. -1.
        -11    1    4    4    0    0 -0.18040087316E+02  0.13625632514E+02 -0.88089683979E+01  0.24263151821E+02  0.51100000000E-03 0.  1.
         12    1    4    4    0    0  0.15656830898E+00 -0.25915821827E+01  0.11426056734E+02  0.11717319844E+02  0.00000000000E+00 0. -1.
</event>
<event>
 8    1  0.2490104E-006  0.9118800E+02  0.7816164E-02  0.1184000E+00
        -11   -1    0    0    0    0  0.00000000000E+00  0.00000000000E+00  0.45593999997E+02  0.45594000000E+02  0.51100000000E-03 0.  1.
         11   -1    0    0    0    0 -0.00000000000E+00 -0.00000000000E+00 -0.45593999997E+02  0.45594000000E+02  0.51100000000E-03 0. -1.
         23    2    1    2    0    0 -0.88817841970E-15  0.00000000000E+00  0.00000000000E+00  0.91188000000E+02  0.91188000000E+02 0.  0.
    9900012    2    3    3    0    0  0.22688642246E+01  0.13531927635E+02  0.34169022868E+02  0.54367042188E+02  0.39999904277E+02 0.  0.
         12    1    3    3    0    0 -0.22688642246E+01 -0.13531927635E+02 -0.34169022868E+02  0.36820957812E+02  0.00000000000E+00 0. -1.
         11    1    4    4    0    0  0.10643033083E+02 -0.94060277205E+01  0.81089692618E+01  0.16355515688E+02  0.51100000000E-03 0. -1.
        -11    1    4    4    0    0 -0.16164431125E+00 -0.16629533922E+01  0.10015383044E+01  0.19479789794E+01  0.51100000000E-03 0.  1.
         12    1    4    4    0    0 -0.82125245470E+01  0.24600908748E+02  0.25058515302E+02  0.36063547521E+02  0.00000000000E+00 0. -1.
</event>
<event>
 8    1  0.2490104E-006  0.9118800E+02  0.7816164E-02  0.1184000E+00
        -11   -1    0    0    0    0  0.00000000000E+00  0.00000000000E+00  0.45593999997E+02  0.45594000000E+02  0.51100000000E-03 0.  1.
         11   -1    0    0    0    0 -0.00000000000E+00 -0.00000000000E+00 -0.45593999997E+02  0.45594000000E+02  0.51100000000E-03 0. -1.
         23    2    1    2    0    0  0.00000000000E+00  0.44408920985E-15  0.00000000000E+00  0.91188000000E+02  0.91188000000E+02 0.  0.
    9900012    2    3    3    0    0  0.26151765862E+01  0.36236828078E+01 -0.36548729841E+02  0.54367083680E+02  0.39999998866E+02 0.  0.
        -12    1    3    3    0    0 -0.26151765862E+01 -0.36236828078E+01  0.36548729841E+02  0.36820916320E+02  0.00000000000E+00 0.  1.
         11    1    4    4    0    0 -0.65677654651E+01  0.24106580190E+01  0.25124006669E+01  0.74336379157E+01  0.51100000000E-03 0. -1.
        -11    1    4    4    0    0  0.12749036513E+02  0.23308103717E+01 -0.71452331344E+01  0.14799492079E+02  0.51100000000E-03 0.  1.
         12    1    4    4    0    0 -0.35660944616E+01 -0.11177855829E+01 -0.31915897373E+02  0.32133953685E+02  0.00000000000E+00 0. -1.
</event>
<event>
 8    1  0.2490104E-006  0.9118800E+02  0.7816164E-02  0.1184000E+00
        -11   -1    0    0    0    0  0.00000000000E+00  0.00000000000E+00  0.45593999997E+02  0.45594000000E+02  0.51100000000E-03 0.  1.
         11   -1    0    0    0    0 -0.00000000000E+00 -0.00000000000E+00 -0.45593999997E+02  0.45594000000E+02  0.51100000000E-03 0. -1.
         23    2    1    2    0    0  0.88817841970E-15  0.00000000000E+00 -0.71054273576E-14  0.91188000000E+02  0.91188000000E+02 0.  0.
    9900012    2    3    3    0    0  0.75871854693E+01  0.28446936295E+01  0.35918246263E+02  0.54367108107E+02  0.40000054551E+02 0.  0.
         12    1    3    3    0    0 -0.75871854693E+01 -0.28446936295E+01 -0.35918246263E+02  0.36820891893E+02  0.00000000000E+00 0. -1.
         11    1    4    4    0    0 -0.41981442604E+00  0.57720440816E+01 -0.10547026914E+01  0.58826129450E+01  0.51100000000E-03 0. -1.
        -11    1    4    4    0    0  0.14865087312E+02 -0.30705528676E+00  0.38245027310E+02  0.41033488981E+02  0.51100000000E-03 0.  1.
        -12    1    4    4    0    0 -0.68580874163E+01 -0.26202951653E+01 -0.12720783556E+01  0.74510061807E+01  0.00000000000E+00 0.  1.
</event>
<event>
 8    1  0.2490104E-006  0.9118800E+02  0.7816164E-02  0.1184000E+00
        -11   -1    0    0    0    0  0.00000000000E+00  0.00000000000E+00  0.45593999997E+02  0.45594000000E+02  0.51100000000E-03 0. -1.
         11   -1    0    0    0    0 -0.00000000000E+00 -0.00000000000E+00 -0.45593999997E+02  0.45594000000E+02  0.51100000000E-03 0.  1.
         23    2    1    2    0    0  0.00000000000E+00  0.00000000000E+00  0.00000000000E+00  0.91188000000E+02  0.91188000000E+02 0.  0.
    9900012    2    3    3    0    0 -0.12177857734E+02  0.18350695961E+02 -0.29508170959E+02  0.54367076402E+02  0.39999982274E+02 0.  0.
         12    1    3    3    0    0  0.12177857734E+02 -0.18350695961E+02  0.29508170959E+02  0.36820923598E+02  0.00000000000E+00 0. -1.
         11    1    4    4    0    0  0.84334899936E+00  0.10837866759E+01  0.51263280895E+01  0.53070774477E+01  0.51100000000E-03 0. -1.
        -11    1    4    4    0    0 -0.20217761957E+02  0.12641424871E+02 -0.16463865250E+02  0.28976238206E+02  0.51100000000E-03 0.  1.
        -12    1    4    4    0    0  0.71965552238E+01  0.46254844132E+01 -0.18170633799E+02  0.20083760748E+02  0.00000000000E+00 0.  1.
</event>
<event>
 8    1  0.2490104E-006  0.9118800E+02  0.7816164E-02  0.1184000E+00
        -11   -1    0    0    0    0  0.00000000000E+00  0.00000000000E+00  0.45593999997E+02  0.45594000000E+02  0.51100000000E-03 0. -1.
         11   -1    0    0    0    0 -0.00000000000E+00 -0.00000000000E+00 -0.45593999997E+02  0.45594000000E+02  0.51100000000E-03 0.  1.
         23    2    1    2    0    0  0.00000000000E+00  0.11102230246E-15  0.00000000000E+00  0.91188000000E+02  0.91188000000E+02 0.  0.
    9900012    2    3    3    0    0  0.29752723831E+02  0.13198187753E+00 -0.21691895882E+02  0.54367077394E+02  0.39999984536E+02 0.  0.
         12    1    3    3    0    0 -0.29752723831E+02 -0.13198187753E+00  0.21691895882E+02  0.36820922606E+02  0.00000000000E+00 0. -1.
         11    1    4    4    0    0  0.24174838137E+02  0.33217347430E+01  0.48115940120E+01  0.24871834629E+02  0.51100000000E-03 0. -1.
        -11    1    4    4    0    0 -0.24809445842E+01  0.93947462560E+00 -0.12787666305E+02  0.13059942894E+02  0.51100000000E-03 0.  1.
         12    1    4    4    0    0  0.80588302783E+01 -0.41292274911E+01 -0.13715823589E+02  0.16435299871E+02  0.00000000000E+00 0. -1.
</event>
<event>
 8    1  0.2490104E-006  0.9118800E+02  0.7816164E-02  0.1184000E+00
        -11   -1    0    0    0    0  0.00000000000E+00  0.00000000000E+00  0.45593999997E+02  0.45594000000E+02  0.51100000000E-03 0.  1.
         11   -1    0    0    0    0 -0.00000000000E+00 -0.00000000000E+00 -0.45593999997E+02  0.45594000000E+02  0.51100000000E-03 0. -1.
         23    2    1    2    0    0  0.17763568394E-14  0.00000000000E+00  0.35527136788E-14  0.91188000000E+02  0.91188000000E+02 0.  0.
    9900012    2    3    3    0    0 -0.11175144471E+02 -0.22704776324E+02 -0.26746755838E+02  0.54367086517E+02  0.40000005332E+02 0.  0.
        -12    1    3    3    0    0  0.11175144471E+02  0.22704776324E+02  0.26746755838E+02  0.36820913483E+02  0.00000000000E+00 0.  1.
         11    1    4    4    0    0 -0.46795626117E+01 -0.33388253486E+01 -0.27259936489E+01  0.63621617852E+01  0.51100000000E-03 0. -1.
        -11    1    4    4    0    0 -0.91485391688E+01  0.88976371030E+01 -0.10668577604E+02  0.16633768764E+02  0.51100000000E-03 0.  1.
        -12    1    4    4    0    0  0.26529573095E+01 -0.28263588078E+02 -0.13352184586E+02  0.31371155968E+02  0.00000000000E+00 0.  1.
</event>
<event>
 8    1  0.2490104E-006  0.9118800E+02  0.7816164E-02  0.1184000E+00
        -11   -1    0    0    0    0  0.00000000000E+00  0.00000000000E+00  0.45593999997E+02  0.45594000000E+02  0.51100000000E-03 0.  1.
         11   -1    0    0    0    0 -0.00000000000E+00 -0.00000000000E+00 -0.45593999997E+02  0.45594000000E+02  0.51100000000E-03 0. -1.
         23    2    1    2    0    0  0.00000000000E+00  0.00000000000E+00  0.00000000000E+00  0.91188000000E+02  0.91188000000E+02 0.  0.
    9900012    2    3    3    0    0  0.85049274503E+01  0.27448029863E+02  0.23022828556E+02  0.54367098748E+02  0.40000033215E+02 0.  0.
         12    1    3    3    0    0 -0.85049274503E+01 -0.27448029863E+02 -0.23022828556E+02  0.36820901252E+02  0.00000000000E+00 0. -1.
         11    1    4    4    0    0  0.65245697754E+01 -0.22096148132E+00 -0.17138971888E+01  0.67495391372E+01  0.51100000000E-03 0.  1.
        -11    1    4    4    0    0 -0.11509410879E+02  0.29767920260E+01  0.11434722985E+02  0.16494869492E+02  0.51100000000E-03 0. -1.
         12    1    4    4    0    0  0.13489768554E+02  0.24692199318E+02  0.13302002760E+02  0.31122690119E+02  0.00000000000E+00 0. -1.
</event>
<event>
 8    1  0.2490104E-006  0.9118800E+02  0.7816164E-02  0.1184000E+00
        -11   -1    0    0    0    0  0.00000000000E+00  0.00000000000E+00  0.45593999997E+02  0.45594000000E+02  0.51100000000E-03 0.  1.
         11   -1    0    0    0    0 -0.00000000000E+00 -0.00000000000E+00 -0.45593999997E+02  0.45594000000E+02  0.51100000000E-03 0. -1.
         23    2    1    2    0    0  0.22204460493E-15  0.00000000000E+00  0.00000000000E+00  0.91188000000E+02  0.91188000000E+02 0.  0.
    9900012    2    3    3    0    0 -0.18785068470E+01  0.30506696104E+02 -0.20532726618E+02  0.54367079893E+02  0.39999990231E+02 0.  0.
        -12    1    3    3    0    0  0.18785068470E+01 -0.30506696104E+02  0.20532726618E+02  0.36820920107E+02  0.00000000000E+00 0.  1.
         11    1    4    4    0    0  0.75220781940E+01  0.13357712967E+02 -0.85459370317E+01  0.17551159394E+02  0.51100000000E-03 0.  1.
        -11    1    4    4    0    0  0.82156511743E+01  0.10773701923E+02 -0.11973860608E+02  0.18081562861E+02  0.51100000000E-03 0. -1.
         12    1    4    4    0    0 -0.17616236215E+02  0.63752812138E+01 -0.12928978285E-01  0.18734357638E+02  0.00000000000E+00 0. -1.
</event>
<event>
 8    1  0.2490104E-006  0.9118800E+02  0.7816164E-02  0.1184000E+00
        -11   -1    0    0    0    0  0.00000000000E+00  0.00000000000E+00  0.45593999997E+02  0.45594000000E+02  0.51100000000E-03 0. -1.
         11   -1    0    0    0    0 -0.00000000000E+00 -0.00000000000E+00 -0.45593999997E+02  0.45594000000E+02  0.51100000000E-03 0.  1.
         23    2    1    2    0    0  0.88817841970E-15  0.00000000000E+00  0.00000000000E+00  0.91188000000E+02  0.91188000000E+02 0.  0.
    9900012    2    3    3    0    0 -0.66608217884E+01  0.12130541144E+02  0.34121357306E+02  0.54367033151E+02  0.39999883674E+02 0.  0.
        -12    1    3    3    0    0  0.66608217884E+01 -0.12130541144E+02 -0.34121357306E+02  0.36820966849E+02  0.00000000000E+00 0.  1.
         11    1    4    4    0    0 -0.86859039828E+01  0.15900832158E+02  0.16450272210E+02  0.24472287335E+02  0.51100000000E-03 0. -1.
        -11    1    4    4    0    0  0.82685947617E+01 -0.35247229072E+01 -0.20399261099E+01  0.92170835789E+01  0.51100000000E-03 0.  1.
         12    1    4    4    0    0 -0.62435125673E+01 -0.24556810723E+00  0.19711011205E+02  0.20677662237E+02  0.00000000000E+00 0. -1.
</event>
<event>
 8    1  0.2490104E-006  0.9118800E+02  0.7816164E-02  0.1184000E+00
        -11   -1    0    0    0    0  0.00000000000E+00  0.00000000000E+00  0.45593999997E+02  0.45594000000E+02  0.51100000000E-03 0.  1.
         11   -1    0    0    0    0 -0.00000000000E+00 -0.00000000000E+00 -0.45593999997E+02  0.45594000000E+02  0.51100000000E-03 0. -1.
         23    2    1    2    0    0  0.00000000000E+00  0.00000000000E+00  0.00000000000E+00  0.91188000000E+02  0.91188000000E+02 0.  0.
    9900012    2    3    3    0    0  0.17601160949E+02  0.10834478888E+02  0.30472818311E+02  0.54367089428E+02  0.40000011969E+02 0.  0.
         12    1    3    3    0    0 -0.17601160949E+02 -0.10834478888E+02 -0.30472818311E+02  0.36820910572E+02  0.00000000000E+00 0. -1.
         11    1    4    4    0    0  0.17209666822E+02  0.16710220685E+02  0.71890338421E+01  0.25041691542E+02  0.51100000000E-03 0. -1.
        -11    1    4    4    0    0 -0.65463152788E+01 -0.82027472175E+01  0.13107367232E+02  0.16791139975E+02  0.51100000000E-03 0.  1.
        -12    1    4    4    0    0  0.69378094060E+01  0.23270054212E+01  0.10176417237E+02  0.12534257910E+02  0.00000000000E+00 0.  1.
</event>
<event>
 8    1  0.2490104E-006  0.9118800E+02  0.7816164E-02  0.1184000E+00
        -11   -1    0    0    0    0  0.00000000000E+00  0.00000000000E+00  0.45593999997E+02  0.45594000000E+02  0.51100000000E-03 0.  1.
         11   -1    0    0    0    0 -0.00000000000E+00 -0.00000000000E+00 -0.45593999997E+02  0.45594000000E+02  0.51100000000E-03 0. -1.
         23    2    1    2    0    0  0.00000000000E+00  0.00000000000E+00  0.44408920985E-15  0.91188000000E+02  0.91188000000E+02 0.  0.
    9900012    2    3    3    0    0  0.32320328374E+02  0.17349697963E+02  0.31872222661E+01  0.54367163082E+02  0.40000179877E+02 0.  0.
         12    1    3    3    0    0 -0.32320328374E+02 -0.17349697963E+02 -0.31872222661E+01  0.36820836918E+02  0.00000000000E+00 0. -1.
         11    1    4    4    0    0  0.57793526026E+01  0.15502631567E+02 -0.67507345926E+01  0.17869105177E+02  0.51100000000E-03 0. -1.
        -11    1    4    4    0    0 -0.76111025631E-02 -0.33910940816E+01  0.87808596686E+01  0.94129205765E+01  0.51100000000E-03 0.  1.
         12    1    4    4    0    0  0.26548586874E+02  0.52381604770E+01  0.11570971901E+01  0.27085137328E+02  0.00000000000E+00 0. -1.
</event>
<event>
 8    1  0.2490104E-006  0.9118800E+02  0.7816164E-02  0.1184000E+00
        -11   -1    0    0    0    0  0.00000000000E+00  0.00000000000E+00  0.45593999997E+02  0.45594000000E+02  0.51100000000E-03 0. -1.
         11   -1    0    0    0    0 -0.00000000000E+00 -0.00000000000E+00 -0.45593999997E+02  0.45594000000E+02  0.51100000000E-03 0.  1.
         23    2    1    2    0    0 -0.88817841970E-15  0.00000000000E+00  0.00000000000E+00  0.91188000000E+02  0.91188000000E+02 0.  0.
    9900012    2    3    3    0    0  0.74349912732E+01 -0.24779303290E+02  0.26200894465E+02  0.54367084238E+02  0.40000000137E+02 0.  0.
        -12    1    3    3    0    0 -0.74349912732E+01  0.24779303290E+02 -0.26200894465E+02  0.36820915762E+02  0.00000000000E+00 0.  1.
         11    1    4    4    0    0 -0.19380311355E+01 -0.97322718903E+01  0.22494421209E+02  0.24586013638E+02  0.51100000000E-03 0. -1.
        -11    1    4    4    0    0  0.99975173736E+01 -0.13486940800E+01  0.10428600948E+02  0.14509481291E+02  0.51100000000E-03 0.  1.
         12    1    4    4    0    0 -0.62449496494E+00 -0.13698337320E+02 -0.67221276917E+01  0.15271589308E+02  0.00000000000E+00 0. -1.
</event>
<event>
 8    1  0.2490104E-006  0.9118800E+02  0.7816164E-02  0.1184000E+00
        -11   -1    0    0    0    0  0.00000000000E+00  0.00000000000E+00  0.45593999997E+02  0.45594000000E+02  0.51100000000E-03 0.  1.
         11   -1    0    0    0    0 -0.00000000000E+00 -0.00000000000E+00 -0.45593999997E+02  0.45594000000E+02  0.51100000000E-03 0. -1.
         23    2    1    2    0    0 -0.71054273576E-14  0.00000000000E+00  0.00000000000E+00  0.91188000000E+02  0.91188000000E+02 0.  0.
    9900012    2    3    3    0    0  0.34113432531E+02  0.49519747845E+01 -0.12943269323E+02  0.54367128826E+02  0.40000101783E+02 0.  0.
         12    1    3    3    0    0 -0.34113432531E+02 -0.49519747845E+01  0.12943269323E+02  0.36820871174E+02  0.00000000000E+00 0. -1.
         11    1    4    4    0    0  0.10740692540E+02  0.44461411276E+01 -0.38781486906E+01  0.12254414906E+02  0.51100000000E-03 0. -1.
        -11    1    4    4    0    0  0.30104436983E+02  0.52009146700E+01 -0.94154615668E+00  0.30564900604E+02  0.51100000000E-03 0.  1.
         12    1    4    4    0    0 -0.67316969925E+01 -0.46950810132E+01 -0.81235744754E+01  0.11547813316E+02  0.00000000000E+00 0. -1.
</event>
<event>
 8    1  0.2490104E-006  0.9118800E+02  0.7816164E-02  0.1184000E+00
        -11   -1    0    0    0    0  0.00000000000E+00  0.00000000000E+00  0.45593999997E+02  0.45594000000E+02  0.51100000000E-03 0.  1.
         11   -1    0    0    0    0 -0.00000000000E+00 -0.00000000000E+00 -0.45593999997E+02  0.45594000000E+02  0.51100000000E-03 0. -1.
         23    2    1    2    0    0 -0.17763568394E-14 -0.71054273576E-14  0.88817841970E-15  0.91188000000E+02  0.91188000000E+02 0.  0.
    9900012    2    3    3    0    0  0.14403339642E+02 -0.33372081334E+02  0.58845402310E+01  0.54367084488E+02  0.40000000708E+02 0.  0.
         12    1    3    3    0    0 -0.14403339642E+02  0.33372081334E+02 -0.58845402310E+01  0.36820915512E+02  0.00000000000E+00 0. -1.
         11    1    4    4    0    0  0.12358139399E+02 -0.26192722245E+02 -0.84413414221E+01  0.30166845266E+02  0.51100000000E-03 0.  1.
        -11    1    4    4    0    0 -0.73542391977E+01 -0.69173697206E+01  0.76914558227E+01  0.12692254763E+02  0.51100000000E-03 0. -1.
        -12    1    4    4    0    0  0.93994394405E+01 -0.26198936808E+00  0.66344258304E+01  0.11507984460E+02  0.00000000000E+00 0.  1.
</event>
<event>
 8    1  0.2490104E-006  0.9118800E+02  0.7816164E-02  0.1184000E+00
        -11   -1    0    0    0    0  0.00000000000E+00  0.00000000000E+00  0.45593999997E+02  0.45594000000E+02  0.51100000000E-03 0. -1.
         11   -1    0    0    0    0 -0.00000000000E+00 -0.00000000000E+00 -0.45593999997E+02  0.45594000000E+02  0.51100000000E-03 0.  1.
         23    2    1    2    0    0  0.00000000000E+00  0.00000000000E+00  0.00000000000E+00  0.91188000000E+02  0.91188000000E+02 0.  0.
    9900012    2    3    3    0    0  0.18172418889E+02 -0.60254228524E+01  0.31452147902E+02  0.54367080179E+02  0.39999990883E+02 0.  0.
        -12    1    3    3    0    0 -0.18172418889E+02  0.60254228524E+01 -0.31452147902E+02  0.36820919821E+02  0.00000000000E+00 0.  1.
         11    1    4    4    0    0  0.17708093352E+02 -0.18426801434E+02  0.17712494123E+02  0.31094308637E+02  0.51100000000E-03 0. -1.
        -11    1    4    4    0    0 -0.10083907884E+01  0.72571093790E+01  0.15896313801E+02  0.17503579098E+02  0.51100000000E-03 0.  1.
         12    1    4    4    0    0  0.14727163253E+01  0.51442692028E+01 -0.21566600222E+01  0.57691924441E+01  0.00000000000E+00 0. -1.
</event>
<event>
 8    1  0.2490104E-006  0.9118800E+02  0.7816164E-02  0.1184000E+00
        -11   -1    0    0    0    0  0.00000000000E+00  0.00000000000E+00  0.45593999997E+02  0.45594000000E+02  0.51100000000E-03 0. -1.
         11   -1    0    0    0    0 -0.00000000000E+00 -0.00000000000E+00 -0.45593999997E+02  0.45594000000E+02  0.51100000000E-03 0.  1.
         23    2    1    2    0    0  0.00000000000E+00 -0.17763568394E-14 -0.71054273576E-14  0.91188000000E+02  0.91188000000E+02 0.  0.
    9900012    2    3    3    0    0 -0.99895586543E+01 -0.12236501711E+02 -0.33260431889E+02  0.54367087658E+02  0.40000007935E+02 0.  0.
         12    1    3    3    0    0  0.99895586543E+01  0.12236501711E+02  0.33260431889E+02  0.36820912342E+02  0.00000000000E+00 0. -1.
         11    1    4    4    0    0 -0.56660651491E+01  0.10585072620E+02  0.18640620332E+01  0.12150011694E+02  0.51100000000E-03 0. -1.
        -11    1    4    4    0    0 -0.16271171845E+01 -0.15408854290E+02 -0.22108563791E+02  0.26997572002E+02  0.51100000000E-03 0.  1.
         12    1    4    4    0    0 -0.26963763207E+01 -0.74127200410E+01 -0.13015930131E+02  0.15219503962E+02  0.00000000000E+00 0. -1.
</event>
<event>
 8    1  0.2490104E-006  0.9118800E+02  0.7816164E-02  0.1184000E+00
        -11   -1    0    0    0    0  0.00000000000E+00  0.00000000000E+00  0.45593999997E+02  0.45594000000E+02  0.51100000000E-03 0.  1.
         11   -1    0    0    0    0 -0.00000000000E+00 -0.00000000000E+00 -0.45593999997E+02  0.45594000000E+02  0.51100000000E-03 0. -1.
         23    2    1    2    0    0  0.00000000000E+00  0.00000000000E+00  0.00000000000E+00  0.91188000000E+02  0.91188000000E+02 0.  0.
    9900012    2    3    3    0    0  0.24341969422E+02  0.18337746686E+02 -0.20663362887E+02  0.54367095684E+02  0.40000026231E+02 0.  0.
        -12    1    3    3    0    0 -0.24341969422E+02 -0.18337746686E+02  0.20663362887E+02  0.36820904316E+02  0.00000000000E+00 0.  1.
         11    1    4    4    0    0  0.11732592058E+02  0.16759618933E+02 -0.26835014403E+02  0.33743985263E+02  0.51100000000E-03 0. -1.
        -11    1    4    4    0    0  0.92457132707E+01 -0.57442492981E+01  0.74933841916E+00  0.10910596785E+02  0.51100000000E-03 0.  1.
         12    1    4    4    0    0  0.33636640937E+01  0.73223770502E+01  0.54223130966E+01  0.97125136354E+01  0.00000000000E+00 0. -1.
</event>
<event>
 8    1  0.2490104E-006  0.9118800E+02  0.7816164E-02  0.1184000E+00
        -11   -1    0    0    0    0  0.00000000000E+00  0.00000000000E+00  0.45593999997E+02  0.45594000000E+02  0.51100000000E-03 0. -1.
         11   -1    0    0    0    0 -0.00000000000E+00 -0.00000000000E+00 -0.45593999997E+02  0.45594000000E+02  0.51100000000E-03 0.  1.
         23    2    1    2    0    0 -0.17763568394E-14  0.71054273576E-14  0.00000000000E+00  0.91188000000E+02  0.91188000000E+02 0.  0.
    9900012    2    3    3    0    0 -0.11960791014E+02 -0.33771105851E+02 -0.84989553927E+01  0.54367077214E+02  0.39999984124E+02 0.  0.
        -12    1    3    3    0    0  0.11960791014E+02  0.33771105851E+02  0.84989553927E+01  0.36820922786E+02  0.00000000000E+00 0.  1.
         11    1    4    4    0    0  0.12439768743E+02 -0.14595515857E+02  0.28300644831E+01  0.19385205564E+02  0.51100000000E-03 0. -1.
        -11    1    4    4    0    0 -0.19440153475E+02 -0.83705223401E+01 -0.80922159402E+01  0.22659858130E+02  0.51100000000E-03 0.  1.
         12    1    4    4    0    0 -0.49604062818E+01 -0.10805067653E+02 -0.32368039357E+01  0.12322013520E+02  0.00000000000E+00 0. -1.
</event>
<event>
 8    1  0.2490104E-006  0.9118800E+02  0.7816164E-02  0.1184000E+00
        -11   -1    0    0    0    0  0.00000000000E+00  0.00000000000E+00  0.45593999997E+02  0.45594000000E+02  0.51100000000E-03 0.  1.
         11   -1    0    0    0    0 -0.00000000000E+00 -0.00000000000E+00 -0.45593999997E+02  0.45594000000E+02  0.51100000000E-03 0. -1.
         23    2    1    2    0    0  0.00000000000E+00  0.00000000000E+00  0.00000000000E+00  0.91188000000E+02  0.91188000000E+02 0.  0.
    9900012    2    3    3    0    0  0.10453092979E+02  0.19459038812E+02  0.29459426606E+02  0.54367093435E+02  0.40000021103E+02 0.  0.
         12    1    3    3    0    0 -0.10453092979E+02 -0.19459038812E+02 -0.29459426606E+02  0.36820906565E+02  0.00000000000E+00 0. -1.
         11    1    4    4    0    0  0.31913685322E+01 -0.69514930128E+01 -0.44805217949E+01  0.88647145488E+01  0.51100000000E-03 0. -1.
        -11    1    4    4    0    0  0.78761628819E+01  0.13167358164E+02  0.25581689670E+02  0.29830120841E+02  0.51100000000E-03 0.  1.
        -12    1    4    4    0    0 -0.61443843560E+00  0.13243173661E+02  0.83582587308E+01  0.15672258045E+02  0.00000000000E+00 0.  1.
</event>
<event>
 8    1  0.2490104E-006  0.9118800E+02  0.7816164E-02  0.1184000E+00
        -11   -1    0    0    0    0  0.00000000000E+00  0.00000000000E+00  0.45593999997E+02  0.45594000000E+02  0.51100000000E-03 0. -1.
         11   -1    0    0    0    0 -0.00000000000E+00 -0.00000000000E+00 -0.45593999997E+02  0.45594000000E+02  0.51100000000E-03 0.  1.
         23    2    1    2    0    0 -0.35527136788E-14 -0.31086244690E-14  0.00000000000E+00  0.91188000000E+02  0.91188000000E+02 0.  0.
    9900012    2    3    3    0    0  0.30496325181E+02  0.25857588013E+01 -0.20471144877E+02  0.54367085146E+02  0.40000002206E+02 0.  0.
         12    1    3    3    0    0 -0.30496325181E+02 -0.25857588013E+01  0.20471144877E+02  0.36820914854E+02  0.00000000000E+00 0. -1.
         11    1    4    4    0    0  0.16743128935E+02  0.16317889003E+02  0.21480211188E+01  0.23478071962E+02  0.51100000000E-03 0.  1.
        -11    1    4    4    0    0  0.95051495442E+01 -0.53697693212E+01 -0.80596888960E+01  0.13569851723E+02  0.51100000000E-03 0. -1.
        -12    1    4    4    0    0  0.42480467020E+01 -0.83623608809E+01 -0.14559477100E+02  0.17319161461E+02  0.00000000000E+00 0.  1.
</event>
<event>
 8    1  0.2490104E-006  0.9118800E+02  0.7816164E-02  0.1184000E+00
        -11   -1    0    0    0    0  0.00000000000E+00  0.00000000000E+00  0.45593999997E+02  0.45594000000E+02  0.51100000000E-03 0. -1.
         11   -1    0    0    0    0 -0.00000000000E+00 -0.00000000000E+00 -0.45593999997E+02  0.45594000000E+02  0.51100000000E-03 0.  1.
         23    2    1    2    0    0  0.99920072216E-15  0.00000000000E+00 -0.35527136788E-14  0.91188000000E+02  0.91188000000E+02 0.  0.
    9900012    2    3    3    0    0  0.46723459887E+00 -0.23789020259E+02 -0.28100603674E+02  0.54367085835E+02  0.40000003779E+02 0.  0.
         12    1    3    3    0    0 -0.46723459887E+00  0.23789020259E+02  0.28100603674E+02  0.36820914165E+02  0.00000000000E+00 0. -1.
         11    1    4    4    0    0 -0.21847786535E+01  0.51936547616E+01  0.45669005429E+01  0.72528538092E+01  0.51100000000E-03 0. -1.
        -11    1    4    4    0    0 -0.50588173749E+01 -0.14310868202E+01 -0.63141957762E+01  0.82163684972E+01  0.51100000000E-03 0.  1.
         12    1    4    4    0    0  0.77108306272E+01 -0.27551588200E+02 -0.26353308441E+02  0.38897863529E+02  0.00000000000E+00 0. -1.
</event>
<event>
 8    1  0.2490104E-006  0.9118800E+02  0.7816164E-02  0.1184000E+00
        -11   -1    0    0    0    0  0.00000000000E+00  0.00000000000E+00  0.45593999997E+02  0.45594000000E+02  0.51100000000E-03 0.  1.
         11   -1    0    0    0    0 -0.00000000000E+00 -0.00000000000E+00 -0.45593999997E+02  0.45594000000E+02  0.51100000000E-03 0. -1.
         23    2    1    2    0    0  0.00000000000E+00  0.00000000000E+00  0.68001160258E-15  0.91188000000E+02  0.91188000000E+02 0.  0.
    9900012    2    3    3    0    0 -0.15138580220E+02 -0.33564828059E+02 -0.72784502212E-01  0.54367087582E+02  0.40000007761E+02 0.  0.
         12    1    3    3    0    0  0.15138580220E+02  0.33564828059E+02  0.72784502212E-01  0.36820912418E+02  0.00000000000E+00 0. -1.
         11    1    4    4    0    0 -0.75214870421E+01  0.66014416518E+01  0.86637241976E+00  0.10045018698E+02  0.51100000000E-03 0. -1.
        -11    1    4    4    0    0 -0.15690848267E+01 -0.10915579616E+02  0.74361342528E+01  0.13300676616E+02  0.51100000000E-03 0.  1.
        -12    1    4    4    0    0 -0.60480083509E+01 -0.29250690095E+02 -0.83752911748E+01  0.31021392269E+02  0.00000000000E+00 0.  1.
</event>
<event>
 8    1  0.2490104E-006  0.9118800E+02  0.7816164E-02  0.1184000E+00
        -11   -1    0    0    0    0  0.00000000000E+00  0.00000000000E+00  0.45593999997E+02  0.45594000000E+02  0.51100000000E-03 0.  1.
         11   -1    0    0    0    0 -0.00000000000E+00 -0.00000000000E+00 -0.45593999997E+02  0.45594000000E+02  0.51100000000E-03 0. -1.
         23    2    1    2    0    0 -0.35527136788E-14 -0.35527136788E-14  0.00000000000E+00  0.91188000000E+02  0.91188000000E+02 0.  0.
    9900012    2    3    3    0    0  0.27828210335E+02  0.17993316807E+02 -0.16050283261E+02  0.54367077511E+02  0.39999984802E+02 0.  0.
        -12    1    3    3    0    0 -0.27828210335E+02 -0.17993316807E+02  0.16050283261E+02  0.36820922489E+02  0.00000000000E+00 0.  1.
         11    1    4    4    0    0  0.30256669830E+02  0.79526644165E+01 -0.18079025135E+02  0.36132562746E+02  0.51100000000E-03 0.  1.
        -11    1    4    4    0    0 -0.81049138934E+01  0.25055428740E+01 -0.40043758864E+00  0.84928042975E+01  0.51100000000E-03 0. -1.
         12    1    4    4    0    0  0.56764543989E+01  0.75351095168E+01  0.24291794625E+01  0.97417104675E+01  0.00000000000E+00 0. -1.
</event>
<event>
 8    1  0.2490104E-006  0.9118800E+02  0.7816164E-02  0.1184000E+00
        -11   -1    0    0    0    0  0.00000000000E+00  0.00000000000E+00  0.45593999997E+02  0.45594000000E+02  0.51100000000E-03 0. -1.
         11   -1    0    0    0    0 -0.00000000000E+00 -0.00000000000E+00 -0.45593999997E+02  0.45594000000E+02  0.51100000000E-03 0.  1.
         23    2    1    2    0    0 -0.17763568394E-14  0.00000000000E+00 -0.35527136788E-14  0.91188000000E+02  0.91188000000E+02 0.  0.
    9900012    2    3    3    0    0  0.13662991163E+02 -0.19051829919E+02  0.28392496292E+02  0.54367035910E+02  0.39999889965E+02 0.  0.
        -12    1    3    3    0    0 -0.13662991163E+02  0.19051829919E+02 -0.28392496292E+02  0.36820964090E+02  0.00000000000E+00 0.  1.
         11    1    4    4    0    0  0.12775428587E+02 -0.20818515334E+02  0.25615431062E+02  0.35394525919E+02  0.51100000000E-03 0. -1.
        -11    1    4    4    0    0 -0.41428605910E+01  0.90260508267E+01  0.16839065762E+01  0.10073153877E+02  0.51100000000E-03 0.  1.
        -12    1    4    4    0    0  0.50304231675E+01 -0.72593654108E+01  0.10931586545E+01  0.88993561146E+01  0.00000000000E+00 0.  1.
</event>
<event>
 8    1  0.2490104E-006  0.9118800E+02  0.7816164E-02  0.1184000E+00
        -11   -1    0    0    0    0  0.00000000000E+00  0.00000000000E+00  0.45593999997E+02  0.45594000000E+02  0.51100000000E-03 0.  1.
         11   -1    0    0    0    0 -0.00000000000E+00 -0.00000000000E+00 -0.45593999997E+02  0.45594000000E+02  0.51100000000E-03 0. -1.
         23    2    1    2    0    0  0.71054273576E-14  0.35527136788E-14  0.00000000000E+00  0.91188000000E+02  0.91188000000E+02 0.  0.
    9900012    2    3    3    0    0 -0.22942481511E+02 -0.28642257550E+02  0.30065660204E+01  0.54367138866E+02  0.40000124672E+02 0.  0.
        -12    1    3    3    0    0  0.22942481511E+02  0.28642257550E+02 -0.30065660204E+01  0.36820861134E+02  0.00000000000E+00 0.  1.
         11    1    4    4    0    0  0.12902472514E+01 -0.19400847484E+02  0.14279264033E+01  0.19496066146E+02  0.51100000000E-03 0. -1.
        -11    1    4    4    0    0  0.24019927129E+01 -0.57667663187E+01  0.47171285152E+01  0.78279284909E+01  0.51100000000E-03 0.  1.
        -12    1    4    4    0    0 -0.26634721475E+02 -0.34746437470E+01 -0.31384888981E+01  0.27043144229E+02  0.00000000000E+00 0.  1.
</event>
<event>
 8    1  0.2490104E-006  0.9118800E+02  0.7816164E-02  0.1184000E+00
        -11   -1    0    0    0    0  0.00000000000E+00  0.00000000000E+00  0.45593999997E+02  0.45594000000E+02  0.51100000000E-03 0.  1.
         11   -1    0    0    0    0 -0.00000000000E+00 -0.00000000000E+00 -0.45593999997E+02  0.45594000000E+02  0.51100000000E-03 0. -1.
         23    2    1    2    0    0  0.00000000000E+00  0.00000000000E+00  0.00000000000E+00  0.91188000000E+02  0.91188000000E+02 0.  0.
    9900012    2    3    3    0    0  0.23349787018E+02  0.14686608960E+02 -0.24389948991E+02  0.54367100387E+02  0.40000036952E+02 0.  0.
        -12    1    3    3    0    0 -0.23349787018E+02 -0.14686608960E+02  0.24389948991E+02  0.36820899613E+02  0.00000000000E+00 0.  1.
         11    1    4    4    0    0  0.85633698731E+01  0.62733534849E+01 -0.26101219592E+02  0.28177294618E+02  0.51100000000E-03 0. -1.
        -11    1    4    4    0    0  0.15513260887E+02  0.32898577564E+00  0.64353226539E+01  0.16798299703E+02  0.51100000000E-03 0.  1.
         12    1    4    4    0    0 -0.72684374166E+00  0.80842696993E+01 -0.47240520527E+01  0.93915060662E+01  0.00000000000E+00 0. -1.
</event>
<event>
 8    1  0.2490104E-006  0.9118800E+02  0.7816164E-02  0.1184000E+00
        -11   -1    0    0    0    0  0.00000000000E+00  0.00000000000E+00  0.45593999997E+02  0.45594000000E+02  0.51100000000E-03 0.  1.
         11   -1    0    0    0    0 -0.00000000000E+00 -0.00000000000E+00 -0.45593999997E+02  0.45594000000E+02  0.51100000000E-03 0. -1.
         23    2    1    2    0    0  0.00000000000E+00  0.00000000000E+00  0.00000000000E+00  0.91188000000E+02  0.91188000000E+02 0.  0.
    9900012    2    3    3    0    0 -0.41472823478E+01  0.60003619956E+01 -0.36091005251E+02  0.54367286333E+02  0.40000460850E+02 0.  0.
        -12    1    3    3    0    0  0.41472823478E+01 -0.60003619956E+01  0.36091005251E+02  0.36820713667E+02  0.00000000000E+00 0.  1.
         11    1    4    4    0    0 -0.14098590239E+02  0.70337744912E+01 -0.38052459755E+02  0.41185360554E+02  0.51100000000E-03 0. -1.
        -11    1    4    4    0    0  0.36483253240E+01  0.35909494904E+01  0.15710194886E+01  0.53547454101E+01  0.51100000000E-03 0.  1.
         12    1    4    4    0    0  0.63029825671E+01 -0.46243619860E+01  0.39043501517E+00  0.78271803685E+01  0.00000000000E+00 0. -1.
</event>
<event>
 8    1  0.2490104E-006  0.9118800E+02  0.7816164E-02  0.1184000E+00
        -11   -1    0    0    0    0  0.00000000000E+00  0.00000000000E+00  0.45593999997E+02  0.45594000000E+02  0.51100000000E-03 0.  1.
         11   -1    0    0    0    0 -0.00000000000E+00 -0.00000000000E+00 -0.45593999997E+02  0.45594000000E+02  0.51100000000E-03 0. -1.
         23    2    1    2    0    0 -0.71054273576E-14  0.88817841970E-15 -0.17763568394E-14  0.91188000000E+02  0.91188000000E+02 0.  0.
    9900012    2    3    3    0    0  0.34830500773E+02 -0.62248243169E+01  0.10191578398E+02  0.54367075349E+02  0.39999979874E+02 0.  0.
         12    1    3    3    0    0 -0.34830500773E+02  0.62248243169E+01 -0.10191578398E+02  0.36820924651E+02  0.00000000000E+00 0. -1.
         11    1    4    4    0    0  0.80599403528E+01 -0.10886237273E+02  0.87402084671E+01  0.16120299153E+02  0.51100000000E-03 0. -1.
        -11    1    4    4    0    0  0.78968023660E+01 -0.21298544893E+01  0.12807861647E+02  0.15196614359E+02  0.51100000000E-03 0.  1.
         12    1    4    4    0    0  0.18873758054E+02  0.67912674457E+01 -0.11356491717E+02  0.23050161837E+02  0.00000000000E+00 0. -1.
</event>
<event>
 8    1  0.2490104E-006  0.9118800E+02  0.7816164E-02  0.1184000E+00
        -11   -1    0    0    0    0  0.00000000000E+00  0.00000000000E+00  0.45593999997E+02  0.45594000000E+02  0.51100000000E-03 0.  1.
         11   -1    0    0    0    0 -0.00000000000E+00 -0.00000000000E+00 -0.45593999997E+02  0.45594000000E+02  0.51100000000E-03 0. -1.
         23    2    1    2    0    0 -0.88817841970E-15  0.00000000000E+00  0.00000000000E+00  0.91188000000E+02  0.91188000000E+02 0.  0.
    9900012    2    3    3    0    0 -0.60593086191E+01  0.23899531125E+02  0.27347346927E+02  0.54367079413E+02  0.39999989139E+02 0.  0.
         12    1    3    3    0    0  0.60593086191E+01 -0.23899531125E+02 -0.27347346927E+02  0.36820920587E+02  0.00000000000E+00 0. -1.
         11    1    4    4    0    0 -0.80551086738E+01 -0.49961955085E+01  0.12692294063E+02  0.15841119725E+02  0.51100000000E-03 0. -1.
        -11    1    4    4    0    0 -0.90324392905E+01  0.17325899808E+02  0.95403279600E+01  0.21743726027E+02  0.51100000000E-03 0.  1.
         12    1    4    4    0    0  0.11028239345E+02  0.11569826825E+02  0.51147249040E+01  0.16782233661E+02  0.00000000000E+00 0. -1.
</event>
<event>
 8    1  0.2490104E-006  0.9118800E+02  0.7816164E-02  0.1184000E+00
        -11   -1    0    0    0    0  0.00000000000E+00  0.00000000000E+00  0.45593999997E+02  0.45594000000E+02  0.51100000000E-03 0.  1.
         11   -1    0    0    0    0 -0.00000000000E+00 -0.00000000000E+00 -0.45593999997E+02  0.45594000000E+02  0.51100000000E-03 0. -1.
         23    2    1    2    0    0  0.44408920985E-15  0.17763568394E-14  0.71054273576E-14  0.91188000000E+02  0.91188000000E+02 0.  0.
    9900012    2    3    3    0    0 -0.21118281137E+01 -0.12097410985E+02  0.34712699712E+02  0.54367099796E+02  0.40000035605E+02 0.  0.
         12    1    3    3    0    0  0.21118281137E+01  0.12097410985E+02 -0.34712699712E+02  0.36820900204E+02  0.00000000000E+00 0. -1.
         11    1    4    4    0    0 -0.13674818715E+01  0.58744666884E+01 -0.49623254680E+01  0.78105082967E+01  0.51100000000E-03 0. -1.
        -11    1    4    4    0    0 -0.40673297929E+01  0.15073908848E+01  0.47789637841E+01  0.64539828040E+01  0.51100000000E-03 0.  1.
        -12    1    4    4    0    0  0.33229835507E+01 -0.19479268558E+02  0.34896061396E+02  0.40102608695E+02  0.00000000000E+00 0.  1.
</event>
<event>
 8    1  0.2490104E-006  0.9118800E+02  0.7816164E-02  0.1184000E+00
        -11   -1    0    0    0    0  0.00000000000E+00  0.00000000000E+00  0.45593999997E+02  0.45594000000E+02  0.51100000000E-03 0. -1.
         11   -1    0    0    0    0 -0.00000000000E+00 -0.00000000000E+00 -0.45593999997E+02  0.45594000000E+02  0.51100000000E-03 0.  1.
         23    2    1    2    0    0  0.35527136788E-14  0.00000000000E+00  0.00000000000E+00  0.91188000000E+02  0.91188000000E+02 0.  0.
    9900012    2    3    3    0    0  0.20594295646E+02 -0.25253989075E+02 -0.17143187485E+02  0.54367111166E+02  0.40000061525E+02 0.  0.
         12    1    3    3    0    0 -0.20594295646E+02  0.25253989075E+02  0.17143187485E+02  0.36820888834E+02  0.00000000000E+00 0. -1.
         11    1    4    4    0    0  0.84699259891E+00  0.47541031286E+01 -0.18069615193E+01  0.51559677281E+01  0.51100000000E-03 0. -1.
        -11    1    4    4    0    0  0.13921211975E+02  0.21163170837E+01 -0.54450716692E+01  0.15097276132E+02  0.51100000000E-03 0.  1.
         12    1    4    4    0    0  0.58260910716E+01 -0.32124409288E+02 -0.98911542968E+01  0.34113867306E+02  0.00000000000E+00 0. -1.
</event>
<event>
 8    1  0.2490104E-006  0.9118800E+02  0.7816164E-02  0.1184000E+00
        -11   -1    0    0    0    0  0.00000000000E+00  0.00000000000E+00  0.45593999997E+02  0.45594000000E+02  0.51100000000E-03 0.  1.
         11   -1    0    0    0    0 -0.00000000000E+00 -0.00000000000E+00 -0.45593999997E+02  0.45594000000E+02  0.51100000000E-03 0. -1.
         23    2    1    2    0    0  0.00000000000E+00 -0.17763568394E-14 -0.26645352591E-14  0.91188000000E+02  0.91188000000E+02 0.  0.
    9900012    2    3    3    0    0 -0.34681042063E+02  0.11042834550E+02 -0.55733255470E+01  0.54367070746E+02  0.39999969381E+02 0.  0.
         12    1    3    3    0    0  0.34681042063E+02 -0.11042834550E+02  0.55733255470E+01  0.36820929254E+02  0.00000000000E+00 0. -1.
         11    1    4    4    0    0 -0.20730418446E+01  0.15253110823E+02  0.42110709792E+01  0.15958947689E+02  0.51100000000E-03 0. -1.
        -11    1    4    4    0    0 -0.15162999987E+02 -0.10564121414E+02 -0.35105969718E+01  0.18810675725E+02  0.51100000000E-03 0.  1.
         12    1    4    4    0    0 -0.17445000231E+02  0.63538451407E+01 -0.62737995544E+01  0.19597447333E+02  0.00000000000E+00 0. -1.
</event>
<event>
 8    1  0.2490104E-006  0.9118800E+02  0.7816164E-02  0.1184000E+00
        -11   -1    0    0    0    0  0.00000000000E+00  0.00000000000E+00  0.45593999997E+02  0.45594000000E+02  0.51100000000E-03 0. -1.
         11   -1    0    0    0    0 -0.00000000000E+00 -0.00000000000E+00 -0.45593999997E+02  0.45594000000E+02  0.51100000000E-03 0.  1.
         23    2    1    2    0    0  0.00000000000E+00  0.00000000000E+00  0.35527136788E-14  0.91188000000E+02  0.91188000000E+02 0.  0.
    9900012    2    3    3    0    0  0.25067838548E+02  0.11954730035E+02  0.24175738510E+02  0.54367103322E+02  0.40000043643E+02 0.  0.
        -12    1    3    3    0    0 -0.25067838548E+02 -0.11954730035E+02 -0.24175738510E+02  0.36820896678E+02  0.00000000000E+00 0.  1.
         11    1    4    4    0    0  0.25308081410E+02  0.68704379580E+01  0.25782448108E+02  0.36775488210E+02  0.51100000000E-03 0. -1.
        -11    1    4    4    0    0  0.22821619419E+01 -0.45086999876E+01 -0.49992851677E+01  0.71084098895E+01  0.51100000000E-03 0.  1.
         12    1    4    4    0    0 -0.25224048037E+01  0.95929920643E+01  0.33925755707E+01  0.10483205223E+02  0.00000000000E+00 0. -1.
</event>
<event>
 8    1  0.2490104E-006  0.9118800E+02  0.7816164E-02  0.1184000E+00
        -11   -1    0    0    0    0  0.00000000000E+00  0.00000000000E+00  0.45593999997E+02  0.45594000000E+02  0.51100000000E-03 0. -1.
         11   -1    0    0    0    0 -0.00000000000E+00 -0.00000000000E+00 -0.45593999997E+02  0.45594000000E+02  0.51100000000E-03 0.  1.
         23    2    1    2    0    0 -0.35527136788E-14  0.88817841970E-15 -0.71054273576E-14  0.91188000000E+02  0.91188000000E+02 0.  0.
    9900012    2    3    3    0    0  0.11070945701E+02 -0.19811716105E+01  0.35061219240E+02  0.54367082382E+02  0.39999995906E+02 0.  0.
        -12    1    3    3    0    0 -0.11070945701E+02  0.19811716105E+01 -0.35061219240E+02  0.36820917618E+02  0.00000000000E+00 0.  1.
         11    1    4    4    0    0 -0.11930974429E+02 -0.57365500600E+01  0.28825735310E+01  0.13548630478E+02  0.51100000000E-03 0. -1.
        -11    1    4    4    0    0  0.16980213217E+02  0.42163151542E+01  0.16631149168E+02  0.24139181371E+02  0.51100000000E-03 0.  1.
         12    1    4    4    0    0  0.60217069130E+01 -0.46093670469E+00  0.15547496541E+02  0.16679270532E+02  0.00000000000E+00 0. -1.
</event>
<event>
 8    1  0.2490104E-006  0.9118800E+02  0.7816164E-02  0.1184000E+00
        -11   -1    0    0    0    0  0.00000000000E+00  0.00000000000E+00  0.45593999997E+02  0.45594000000E+02  0.51100000000E-03 0.  1.
         11   -1    0    0    0    0 -0.00000000000E+00 -0.00000000000E+00 -0.45593999997E+02  0.45594000000E+02  0.51100000000E-03 0. -1.
         23    2    1    2    0    0 -0.88817841970E-15  0.00000000000E+00  0.00000000000E+00  0.91188000000E+02  0.91188000000E+02 0.  0.
    9900012    2    3    3    0    0 -0.69787209320E+01 -0.15779544452E+02 -0.32528130545E+02  0.54367138445E+02  0.40000123712E+02 0.  0.
        -12    1    3    3    0    0  0.69787209320E+01  0.15779544452E+02  0.32528130545E+02  0.36820861555E+02  0.00000000000E+00 0.  1.
         11    1    4    4    0    0 -0.93228727060E+00 -0.58721431227E+01 -0.31057553071E+02  0.31621556373E+02  0.51100000000E-03 0. -1.
        -11    1    4    4    0    0  0.56173332430E+00  0.12709190451E+01  0.70686890504E+01  0.72039672889E+01  0.51100000000E-03 0.  1.
        -12    1    4    4    0    0 -0.66081669857E+01 -0.11178320374E+02 -0.85392665239E+01  0.15541614783E+02  0.00000000000E+00 0.  1.
</event>
<event>
 8    1  0.2490104E-006  0.9118800E+02  0.7816164E-02  0.1184000E+00
        -11   -1    0    0    0    0  0.00000000000E+00  0.00000000000E+00  0.45593999997E+02  0.45594000000E+02  0.51100000000E-03 0. -1.
         11   -1    0    0    0    0 -0.00000000000E+00 -0.00000000000E+00 -0.45593999997E+02  0.45594000000E+02  0.51100000000E-03 0.  1.
         23    2    1    2    0    0 -0.35527136788E-14  0.00000000000E+00  0.00000000000E+00  0.91188000000E+02  0.91188000000E+02 0.  0.
    9900012    2    3    3    0    0 -0.20480387312E+02  0.86668798161E+01  0.29346506964E+02  0.54367101841E+02  0.40000040268E+02 0.  0.
        -12    1    3    3    0    0  0.20480387312E+02 -0.86668798161E+01 -0.29346506964E+02  0.36820898159E+02  0.00000000000E+00 0.  1.
         11    1    4    4    0    0 -0.92569701556E+01  0.71287790948E+01  0.80841028966E+01  0.14207874850E+02  0.51100000000E-03 0. -1.
        -11    1    4    4    0    0  0.11349826906E+02  0.15466299261E+01  0.62383655782E+01  0.13043306340E+02  0.51100000000E-03 0.  1.
        -12    1    4    4    0    0 -0.22573244063E+02 -0.85292047873E-02  0.15024038489E+02  0.27115920652E+02  0.00000000000E+00 0.  1.
</event>
<event>
 8    1  0.2490104E-006  0.9118800E+02  0.7816164E-02  0.1184000E+00
        -11   -1    0    0    0    0  0.00000000000E+00  0.00000000000E+00  0.45593999997E+02  0.45594000000E+02  0.51100000000E-03 0.  1.
         11   -1    0    0    0    0 -0.00000000000E+00 -0.00000000000E+00 -0.45593999997E+02  0.45594000000E+02  0.51100000000E-03 0. -1.
         23    2    1    2    0    0  0.17763568394E-14  0.00000000000E+00  0.71054273576E-14  0.91188000000E+02  0.91188000000E+02 0.  0.
    9900012    2    3    3    0    0  0.15087020029E+02  0.23011834356E+02  0.24466571852E+02  0.54367138631E+02  0.40000124136E+02 0.  0.
         12    1    3    3    0    0 -0.15087020029E+02 -0.23011834356E+02 -0.24466571852E+02  0.36820861369E+02  0.00000000000E+00 0. -1.
         11    1    4    4    0    0  0.64139230937E+01  0.34453130230E+01  0.36866989155E+01  0.81609031628E+01  0.51100000000E-03 0. -1.
        -11    1    4    4    0    0  0.18321156343E+02  0.33495014256E+01  0.19986889031E+02  0.27319583872E+02  0.51100000000E-03 0.  1.
         12    1    4    4    0    0 -0.96480594076E+01  0.16217019908E+02  0.79298390558E+00  0.18886651596E+02  0.00000000000E+00 0. -1.
</event>
<event>
 8    1  0.2490104E-006  0.9118800E+02  0.7816164E-02  0.1184000E+00
        -11   -1    0    0    0    0  0.00000000000E+00  0.00000000000E+00  0.45593999997E+02  0.45594000000E+02  0.51100000000E-03 0. -1.
         11   -1    0    0    0    0 -0.00000000000E+00 -0.00000000000E+00 -0.45593999997E+02  0.45594000000E+02  0.51100000000E-03 0.  1.
         23    2    1    2    0    0  0.66613381478E-15  0.71054273576E-14 -0.26645352591E-14  0.91188000000E+02  0.91188000000E+02 0.  0.
    9900012    2    3    3    0    0  0.12942060486E+01 -0.36034780897E+02  0.74566167188E+01  0.54367061168E+02  0.39999947544E+02 0.  0.
        -12    1    3    3    0    0 -0.12942060486E+01  0.36034780897E+02 -0.74566167188E+01  0.36820938832E+02  0.00000000000E+00 0.  1.
         11    1    4    4    0    0 -0.59520589566E+01 -0.12844800898E+02 -0.23817465969E+01  0.14355787441E+02  0.51100000000E-03 0. -1.
        -11    1    4    4    0    0  0.11620424760E+02 -0.16519400567E+02 -0.70026252325E+01  0.21376660803E+02  0.51100000000E-03 0.  1.
         12    1    4    4    0    0 -0.43741597546E+01 -0.66705794319E+01  0.16840988548E+02  0.18634612923E+02  0.00000000000E+00 0. -1.
</event>
<event>
 8    1  0.2490104E-006  0.9118800E+02  0.7816164E-02  0.1184000E+00
        -11   -1    0    0    0    0  0.00000000000E+00  0.00000000000E+00  0.45593999997E+02  0.45594000000E+02  0.51100000000E-03 0.  1.
         11   -1    0    0    0    0 -0.00000000000E+00 -0.00000000000E+00 -0.45593999997E+02  0.45594000000E+02  0.51100000000E-03 0. -1.
         23    2    1    2    0    0  0.00000000000E+00 -0.17763568394E-14 -0.35527136788E-14  0.91188000000E+02  0.91188000000E+02 0.  0.
    9900012    2    3    3    0    0  0.25670933631E+02  0.11941736557E+02  0.23541009241E+02  0.54367068160E+02  0.39999963483E+02 0.  0.
         12    1    3    3    0    0 -0.25670933631E+02 -0.11941736557E+02 -0.23541009241E+02  0.36820931840E+02  0.00000000000E+00 0. -1.
         11    1    4    4    0    0 -0.70557589300E+00 -0.11305100985E+01  0.98854203068E+01  0.99748396140E+01  0.51100000000E-03 0. -1.
        -11    1    4    4    0    0  0.20756780084E+02  0.47902877892E+01  0.22536860667E+02  0.31011302223E+02  0.51100000000E-03 0.  1.
         12    1    4    4    0    0  0.56197294402E+01  0.82819588668E+01 -0.88812717332E+01  0.13380926323E+02  0.00000000000E+00 0. -1.
</event>
<event>
 8    1  0.2490104E-006  0.9118800E+02  0.7816164E-02  0.1184000E+00
        -11   -1    0    0    0    0  0.00000000000E+00  0.00000000000E+00  0.45593999997E+02  0.45594000000E+02  0.51100000000E-03 0. -1.
         11   -1    0    0    0    0 -0.00000000000E+00 -0.00000000000E+00 -0.45593999997E+02  0.45594000000E+02  0.51100000000E-03 0.  1.
         23    2    1    2    0    0 -0.44408920985E-15  0.00000000000E+00 -0.35527136788E-14  0.91188000000E+02  0.91188000000E+02 0.  0.
    9900012    2    3    3    0    0  0.21256403537E+01  0.22785179879E+02 -0.28846111606E+02  0.54367069487E+02  0.39999966511E+02 0.  0.
         12    1    3    3    0    0 -0.21256403537E+01 -0.22785179879E+02  0.28846111606E+02  0.36820930513E+02  0.00000000000E+00 0. -1.
         11    1    4    4    0    0 -0.78388064930E+01  0.69458727225E+00  0.35532460871E+01  0.86345177474E+01  0.51100000000E-03 0. -1.
        -11    1    4    4    0    0  0.11392118369E+02  0.86762082076E+01 -0.49566852902E+01  0.15153404869E+02  0.51100000000E-03 0.  1.
        -12    1    4    4    0    0 -0.14276715220E+01  0.13414384399E+02 -0.27442672403E+02  0.30579146871E+02  0.00000000000E+00 0.  1.
</event>
<event>
 8    1  0.2490104E-006  0.9118800E+02  0.7816164E-02  0.1184000E+00
        -11   -1    0    0    0    0  0.00000000000E+00  0.00000000000E+00  0.45593999997E+02  0.45594000000E+02  0.51100000000E-03 0.  1.
         11   -1    0    0    0    0 -0.00000000000E+00 -0.00000000000E+00 -0.45593999997E+02  0.45594000000E+02  0.51100000000E-03 0. -1.
         23    2    1    2    0    0  0.35527136788E-14 -0.35527136788E-14  0.35527136788E-14  0.91188000000E+02  0.91188000000E+02 0.  0.
    9900012    2    3    3    0    0  0.24171883623E+02 -0.22085761485E+02  0.16843949790E+02  0.54367089327E+02  0.40000011738E+02 0.  0.
         12    1    3    3    0    0 -0.24171883623E+02  0.22085761485E+02 -0.16843949790E+02  0.36820910673E+02  0.00000000000E+00 0. -1.
         11    1    4    4    0    0 -0.14341862732E+01  0.78145794038E+01 -0.47118921370E+01  0.92372327727E+01  0.51100000000E-03 0. -1.
        -11    1    4    4    0    0  0.18050399616E+02 -0.19162908860E+02  0.12244259261E+02  0.29033702613E+02  0.51100000000E-03 0.  1.
         12    1    4    4    0    0  0.75556702806E+01 -0.10737432029E+02  0.93115826657E+01  0.16096153941E+02  0.00000000000E+00 0. -1.
</event>
<event>
 8    1  0.2490104E-006  0.9118800E+02  0.7816164E-02  0.1184000E+00
        -11   -1    0    0    0    0  0.00000000000E+00  0.00000000000E+00  0.45593999997E+02  0.45594000000E+02  0.51100000000E-03 0. -1.
         11   -1    0    0    0    0 -0.00000000000E+00 -0.00000000000E+00 -0.45593999997E+02  0.45594000000E+02  0.51100000000E-03 0.  1.
         23    2    1    2    0    0 -0.35527136788E-14  0.00000000000E+00 -0.71054273576E-14  0.91188000000E+02  0.91188000000E+02 0.  0.
    9900012    2    3    3    0    0 -0.23679109950E+02 -0.71519085990E+01 -0.27275076632E+02  0.54367084070E+02  0.39999999755E+02 0.  0.
         12    1    3    3    0    0  0.23679109950E+02  0.71519085990E+01  0.27275076632E+02  0.36820915930E+02  0.00000000000E+00 0. -1.
         11    1    4    4    0    0  0.30767317905E+01 -0.11123253670E+02 -0.17494807200E+02  0.20958562211E+02  0.51100000000E-03 0. -1.
        -11    1    4    4    0    0 -0.25386202474E+01  0.47938874799E+01 -0.72368423817E+01  0.90442157122E+01  0.51100000000E-03 0.  1.
        -12    1    4    4    0    0 -0.24217221494E+02 -0.82254240916E+00 -0.25434270501E+01  0.24364306147E+02  0.00000000000E+00 0.  1.
</event>
<event>
 8    1  0.2490104E-006  0.9118800E+02  0.7816164E-02  0.1184000E+00
        -11   -1    0    0    0    0  0.00000000000E+00  0.00000000000E+00  0.45593999997E+02  0.45594000000E+02  0.51100000000E-03 0. -1.
         11   -1    0    0    0    0 -0.00000000000E+00 -0.00000000000E+00 -0.45593999997E+02  0.45594000000E+02  0.51100000000E-03 0.  1.
         23    2    1    2    0    0  0.00000000000E+00  0.00000000000E+00  0.00000000000E+00  0.91188000000E+02  0.91188000000E+02 0.  0.
    9900012    2    3    3    0    0 -0.28611955883E+01 -0.35967928986E+02  0.73417910347E+01  0.54367078619E+02  0.39999987327E+02 0.  0.
        -12    1    3    3    0    0  0.28611955883E+01  0.35967928986E+02 -0.73417910347E+01  0.36820921381E+02  0.00000000000E+00 0.  1.
         11    1    4    4    0    0  0.17467792357E+01 -0.27760244492E+02  0.84757448495E+01  0.29077838004E+02  0.51100000000E-03 0. -1.
        -11    1    4    4    0    0 -0.79442114298E+01 -0.35866131903E+01 -0.10915311077E+02  0.13968475421E+02  0.51100000000E-03 0.  1.
        -12    1    4    4    0    0  0.33362366058E+01 -0.46210713040E+01  0.97813572623E+01  0.11320765194E+02  0.00000000000E+00 0.  1.
</event>
<event>
 8    1  0.2490104E-006  0.9118800E+02  0.7816164E-02  0.1184000E+00
        -11   -1    0    0    0    0  0.00000000000E+00  0.00000000000E+00  0.45593999997E+02  0.45594000000E+02  0.51100000000E-03 0.  1.
         11   -1    0    0    0    0 -0.00000000000E+00 -0.00000000000E+00 -0.45593999997E+02  0.45594000000E+02  0.51100000000E-03 0. -1.
         23    2    1    2    0    0  0.00000000000E+00  0.00000000000E+00  0.00000000000E+00  0.91188000000E+02  0.91188000000E+02 0.  0.
    9900012    2    3    3    0    0 -0.39667830554E+01 -0.74388613626E+01  0.35842827339E+02  0.54367077988E+02  0.39999985889E+02 0.  0.
         12    1    3    3    0    0  0.39667830554E+01  0.74388613626E+01 -0.35842827339E+02  0.36820922012E+02  0.00000000000E+00 0. -1.
         11    1    4    4    0    0 -0.49884893499E+01 -0.19643383251E+02  0.20681819941E+02  0.28956609053E+02  0.51100000000E-03 0. -1.
        -11    1    4    4    0    0  0.32554192900E+01 -0.30541481103E+01  0.12340851845E+01  0.46312570579E+01  0.51100000000E-03 0.  1.
         12    1    4    4    0    0 -0.22337129955E+01  0.15258669999E+02  0.13926922214E+02  0.20779211877E+02  0.00000000000E+00 0. -1.
</event>
<event>
 8    1  0.2490104E-006  0.9118800E+02  0.7816164E-02  0.1184000E+00
        -11   -1    0    0    0    0  0.00000000000E+00  0.00000000000E+00  0.45593999997E+02  0.45594000000E+02  0.51100000000E-03 0. -1.
         11   -1    0    0    0    0 -0.00000000000E+00 -0.00000000000E+00 -0.45593999997E+02  0.45594000000E+02  0.51100000000E-03 0.  1.
         23    2    1    2    0    0  0.00000000000E+00  0.00000000000E+00  0.00000000000E+00  0.91188000000E+02  0.91188000000E+02 0.  0.
    9900012    2    3    3    0    0 -0.29570978115E+02 -0.17388683837E+02 -0.13378052314E+02  0.54367063619E+02  0.39999953133E+02 0.  0.
         12    1    3    3    0    0  0.29570978115E+02  0.17388683837E+02  0.13378052314E+02  0.36820936381E+02  0.00000000000E+00 0. -1.
         11    1    4    4    0    0 -0.18593647318E+02 -0.57055714588E+01 -0.15344561541E+02  0.24773631857E+02  0.51100000000E-03 0.  1.
        -11    1    4    4    0    0 -0.16506017669E+02 -0.15519434271E+02  0.27338489211E+01  0.22820503709E+02  0.51100000000E-03 0. -1.
         12    1    4    4    0    0  0.55286868723E+01  0.38363218930E+01 -0.76733969473E+00  0.67729280526E+01  0.00000000000E+00 0. -1.
</event>
<event>
 8    1  0.2490104E-006  0.9118800E+02  0.7816164E-02  0.1184000E+00
        -11   -1    0    0    0    0  0.00000000000E+00  0.00000000000E+00  0.45593999997E+02  0.45594000000E+02  0.51100000000E-03 0.  1.
         11   -1    0    0    0    0 -0.00000000000E+00 -0.00000000000E+00 -0.45593999997E+02  0.45594000000E+02  0.51100000000E-03 0. -1.
         23    2    1    2    0    0  0.00000000000E+00 -0.35527136788E-14  0.17763568394E-14  0.91188000000E+02  0.91188000000E+02 0.  0.
    9900012    2    3    3    0    0  0.24502940551E+02 -0.25363497752E+02  0.10586751770E+02  0.54367076235E+02  0.39999981894E+02 0.  0.
        -12    1    3    3    0    0 -0.24502940551E+02  0.25363497752E+02 -0.10586751770E+02  0.36820923765E+02  0.00000000000E+00 0.  1.
         11    1    4    4    0    0  0.10508061577E+02 -0.76209425395E+01  0.79144822593E+01  0.15203195486E+02  0.51100000000E-03 0. -1.
        -11    1    4    4    0    0  0.18326788893E+02  0.23610988277E+01  0.50805241140E+00  0.18485239958E+02  0.51100000000E-03 0.  1.
         12    1    4    4    0    0 -0.43319099193E+01 -0.20103654040E+02  0.21642170992E+01  0.20678640791E+02  0.00000000000E+00 0. -1.
</event>
<event>
 8    1  0.2490104E-006  0.9118800E+02  0.7816164E-02  0.1184000E+00
        -11   -1    0    0    0    0  0.00000000000E+00  0.00000000000E+00  0.45593999997E+02  0.45594000000E+02  0.51100000000E-03 0. -1.
         11   -1    0    0    0    0 -0.00000000000E+00 -0.00000000000E+00 -0.45593999997E+02  0.45594000000E+02  0.51100000000E-03 0.  1.
         23    2    1    2    0    0  0.00000000000E+00  0.00000000000E+00  0.00000000000E+00  0.91188000000E+02  0.91188000000E+02 0.  0.
    9900012    2    3    3    0    0 -0.31603497651E+02  0.18701728144E+02  0.26919485540E+01  0.54367050985E+02  0.39999924329E+02 0.  0.
         12    1    3    3    0    0  0.31603497651E+02 -0.18701728144E+02 -0.26919485540E+01  0.36820949015E+02  0.00000000000E+00 0. -1.
         11    1    4    4    0    0 -0.17285863446E+02  0.11592033766E+02  0.13602977195E+02  0.24863976165E+02  0.51100000000E-03 0. -1.
        -11    1    4    4    0    0 -0.10482064207E+02  0.12679226391E+02  0.25028163360E+00  0.16452935698E+02  0.51100000000E-03 0.  1.
        -12    1    4    4    0    0 -0.38355699986E+01 -0.55695320125E+01 -0.11161310275E+02  0.13050139122E+02  0.00000000000E+00 0.  1.
</event>
<event>
 8    1  0.2490104E-006  0.9118800E+02  0.7816164E-02  0.1184000E+00
        -11   -1    0    0    0    0  0.00000000000E+00  0.00000000000E+00  0.45593999997E+02  0.45594000000E+02  0.51100000000E-03 0. -1.
         11   -1    0    0    0    0 -0.00000000000E+00 -0.00000000000E+00 -0.45593999997E+02  0.45594000000E+02  0.51100000000E-03 0.  1.
         23    2    1    2    0    0  0.00000000000E+00  0.35527136788E-14 -0.35527136788E-14  0.91188000000E+02  0.91188000000E+02 0.  0.
    9900012    2    3    3    0    0  0.24488401817E+02  0.21059211497E+02  0.17680674483E+02  0.54367102909E+02  0.40000042702E+02 0.  0.
        -12    1    3    3    0    0 -0.24488401817E+02 -0.21059211497E+02 -0.17680674483E+02  0.36820897091E+02  0.00000000000E+00 0.  1.
         11    1    4    4    0    0  0.78525498752E+01  0.84080662514E+01 -0.67784383605E+01  0.13353102430E+02  0.51100000000E-03 0.  1.
        -11    1    4    4    0    0  0.23202790328E+02  0.79316845542E+01  0.20726908394E+02  0.32107410838E+02  0.51100000000E-03 0. -1.
        -12    1    4    4    0    0 -0.65669383869E+01  0.47194606910E+01  0.37322044498E+01  0.89065896417E+01  0.00000000000E+00 0.  1.
</event>
<event>
 8    1  0.2490104E-006  0.9118800E+02  0.7816164E-02  0.1184000E+00
        -11   -1    0    0    0    0  0.00000000000E+00  0.00000000000E+00  0.45593999997E+02  0.45594000000E+02  0.51100000000E-03 0.  1.
         11   -1    0    0    0    0 -0.00000000000E+00 -0.00000000000E+00 -0.45593999997E+02  0.45594000000E+02  0.51100000000E-03 0. -1.
         23    2    1    2    0    0 -0.71054273576E-14 -0.17763568394E-14  0.00000000000E+00  0.91188000000E+02  0.91188000000E+02 0.  0.
    9900012    2    3    3    0    0  0.32521005912E+02  0.10298820470E+02  0.13860489840E+02  0.54366882320E+02  0.39999539822E+02 0.  0.
         12    1    3    3    0    0 -0.32521005912E+02 -0.10298820470E+02 -0.13860489840E+02  0.36821117680E+02  0.00000000000E+00 0. -1.
         11    1    4    4    0    0  0.91592611100E+01  0.16887957371E+02  0.65770889963E+01  0.20306483402E+02  0.51100000000E-03 0. -1.
        -11    1    4    4    0    0  0.25297009725E+02 -0.17172575824E+01  0.10995772710E+02  0.27636835788E+02  0.51100000000E-03 0.  1.
         12    1    4    4    0    0 -0.19352649227E+01 -0.48718793178E+01 -0.37123718661E+01  0.64235631296E+01  0.00000000000E+00 0. -1.
</event>
<event>
 8    1  0.2490104E-006  0.9118800E+02  0.7816164E-02  0.1184000E+00
        -11   -1    0    0    0    0  0.00000000000E+00  0.00000000000E+00  0.45593999997E+02  0.45594000000E+02  0.51100000000E-03 0.  1.
         11   -1    0    0    0    0 -0.00000000000E+00 -0.00000000000E+00 -0.45593999997E+02  0.45594000000E+02  0.51100000000E-03 0. -1.
         23    2    1    2    0    0  0.00000000000E+00 -0.17763568394E-14  0.35527136788E-14  0.91188000000E+02  0.91188000000E+02 0.  0.
    9900012    2    3    3    0    0  0.29956750416E+02 -0.97383285096E+01  0.19066673491E+02  0.54367082363E+02  0.39999995862E+02 0.  0.
         12    1    3    3    0    0 -0.29956750416E+02  0.97383285096E+01 -0.19066673491E+02  0.36820917637E+02  0.00000000000E+00 0. -1.
         11    1    4    4    0    0  0.12733255748E+02 -0.85130107654E+01  0.16696690163E+01  0.15407626330E+02  0.51100000000E-03 0. -1.
        -11    1    4    4    0    0  0.12731129499E+02 -0.14400018594E+02  0.15927544365E+02  0.24962549221E+02  0.51100000000E-03 0.  1.
         12    1    4    4    0    0  0.44923651685E+01  0.13174700850E+02  0.14694601094E+01  0.13996906812E+02  0.00000000000E+00 0. -1.
</event>
<event>
 8    1  0.2490104E-006  0.9118800E+02  0.7816164E-02  0.1184000E+00
        -11   -1    0    0    0    0  0.00000000000E+00  0.00000000000E+00  0.45593999997E+02  0.45594000000E+02  0.51100000000E-03 0.  1.
         11   -1    0    0    0    0 -0.00000000000E+00 -0.00000000000E+00 -0.45593999997E+02  0.45594000000E+02  0.51100000000E-03 0. -1.
         23    2    1    2    0    0  0.00000000000E+00  0.00000000000E+00  0.15543122345E-14  0.91188000000E+02  0.91188000000E+02 0.  0.
    9900012    2    3    3    0    0  0.15076129831E+02 -0.33540551469E+02  0.18770295866E+01  0.54367061343E+02  0.39999947944E+02 0.  0.
        -12    1    3    3    0    0 -0.15076129831E+02  0.33540551469E+02 -0.18770295866E+01  0.36820938657E+02  0.00000000000E+00 0.  1.
         11    1    4    4    0    0  0.14274204070E+02 -0.16008749193E+02  0.32140633748E+01  0.21687857345E+02  0.51100000000E-03 0. -1.
        -11    1    4    4    0    0  0.74402649147E+01 -0.67389346336E+01  0.11071140721E+02  0.14944595649E+02  0.51100000000E-03 0.  1.
        -12    1    4    4    0    0 -0.66383391536E+01 -0.10792867642E+02 -0.12408174509E+02  0.17734608349E+02  0.00000000000E+00 0.  1.
</event>
<event>
 8    1  0.2490104E-006  0.9118800E+02  0.7816164E-02  0.1184000E+00
        -11   -1    0    0    0    0  0.00000000000E+00  0.00000000000E+00  0.45593999997E+02  0.45594000000E+02  0.51100000000E-03 0.  1.
         11   -1    0    0    0    0 -0.00000000000E+00 -0.00000000000E+00 -0.45593999997E+02  0.45594000000E+02  0.51100000000E-03 0. -1.
         23    2    1    2    0    0 -0.88817841970E-15  0.00000000000E+00 -0.17763568394E-14  0.91188000000E+02  0.91188000000E+02 0.  0.
    9900012    2    3    3    0    0 -0.46229209427E+01 -0.34842878972E+02 -0.10971800295E+02  0.54367108989E+02  0.40000056562E+02 0.  0.
        -12    1    3    3    0    0  0.46229209427E+01  0.34842878972E+02  0.10971800295E+02  0.36820891011E+02  0.00000000000E+00 0.  1.
         11    1    4    4    0    0 -0.36677946680E+01 -0.57734473090E+01 -0.16244820906E+02  0.17626106152E+02  0.51100000000E-03 0. -1.
        -11    1    4    4    0    0  0.76399699021E+00 -0.23094538642E+01 -0.68822494582E+01  0.72994949427E+01  0.51100000000E-03 0.  1.
        -12    1    4    4    0    0 -0.17191232649E+01 -0.26759977799E+02  0.12155270070E+02  0.29441507894E+02  0.00000000000E+00 0.  1.
</event>
<event>
 8    1  0.2490104E-006  0.9118800E+02  0.7816164E-02  0.1184000E+00
        -11   -1    0    0    0    0  0.00000000000E+00  0.00000000000E+00  0.45593999997E+02  0.45594000000E+02  0.51100000000E-03 0. -1.
         11   -1    0    0    0    0 -0.00000000000E+00 -0.00000000000E+00 -0.45593999997E+02  0.45594000000E+02  0.51100000000E-03 0.  1.
         23    2    1    2    0    0 -0.71054273576E-14  0.00000000000E+00 -0.88817841970E-15  0.91188000000E+02  0.91188000000E+02 0.  0.
    9900012    2    3    3    0    0 -0.35153668170E+02 -0.82887510459E+01 -0.71621089849E+01  0.54367087670E+02  0.40000007962E+02 0.  0.
         12    1    3    3    0    0  0.35153668170E+02  0.82887510459E+01  0.71621089849E+01  0.36820912330E+02  0.00000000000E+00 0. -1.
         11    1    4    4    0    0  0.55379462981E+01  0.54396822669E+01 -0.63647874432E+01  0.10038401856E+02  0.51100000000E-03 0. -1.
        -11    1    4    4    0    0 -0.17797786569E+02 -0.28506663214E+01 -0.48364185346E+01  0.18662219850E+02  0.51100000000E-03 0.  1.
        -12    1    4    4    0    0 -0.22893827899E+02 -0.10877766991E+02  0.40390969929E+01  0.25666465965E+02  0.00000000000E+00 0.  1.
</event>
<event>
 8    1  0.2490104E-006  0.9118800E+02  0.7816164E-02  0.1184000E+00
        -11   -1    0    0    0    0  0.00000000000E+00  0.00000000000E+00  0.45593999997E+02  0.45594000000E+02  0.51100000000E-03 0. -1.
         11   -1    0    0    0    0 -0.00000000000E+00 -0.00000000000E+00 -0.45593999997E+02  0.45594000000E+02  0.51100000000E-03 0.  1.
         23    2    1    2    0    0 -0.17763568394E-14 -0.35527136788E-14  0.00000000000E+00  0.91188000000E+02  0.91188000000E+02 0.  0.
    9900012    2    3    3    0    0  0.13960263356E+02  0.18050453239E+02 -0.28897616910E+02  0.54367080970E+02  0.39999992688E+02 0.  0.
         12    1    3    3    0    0 -0.13960263356E+02 -0.18050453239E+02  0.28897616910E+02  0.36820919030E+02  0.00000000000E+00 0. -1.
         11    1    4    4    0    0  0.12526903142E+02  0.76396805846E+01 -0.12963117657E+02  0.19578826354E+02  0.51100000000E-03 0. -1.
        -11    1    4    4    0    0 -0.18337207681E+01 -0.10033850734E+02 -0.46704252710E+01  0.11218447525E+02  0.51100000000E-03 0.  1.
        -12    1    4    4    0    0  0.32670809827E+01  0.20444623388E+02 -0.11264073982E+02  0.23569807091E+02  0.00000000000E+00 0.  1.
</event>
<event>
 8    1  0.2490104E-006  0.9118800E+02  0.7816164E-02  0.1184000E+00
        -11   -1    0    0    0    0  0.00000000000E+00  0.00000000000E+00  0.45593999997E+02  0.45594000000E+02  0.51100000000E-03 0.  1.
         11   -1    0    0    0    0 -0.00000000000E+00 -0.00000000000E+00 -0.45593999997E+02  0.45594000000E+02  0.51100000000E-03 0. -1.
         23    2    1    2    0    0  0.35527136788E-14  0.00000000000E+00  0.00000000000E+00  0.91188000000E+02  0.91188000000E+02 0.  0.
    9900012    2    3    3    0    0 -0.23289709597E+02  0.26954863572E+02  0.93169381461E+01  0.54367074160E+02  0.39999977163E+02 0.  0.
         12    1    3    3    0    0  0.23289709597E+02 -0.26954863572E+02 -0.93169381461E+01  0.36820925840E+02  0.00000000000E+00 0. -1.
         11    1    4    4    0    0 -0.12273576181E+02  0.26111826512E+02  0.13032977439E+02  0.31659542910E+02  0.51100000000E-03 0. -1.
        -11    1    4    4    0    0 -0.95155390902E+00  0.82446728941E+01  0.26151576634E+01  0.87016743123E+01  0.51100000000E-03 0.  1.
         12    1    4    4    0    0 -0.10064579507E+02 -0.74016358343E+01 -0.63311969566E+01  0.14005856938E+02  0.00000000000E+00 0. -1.
</event>
<event>
 8    1  0.2490104E-006  0.9118800E+02  0.7816164E-02  0.1184000E+00
        -11   -1    0    0    0    0  0.00000000000E+00  0.00000000000E+00  0.45593999997E+02  0.45594000000E+02  0.51100000000E-03 0. -1.
         11   -1    0    0    0    0 -0.00000000000E+00 -0.00000000000E+00 -0.45593999997E+02  0.45594000000E+02  0.51100000000E-03 0.  1.
         23    2    1    2    0    0  0.00000000000E+00  0.13322676296E-14  0.00000000000E+00  0.91188000000E+02  0.91188000000E+02 0.  0.
    9900012    2    3    3    0    0  0.17623367161E+01  0.30180577851E+01 -0.36654659132E+02  0.54367101863E+02  0.40000040318E+02 0.  0.
         12    1    3    3    0    0 -0.17623367161E+01 -0.30180577851E+01  0.36654659132E+02  0.36820898137E+02  0.00000000000E+00 0. -1.
         11    1    4    4    0    0  0.16765555013E+02  0.27338444938E+00 -0.23713172692E+02  0.29042608928E+02  0.51100000000E-03 0.  1.
        -11    1    4    4    0    0 -0.14933619456E+02 -0.27643479769E+01 -0.12720257489E+02  0.19810592132E+02  0.51100000000E-03 0. -1.
        -12    1    4    4    0    0 -0.69598841336E-01  0.55090213126E+01 -0.22122895152E+00  0.55139008034E+01  0.00000000000E+00 0.  1.
</event>
<event>
 8    1  0.2490104E-006  0.9118800E+02  0.7816164E-02  0.1184000E+00
        -11   -1    0    0    0    0  0.00000000000E+00  0.00000000000E+00  0.45593999997E+02  0.45594000000E+02  0.51100000000E-03 0.  1.
         11   -1    0    0    0    0 -0.00000000000E+00 -0.00000000000E+00 -0.45593999997E+02  0.45594000000E+02  0.51100000000E-03 0. -1.
         23    2    1    2    0    0  0.00000000000E+00  0.00000000000E+00  0.17763568394E-14  0.91188000000E+02  0.91188000000E+02 0.  0.
    9900012    2    3    3    0    0  0.17581448344E+02  0.28836612656E+02 -0.14667219268E+02  0.54367015815E+02  0.39999844152E+02 0.  0.
        -12    1    3    3    0    0 -0.17581448344E+02 -0.28836612656E+02  0.14667219268E+02  0.36820984185E+02  0.00000000000E+00 0.  1.
         11    1    4    4    0    0  0.25476216172E+02  0.25333157147E+02 -0.96655111266E+01  0.37205222041E+02  0.51100000000E-03 0. -1.
        -11    1    4    4    0    0 -0.61431148816E+01 -0.18829905568E+01 -0.83853537986E+01  0.10563979954E+02  0.51100000000E-03 0.  1.
        -12    1    4    4    0    0 -0.17516529469E+01  0.53864460655E+01  0.33836456576E+01  0.65978138196E+01  0.00000000000E+00 0.  1.
</event>
<event>
 8    1  0.2490104E-006  0.9118800E+02  0.7816164E-02  0.1184000E+00
        -11   -1    0    0    0    0  0.00000000000E+00  0.00000000000E+00  0.45593999997E+02  0.45594000000E+02  0.51100000000E-03 0.  1.
         11   -1    0    0    0    0 -0.00000000000E+00 -0.00000000000E+00 -0.45593999997E+02  0.45594000000E+02  0.51100000000E-03 0. -1.
         23    2    1    2    0    0 -0.17763568394E-14  0.00000000000E+00 -0.35527136788E-14  0.91188000000E+02  0.91188000000E+02 0.  0.
    9900012    2    3    3    0    0  0.12201936413E+02 -0.33746331949E+02  0.82510069735E+01  0.54367064538E+02  0.39999955227E+02 0.  0.
         12    1    3    3    0    0 -0.12201936413E+02  0.33746331949E+02 -0.82510069735E+01  0.36820935462E+02  0.00000000000E+00 0. -1.
         11    1    4    4    0    0  0.12842087185E+02 -0.79153789478E+00 -0.81655588915E+01  0.15238834856E+02  0.51100000000E-03 0. -1.
        -11    1    4    4    0    0 -0.61171321696E+01 -0.15838235948E+02  0.11465483477E+02  0.20487223715E+02  0.51100000000E-03 0.  1.
         12    1    4    4    0    0  0.54769813969E+01 -0.17116558106E+02  0.49510823881E+01  0.18641005966E+02  0.00000000000E+00 0. -1.
</event>
<event>
 8    1  0.2490104E-006  0.9118800E+02  0.7816164E-02  0.1184000E+00
        -11   -1    0    0    0    0  0.00000000000E+00  0.00000000000E+00  0.45593999997E+02  0.45594000000E+02  0.51100000000E-03 0. -1.
         11   -1    0    0    0    0 -0.00000000000E+00 -0.00000000000E+00 -0.45593999997E+02  0.45594000000E+02  0.51100000000E-03 0.  1.
         23    2    1    2    0    0  0.00000000000E+00  0.00000000000E+00 -0.44408920985E-15  0.91188000000E+02  0.91188000000E+02 0.  0.
    9900012    2    3    3    0    0 -0.25531138283E+02 -0.26379163793E+02  0.28425361934E+01  0.54367091314E+02  0.40000016268E+02 0.  0.
        -12    1    3    3    0    0  0.25531138283E+02  0.26379163793E+02 -0.28425361934E+01  0.36820908686E+02  0.00000000000E+00 0.  1.
         11    1    4    4    0    0 -0.14526179978E+02  0.58621602082E+00 -0.12231104511E+02  0.18998775534E+02  0.51100000000E-03 0. -1.
        -11    1    4    4    0    0 -0.97894984851E+01 -0.90786068086E+01  0.10165078781E+02  0.16780471062E+02  0.51100000000E-03 0.  1.
         12    1    4    4    0    0 -0.12154598205E+01 -0.17886773005E+02  0.49085619234E+01  0.18587844718E+02  0.00000000000E+00 0. -1.
</event>
<event>
 8    1  0.2490104E-006  0.9118800E+02  0.7816164E-02  0.1184000E+00
        -11   -1    0    0    0    0  0.00000000000E+00  0.00000000000E+00  0.45593999997E+02  0.45594000000E+02  0.51100000000E-03 0.  1.
         11   -1    0    0    0    0 -0.00000000000E+00 -0.00000000000E+00 -0.45593999997E+02  0.45594000000E+02  0.51100000000E-03 0. -1.
         23    2    1    2    0    0  0.23314683517E-14 -0.35527136788E-14  0.00000000000E+00  0.91188000000E+02  0.91188000000E+02 0.  0.
    9900012    2    3    3    0    0 -0.87286831280E+00  0.18190709330E+02  0.32001813736E+02  0.54367083561E+02  0.39999998594E+02 0.  0.
         12    1    3    3    0    0  0.87286831280E+00 -0.18190709330E+02 -0.32001813736E+02  0.36820916439E+02  0.00000000000E+00 0. -1.
         11    1    4    4    0    0  0.82176164119E+01  0.13672011259E+01  0.14485920621E+02  0.16710486375E+02  0.51100000000E-03 0. -1.
        -11    1    4    4    0    0 -0.70480636598E+01  0.11147412765E+02  0.24866550788E+02  0.28147564034E+02  0.51100000000E-03 0.  1.
         12    1    4    4    0    0 -0.20424210649E+01  0.56760954395E+01 -0.73506576733E+01  0.95090331514E+01  0.00000000000E+00 0. -1.
</event>
<event>
 8    1  0.2490104E-006  0.9118800E+02  0.7816164E-02  0.1184000E+00
        -11   -1    0    0    0    0  0.00000000000E+00  0.00000000000E+00  0.45593999997E+02  0.45594000000E+02  0.51100000000E-03 0. -1.
         11   -1    0    0    0    0 -0.00000000000E+00 -0.00000000000E+00 -0.45593999997E+02  0.45594000000E+02  0.51100000000E-03 0.  1.
         23    2    1    2    0    0 -0.35527136788E-14 -0.35527136788E-14  0.35527136788E-14  0.91188000000E+02  0.91188000000E+02 0.  0.
    9900012    2    3    3    0    0 -0.28094860316E+02 -0.12887998451E+02  0.20008852212E+02  0.54367138425E+02  0.40000123668E+02 0.  0.
        -12    1    3    3    0    0  0.28094860316E+02  0.12887998451E+02 -0.20008852212E+02  0.36820861575E+02  0.00000000000E+00 0.  1.
         11    1    4    4    0    0  0.79392972978E+01 -0.62939942239E+01  0.30207223372E+01  0.10572207365E+02  0.51100000000E-03 0. -1.
        -11    1    4    4    0    0 -0.59999865305E+01 -0.57174032411E+01  0.99224194370E+01  0.12928377544E+02  0.51100000000E-03 0.  1.
        -12    1    4    4    0    0 -0.30034171083E+02 -0.87660098634E+00  0.70657104375E+01  0.30866553516E+02  0.00000000000E+00 0.  1.
</event>
<event>
 8    1  0.2490104E-006  0.9118800E+02  0.7816164E-02  0.1184000E+00
        -11   -1    0    0    0    0  0.00000000000E+00  0.00000000000E+00  0.45593999997E+02  0.45594000000E+02  0.51100000000E-03 0. -1.
         11   -1    0    0    0    0 -0.00000000000E+00 -0.00000000000E+00 -0.45593999997E+02  0.45594000000E+02  0.51100000000E-03 0.  1.
         23    2    1    2    0    0  0.00000000000E+00 -0.35527136788E-14  0.17763568394E-14  0.91188000000E+02  0.91188000000E+02 0.  0.
    9900012    2    3    3    0    0 -0.18778933888E+02  0.29650269326E+02 -0.11135202289E+02  0.54367088019E+02  0.40000008758E+02 0.  0.
         12    1    3    3    0    0  0.18778933888E+02 -0.29650269326E+02  0.11135202289E+02  0.36820911981E+02  0.00000000000E+00 0. -1.
         11    1    4    4    0    0  0.15514243821E+01  0.35811321806E+01 -0.16532134667E+02  0.16986550627E+02  0.51100000000E-03 0. -1.
        -11    1    4    4    0    0 -0.16727978635E+02  0.27844198707E+02  0.28111233366E+01  0.32604096147E+02  0.51100000000E-03 0.  1.
        -12    1    4    4    0    0 -0.36023796346E+01 -0.17750615620E+01  0.25858090405E+01  0.47764412458E+01  0.00000000000E+00 0.  1.
</event>
<event>
 8    1  0.2490104E-006  0.9118800E+02  0.7816164E-02  0.1184000E+00
        -11   -1    0    0    0    0  0.00000000000E+00  0.00000000000E+00  0.45593999997E+02  0.45594000000E+02  0.51100000000E-03 0.  1.
         11   -1    0    0    0    0 -0.00000000000E+00 -0.00000000000E+00 -0.45593999997E+02  0.45594000000E+02  0.51100000000E-03 0. -1.
         23    2    1    2    0    0 -0.35527136788E-14  0.16653345369E-14 -0.35527136788E-14  0.91188000000E+02  0.91188000000E+02 0.  0.
    9900012    2    3    3    0    0  0.25866818266E+02 -0.79446897649E-01  0.26204604445E+02  0.54367083484E+02  0.39999998418E+02 0.  0.
         12    1    3    3    0    0 -0.25866818266E+02  0.79446897649E-01 -0.26204604445E+02  0.36820916516E+02  0.00000000000E+00 0. -1.
         11    1    4    4    0    0 -0.39522470918E+01  0.10253911056E+02  0.24352003631E+01  0.11255805173E+02  0.51100000000E-03 0. -1.
        -11    1    4    4    0    0  0.27616187237E+02 -0.40884000904E+01  0.13796964315E+02  0.31140408433E+02  0.51100000000E-03 0.  1.
         12    1    4    4    0    0  0.22028781206E+01 -0.62449578633E+01  0.99724397671E+01  0.11970869878E+02  0.00000000000E+00 0. -1.
</event>
<event>
 8    1  0.2490104E-006  0.9118800E+02  0.7816164E-02  0.1184000E+00
        -11   -1    0    0    0    0  0.00000000000E+00  0.00000000000E+00  0.45593999997E+02  0.45594000000E+02  0.51100000000E-03 0.  1.
         11   -1    0    0    0    0 -0.00000000000E+00 -0.00000000000E+00 -0.45593999997E+02  0.45594000000E+02  0.51100000000E-03 0. -1.
         23    2    1    2    0    0 -0.17763568394E-14 -0.35527136788E-14  0.17763568394E-14  0.91188000000E+02  0.91188000000E+02 0.  0.
    9900012    2    3    3    0    0  0.15952507261E+02  0.31328541264E+02 -0.10946252306E+02  0.54367076259E+02  0.39999981947E+02 0.  0.
        -12    1    3    3    0    0 -0.15952507261E+02 -0.31328541264E+02  0.10946252306E+02  0.36820923741E+02  0.00000000000E+00 0.  1.
         11    1    4    4    0    0 -0.26397108030E+01  0.10946922445E+02 -0.82743937286E+01  0.13973860454E+02  0.51100000000E-03 0. -1.
        -11    1    4    4    0    0 -0.37440199332E+01  0.84176571190E+01  0.86528316663E+01  0.12639071672E+02  0.51100000000E-03 0.  1.
         12    1    4    4    0    0  0.22336237997E+02  0.11963961699E+02 -0.11324690244E+02  0.27754144133E+02  0.00000000000E+00 0. -1.
</event>
<event>
 8    1  0.2490104E-006  0.9118800E+02  0.7816164E-02  0.1184000E+00
        -11   -1    0    0    0    0  0.00000000000E+00  0.00000000000E+00  0.45593999997E+02  0.45594000000E+02  0.51100000000E-03 0.  1.
         11   -1    0    0    0    0 -0.00000000000E+00 -0.00000000000E+00 -0.45593999997E+02  0.45594000000E+02  0.51100000000E-03 0. -1.
         23    2    1    2    0    0  0.00000000000E+00 -0.44408920985E-15 -0.35527136788E-14  0.91188000000E+02  0.91188000000E+02 0.  0.
    9900012    2    3    3    0    0  0.24511760491E+02  0.22537938021E+01 -0.27383617791E+02  0.54367238028E+02  0.40000350731E+02 0.  0.
        -12    1    3    3    0    0 -0.24511760491E+02 -0.22537938021E+01  0.27383617791E+02  0.36820761972E+02  0.00000000000E+00 0.  1.
         11    1    4    4    0    0 -0.19058753212E+01 -0.70912467366E+01 -0.16797555611E+02  0.18332376163E+02  0.51100000000E-03 0.  1.
        -11    1    4    4    0    0  0.10168998289E+02 -0.36054275507E+01  0.30130363909E+01  0.11202054391E+02  0.51100000000E-03 0. -1.
        -12    1    4    4    0    0  0.16248637523E+02  0.12950468089E+02 -0.13599098571E+02  0.24832807474E+02  0.00000000000E+00 0.  1.
</event>
<event>
 8    1  0.2490104E-006  0.9118800E+02  0.7816164E-02  0.1184000E+00
        -11   -1    0    0    0    0  0.00000000000E+00  0.00000000000E+00  0.45593999997E+02  0.45594000000E+02  0.51100000000E-03 0. -1.
         11   -1    0    0    0    0 -0.00000000000E+00 -0.00000000000E+00 -0.45593999997E+02  0.45594000000E+02  0.51100000000E-03 0.  1.
         23    2    1    2    0    0  0.19984014443E-14  0.00000000000E+00  0.00000000000E+00  0.91188000000E+02  0.91188000000E+02 0.  0.
    9900012    2    3    3    0    0 -0.15450731335E+01  0.36304302172E+02 -0.59489699316E+01  0.54367084063E+02  0.39999999739E+02 0.  0.
        -12    1    3    3    0    0  0.15450731335E+01 -0.36304302172E+02  0.59489699316E+01  0.36820915937E+02  0.00000000000E+00 0.  1.
         11    1    4    4    0    0  0.11569023580E+02  0.93148699961E+01 -0.33281530214E+01  0.15221225720E+02  0.51100000000E-03 0. -1.
        -11    1    4    4    0    0  0.49015712243E+01  0.62962387562E+01 -0.78746881391E+01  0.11210652813E+02  0.51100000000E-03 0.  1.
        -12    1    4    4    0    0 -0.18015667937E+02  0.20693193419E+02  0.52538712289E+01  0.27935205530E+02  0.00000000000E+00 0.  1.
</event>
<event>
 8    1  0.2490104E-006  0.9118800E+02  0.7816164E-02  0.1184000E+00
        -11   -1    0    0    0    0  0.00000000000E+00  0.00000000000E+00  0.45593999997E+02  0.45594000000E+02  0.51100000000E-03 0.  1.
         11   -1    0    0    0    0 -0.00000000000E+00 -0.00000000000E+00 -0.45593999997E+02  0.45594000000E+02  0.51100000000E-03 0. -1.
         23    2    1    2    0    0 -0.35527136788E-14  0.44408920985E-15  0.35527136788E-14  0.91188000000E+02  0.91188000000E+02 0.  0.
    9900012    2    3    3    0    0  0.25629249863E+02 -0.27250885133E+01  0.26296278822E+02  0.54367097841E+02  0.40000031148E+02 0.  0.
        -12    1    3    3    0    0 -0.25629249863E+02  0.27250885133E+01 -0.26296278822E+02  0.36820902159E+02  0.00000000000E+00 0.  1.
         11    1    4    4    0    0  0.42336981545E+01  0.29458893076E+01  0.19621454178E+00  0.51614885725E+01  0.51100000000E-03 0. -1.
        -11    1    4    4    0    0  0.64185183430E+01  0.24679476620E+01 -0.83212250898E+01  0.10794949311E+02  0.51100000000E-03 0.  1.
        -12    1    4    4    0    0  0.14977033365E+02 -0.81389254828E+01  0.34421289370E+02  0.38410659957E+02  0.00000000000E+00 0.  1.
</event>
<event>
 8    1  0.2490104E-006  0.9118800E+02  0.7816164E-02  0.1184000E+00
        -11   -1    0    0    0    0  0.00000000000E+00  0.00000000000E+00  0.45593999997E+02  0.45594000000E+02  0.51100000000E-03 0.  1.
         11   -1    0    0    0    0 -0.00000000000E+00 -0.00000000000E+00 -0.45593999997E+02  0.45594000000E+02  0.51100000000E-03 0. -1.
         23    2    1    2    0    0 -0.88817841970E-15  0.00000000000E+00  0.88817841970E-15  0.91188000000E+02  0.91188000000E+02 0.  0.
    9900012    2    3    3    0    0  0.57697615917E+01  0.35845308877E+02 -0.61320836109E+01  0.54367098779E+02  0.40000033286E+02 0.  0.
         12    1    3    3    0    0 -0.57697615917E+01 -0.35845308877E+02  0.61320836109E+01  0.36820901221E+02  0.00000000000E+00 0. -1.
         11    1    4    4    0    0  0.10651706887E+02  0.10745350121E+02 -0.16046264237E+02  0.22054568802E+02  0.51100000000E-03 0.  1.
        -11    1    4    4    0    0  0.41175467466E+01  0.96545143474E+01  0.99120410998E+01  0.14436495334E+02  0.51100000000E-03 0. -1.
         12    1    4    4    0    0 -0.89994920418E+01  0.15445444408E+02  0.21395260242E-02  0.17876034643E+02  0.00000000000E+00 0. -1.
</event>
<event>
 8    1  0.2490104E-006  0.9118800E+02  0.7816164E-02  0.1184000E+00
        -11   -1    0    0    0    0  0.00000000000E+00  0.00000000000E+00  0.45593999997E+02  0.45594000000E+02  0.51100000000E-03 0. -1.
         11   -1    0    0    0    0 -0.00000000000E+00 -0.00000000000E+00 -0.45593999997E+02  0.45594000000E+02  0.51100000000E-03 0.  1.
         23    2    1    2    0    0  0.00000000000E+00  0.00000000000E+00  0.55511151231E-15  0.91188000000E+02  0.91188000000E+02 0.  0.
    9900012    2    3    3    0    0 -0.14732168624E+02 -0.33735283807E+02  0.82062876477E+00  0.54367087498E+02  0.40000007568E+02 0.  0.
         12    1    3    3    0    0  0.14732168624E+02  0.33735283807E+02 -0.82062876477E+00  0.36820912502E+02  0.00000000000E+00 0. -1.
         11    1    4    4    0    0 -0.17082769282E+02 -0.81001157103E+01  0.33380770629E+01  0.19198323875E+02  0.51100000000E-03 0. -1.
        -11    1    4    4    0    0  0.45128893272E+01  0.10774658425E+00  0.64066078865E+01  0.78372446866E+01  0.51100000000E-03 0.  1.
         12    1    4    4    0    0 -0.21622886694E+01 -0.25742914681E+02 -0.89240561846E+01  0.27331518936E+02  0.00000000000E+00 0. -1.
</event>
<event>
 8    1  0.2490104E-006  0.9118800E+02  0.7816164E-02  0.1184000E+00
        -11   -1    0    0    0    0  0.00000000000E+00  0.00000000000E+00  0.45593999997E+02  0.45594000000E+02  0.51100000000E-03 0. -1.
         11   -1    0    0    0    0 -0.00000000000E+00 -0.00000000000E+00 -0.45593999997E+02  0.45594000000E+02  0.51100000000E-03 0.  1.
         23    2    1    2    0    0  0.00000000000E+00  0.00000000000E+00 -0.35527136788E-14  0.91188000000E+02  0.91188000000E+02 0.  0.
    9900012    2    3    3    0    0 -0.26281733540E+02  0.15889780794E+02 -0.20311694107E+02  0.54367087884E+02  0.40000008449E+02 0.  0.
         12    1    3    3    0    0  0.26281733540E+02 -0.15889780794E+02  0.20311694107E+02  0.36820912116E+02  0.00000000000E+00 0. -1.
         11    1    4    4    0    0 -0.71798397707E+01  0.23712934187E+01  0.57710421510E+01  0.95119955519E+01  0.51100000000E-03 0. -1.
        -11    1    4    4    0    0 -0.21771932984E+02  0.11718289879E+02 -0.72744224406E+01  0.25773098488E+02  0.51100000000E-03 0.  1.
        -12    1    4    4    0    0  0.26700392148E+01  0.18001974967E+01 -0.18808313817E+02  0.19081993844E+02  0.00000000000E+00 0.  1.
</event>
<event>
 8    1  0.2490104E-006  0.9118800E+02  0.7816164E-02  0.1184000E+00
        -11   -1    0    0    0    0  0.00000000000E+00  0.00000000000E+00  0.45593999997E+02  0.45594000000E+02  0.51100000000E-03 0. -1.
         11   -1    0    0    0    0 -0.00000000000E+00 -0.00000000000E+00 -0.45593999997E+02  0.45594000000E+02  0.51100000000E-03 0.  1.
         23    2    1    2    0    0  0.71054273576E-14 -0.35527136788E-14  0.71054273576E-14  0.91188000000E+02  0.91188000000E+02 0.  0.
    9900012    2    3    3    0    0 -0.26258061381E+02  0.12563660973E+02 -0.22548823052E+02  0.54367071365E+02  0.39999970791E+02 0.  0.
        -12    1    3    3    0    0  0.26258061381E+02 -0.12563660973E+02  0.22548823052E+02  0.36820928635E+02  0.00000000000E+00 0.  1.
         11    1    4    4    0    0 -0.26754059570E+02  0.49359539805E+00 -0.24031235054E+02  0.35965589087E+02  0.51100000000E-03 0. -1.
        -11    1    4    4    0    0 -0.50060588443E+01  0.22645546126E+00  0.18374241198E+01  0.53374183728E+01  0.51100000000E-03 0.  1.
        -12    1    4    4    0    0  0.55020570332E+01  0.11843610114E+02 -0.35501211777E+00  0.13064063906E+02  0.00000000000E+00 0.  1.
</event>
<event>
 8    1  0.2490104E-006  0.9118800E+02  0.7816164E-02  0.1184000E+00
        -11   -1    0    0    0    0  0.00000000000E+00  0.00000000000E+00  0.45593999997E+02  0.45594000000E+02  0.51100000000E-03 0.  1.
         11   -1    0    0    0    0 -0.00000000000E+00 -0.00000000000E+00 -0.45593999997E+02  0.45594000000E+02  0.51100000000E-03 0. -1.
         23    2    1    2    0    0 -0.71054273576E-14  0.00000000000E+00  0.11102230246E-15  0.91188000000E+02  0.91188000000E+02 0.  0.
    9900012    2    3    3    0    0 -0.35485535673E+02 -0.97891188454E+01 -0.85403694917E+00  0.54367089244E+02  0.40000011550E+02 0.  0.
        -12    1    3    3    0    0  0.35485535673E+02  0.97891188454E+01  0.85403694917E+00  0.36820910756E+02  0.00000000000E+00 0.  1.
         11    1    4    4    0    0 -0.22781956057E+02 -0.85258250365E+01 -0.66408569320E+00  0.24334095924E+02  0.51100000000E-03 0. -1.
        -11    1    4    4    0    0 -0.19105115257E+02 -0.74657201056E+01 -0.29015393523E+01  0.20716209512E+02  0.51100000000E-03 0.  1.
        -12    1    4    4    0    0  0.64015356411E+01  0.62024262967E+01  0.27115880963E+01  0.93167838085E+01  0.00000000000E+00 0.  1.
</event>
<event>
 8    1  0.2490104E-006  0.9118800E+02  0.7816164E-02  0.1184000E+00
        -11   -1    0    0    0    0  0.00000000000E+00  0.00000000000E+00  0.45593999997E+02  0.45594000000E+02  0.51100000000E-03 0. -1.
         11   -1    0    0    0    0 -0.00000000000E+00 -0.00000000000E+00 -0.45593999997E+02  0.45594000000E+02  0.51100000000E-03 0.  1.
         23    2    1    2    0    0  0.00000000000E+00  0.00000000000E+00  0.44408920985E-15  0.91188000000E+02  0.91188000000E+02 0.  0.
    9900012    2    3    3    0    0 -0.30893022209E+02 -0.19932393808E+02 -0.20250674746E+01  0.54367081456E+02  0.39999993796E+02 0.  0.
        -12    1    3    3    0    0  0.30893022209E+02  0.19932393808E+02  0.20250674746E+01  0.36820918544E+02  0.00000000000E+00 0.  1.
         11    1    4    4    0    0 -0.67724971603E+01 -0.21181268937E+02  0.71541758824E+01  0.23360117817E+02  0.51100000000E-03 0. -1.
        -11    1    4    4    0    0 -0.17545639850E+02  0.73592068231E+01 -0.10811872299E+02  0.21883875015E+02  0.51100000000E-03 0.  1.
        -12    1    4    4    0    0 -0.65748851989E+01 -0.61103316938E+01  0.16326289425E+01  0.91230886245E+01  0.00000000000E+00 0.  1.
</event>
<event>
 8    1  0.2490104E-006  0.9118800E+02  0.7816164E-02  0.1184000E+00
        -11   -1    0    0    0    0  0.00000000000E+00  0.00000000000E+00  0.45593999997E+02  0.45594000000E+02  0.51100000000E-03 0.  1.
         11   -1    0    0    0    0 -0.00000000000E+00 -0.00000000000E+00 -0.45593999997E+02  0.45594000000E+02  0.51100000000E-03 0. -1.
         23    2    1    2    0    0  0.00000000000E+00  0.35527136788E-14  0.00000000000E+00  0.91188000000E+02  0.91188000000E+02 0.  0.
    9900012    2    3    3    0    0  0.20128500840E+02 -0.30149880793E+02  0.64506249606E+01  0.54367049167E+02  0.39999920186E+02 0.  0.
         12    1    3    3    0    0 -0.20128500840E+02  0.30149880793E+02 -0.64506249606E+01  0.36820950833E+02  0.00000000000E+00 0. -1.
         11    1    4    4    0    0  0.75412778999E+01 -0.69019748127E+01  0.16788805979E+02  0.19656351013E+02  0.51100000000E-03 0. -1.
        -11    1    4    4    0    0  0.15980262602E+02 -0.24493727116E+02 -0.10548884472E+02  0.31090037386E+02  0.51100000000E-03 0.  1.
         12    1    4    4    0    0 -0.33930396616E+01  0.12458211356E+01  0.21070345333E+00  0.36206607674E+01  0.00000000000E+00 0. -1.
</event>
<event>
 8    1  0.2490104E-006  0.9118800E+02  0.7816164E-02  0.1184000E+00
        -11   -1    0    0    0    0  0.00000000000E+00  0.00000000000E+00  0.45593999997E+02  0.45594000000E+02  0.51100000000E-03 0.  1.
         11   -1    0    0    0    0 -0.00000000000E+00 -0.00000000000E+00 -0.45593999997E+02  0.45594000000E+02  0.51100000000E-03 0. -1.
         23    2    1    2    0    0  0.00000000000E+00  0.00000000000E+00 -0.13877787808E-15  0.91188000000E+02  0.91188000000E+02 0.  0.
    9900012    2    3    3    0    0  0.33855232404E+02  0.14476791281E+02 -0.16280373922E+00  0.54367071821E+02  0.39999971830E+02 0.  0.
         12    1    3    3    0    0 -0.33855232404E+02 -0.14476791281E+02  0.16280373922E+00  0.36820928179E+02  0.00000000000E+00 0. -1.
         11    1    4    4    0    0 -0.13913500180E+01 -0.71341215346E+01  0.50486384974E+00  0.72860436940E+01  0.51100000000E-03 0. -1.
        -11    1    4    4    0    0  0.35248784402E+02  0.17335051940E+02 -0.65352821628E+01  0.39820732550E+02  0.51100000000E-03 0.  1.
        -12    1    4    4    0    0 -0.22019803096E-02  0.42758608759E+01  0.58676145739E+01  0.72602955770E+01  0.00000000000E+00 0.  1.
</event>
<event>
 8    1  0.2490104E-006  0.9118800E+02  0.7816164E-02  0.1184000E+00
        -11   -1    0    0    0    0  0.00000000000E+00  0.00000000000E+00  0.45593999997E+02  0.45594000000E+02  0.51100000000E-03 0.  1.
         11   -1    0    0    0    0 -0.00000000000E+00 -0.00000000000E+00 -0.45593999997E+02  0.45594000000E+02  0.51100000000E-03 0. -1.
         23    2    1    2    0    0 -0.35527136788E-14 -0.11102230246E-14  0.00000000000E+00  0.91188000000E+02  0.91188000000E+02 0.  0.
    9900012    2    3    3    0    0 -0.17176511750E+02 -0.10027567316E+01  0.32553676486E+02  0.54367082987E+02  0.39999997285E+02 0.  0.
         12    1    3    3    0    0  0.17176511750E+02  0.10027567316E+01 -0.32553676486E+02  0.36820917013E+02  0.00000000000E+00 0. -1.
         11    1    4    4    0    0 -0.80509574824E+01  0.34530550731E+01  0.13584082374E+02  0.16163811429E+02  0.51100000000E-03 0. -1.
        -11    1    4    4    0    0 -0.11074923359E+02 -0.11459927699E+02  0.24389717903E+02  0.29134896772E+02  0.51100000000E-03 0.  1.
         12    1    4    4    0    0  0.19493690918E+01  0.70041158947E+01 -0.54201237915E+01  0.90683747848E+01  0.00000000000E+00 0. -1.
</event>
<event>
 8    1  0.2490104E-006  0.9118800E+02  0.7816164E-02  0.1184000E+00
        -11   -1    0    0    0    0  0.00000000000E+00  0.00000000000E+00  0.45593999997E+02  0.45594000000E+02  0.51100000000E-03 0.  1.
         11   -1    0    0    0    0 -0.00000000000E+00 -0.00000000000E+00 -0.45593999997E+02  0.45594000000E+02  0.51100000000E-03 0. -1.
         23    2    1    2    0    0 -0.13322676296E-14  0.00000000000E+00  0.00000000000E+00  0.91188000000E+02  0.91188000000E+02 0.  0.
    9900012    2    3    3    0    0  0.39994482716E+01 -0.26379224191E+02  0.25375568765E+02  0.54367101783E+02  0.40000040134E+02 0.  0.
         12    1    3    3    0    0 -0.39994482716E+01  0.26379224191E+02 -0.25375568765E+02  0.36820898217E+02  0.00000000000E+00 0. -1.
         11    1    4    4    0    0  0.16927577301E+01 -0.45116987949E+00  0.19236469928E+02  0.19316075133E+02  0.51100000000E-03 0. -1.
        -11    1    4    4    0    0  0.10574746913E+02 -0.19535235724E+02  0.93739172256E+01  0.24110599982E+02  0.51100000000E-03 0.  1.
        -12    1    4    4    0    0 -0.82680563714E+01 -0.63928185875E+01 -0.32348183892E+01  0.10940426667E+02  0.00000000000E+00 0.  1.
</event>
<event>
 8    1  0.2490104E-006  0.9118800E+02  0.7816164E-02  0.1184000E+00
        -11   -1    0    0    0    0  0.00000000000E+00  0.00000000000E+00  0.45593999997E+02  0.45594000000E+02  0.51100000000E-03 0.  1.
         11   -1    0    0    0    0 -0.00000000000E+00 -0.00000000000E+00 -0.45593999997E+02  0.45594000000E+02  0.51100000000E-03 0. -1.
         23    2    1    2    0    0  0.35527136788E-14  0.00000000000E+00  0.00000000000E+00  0.91188000000E+02  0.91188000000E+02 0.  0.
    9900012    2    3    3    0    0 -0.27921161726E+02 -0.18446037081E+02  0.15360148466E+02  0.54367058716E+02  0.39999941955E+02 0.  0.
         12    1    3    3    0    0  0.27921161726E+02  0.18446037081E+02 -0.15360148466E+02  0.36820941284E+02  0.00000000000E+00 0. -1.
         11    1    4    4    0    0 -0.42379310869E+01  0.28119163740E+01 -0.73547424729E+01  0.89419891912E+01  0.51100000000E-03 0. -1.
        -11    1    4    4    0    0 -0.19016486338E+02 -0.17485298986E+02  0.44682134559E+01  0.26216928977E+02  0.51100000000E-03 0.  1.
         12    1    4    4    0    0 -0.46667443016E+01 -0.37726544693E+01  0.18246677483E+02  0.19208140547E+02  0.00000000000E+00 0. -1.
</event>
<event>
 8    1  0.2490104E-006  0.9118800E+02  0.7816164E-02  0.1184000E+00
        -11   -1    0    0    0    0  0.00000000000E+00  0.00000000000E+00  0.45593999997E+02  0.45594000000E+02  0.51100000000E-03 0.  1.
         11   -1    0    0    0    0 -0.00000000000E+00 -0.00000000000E+00 -0.45593999997E+02  0.45594000000E+02  0.51100000000E-03 0. -1.
         23    2    1    2    0    0 -0.35527136788E-14  0.00000000000E+00  0.00000000000E+00  0.91188000000E+02  0.91188000000E+02 0.  0.
    9900012    2    3    3    0    0 -0.28175757251E+02  0.98160025481E+01 -0.21576657098E+02  0.54367091073E+02  0.40000015719E+02 0.  0.
        -12    1    3    3    0    0  0.28175757251E+02 -0.98160025481E+01  0.21576657098E+02  0.36820908927E+02  0.00000000000E+00 0.  1.
         11    1    4    4    0    0 -0.27438910683E+01  0.42759530863E+01  0.17530519435E+01  0.53745608535E+01  0.51100000000E-03 0. -1.
        -11    1    4    4    0    0  0.14991569253E+01 -0.13039193489E+01  0.73417421880E+01  0.76058435280E+01  0.51100000000E-03 0.  1.
         12    1    4    4    0    0 -0.26931023108E+02  0.68439688108E+01 -0.30671451230E+02  0.41386686691E+02  0.00000000000E+00 0. -1.
</event>
<event>
 8    1  0.2490104E-006  0.9118800E+02  0.7816164E-02  0.1184000E+00
        -11   -1    0    0    0    0  0.00000000000E+00  0.00000000000E+00  0.45593999997E+02  0.45594000000E+02  0.51100000000E-03 0.  1.
         11   -1    0    0    0    0 -0.00000000000E+00 -0.00000000000E+00 -0.45593999997E+02  0.45594000000E+02  0.51100000000E-03 0. -1.
         23    2    1    2    0    0  0.35527136788E-14  0.00000000000E+00  0.35527136788E-14  0.91188000000E+02  0.91188000000E+02 0.  0.
    9900012    2    3    3    0    0  0.16525198004E+02 -0.17009736213E+02  0.28166766658E+02  0.54367081502E+02  0.39999993899E+02 0.  0.
         12    1    3    3    0    0 -0.16525198004E+02  0.17009736213E+02 -0.28166766658E+02  0.36820918498E+02  0.00000000000E+00 0. -1.
         11    1    4    4    0    0 -0.29424446058E+01 -0.58083891593E+01  0.14512842931E+02  0.15906538753E+02  0.51100000000E-03 0. -1.
        -11    1    4    4    0    0  0.10107514570E+02 -0.18767942463E+02  0.15401461283E+02  0.26298336924E+02  0.51100000000E-03 0.  1.
         12    1    4    4    0    0  0.93601280394E+01  0.75665954095E+01 -0.17475375563E+01  0.12162205824E+02  0.00000000000E+00 0. -1.
</event>
<event>
 8    1  0.2490104E-006  0.9118800E+02  0.7816164E-02  0.1184000E+00
        -11   -1    0    0    0    0  0.00000000000E+00  0.00000000000E+00  0.45593999997E+02  0.45594000000E+02  0.51100000000E-03 0.  1.
         11   -1    0    0    0    0 -0.00000000000E+00 -0.00000000000E+00 -0.45593999997E+02  0.45594000000E+02  0.51100000000E-03 0. -1.
         23    2    1    2    0    0 -0.35527136788E-14  0.00000000000E+00  0.00000000000E+00  0.91188000000E+02  0.91188000000E+02 0.  0.
    9900012    2    3    3    0    0  0.26460470045E+02  0.16203513074E+02 -0.19825995546E+02  0.54367076460E+02  0.39999982406E+02 0.  0.
        -12    1    3    3    0    0 -0.26460470045E+02 -0.16203513074E+02  0.19825995546E+02  0.36820923540E+02  0.00000000000E+00 0.  1.
         11    1    4    4    0    0 -0.57411654919E+01  0.10384298815E+01  0.31592710524E+01  0.66347804537E+01  0.51100000000E-03 0.  1.
        -11    1    4    4    0    0  0.17741582301E+02  0.19854404587E+02 -0.14246605923E+02  0.30198127502E+02  0.51100000000E-03 0. -1.
         12    1    4    4    0    0  0.14460053236E+02 -0.46893213945E+01 -0.87386606759E+01  0.17534168505E+02  0.00000000000E+00 0. -1.
</event>
<event>
 8    1  0.2490104E-006  0.9118800E+02  0.7816164E-02  0.1184000E+00
        -11   -1    0    0    0    0  0.00000000000E+00  0.00000000000E+00  0.45593999997E+02  0.45594000000E+02  0.51100000000E-03 0.  1.
         11   -1    0    0    0    0 -0.00000000000E+00 -0.00000000000E+00 -0.45593999997E+02  0.45594000000E+02  0.51100000000E-03 0. -1.
         23    2    1    2    0    0  0.00000000000E+00  0.35527136788E-14 -0.17763568394E-14  0.91188000000E+02  0.91188000000E+02 0.  0.
    9900012    2    3    3    0    0  0.26558194378E+02  0.21431911444E+02 -0.13824464904E+02  0.54367077325E+02  0.39999984377E+02 0.  0.
        -12    1    3    3    0    0 -0.26558194378E+02 -0.21431911444E+02  0.13824464904E+02  0.36820922675E+02  0.00000000000E+00 0.  1.
         11    1    4    4    0    0 -0.33397159478E+01  0.70273955050E+01  0.13681061947E+01  0.78999813301E+01  0.51100000000E-03 0. -1.
        -11    1    4    4    0    0 -0.73396915276E+00  0.82598588783E+01  0.46002854441E+01  0.94829639795E+01  0.51100000000E-03 0.  1.
         12    1    4    4    0    0  0.30631879479E+02  0.61446570610E+01 -0.19792856543E+02  0.36984132015E+02  0.00000000000E+00 0. -1.
</event>
<event>
 8    1  0.2490104E-006  0.9118800E+02  0.7816164E-02  0.1184000E+00
        -11   -1    0    0    0    0  0.00000000000E+00  0.00000000000E+00  0.45593999997E+02  0.45594000000E+02  0.51100000000E-03 0.  1.
         11   -1    0    0    0    0 -0.00000000000E+00 -0.00000000000E+00 -0.45593999997E+02  0.45594000000E+02  0.51100000000E-03 0. -1.
         23    2    1    2    0    0 -0.35527136788E-14  0.00000000000E+00  0.00000000000E+00  0.91188000000E+02  0.91188000000E+02 0.  0.
    9900012    2    3    3    0    0 -0.31590131495E+02 -0.14221607770E+02  0.12473536105E+02  0.54367086942E+02  0.40000006302E+02 0.  0.
         12    1    3    3    0    0  0.31590131495E+02  0.14221607770E+02 -0.12473536105E+02  0.36820913058E+02  0.00000000000E+00 0. -1.
         11    1    4    4    0    0 -0.17627969327E+02 -0.30161514863E+01  0.15865523624E+01  0.17954376097E+02  0.51100000000E-03 0.  1.
        -11    1    4    4    0    0 -0.20059901928E+02  0.20306260112E+01  0.58561735851E+01  0.20995663283E+02  0.51100000000E-03 0. -1.
         12    1    4    4    0    0  0.60977397601E+01 -0.13236082294E+02  0.50308101573E+01  0.15417047562E+02  0.00000000000E+00 0. -1.
</event>
<event>
 8    1  0.2490104E-006  0.9118800E+02  0.7816164E-02  0.1184000E+00
        -11   -1    0    0    0    0  0.00000000000E+00  0.00000000000E+00  0.45593999997E+02  0.45594000000E+02  0.51100000000E-03 0.  1.
         11   -1    0    0    0    0 -0.00000000000E+00 -0.00000000000E+00 -0.45593999997E+02  0.45594000000E+02  0.51100000000E-03 0. -1.
         23    2    1    2    0    0  0.00000000000E+00 -0.35527136788E-14  0.22204460493E-15  0.91188000000E+02  0.91188000000E+02 0.  0.
    9900012    2    3    3    0    0 -0.27507867938E+02 -0.24468179804E+02  0.63608791381E+00  0.54367092498E+02  0.40000018968E+02 0.  0.
         12    1    3    3    0    0  0.27507867938E+02  0.24468179804E+02 -0.63608791381E+00  0.36820907502E+02  0.00000000000E+00 0. -1.
         11    1    4    4    0    0 -0.11244859831E+02  0.42870606562E+01  0.92569797787E+01  0.15182800683E+02  0.51100000000E-03 0. -1.
        -11    1    4    4    0    0 -0.55443013932E+01 -0.24845742249E+02 -0.10651869659E+02  0.27595516182E+02  0.51100000000E-03 0.  1.
        -12    1    4    4    0    0 -0.10718706714E+02 -0.39094982115E+01  0.20309777945E+01  0.11588775633E+02  0.00000000000E+00 0.  1.
</event>
<event>
 8    1  0.2490104E-006  0.9118800E+02  0.7816164E-02  0.1184000E+00
        -11   -1    0    0    0    0  0.00000000000E+00  0.00000000000E+00  0.45593999997E+02  0.45594000000E+02  0.51100000000E-03 0. -1.
         11   -1    0    0    0    0 -0.00000000000E+00 -0.00000000000E+00 -0.45593999997E+02  0.45594000000E+02  0.51100000000E-03 0.  1.
         23    2    1    2    0    0  0.35527136788E-14  0.00000000000E+00 -0.88817841970E-15  0.91188000000E+02  0.91188000000E+02 0.  0.
    9900012    2    3    3    0    0 -0.13222217042E+02  0.33569660191E+02  0.73505522268E+01  0.54367085741E+02  0.40000003563E+02 0.  0.
        -12    1    3    3    0    0  0.13222217042E+02 -0.33569660191E+02 -0.73505522268E+01  0.36820914259E+02  0.00000000000E+00 0.  1.
         11    1    4    4    0    0 -0.86899472974E+01  0.39747317827E+01  0.19940204367E+01  0.97616491711E+01  0.51100000000E-03 0. -1.
        -11    1    4    4    0    0 -0.18363166864E+02  0.20213460748E+02  0.96753086808E+00  0.27326287873E+02  0.51100000000E-03 0.  1.
         12    1    4    4    0    0  0.13830897119E+02  0.93814676603E+01  0.43890009220E+01  0.17279148697E+02  0.00000000000E+00 0. -1.
</event>
<event>
 8    1  0.2490104E-006  0.9118800E+02  0.7816164E-02  0.1184000E+00
        -11   -1    0    0    0    0  0.00000000000E+00  0.00000000000E+00  0.45593999997E+02  0.45594000000E+02  0.51100000000E-03 0. -1.
         11   -1    0    0    0    0 -0.00000000000E+00 -0.00000000000E+00 -0.45593999997E+02  0.45594000000E+02  0.51100000000E-03 0.  1.
         23    2    1    2    0    0  0.00000000000E+00  0.17763568394E-14  0.00000000000E+00  0.91188000000E+02  0.91188000000E+02 0.  0.
    9900012    2    3    3    0    0 -0.32719074709E+02  0.15108449494E+02  0.75482519921E+01  0.54367092841E+02  0.40000019749E+02 0.  0.
        -12    1    3    3    0    0  0.32719074709E+02 -0.15108449494E+02 -0.75482519921E+01  0.36820907159E+02  0.00000000000E+00 0.  1.
         11    1    4    4    0    0 -0.14319775202E+02  0.93493656173E+01  0.22116718626E+02  0.27957393339E+02  0.51100000000E-03 0. -1.
        -11    1    4    4    0    0 -0.18690186551E+02  0.73184213504E+01 -0.11984111677E+02  0.23377367203E+02  0.51100000000E-03 0.  1.
        -12    1    4    4    0    0  0.29088704452E+00 -0.15593374741E+01 -0.25843549565E+01  0.30323322990E+01  0.00000000000E+00 0.  1.
</event>
<event>
 8    1  0.2490104E-006  0.9118800E+02  0.7816164E-02  0.1184000E+00
        -11   -1    0    0    0    0  0.00000000000E+00  0.00000000000E+00  0.45593999997E+02  0.45594000000E+02  0.51100000000E-03 0. -1.
         11   -1    0    0    0    0 -0.00000000000E+00 -0.00000000000E+00 -0.45593999997E+02  0.45594000000E+02  0.51100000000E-03 0.  1.
         23    2    1    2    0    0 -0.44408920985E-15  0.00000000000E+00 -0.88817841970E-15  0.91188000000E+02  0.91188000000E+02 0.  0.
    9900012    2    3    3    0    0  0.33613400602E+01 -0.36432095178E+02 -0.41453768349E+01  0.54367077752E+02  0.39999985351E+02 0.  0.
        -12    1    3    3    0    0 -0.33613400602E+01  0.36432095178E+02  0.41453768349E+01  0.36820922248E+02  0.00000000000E+00 0.  1.
         11    1    4    4    0    0 -0.13564705056E+02 -0.12307725511E+02  0.60821291511E+01  0.19299575793E+02  0.51100000000E-03 0. -1.
        -11    1    4    4    0    0 -0.29793920111E+01 -0.49554075863E+01 -0.29472723306E+01  0.64899349422E+01  0.51100000000E-03 0.  1.
        -12    1    4    4    0    0  0.19905437128E+02 -0.19168962081E+02 -0.72802336555E+01  0.28577567016E+02  0.00000000000E+00 0.  1.
</event>
<event>
 8    1  0.2490104E-006  0.9118800E+02  0.7816164E-02  0.1184000E+00
        -11   -1    0    0    0    0  0.00000000000E+00  0.00000000000E+00  0.45593999997E+02  0.45594000000E+02  0.51100000000E-03 0. -1.
         11   -1    0    0    0    0 -0.00000000000E+00 -0.00000000000E+00 -0.45593999997E+02  0.45594000000E+02  0.51100000000E-03 0.  1.
         23    2    1    2    0    0  0.44408920985E-15 -0.17763568394E-14  0.00000000000E+00  0.91188000000E+02  0.91188000000E+02 0.  0.
    9900012    2    3    3    0    0 -0.30174922892E+01  0.13158886013E+02 -0.34256645862E+02  0.54367091177E+02  0.40000015957E+02 0.  0.
         12    1    3    3    0    0  0.30174922892E+01 -0.13158886013E+02  0.34256645862E+02  0.36820908823E+02  0.00000000000E+00 0. -1.
         11    1    4    4    0    0  0.49845959622E+01  0.59380314418E+01 -0.12160535178E+02  0.14421686114E+02  0.51100000000E-03 0. -1.
        -11    1    4    4    0    0  0.11889235409E+02  0.37791270181E+01 -0.12254101729E+02  0.17487101792E+02  0.51100000000E-03 0.  1.
         12    1    4    4    0    0 -0.19891323661E+02  0.34417275529E+01 -0.98420089553E+01  0.22458303271E+02  0.00000000000E+00 0. -1.
</event>
<event>
 8    1  0.2490104E-006  0.9118800E+02  0.7816164E-02  0.1184000E+00
        -11   -1    0    0    0    0  0.00000000000E+00  0.00000000000E+00  0.45593999997E+02  0.45594000000E+02  0.51100000000E-03 0. -1.
         11   -1    0    0    0    0 -0.00000000000E+00 -0.00000000000E+00 -0.45593999997E+02  0.45594000000E+02  0.51100000000E-03 0.  1.
         23    2    1    2    0    0  0.00000000000E+00  0.00000000000E+00  0.35527136788E-14  0.91188000000E+02  0.91188000000E+02 0.  0.
    9900012    2    3    3    0    0 -0.18803297924E+02 -0.15029858636E+02 -0.27862513986E+02  0.54367077292E+02  0.39999984302E+02 0.  0.
         12    1    3    3    0    0  0.18803297924E+02  0.15029858636E+02  0.27862513986E+02  0.36820922708E+02  0.00000000000E+00 0. -1.
         11    1    4    4    0    0  0.87291232183E+01  0.50437388469E+01 -0.33230003605E+01  0.10615047121E+02  0.51100000000E-03 0. -1.
        -11    1    4    4    0    0 -0.18126393477E+02 -0.15587993380E+02 -0.23078914068E+02  0.33229323691E+02  0.51100000000E-03 0.  1.
        -12    1    4    4    0    0 -0.94060276655E+01 -0.44856041030E+01 -0.14605995571E+01  0.10522706481E+02  0.00000000000E+00 0.  1.
</event>
<event>
 8    1  0.2490104E-006  0.9118800E+02  0.7816164E-02  0.1184000E+00
        -11   -1    0    0    0    0  0.00000000000E+00  0.00000000000E+00  0.45593999997E+02  0.45594000000E+02  0.51100000000E-03 0. -1.
         11   -1    0    0    0    0 -0.00000000000E+00 -0.00000000000E+00 -0.45593999997E+02  0.45594000000E+02  0.51100000000E-03 0.  1.
         23    2    1    2    0    0  0.22204460493E-15  0.00000000000E+00  0.00000000000E+00  0.91188000000E+02  0.91188000000E+02 0.  0.
    9900012    2    3    3    0    0 -0.13062903250E+01  0.28196643317E+02  0.23643654232E+02  0.54367089172E+02  0.40000011386E+02 0.  0.
        -12    1    3    3    0    0  0.13062903250E+01 -0.28196643317E+02 -0.23643654232E+02  0.36820910828E+02  0.00000000000E+00 0.  1.
         11    1    4    4    0    0 -0.24704642870E+01  0.17983742780E+02  0.16689291251E+02  0.24658682870E+02  0.51100000000E-03 0. -1.
        -11    1    4    4    0    0 -0.34940955161E+00 -0.26273178408E+01  0.14498810206E+02  0.14739076759E+02  0.51100000000E-03 0.  1.
         12    1    4    4    0    0  0.15135835137E+01  0.12840218378E+02 -0.75444472250E+01  0.14969329543E+02  0.00000000000E+00 0. -1.
</event>
<event>
 8    1  0.2490104E-006  0.9118800E+02  0.7816164E-02  0.1184000E+00
        -11   -1    0    0    0    0  0.00000000000E+00  0.00000000000E+00  0.45593999997E+02  0.45594000000E+02  0.51100000000E-03 0.  1.
         11   -1    0    0    0    0 -0.00000000000E+00 -0.00000000000E+00 -0.45593999997E+02  0.45594000000E+02  0.51100000000E-03 0. -1.
         23    2    1    2    0    0 -0.71054273576E-14  0.35527136788E-14  0.22204460493E-15  0.91188000000E+02  0.91188000000E+02 0.  0.
    9900012    2    3    3    0    0  0.28589150045E+02 -0.23155931036E+02 -0.14969806943E+01  0.54367114709E+02  0.40000069602E+02 0.  0.
        -12    1    3    3    0    0 -0.28589150045E+02  0.23155931036E+02  0.14969806943E+01  0.36820885291E+02  0.00000000000E+00 0.  1.
         11    1    4    4    0    0  0.32489987735E+02 -0.29670575779E+02 -0.33898074061E+01  0.44129731073E+02  0.51100000000E-03 0. -1.
        -11    1    4    4    0    0  0.18900297446E+00  0.58539193416E+01  0.16614347280E+01  0.60880587546E+01  0.51100000000E-03 0.  1.
        -12    1    4    4    0    0 -0.40898406650E+01  0.66072540152E+00  0.23139198381E+00  0.41493248814E+01  0.00000000000E+00 0.  1.
</event>
<event>
 8    1  0.2490104E-006  0.9118800E+02  0.7816164E-02  0.1184000E+00
        -11   -1    0    0    0    0  0.00000000000E+00  0.00000000000E+00  0.45593999997E+02  0.45594000000E+02  0.51100000000E-03 0.  1.
         11   -1    0    0    0    0 -0.00000000000E+00 -0.00000000000E+00 -0.45593999997E+02  0.45594000000E+02  0.51100000000E-03 0. -1.
         23    2    1    2    0    0  0.00000000000E+00  0.35527136788E-14 -0.35527136788E-14  0.91188000000E+02  0.91188000000E+02 0.  0.
    9900012    2    3    3    0    0 -0.16544588736E+02  0.28593398290E+02 -0.16262605233E+02  0.54367106866E+02  0.40000051721E+02 0.  0.
         12    1    3    3    0    0  0.16544588736E+02 -0.28593398290E+02  0.16262605233E+02  0.36820893134E+02  0.00000000000E+00 0. -1.
         11    1    4    4    0    0  0.15035834311E+01 -0.22787215847E+01 -0.30572284672E+01  0.40987780322E+01  0.51100000000E-03 0. -1.
        -11    1    4    4    0    0 -0.20314766367E+02  0.34351513034E+01 -0.26032080403E+01  0.20766961486E+02  0.51100000000E-03 0.  1.
         12    1    4    4    0    0  0.22665941993E+01  0.27436968572E+02 -0.10602168726E+02  0.29501367347E+02  0.00000000000E+00 0. -1.
</event>
<event>
 8    1  0.2490104E-006  0.9118800E+02  0.7816164E-02  0.1184000E+00
        -11   -1    0    0    0    0  0.00000000000E+00  0.00000000000E+00  0.45593999997E+02  0.45594000000E+02  0.51100000000E-03 0.  1.
         11   -1    0    0    0    0 -0.00000000000E+00 -0.00000000000E+00 -0.45593999997E+02  0.45594000000E+02  0.51100000000E-03 0. -1.
         23    2    1    2    0    0 -0.71054273576E-14 -0.77715611724E-15  0.00000000000E+00  0.91188000000E+02  0.91188000000E+02 0.  0.
    9900012    2    3    3    0    0  0.35431989096E+02 -0.82959898862E+00  0.99832868584E+01  0.54367080643E+02  0.39999991942E+02 0.  0.
         12    1    3    3    0    0 -0.35431989096E+02  0.82959898862E+00 -0.99832868584E+01  0.36820919357E+02  0.00000000000E+00 0. -1.
         11    1    4    4    0    0  0.51713757370E+01  0.43388864491E+01  0.18257614926E+01  0.69930299528E+01  0.51100000000E-03 0. -1.
        -11    1    4    4    0    0  0.37750725109E+02 -0.48293057900E+00  0.55299836144E+01  0.38156666354E+02  0.51100000000E-03 0.  1.
        -12    1    4    4    0    0 -0.74901117495E+01 -0.46855548587E+01  0.26275417514E+01  0.92173843366E+01  0.00000000000E+00 0.  1.
</event>
<event>
 8    1  0.2490104E-006  0.9118800E+02  0.7816164E-02  0.1184000E+00
        -11   -1    0    0    0    0  0.00000000000E+00  0.00000000000E+00  0.45593999997E+02  0.45594000000E+02  0.51100000000E-03 0.  1.
         11   -1    0    0    0    0 -0.00000000000E+00 -0.00000000000E+00 -0.45593999997E+02  0.45594000000E+02  0.51100000000E-03 0. -1.
         23    2    1    2    0    0 -0.35527136788E-14  0.44408920985E-15 -0.35527136788E-14  0.91188000000E+02  0.91188000000E+02 0.  0.
    9900012    2    3    3    0    0 -0.18205762699E+02 -0.28347611988E+01  0.31879378634E+02  0.54367075940E+02  0.39999981221E+02 0.  0.
         12    1    3    3    0    0  0.18205762699E+02  0.28347611988E+01 -0.31879378634E+02  0.36820924060E+02  0.00000000000E+00 0. -1.
         11    1    4    4    0    0 -0.25994382097E+02  0.17519962849E+01  0.28409967928E+02  0.38547421049E+02  0.51100000000E-03 0. -1.
        -11    1    4    4    0    0  0.98875995328E+01 -0.36760879563E+01  0.62166706507E+01  0.12244396327E+02  0.51100000000E-03 0.  1.
         12    1    4    4    0    0 -0.20989801350E+01 -0.91066952735E+00 -0.27472599446E+01  0.35752585639E+01  0.00000000000E+00 0. -1.
</event>
<event>
 8    1  0.2490104E-006  0.9118800E+02  0.7816164E-02  0.1184000E+00
        -11   -1    0    0    0    0  0.00000000000E+00  0.00000000000E+00  0.45593999997E+02  0.45594000000E+02  0.51100000000E-03 0. -1.
         11   -1    0    0    0    0 -0.00000000000E+00 -0.00000000000E+00 -0.45593999997E+02  0.45594000000E+02  0.51100000000E-03 0.  1.
         23    2    1    2    0    0  0.00000000000E+00  0.00000000000E+00  0.00000000000E+00  0.91188000000E+02  0.91188000000E+02 0.  0.
    9900012    2    3    3    0    0 -0.19002505467E+02 -0.25578733503E+02  0.18450294454E+02  0.54367079492E+02  0.39999989318E+02 0.  0.
        -12    1    3    3    0    0  0.19002505467E+02  0.25578733503E+02 -0.18450294454E+02  0.36820920508E+02  0.00000000000E+00 0.  1.
         11    1    4    4    0    0 -0.75181033351E+01 -0.94724892377E+01 -0.55348864083E+01  0.13299808191E+02  0.51100000000E-03 0. -1.
        -11    1    4    4    0    0 -0.78736455724E+01  0.44523471705E+00 -0.36208512991E+01  0.86777354733E+01  0.51100000000E-03 0.  1.
         12    1    4    4    0    0 -0.36107565595E+01 -0.16551478982E+02  0.27606032161E+02  0.32389535827E+02  0.00000000000E+00 0. -1.
</event>
<event>
 8    1  0.2490104E-006  0.9118800E+02  0.7816164E-02  0.1184000E+00
        -11   -1    0    0    0    0  0.00000000000E+00  0.00000000000E+00  0.45593999997E+02  0.45594000000E+02  0.51100000000E-03 0.  1.
         11   -1    0    0    0    0 -0.00000000000E+00 -0.00000000000E+00 -0.45593999997E+02  0.45594000000E+02  0.51100000000E-03 0. -1.
         23    2    1    2    0    0  0.00000000000E+00  0.00000000000E+00  0.71054273576E-14  0.91188000000E+02  0.91188000000E+02 0.  0.
    9900012    2    3    3    0    0 -0.11482748990E+02  0.68493707980E+01  0.34307611653E+02  0.54367087165E+02  0.40000006809E+02 0.  0.
         12    1    3    3    0    0  0.11482748990E+02 -0.68493707980E+01 -0.34307611653E+02  0.36820912835E+02  0.00000000000E+00 0. -1.
         11    1    4    4    0    0  0.11583371434E+02  0.10407152969E+02  0.15587173395E+02  0.22032777887E+02  0.51100000000E-03 0. -1.
        -11    1    4    4    0    0 -0.22717935417E+01  0.20858418664E+01 -0.87920859946E+00  0.32069908341E+01  0.51100000000E-03 0.  1.
        -12    1    4    4    0    0 -0.20794326883E+02 -0.56436240377E+01  0.19599646857E+02  0.29127318444E+02  0.00000000000E+00 0.  1.
</event>
<event>
 8    1  0.2490104E-006  0.9118800E+02  0.7816164E-02  0.1184000E+00
        -11   -1    0    0    0    0  0.00000000000E+00  0.00000000000E+00  0.45593999997E+02  0.45594000000E+02  0.51100000000E-03 0. -1.
         11   -1    0    0    0    0 -0.00000000000E+00 -0.00000000000E+00 -0.45593999997E+02  0.45594000000E+02  0.51100000000E-03 0.  1.
         23    2    1    2    0    0  0.00000000000E+00  0.35527136788E-14  0.00000000000E+00  0.91188000000E+02  0.91188000000E+02 0.  0.
    9900012    2    3    3    0    0  0.12588216494E+02  0.23321174734E+02 -0.25562459054E+02  0.54367086128E+02  0.40000004446E+02 0.  0.
         12    1    3    3    0    0 -0.12588216494E+02 -0.23321174734E+02  0.25562459054E+02  0.36820913872E+02  0.00000000000E+00 0. -1.
         11    1    4    4    0    0 -0.22863171007E+01  0.23023034347E+02 -0.10821389409E+02  0.25541922899E+02  0.51100000000E-03 0. -1.
        -11    1    4    4    0    0  0.29603000375E+01  0.74711023915E+01 -0.12319788116E+02  0.14709110331E+02  0.51100000000E-03 0.  1.
         12    1    4    4    0    0  0.11914233557E+02 -0.71729620040E+01 -0.24212815298E+01  0.14116052898E+02  0.00000000000E+00 0. -1.
</event>
<event>
 8    1  0.2490104E-006  0.9118800E+02  0.7816164E-02  0.1184000E+00
        -11   -1    0    0    0    0  0.00000000000E+00  0.00000000000E+00  0.45593999997E+02  0.45594000000E+02  0.51100000000E-03 0. -1.
         11   -1    0    0    0    0 -0.00000000000E+00 -0.00000000000E+00 -0.45593999997E+02  0.45594000000E+02  0.51100000000E-03 0.  1.
         23    2    1    2    0    0  0.00000000000E+00 -0.44408920985E-15  0.00000000000E+00  0.91188000000E+02  0.91188000000E+02 0.  0.
    9900012    2    3    3    0    0  0.27838041186E+02 -0.37251279580E+01 -0.23810607644E+02  0.54367107130E+02  0.40000052324E+02 0.  0.
         12    1    3    3    0    0 -0.27838041186E+02  0.37251279580E+01  0.23810607644E+02  0.36820892870E+02  0.00000000000E+00 0. -1.
         11    1    4    4    0    0  0.26767938694E+02  0.33278206587E+01 -0.11586140096E+02  0.29357036206E+02  0.51100000000E-03 0. -1.
        -11    1    4    4    0    0  0.83052103612E+01  0.16387179497E+01 -0.10630575611E+02  0.13589372824E+02  0.51100000000E-03 0.  1.
        -12    1    4    4    0    0 -0.72351078693E+01 -0.86916665663E+01 -0.15938919380E+01  0.11420698100E+02  0.00000000000E+00 0.  1.
</event>
<event>
 8    1  0.2490104E-006  0.9118800E+02  0.7816164E-02  0.1184000E+00
        -11   -1    0    0    0    0  0.00000000000E+00  0.00000000000E+00  0.45593999997E+02  0.45594000000E+02  0.51100000000E-03 0. -1.
         11   -1    0    0    0    0 -0.00000000000E+00 -0.00000000000E+00 -0.45593999997E+02  0.45594000000E+02  0.51100000000E-03 0.  1.
         23    2    1    2    0    0 -0.35527136788E-14  0.00000000000E+00  0.00000000000E+00  0.91188000000E+02  0.91188000000E+02 0.  0.
    9900012    2    3    3    0    0 -0.17772228870E+02 -0.79539185329E+01  0.31251635498E+02  0.54367059486E+02  0.39999943709E+02 0.  0.
        -12    1    3    3    0    0  0.17772228870E+02  0.79539185329E+01 -0.31251635498E+02  0.36820940514E+02  0.00000000000E+00 0.  1.
         11    1    4    4    0    0 -0.74700213547E+01  0.13628817218E+02  0.16213159102E+02  0.22459127457E+02  0.51100000000E-03 0. -1.
        -11    1    4    4    0    0  0.33651007013E+00 -0.15989052307E+02  0.70620641508E+01  0.17482442135E+02  0.51100000000E-03 0.  1.
        -12    1    4    4    0    0 -0.10638717585E+02 -0.55936834446E+01  0.79764122456E+01  0.14425489893E+02  0.00000000000E+00 0.  1.
</event>
<event>
 8    1  0.2490104E-006  0.9118800E+02  0.7816164E-02  0.1184000E+00
        -11   -1    0    0    0    0  0.00000000000E+00  0.00000000000E+00  0.45593999997E+02  0.45594000000E+02  0.51100000000E-03 0.  1.
         11   -1    0    0    0    0 -0.00000000000E+00 -0.00000000000E+00 -0.45593999997E+02  0.45594000000E+02  0.51100000000E-03 0. -1.
         23    2    1    2    0    0  0.17763568394E-14  0.00000000000E+00  0.71054273576E-14  0.91188000000E+02  0.91188000000E+02 0.  0.
    9900012    2    3    3    0    0 -0.82942228395E+01  0.96614969868E+01 -0.34549102049E+02  0.54367094132E+02  0.40000022693E+02 0.  0.
        -12    1    3    3    0    0  0.82942228395E+01 -0.96614969868E+01  0.34549102049E+02  0.36820905868E+02  0.00000000000E+00 0.  1.
         11    1    4    4    0    0  0.54839051023E+01 -0.49160081777E+01 -0.39013293880E+01  0.83343099792E+01  0.51100000000E-03 0. -1.
        -11    1    4    4    0    0  0.25140404806E+01 -0.67852594130E+01 -0.43773637514E+01  0.84570360359E+01  0.51100000000E-03 0.  1.
         12    1    4    4    0    0 -0.16292168422E+02  0.21362764577E+02 -0.26270408909E+02  0.37575748117E+02  0.00000000000E+00 0. -1.
</event>
<event>
 8    1  0.2490104E-006  0.9118800E+02  0.7816164E-02  0.1184000E+00
        -11   -1    0    0    0    0  0.00000000000E+00  0.00000000000E+00  0.45593999997E+02  0.45594000000E+02  0.51100000000E-03 0. -1.
         11   -1    0    0    0    0 -0.00000000000E+00 -0.00000000000E+00 -0.45593999997E+02  0.45594000000E+02  0.51100000000E-03 0.  1.
         23    2    1    2    0    0 -0.17763568394E-14 -0.13322676296E-14 -0.71054273576E-14  0.91188000000E+02  0.91188000000E+02 0.  0.
    9900012    2    3    3    0    0 -0.14940947602E+02 -0.30625248462E+01 -0.33513718458E+02  0.54367077978E+02  0.39999985866E+02 0.  0.
         12    1    3    3    0    0  0.14940947602E+02  0.30625248462E+01  0.33513718458E+02  0.36820922022E+02  0.00000000000E+00 0. -1.
         11    1    4    4    0    0 -0.13698316205E+01 -0.53728222117E+01 -0.30280557152E+02  0.30784018562E+02  0.51100000000E-03 0. -1.
        -11    1    4    4    0    0 -0.15095124299E+02  0.73942493152E+01 -0.56747485893E+01  0.17740926480E+02  0.51100000000E-03 0.  1.
         12    1    4    4    0    0  0.15240083177E+01 -0.50839519498E+01  0.24415872827E+01  0.58421329357E+01  0.00000000000E+00 0. -1.
</event>
<event>
 8    1  0.2490104E-006  0.9118800E+02  0.7816164E-02  0.1184000E+00
        -11   -1    0    0    0    0  0.00000000000E+00  0.00000000000E+00  0.45593999997E+02  0.45594000000E+02  0.51100000000E-03 0.  1.
         11   -1    0    0    0    0 -0.00000000000E+00 -0.00000000000E+00 -0.45593999997E+02  0.45594000000E+02  0.51100000000E-03 0. -1.
         23    2    1    2    0    0  0.11102230246E-14 -0.88817841970E-15  0.00000000000E+00  0.91188000000E+02  0.91188000000E+02 0.  0.
    9900012    2    3    3    0    0  0.12726678070E+01 -0.79719436332E+01 -0.35925042792E+02  0.54367078390E+02  0.39999986805E+02 0.  0.
        -12    1    3    3    0    0 -0.12726678070E+01  0.79719436332E+01  0.35925042792E+02  0.36820921610E+02  0.00000000000E+00 0.  1.
         11    1    4    4    0    0 -0.72393812127E+00 -0.10114366897E+02 -0.14165839263E+02  0.17421122421E+02  0.51100000000E-03 0. -1.
        -11    1    4    4    0    0  0.15107116573E+02 -0.16357828629E+00 -0.58473300677E+01  0.16200092536E+02  0.51100000000E-03 0.  1.
        -12    1    4    4    0    0 -0.13110510644E+02  0.23060015502E+01 -0.15911873462E+02  0.20745863433E+02  0.00000000000E+00 0.  1.
</event>
<event>
 8    1  0.2490104E-006  0.9118800E+02  0.7816164E-02  0.1184000E+00
        -11   -1    0    0    0    0  0.00000000000E+00  0.00000000000E+00  0.45593999997E+02  0.45594000000E+02  0.51100000000E-03 0. -1.
         11   -1    0    0    0    0 -0.00000000000E+00 -0.00000000000E+00 -0.45593999997E+02  0.45594000000E+02  0.51100000000E-03 0.  1.
         23    2    1    2    0    0  0.00000000000E+00  0.00000000000E+00  0.17763568394E-14  0.91188000000E+02  0.91188000000E+02 0.  0.
    9900012    2    3    3    0    0 -0.32893239902E+02 -0.13734690852E+02  0.92289658993E+01  0.54367071499E+02  0.39999971097E+02 0.  0.
        -12    1    3    3    0    0  0.32893239902E+02  0.13734690852E+02 -0.92289658993E+01  0.36820928501E+02  0.00000000000E+00 0.  1.
         11    1    4    4    0    0 -0.19276229995E+02 -0.10757527153E+02  0.20779612388E+02  0.30316492616E+02  0.51100000000E-03 0. -1.
        -11    1    4    4    0    0 -0.14644003047E+02  0.30661209554E+01 -0.84014795358E+01  0.17159043726E+02  0.51100000000E-03 0.  1.
         12    1    4    4    0    0  0.10269931395E+01 -0.60432846545E+01 -0.31491669533E+01  0.68915351572E+01  0.00000000000E+00 0. -1.
</event>
<event>
 8    1  0.2490104E-006  0.9118800E+02  0.7816164E-02  0.1184000E+00
        -11   -1    0    0    0    0  0.00000000000E+00  0.00000000000E+00  0.45593999997E+02  0.45594000000E+02  0.51100000000E-03 0.  1.
         11   -1    0    0    0    0 -0.00000000000E+00 -0.00000000000E+00 -0.45593999997E+02  0.45594000000E+02  0.51100000000E-03 0. -1.
         23    2    1    2    0    0  0.00000000000E+00  0.35527136788E-14 -0.35527136788E-14  0.91188000000E+02  0.91188000000E+02 0.  0.
    9900012    2    3    3    0    0  0.98467707917E+01 -0.20813062583E+02  0.28733759346E+02  0.54367198878E+02  0.40000261481E+02 0.  0.
         12    1    3    3    0    0 -0.98467707917E+01  0.20813062583E+02 -0.28733759346E+02  0.36820801122E+02  0.00000000000E+00 0. -1.
         11    1    4    4    0    0  0.19882948507E+02 -0.21111408966E+02  0.20699240708E+02  0.35629788043E+02  0.51100000000E-03 0. -1.
        -11    1    4    4    0    0 -0.33872120890E+01 -0.50621905651E+01  0.81761445353E+01  0.10195504832E+02  0.51100000000E-03 0.  1.
         12    1    4    4    0    0 -0.66489656262E+01  0.53605369478E+01 -0.14162589650E+00  0.85419060029E+01  0.00000000000E+00 0. -1.
</event>
<event>
 8    1  0.2490104E-006  0.9118800E+02  0.7816164E-02  0.1184000E+00
        -11   -1    0    0    0    0  0.00000000000E+00  0.00000000000E+00  0.45593999997E+02  0.45594000000E+02  0.51100000000E-03 0.  1.
         11   -1    0    0    0    0 -0.00000000000E+00 -0.00000000000E+00 -0.45593999997E+02  0.45594000000E+02  0.51100000000E-03 0. -1.
         23    2    1    2    0    0 -0.17763568394E-14 -0.35527136788E-14  0.35527136788E-14  0.91188000000E+02  0.91188000000E+02 0.  0.
    9900012    2    3    3    0    0  0.13009548207E+02 -0.27207237653E+02  0.21125760338E+02  0.54367083728E+02  0.39999998975E+02 0.  0.
         12    1    3    3    0    0 -0.13009548207E+02  0.27207237653E+02 -0.21125760338E+02  0.36820916272E+02  0.00000000000E+00 0. -1.
         11    1    4    4    0    0 -0.79403235381E+01 -0.11524151337E+02  0.11673998475E+02  0.18224627365E+02  0.51100000000E-03 0. -1.
        -11    1    4    4    0    0  0.11839589636E+02 -0.46040074008E+00  0.13483307018E+02  0.17949579939E+02  0.51100000000E-03 0.  1.
         12    1    4    4    0    0  0.91102821091E+01 -0.15222685576E+02 -0.40315451549E+01  0.18192876424E+02  0.00000000000E+00 0. -1.
</event>
<event>
 8    1  0.2490104E-006  0.9118800E+02  0.7816164E-02  0.1184000E+00
        -11   -1    0    0    0    0  0.00000000000E+00  0.00000000000E+00  0.45593999997E+02  0.45594000000E+02  0.51100000000E-03 0.  1.
         11   -1    0    0    0    0 -0.00000000000E+00 -0.00000000000E+00 -0.45593999997E+02  0.45594000000E+02  0.51100000000E-03 0. -1.
         23    2    1    2    0    0 -0.35527136788E-14  0.00000000000E+00  0.00000000000E+00  0.91188000000E+02  0.91188000000E+02 0.  0.
    9900012    2    3    3    0    0  0.19890888110E+02 -0.88074294675E+01 -0.29707939204E+02  0.54367083452E+02  0.39999998346E+02 0.  0.
        -12    1    3    3    0    0 -0.19890888110E+02  0.88074294675E+01  0.29707939204E+02  0.36820916548E+02  0.00000000000E+00 0.  1.
         11    1    4    4    0    0  0.21045406033E+02 -0.72049787381E+01 -0.14539850541E+02  0.26574952262E+02  0.51100000000E-03 0. -1.
        -11    1    4    4    0    0 -0.98662580432E+01  0.45526088664E+01 -0.12936529912E+02  0.16894469559E+02  0.51100000000E-03 0.  1.
        -12    1    4    4    0    0  0.87117401207E+01 -0.61550595959E+01 -0.22315587508E+01  0.10897661631E+02  0.00000000000E+00 0.  1.
</event>
<event>
 8    1  0.2490104E-006  0.9118800E+02  0.7816164E-02  0.1184000E+00
        -11   -1    0    0    0    0  0.00000000000E+00  0.00000000000E+00  0.45593999997E+02  0.45594000000E+02  0.51100000000E-03 0.  1.
         11   -1    0    0    0    0 -0.00000000000E+00 -0.00000000000E+00 -0.45593999997E+02  0.45594000000E+02  0.51100000000E-03 0. -1.
         23    2    1    2    0    0  0.00000000000E+00  0.00000000000E+00  0.35527136788E-14  0.91188000000E+02  0.91188000000E+02 0.  0.
    9900012    2    3    3    0    0 -0.15214100936E+02 -0.18963055993E+02  0.27653472478E+02  0.54367069811E+02  0.39999967248E+02 0.  0.
         12    1    3    3    0    0  0.15214100936E+02  0.18963055993E+02 -0.27653472478E+02  0.36820930189E+02  0.00000000000E+00 0. -1.
         11    1    4    4    0    0  0.13061305433E+01  0.10543092602E+00  0.39022805570E+01  0.41164167042E+01  0.51100000000E-03 0.  1.
        -11    1    4    4    0    0 -0.23159382873E+02 -0.13081784430E+01  0.20613749842E+02  0.31032161200E+02  0.51100000000E-03 0. -1.
        -12    1    4    4    0    0  0.66391513932E+01 -0.17760308476E+02  0.31374420782E+01  0.19218491907E+02  0.00000000000E+00 0.  1.
</event>
<event>
 8    1  0.2490104E-006  0.9118800E+02  0.7816164E-02  0.1184000E+00
        -11   -1    0    0    0    0  0.00000000000E+00  0.00000000000E+00  0.45593999997E+02  0.45594000000E+02  0.51100000000E-03 0.  1.
         11   -1    0    0    0    0 -0.00000000000E+00 -0.00000000000E+00 -0.45593999997E+02  0.45594000000E+02  0.51100000000E-03 0. -1.
         23    2    1    2    0    0  0.00000000000E+00  0.00000000000E+00  0.00000000000E+00  0.91188000000E+02  0.91188000000E+02 0.  0.
    9900012    2    3    3    0    0  0.28214023078E+02  0.16235891436E+02 -0.17208862627E+02  0.54367079019E+02  0.39999988239E+02 0.  0.
        -12    1    3    3    0    0 -0.28214023078E+02 -0.16235891436E+02  0.17208862627E+02  0.36820920981E+02  0.00000000000E+00 0.  1.
         11    1    4    4    0    0  0.15718182644E+02  0.59715936854E+01 -0.20653886275E+02  0.26632765821E+02  0.51100000000E-03 0. -1.
        -11    1    4    4    0    0 -0.16084269183E+01  0.49553692886E+01 -0.74835754171E+01  0.91184770231E+01  0.51100000000E-03 0.  1.
         12    1    4    4    0    0  0.14104267352E+02  0.53089284625E+01  0.10928599065E+02  0.18615836175E+02  0.00000000000E+00 0. -1.
</event>
<event>
 8    1  0.2490104E-006  0.9118800E+02  0.7816164E-02  0.1184000E+00
        -11   -1    0    0    0    0  0.00000000000E+00  0.00000000000E+00  0.45593999997E+02  0.45594000000E+02  0.51100000000E-03 0.  1.
         11   -1    0    0    0    0 -0.00000000000E+00 -0.00000000000E+00 -0.45593999997E+02  0.45594000000E+02  0.51100000000E-03 0. -1.
         23    2    1    2    0    0  0.00000000000E+00  0.35527136788E-14 -0.35527136788E-14  0.91188000000E+02  0.91188000000E+02 0.  0.
    9900012    2    3    3    0    0  0.17588928049E+02 -0.20355967765E+02  0.25140160594E+02  0.54367306249E+02  0.40000506253E+02 0.  0.
        -12    1    3    3    0    0 -0.17588928049E+02  0.20355967765E+02 -0.25140160594E+02  0.36820693751E+02  0.00000000000E+00 0.  1.
         11    1    4    4    0    0  0.43219087349E+00 -0.18823110227E+02  0.16760771995E+02  0.25207533511E+02  0.51100000000E-03 0. -1.
        -11    1    4    4    0    0  0.20034133669E+01 -0.46365648834E+01 -0.61361632207E+01  0.79475718536E+01  0.51100000000E-03 0.  1.
         12    1    4    4    0    0  0.15153323809E+02  0.31037073454E+01  0.14515551820E+02  0.21212200884E+02  0.00000000000E+00 0. -1.
</event>
<event>
 8    1  0.2490104E-006  0.9118800E+02  0.7816164E-02  0.1184000E+00
        -11   -1    0    0    0    0  0.00000000000E+00  0.00000000000E+00  0.45593999997E+02  0.45594000000E+02  0.51100000000E-03 0.  1.
         11   -1    0    0    0    0 -0.00000000000E+00 -0.00000000000E+00 -0.45593999997E+02  0.45594000000E+02  0.51100000000E-03 0. -1.
         23    2    1    2    0    0 -0.88817841970E-15  0.17763568394E-14  0.00000000000E+00  0.91188000000E+02  0.91188000000E+02 0.  0.
    9900012    2    3    3    0    0  0.56847192138E+01 -0.87127410880E+01  0.35320715167E+02  0.54367071036E+02  0.39999970042E+02 0.  0.
         12    1    3    3    0    0 -0.56847192138E+01  0.87127410880E+01 -0.35320715167E+02  0.36820928964E+02  0.00000000000E+00 0. -1.
         11    1    4    4    0    0 -0.92302211460E+00  0.78531933822E+01  0.18836287343E+02  0.20428664598E+02  0.51100000000E-03 0. -1.
        -11    1    4    4    0    0 -0.31365167793E+01 -0.15167223420E+02  0.18250989077E+02  0.23937021668E+02  0.51100000000E-03 0.  1.
        -12    1    4    4    0    0  0.97442581077E+01 -0.13987110498E+01 -0.17665612525E+01  0.10001384771E+02  0.00000000000E+00 0.  1.
</event>
<event>
 8    1  0.2490104E-006  0.9118800E+02  0.7816164E-02  0.1184000E+00
        -11   -1    0    0    0    0  0.00000000000E+00  0.00000000000E+00  0.45593999997E+02  0.45594000000E+02  0.51100000000E-03 0.  1.
         11   -1    0    0    0    0 -0.00000000000E+00 -0.00000000000E+00 -0.45593999997E+02  0.45594000000E+02  0.51100000000E-03 0. -1.
         23    2    1    2    0    0  0.35527136788E-14  0.35527136788E-14 -0.44408920985E-15  0.91188000000E+02  0.91188000000E+02 0.  0.
    9900012    2    3    3    0    0 -0.27742927204E+02  0.24078507703E+02  0.25163897710E+01  0.54367126021E+02  0.40000095391E+02 0.  0.
         12    1    3    3    0    0  0.27742927204E+02 -0.24078507703E+02 -0.25163897710E+01  0.36820873979E+02  0.00000000000E+00 0. -1.
         11    1    4    4    0    0  0.51095668674E+01  0.89922557811E+01 -0.75448843468E+01  0.12802094269E+02  0.51100000000E-03 0. -1.
        -11    1    4    4    0    0  0.60003880970E+00 -0.24356790912E+01  0.11746256462E+01  0.27698961855E+01  0.51100000000E-03 0.  1.
        -12    1    4    4    0    0 -0.33452532881E+02  0.17521931013E+02  0.88866484716E+01  0.38795135567E+02  0.00000000000E+00 0.  1.
</event>
<event>
 8    1  0.2490104E-006  0.9118800E+02  0.7816164E-02  0.1184000E+00
        -11   -1    0    0    0    0  0.00000000000E+00  0.00000000000E+00  0.45593999997E+02  0.45594000000E+02  0.51100000000E-03 0.  1.
         11   -1    0    0    0    0 -0.00000000000E+00 -0.00000000000E+00 -0.45593999997E+02  0.45594000000E+02  0.51100000000E-03 0. -1.
         23    2    1    2    0    0  0.00000000000E+00  0.35527136788E-14 -0.26645352591E-14  0.91188000000E+02  0.91188000000E+02 0.  0.
    9900012    2    3    3    0    0 -0.26978335361E+02 -0.24117404344E+02 -0.68039295360E+01  0.54367173988E+02  0.40000204739E+02 0.  0.
        -12    1    3    3    0    0  0.26978335361E+02  0.24117404344E+02  0.68039295360E+01  0.36820826012E+02  0.00000000000E+00 0.  1.
         11    1    4    4    0    0 -0.21169349847E+02 -0.18113056604E+02 -0.54732759817E+01  0.28393325672E+02  0.51100000000E-03 0. -1.
        -11    1    4    4    0    0  0.58268033878E+00 -0.74225694493E+01  0.10251120242E+02  0.12669629832E+02  0.51100000000E-03 0.  1.
        -12    1    4    4    0    0 -0.63916658526E+01  0.14182217095E+01 -0.11581773796E+02  0.13304218484E+02  0.00000000000E+00 0.  1.
</event>
<event>
 8    1  0.2490104E-006  0.9118800E+02  0.7816164E-02  0.1184000E+00
        -11   -1    0    0    0    0  0.00000000000E+00  0.00000000000E+00  0.45593999997E+02  0.45594000000E+02  0.51100000000E-03 0. -1.
         11   -1    0    0    0    0 -0.00000000000E+00 -0.00000000000E+00 -0.45593999997E+02  0.45594000000E+02  0.51100000000E-03 0.  1.
         23    2    1    2    0    0  0.00000000000E+00 -0.88817841970E-15  0.00000000000E+00  0.91188000000E+02  0.91188000000E+02 0.  0.
    9900012    2    3    3    0    0  0.58509308585E+01 -0.51766795850E+01 -0.35982603457E+02  0.54367093507E+02  0.40000021267E+02 0.  0.
         12    1    3    3    0    0 -0.58509308585E+01  0.51766795850E+01  0.35982603457E+02  0.36820906493E+02  0.00000000000E+00 0. -1.
         11    1    4    4    0    0  0.72765487268E+01  0.11494322278E+02 -0.17745899520E+02  0.22360334435E+02  0.51100000000E-03 0. -1.
        -11    1    4    4    0    0 -0.61089066954E+01 -0.53480844937E+01 -0.18005413732E+02  0.19751346098E+02  0.51100000000E-03 0.  1.
        -12    1    4    4    0    0  0.46832888270E+01 -0.11322917369E+02 -0.23129020504E+00  0.12255412973E+02  0.00000000000E+00 0.  1.
</event>
<event>
 8    1  0.2490104E-006  0.9118800E+02  0.7816164E-02  0.1184000E+00
        -11   -1    0    0    0    0  0.00000000000E+00  0.00000000000E+00  0.45593999997E+02  0.45594000000E+02  0.51100000000E-03 0.  1.
         11   -1    0    0    0    0 -0.00000000000E+00 -0.00000000000E+00 -0.45593999997E+02  0.45594000000E+02  0.51100000000E-03 0. -1.
         23    2    1    2    0    0 -0.55511151231E-15  0.00000000000E+00  0.00000000000E+00  0.91188000000E+02  0.91188000000E+02 0.  0.
    9900012    2    3    3    0    0  0.82840477623E+00  0.96226809916E+01  0.35531659640E+02  0.54367067357E+02  0.39999961654E+02 0.  0.
         12    1    3    3    0    0 -0.82840477623E+00 -0.96226809916E+01 -0.35531659640E+02  0.36820932643E+02  0.00000000000E+00 0. -1.
         11    1    4    4    0    0  0.44397199103E+01 -0.13185093976E+02  0.28671308436E+01  0.14204867320E+02  0.51100000000E-03 0. -1.
        -11    1    4    4    0    0  0.53465524512E+00  0.22855020449E+01  0.23595787184E+01  0.33282109034E+01  0.51100000000E-03 0.  1.
         12    1    4    4    0    0 -0.41459703792E+01  0.20522272923E+02  0.30304950078E+02  0.36833989134E+02  0.00000000000E+00 0. -1.
</event>
<event>
 8    1  0.2490104E-006  0.9118800E+02  0.7816164E-02  0.1184000E+00
        -11   -1    0    0    0    0  0.00000000000E+00  0.00000000000E+00  0.45593999997E+02  0.45594000000E+02  0.51100000000E-03 0.  1.
         11   -1    0    0    0    0 -0.00000000000E+00 -0.00000000000E+00 -0.45593999997E+02  0.45594000000E+02  0.51100000000E-03 0. -1.
         23    2    1    2    0    0  0.00000000000E+00 -0.17763568394E-14  0.00000000000E+00  0.91188000000E+02  0.91188000000E+02 0.  0.
    9900012    2    3    3    0    0  0.84498422127E+01  0.92088164465E+01 -0.34634951403E+02  0.54367054976E+02  0.39999933428E+02 0.  0.
        -12    1    3    3    0    0 -0.84498422127E+01 -0.92088164465E+01  0.34634951403E+02  0.36820945024E+02  0.00000000000E+00 0.  1.
         11    1    4    4    0    0 -0.12161546631E+01 -0.11768459226E+01 -0.37953492834E+02  0.37991204469E+02  0.51100000000E-03 0. -1.
        -11    1    4    4    0    0  0.88688516781E+01  0.10185508036E+02  0.58153946698E+00  0.13518109796E+02  0.51100000000E-03 0.  1.
         12    1    4    4    0    0  0.79714519772E+00  0.20015433298E+00  0.27370019633E+01  0.28577407108E+01  0.00000000000E+00 0. -1.
</event>
<event>
 8    1  0.2490104E-006  0.9118800E+02  0.7816164E-02  0.1184000E+00
        -11   -1    0    0    0    0  0.00000000000E+00  0.00000000000E+00  0.45593999997E+02  0.45594000000E+02  0.51100000000E-03 0. -1.
         11   -1    0    0    0    0 -0.00000000000E+00 -0.00000000000E+00 -0.45593999997E+02  0.45594000000E+02  0.51100000000E-03 0.  1.
         23    2    1    2    0    0  0.35527136788E-14 -0.88817841970E-15  0.35527136788E-14  0.91188000000E+02  0.91188000000E+02 0.  0.
    9900012    2    3    3    0    0  0.31362410035E+02 -0.74627922039E+01  0.17790054070E+02  0.54367081292E+02  0.39999993422E+02 0.  0.
         12    1    3    3    0    0 -0.31362410035E+02  0.74627922039E+01 -0.17790054070E+02  0.36820918708E+02  0.00000000000E+00 0. -1.
         11    1    4    4    0    0  0.39631149996E+01  0.19259525356E+01  0.93088975097E+00  0.45035685472E+01  0.51100000000E-03 0. -1.
        -11    1    4    4    0    0  0.26309768904E+02  0.90063757600E+01  0.14266598334E+02  0.31254672809E+02  0.51100000000E-03 0.  1.
         12    1    4    4    0    0  0.10895261310E+01 -0.18395120500E+02  0.25925659850E+01  0.18608839936E+02  0.00000000000E+00 0. -1.
</event>
<event>
 8    1  0.2490104E-006  0.9118800E+02  0.7816164E-02  0.1184000E+00
        -11   -1    0    0    0    0  0.00000000000E+00  0.00000000000E+00  0.45593999997E+02  0.45594000000E+02  0.51100000000E-03 0. -1.
         11   -1    0    0    0    0 -0.00000000000E+00 -0.00000000000E+00 -0.45593999997E+02  0.45594000000E+02  0.51100000000E-03 0.  1.
         23    2    1    2    0    0  0.00000000000E+00  0.00000000000E+00  0.88817841970E-15  0.91188000000E+02  0.91188000000E+02 0.  0.
    9900012    2    3    3    0    0 -0.32238675635E+02  0.16743168800E+02  0.60095774560E+01  0.54367069411E+02  0.39999966337E+02 0.  0.
         12    1    3    3    0    0  0.32238675635E+02 -0.16743168800E+02 -0.60095774560E+01  0.36820930589E+02  0.00000000000E+00 0. -1.
         11    1    4    4    0    0 -0.79279899580E+01  0.65690672142E+01 -0.93978561973E+01  0.13940063494E+02  0.51100000000E-03 0. -1.
        -11    1    4    4    0    0 -0.15227317790E+02  0.79766880182E+01 -0.50664009651E+01  0.17921137737E+02  0.51100000000E-03 0.  1.
         12    1    4    4    0    0 -0.90833678878E+01  0.21974135681E+01  0.20473834618E+02  0.22505868180E+02  0.00000000000E+00 0. -1.
</event>
<event>
 8    1  0.2490104E-006  0.9118800E+02  0.7816164E-02  0.1184000E+00
        -11   -1    0    0    0    0  0.00000000000E+00  0.00000000000E+00  0.45593999997E+02  0.45594000000E+02  0.51100000000E-03 0. -1.
         11   -1    0    0    0    0 -0.00000000000E+00 -0.00000000000E+00 -0.45593999997E+02  0.45594000000E+02  0.51100000000E-03 0.  1.
         23    2    1    2    0    0 -0.35527136788E-14  0.00000000000E+00 -0.35527136788E-14  0.91188000000E+02  0.91188000000E+02 0.  0.
    9900012    2    3    3    0    0 -0.26372085256E+02  0.15500373324E+02 -0.20494659867E+02  0.54367088319E+02  0.40000009440E+02 0.  0.
         12    1    3    3    0    0  0.26372085256E+02 -0.15500373324E+02  0.20494659867E+02  0.36820911681E+02  0.00000000000E+00 0. -1.
         11    1    4    4    0    0 -0.11860725580E+02 -0.44738479678E+00  0.79484239085E+01  0.14284761367E+02  0.51100000000E-03 0. -1.
        -11    1    4    4    0    0 -0.30562793873E+01  0.50921635477E+01  0.15962219492E+01  0.61497071525E+01  0.51100000000E-03 0.  1.
         12    1    4    4    0    0 -0.11455080290E+02  0.10855594573E+02 -0.30039305725E+02  0.33932619799E+02  0.00000000000E+00 0. -1.
</event>
<event>
 8    1  0.2490104E-006  0.9118800E+02  0.7816164E-02  0.1184000E+00
        -11   -1    0    0    0    0  0.00000000000E+00  0.00000000000E+00  0.45593999997E+02  0.45594000000E+02  0.51100000000E-03 0.  1.
         11   -1    0    0    0    0 -0.00000000000E+00 -0.00000000000E+00 -0.45593999997E+02  0.45594000000E+02  0.51100000000E-03 0. -1.
         23    2    1    2    0    0  0.00000000000E+00  0.00000000000E+00 -0.35527136788E-14  0.91188000000E+02  0.91188000000E+02 0.  0.
    9900012    2    3    3    0    0  0.32466674946E+02  0.14480118521E+02 -0.95929103824E+01  0.54367044770E+02  0.39999910162E+02 0.  0.
        -12    1    3    3    0    0 -0.32466674946E+02 -0.14480118521E+02  0.95929103824E+01  0.36820955230E+02  0.00000000000E+00 0.  1.
         11    1    4    4    0    0  0.31388472769E+02  0.11887231877E+02  0.59671513315E+00  0.33569309997E+02  0.51100000000E-03 0. -1.
        -11    1    4    4    0    0 -0.10521669697E+01 -0.65625672052E+01 -0.91944741163E+01  0.11345161885E+02  0.51100000000E-03 0.  1.
         12    1    4    4    0    0  0.21303691463E+01  0.91554538500E+01 -0.99515139922E+00  0.94525728882E+01  0.00000000000E+00 0. -1.
</event>
<event>
 8    1  0.2490104E-006  0.9118800E+02  0.7816164E-02  0.1184000E+00
        -11   -1    0    0    0    0  0.00000000000E+00  0.00000000000E+00  0.45593999997E+02  0.45594000000E+02  0.51100000000E-03 0. -1.
         11   -1    0    0    0    0 -0.00000000000E+00 -0.00000000000E+00 -0.45593999997E+02  0.45594000000E+02  0.51100000000E-03 0.  1.
         23    2    1    2    0    0  0.44408920985E-15  0.00000000000E+00 -0.17763568394E-14  0.91188000000E+02  0.91188000000E+02 0.  0.
    9900012    2    3    3    0    0 -0.23417512762E+01 -0.33576622233E+02 -0.14930072099E+02  0.54367076430E+02  0.39999982338E+02 0.  0.
         12    1    3    3    0    0  0.23417512762E+01  0.33576622233E+02  0.14930072099E+02  0.36820923570E+02  0.00000000000E+00 0. -1.
         11    1    4    4    0    0 -0.12161736200E+02 -0.11112414539E+02  0.53488200074E+01  0.17320607957E+02  0.51100000000E-03 0. -1.
        -11    1    4    4    0    0  0.13495346179E+02 -0.95200779426E+01 -0.15823446950E+02  0.22872204227E+02  0.51100000000E-03 0.  1.
        -12    1    4    4    0    0 -0.36753612559E+01 -0.12944129751E+02 -0.44554451563E+01  0.14174264246E+02  0.00000000000E+00 0.  1.
</event>
<event>
 8    1  0.2490104E-006  0.9118800E+02  0.7816164E-02  0.1184000E+00
        -11   -1    0    0    0    0  0.00000000000E+00  0.00000000000E+00  0.45593999997E+02  0.45594000000E+02  0.51100000000E-03 0.  1.
         11   -1    0    0    0    0 -0.00000000000E+00 -0.00000000000E+00 -0.45593999997E+02  0.45594000000E+02  0.51100000000E-03 0. -1.
         23    2    1    2    0    0  0.00000000000E+00  0.17763568394E-14  0.00000000000E+00  0.91188000000E+02  0.91188000000E+02 0.  0.
    9900012    2    3    3    0    0  0.18469946814E+02  0.14810452986E+02 -0.28200928665E+02  0.54367070754E+02  0.39999969399E+02 0.  0.
        -12    1    3    3    0    0 -0.18469946814E+02 -0.14810452986E+02  0.28200928665E+02  0.36820929246E+02  0.00000000000E+00 0.  1.
         11    1    4    4    0    0  0.95194740162E+01 -0.48736305068E+01 -0.83102039308E+00  0.10726754170E+02  0.51100000000E-03 0. -1.
        -11    1    4    4    0    0 -0.94423033813E+00  0.21782159489E+02 -0.11056980096E+02  0.24446080504E+02  0.51100000000E-03 0.  1.
         12    1    4    4    0    0  0.98947031358E+01 -0.20980759960E+01 -0.16312928176E+02  0.19194236080E+02  0.00000000000E+00 0. -1.
</event>
<event>
 8    1  0.2490104E-006  0.9118800E+02  0.7816164E-02  0.1184000E+00
        -11   -1    0    0    0    0  0.00000000000E+00  0.00000000000E+00  0.45593999997E+02  0.45594000000E+02  0.51100000000E-03 0.  1.
         11   -1    0    0    0    0 -0.00000000000E+00 -0.00000000000E+00 -0.45593999997E+02  0.45594000000E+02  0.51100000000E-03 0. -1.
         23    2    1    2    0    0  0.00000000000E+00  0.00000000000E+00  0.00000000000E+00  0.91188000000E+02  0.91188000000E+02 0.  0.
    9900012    2    3    3    0    0 -0.82744977942E+01 -0.34184327809E+02  0.10897039116E+02  0.54367067869E+02  0.39999962821E+02 0.  0.
         12    1    3    3    0    0  0.82744977942E+01  0.34184327809E+02 -0.10897039116E+02  0.36820932131E+02  0.00000000000E+00 0. -1.
         11    1    4    4    0    0 -0.11491070183E+01 -0.24066482629E+02 -0.29354717847E+01  0.24272062704E+02  0.51100000000E-03 0. -1.
        -11    1    4    4    0    0  0.35454697971E+01 -0.13570468306E+02  0.12523505356E+02  0.18803354828E+02  0.51100000000E-03 0.  1.
        -12    1    4    4    0    0 -0.10670860573E+02  0.34526231258E+01  0.13090055448E+01  0.11291650337E+02  0.00000000000E+00 0.  1.
</event>
<event>
 8    1  0.2490104E-006  0.9118800E+02  0.7816164E-02  0.1184000E+00
        -11   -1    0    0    0    0  0.00000000000E+00  0.00000000000E+00  0.45593999997E+02  0.45594000000E+02  0.51100000000E-03 0.  1.
         11   -1    0    0    0    0 -0.00000000000E+00 -0.00000000000E+00 -0.45593999997E+02  0.45594000000E+02  0.51100000000E-03 0. -1.
         23    2    1    2    0    0  0.22204460493E-15 -0.35527136788E-14  0.35527136788E-14  0.91188000000E+02  0.91188000000E+02 0.  0.
    9900012    2    3    3    0    0  0.11600856775E+01  0.24207476447E+02 -0.27720603497E+02  0.54367087831E+02  0.40000008327E+02 0.  0.
        -12    1    3    3    0    0 -0.11600856775E+01 -0.24207476447E+02  0.27720603497E+02  0.36820912169E+02  0.00000000000E+00 0.  1.
         11    1    4    4    0    0 -0.78671048948E+01  0.17691749458E+02 -0.97137513809E+01  0.21662093723E+02  0.51100000000E-03 0. -1.
        -11    1    4    4    0    0  0.11844890350E+02  0.57716697671E-03  0.15068307813E+01  0.11940350372E+02  0.51100000000E-03 0.  1.
         12    1    4    4    0    0 -0.28176997775E+01  0.65151498221E+01 -0.19513682898E+02  0.20764643736E+02  0.00000000000E+00 0. -1.
</event>
<event>
 8    1  0.2490104E-006  0.9118800E+02  0.7816164E-02  0.1184000E+00
        -11   -1    0    0    0    0  0.00000000000E+00  0.00000000000E+00  0.45593999997E+02  0.45594000000E+02  0.51100000000E-03 0.  1.
         11   -1    0    0    0    0 -0.00000000000E+00 -0.00000000000E+00 -0.45593999997E+02  0.45594000000E+02  0.51100000000E-03 0. -1.
         23    2    1    2    0    0  0.17763568394E-14 -0.31086244690E-14  0.00000000000E+00  0.91188000000E+02  0.91188000000E+02 0.  0.
    9900012    2    3    3    0    0  0.13117030567E+02  0.26179588812E+01  0.34305545447E+02  0.54367073232E+02  0.39999975048E+02 0.  0.
         12    1    3    3    0    0 -0.13117030567E+02 -0.26179588812E+01 -0.34305545447E+02  0.36820926768E+02  0.00000000000E+00 0. -1.
         11    1    4    4    0    0  0.14233243763E+01 -0.47381069869E+01  0.51575992284E+01  0.71467713102E+01  0.51100000000E-03 0. -1.
        -11    1    4    4    0    0  0.98871071209E+01 -0.11318647219E+02  0.34801800842E+01  0.15426545814E+02  0.51100000000E-03 0.  1.
        -12    1    4    4    0    0  0.18065990696E+01  0.18674713087E+02  0.25667766135E+02  0.31793756108E+02  0.00000000000E+00 0.  1.
</event>
<event>
 8    1  0.2490104E-006  0.9118800E+02  0.7816164E-02  0.1184000E+00
        -11   -1    0    0    0    0  0.00000000000E+00  0.00000000000E+00  0.45593999997E+02  0.45594000000E+02  0.51100000000E-03 0.  1.
         11   -1    0    0    0    0 -0.00000000000E+00 -0.00000000000E+00 -0.45593999997E+02  0.45594000000E+02  0.51100000000E-03 0. -1.
         23    2    1    2    0    0  0.00000000000E+00  0.00000000000E+00  0.00000000000E+00  0.91188000000E+02  0.91188000000E+02 0.  0.
    9900012    2    3    3    0    0 -0.10757787699E+02  0.35208347513E+02  0.65054413076E+00  0.54367069289E+02  0.39999966058E+02 0.  0.
         12    1    3    3    0    0  0.10757787699E+02 -0.35208347513E+02 -0.65054413076E+00  0.36820930711E+02  0.00000000000E+00 0. -1.
         11    1    4    4    0    0 -0.48035606677E+01  0.73993200593E+00  0.80280574196E+01  0.93846364157E+01  0.51100000000E-03 0. -1.
        -11    1    4    4    0    0 -0.12042666705E+02  0.45123801194E+01  0.19843237750E+01  0.13012491569E+02  0.51100000000E-03 0.  1.
         12    1    4    4    0    0  0.60884396738E+01  0.29956035388E+02 -0.93618370639E+01  0.31969941305E+02  0.00000000000E+00 0. -1.
</event>
<event>
 8    1  0.2490104E-006  0.9118800E+02  0.7816164E-02  0.1184000E+00
        -11   -1    0    0    0    0  0.00000000000E+00  0.00000000000E+00  0.45593999997E+02  0.45594000000E+02  0.51100000000E-03 0. -1.
         11   -1    0    0    0    0 -0.00000000000E+00 -0.00000000000E+00 -0.45593999997E+02  0.45594000000E+02  0.51100000000E-03 0.  1.
         23    2    1    2    0    0  0.00000000000E+00  0.00000000000E+00  0.00000000000E+00  0.91188000000E+02  0.91188000000E+02 0.  0.
    9900012    2    3    3    0    0 -0.86362535035E+01  0.34748755765E+02 -0.85860481687E+01  0.54367066756E+02  0.39999960284E+02 0.  0.
         12    1    3    3    0    0  0.86362535035E+01 -0.34748755765E+02  0.85860481687E+01  0.36820933244E+02  0.00000000000E+00 0. -1.
         11    1    4    4    0    0 -0.14527443450E+02  0.20615619278E+02  0.85072684020E+01  0.26616235409E+02  0.51100000000E-03 0. -1.
        -11    1    4    4    0    0  0.11241844351E+02  0.97190406722E+01 -0.12628038776E+02  0.19501440449E+02  0.51100000000E-03 0.  1.
         12    1    4    4    0    0 -0.53506544041E+01  0.44140958150E+01 -0.44652777949E+01  0.82493908988E+01  0.00000000000E+00 0. -1.
</event>
<event>
 8    1  0.2490104E-006  0.9118800E+02  0.7816164E-02  0.1184000E+00
        -11   -1    0    0    0    0  0.00000000000E+00  0.00000000000E+00  0.45593999997E+02  0.45594000000E+02  0.51100000000E-03 0. -1.
         11   -1    0    0    0    0 -0.00000000000E+00 -0.00000000000E+00 -0.45593999997E+02  0.45594000000E+02  0.51100000000E-03 0.  1.
         23    2    1    2    0    0 -0.17763568394E-14  0.00000000000E+00  0.00000000000E+00  0.91188000000E+02  0.91188000000E+02 0.  0.
    9900012    2    3    3    0    0 -0.12452018555E+02  0.11258509481E+02  0.32771533373E+02  0.54367079297E+02  0.39999988873E+02 0.  0.
        -12    1    3    3    0    0  0.12452018555E+02 -0.11258509481E+02 -0.32771533373E+02  0.36820920703E+02  0.00000000000E+00 0.  1.
         11    1    4    4    0    0  0.31590422074E+01  0.11387189475E+02  0.11121588622E+02  0.16227672832E+02  0.51100000000E-03 0. -1.
        -11    1    4    4    0    0 -0.82378483654E+01  0.12121816484E+02  0.35620732608E+01  0.15082736713E+02  0.51100000000E-03 0.  1.
         12    1    4    4    0    0 -0.73732123971E+01 -0.12250496478E+02  0.18087871490E+02  0.23056669752E+02  0.00000000000E+00 0. -1.
</event>
<event>
 8    1  0.2490104E-006  0.9118800E+02  0.7816164E-02  0.1184000E+00
        -11   -1    0    0    0    0  0.00000000000E+00  0.00000000000E+00  0.45593999997E+02  0.45594000000E+02  0.51100000000E-03 0. -1.
         11   -1    0    0    0    0 -0.00000000000E+00 -0.00000000000E+00 -0.45593999997E+02  0.45594000000E+02  0.51100000000E-03 0.  1.
         23    2    1    2    0    0  0.00000000000E+00  0.35527136788E-14  0.88817841970E-15  0.91188000000E+02  0.91188000000E+02 0.  0.
    9900012    2    3    3    0    0  0.32213387287E+02  0.17227742245E+02  0.46133134693E+01  0.54367080884E+02  0.39999992492E+02 0.  0.
        -12    1    3    3    0    0 -0.32213387287E+02 -0.17227742245E+02 -0.46133134693E+01  0.36820919116E+02  0.00000000000E+00 0.  1.
         11    1    4    4    0    0  0.17112231120E+02  0.12087090830E+02 -0.72797471421E+01  0.22179290732E+02  0.51100000000E-03 0. -1.
        -11    1    4    4    0    0  0.14099055222E+02 -0.12585640319E+01 -0.42618247887E+01  0.14782776882E+02  0.51100000000E-03 0.  1.
         12    1    4    4    0    0  0.10021009451E+01  0.63992154468E+01  0.16154885400E+02  0.17405013270E+02  0.00000000000E+00 0. -1.
</event>
<event>
 8    1  0.2490104E-006  0.9118800E+02  0.7816164E-02  0.1184000E+00
        -11   -1    0    0    0    0  0.00000000000E+00  0.00000000000E+00  0.45593999997E+02  0.45594000000E+02  0.51100000000E-03 0.  1.
         11   -1    0    0    0    0 -0.00000000000E+00 -0.00000000000E+00 -0.45593999997E+02  0.45594000000E+02  0.51100000000E-03 0. -1.
         23    2    1    2    0    0  0.35527136788E-14  0.00000000000E+00 -0.26645352591E-14  0.91188000000E+02  0.91188000000E+02 0.  0.
    9900012    2    3    3    0    0  0.29426154448E+02 -0.21623009305E+02 -0.47248588963E+01  0.54367117493E+02  0.40000075948E+02 0.  0.
         12    1    3    3    0    0 -0.29426154448E+02  0.21623009305E+02  0.47248588963E+01  0.36820882507E+02  0.00000000000E+00 0. -1.
         11    1    4    4    0    0  0.10071810668E+02  0.13304251814E+01  0.62544942271E+01  0.11930217919E+02  0.51100000000E-03 0. -1.
        -11    1    4    4    0    0 -0.25958422063E+01 -0.14510315928E+01  0.64557456538E+01  0.71077803604E+01  0.51100000000E-03 0.  1.
         12    1    4    4    0    0  0.21950185987E+02 -0.21502402893E+02 -0.17435098777E+02  0.35329119214E+02  0.00000000000E+00 0. -1.
</event>
<event>
 8    1  0.2490104E-006  0.9118800E+02  0.7816164E-02  0.1184000E+00
        -11   -1    0    0    0    0  0.00000000000E+00  0.00000000000E+00  0.45593999997E+02  0.45594000000E+02  0.51100000000E-03 0. -1.
         11   -1    0    0    0    0 -0.00000000000E+00 -0.00000000000E+00 -0.45593999997E+02  0.45594000000E+02  0.51100000000E-03 0.  1.
         23    2    1    2    0    0  0.00000000000E+00  0.55511151231E-16  0.00000000000E+00  0.91188000000E+02  0.91188000000E+02 0.  0.
    9900012    2    3    3    0    0 -0.35221209150E+02 -0.20201820149E+00  0.10733401290E+02  0.54367078113E+02  0.39999986174E+02 0.  0.
         12    1    3    3    0    0  0.35221209150E+02  0.20201820149E+00 -0.10733401290E+02  0.36820921887E+02  0.00000000000E+00 0. -1.
         11    1    4    4    0    0 -0.19676588442E+02 -0.11612793120E+01  0.18459243083E+01  0.19797074005E+02  0.51100000000E-03 0. -1.
        -11    1    4    4    0    0 -0.22056964084E+02 -0.54997111847E+01  0.14803783985E+01  0.22780430377E+02  0.51100000000E-03 0.  1.
         12    1    4    4    0    0  0.65123433749E+01  0.64589722952E+01  0.74070985830E+01  0.11789573731E+02  0.00000000000E+00 0. -1.
</event>
<event>
 8    1  0.2490104E-006  0.9118800E+02  0.7816164E-02  0.1184000E+00
        -11   -1    0    0    0    0  0.00000000000E+00  0.00000000000E+00  0.45593999997E+02  0.45594000000E+02  0.51100000000E-03 0. -1.
         11   -1    0    0    0    0 -0.00000000000E+00 -0.00000000000E+00 -0.45593999997E+02  0.45594000000E+02  0.51100000000E-03 0.  1.
         23    2    1    2    0    0  0.00000000000E+00 -0.35527136788E-14 -0.22204460493E-15  0.91188000000E+02  0.91188000000E+02 0.  0.
    9900012    2    3    3    0    0 -0.27873974387E+02 -0.24058679323E+02  0.38518107587E-01  0.54367082269E+02  0.39999995650E+02 0.  0.
         12    1    3    3    0    0  0.27873974387E+02  0.24058679323E+02 -0.38518107587E-01  0.36820917731E+02  0.00000000000E+00 0. -1.
         11    1    4    4    0    0 -0.22736798905E+02  0.49313753793E+00  0.42402096616E+01  0.23134056871E+02  0.51100000000E-03 0.  1.
        -11    1    4    4    0    0 -0.14396051879E+01 -0.33216445058E+01  0.62957982618E+01  0.72624280606E+01  0.51100000000E-03 0. -1.
        -12    1    4    4    0    0 -0.36975702939E+01 -0.21230172355E+02 -0.10497489816E+02  0.23970597338E+02  0.00000000000E+00 0.  1.
</event>
<event>
 8    1  0.2490104E-006  0.9118800E+02  0.7816164E-02  0.1184000E+00
        -11   -1    0    0    0    0  0.00000000000E+00  0.00000000000E+00  0.45593999997E+02  0.45594000000E+02  0.51100000000E-03 0.  1.
         11   -1    0    0    0    0 -0.00000000000E+00 -0.00000000000E+00 -0.45593999997E+02  0.45594000000E+02  0.51100000000E-03 0. -1.
         23    2    1    2    0    0  0.35527136788E-14  0.00000000000E+00 -0.71054273576E-14  0.91188000000E+02  0.91188000000E+02 0.  0.
    9900012    2    3    3    0    0  0.22555298458E+02 -0.20041227726E+02 -0.21104215559E+02  0.54367079158E+02  0.39999988558E+02 0.  0.
        -12    1    3    3    0    0 -0.22555298458E+02  0.20041227726E+02  0.21104215559E+02  0.36820920842E+02  0.00000000000E+00 0.  1.
         11    1    4    4    0    0 -0.39423001284E+01 -0.95930147231E+01  0.91734131571E-01  0.10371888796E+02  0.51100000000E-03 0. -1.
        -11    1    4    4    0    0  0.24598218082E+02 -0.15788742643E+02 -0.90608699055E+01  0.30601570071E+02  0.51100000000E-03 0.  1.
         12    1    4    4    0    0  0.18993805035E+01  0.53405296406E+01 -0.12135079785E+02  0.13393620292E+02  0.00000000000E+00 0. -1.
</event>
<event>
 8    1  0.2490104E-006  0.9118800E+02  0.7816164E-02  0.1184000E+00
        -11   -1    0    0    0    0  0.00000000000E+00  0.00000000000E+00  0.45593999997E+02  0.45594000000E+02  0.51100000000E-03 0.  1.
         11   -1    0    0    0    0 -0.00000000000E+00 -0.00000000000E+00 -0.45593999997E+02  0.45594000000E+02  0.51100000000E-03 0. -1.
         23    2    1    2    0    0 -0.44408920985E-15  0.35527136788E-14  0.71054273576E-14  0.91188000000E+02  0.91188000000E+02 0.  0.
    9900012    2    3    3    0    0 -0.38179431866E+01 -0.26463301914E+02 -0.25315918431E+02  0.54367098811E+02  0.40000033360E+02 0.  0.
        -12    1    3    3    0    0  0.38179431866E+01  0.26463301914E+02  0.25315918431E+02  0.36820901189E+02  0.00000000000E+00 0.  1.
         11    1    4    4    0    0 -0.41782571041E+01 -0.70051323310E+01  0.55729759959E+01  0.98786523937E+01  0.51100000000E-03 0. -1.
        -11    1    4    4    0    0  0.77214525210E+01 -0.68375616925E+01  0.51968063034E-02  0.10313733863E+02  0.51100000000E-03 0.  1.
         12    1    4    4    0    0 -0.73611386035E+01 -0.12620607890E+02 -0.30894091233E+02  0.34174712554E+02  0.00000000000E+00 0. -1.
</event>
<event>
 8    1  0.2490104E-006  0.9118800E+02  0.7816164E-02  0.1184000E+00
        -11   -1    0    0    0    0  0.00000000000E+00  0.00000000000E+00  0.45593999997E+02  0.45594000000E+02  0.51100000000E-03 0. -1.
         11   -1    0    0    0    0 -0.00000000000E+00 -0.00000000000E+00 -0.45593999997E+02  0.45594000000E+02  0.51100000000E-03 0.  1.
         23    2    1    2    0    0 -0.17763568394E-14  0.00000000000E+00  0.00000000000E+00  0.91188000000E+02  0.91188000000E+02 0.  0.
    9900012    2    3    3    0    0 -0.12165072309E+02 -0.32977849129E+02 -0.10966041913E+02  0.54367060405E+02  0.39999945804E+02 0.  0.
        -12    1    3    3    0    0  0.12165072309E+02  0.32977849129E+02  0.10966041913E+02  0.36820939595E+02  0.00000000000E+00 0.  1.
         11    1    4    4    0    0 -0.17764673429E+02 -0.20854056548E+02 -0.80781316329E+01  0.28561013769E+02  0.51100000000E-03 0. -1.
        -11    1    4    4    0    0  0.31853251018E+01 -0.12341077830E+02 -0.11311211109E+02  0.17040891849E+02  0.51100000000E-03 0.  1.
         12    1    4    4    0    0  0.24142760178E+01  0.21728524932E+00  0.84233008293E+01  0.87651547865E+01  0.00000000000E+00 0. -1.
</event>
<event>
 8    1  0.2490104E-006  0.9118800E+02  0.7816164E-02  0.1184000E+00
        -11   -1    0    0    0    0  0.00000000000E+00  0.00000000000E+00  0.45593999997E+02  0.45594000000E+02  0.51100000000E-03 0. -1.
         11   -1    0    0    0    0 -0.00000000000E+00 -0.00000000000E+00 -0.45593999997E+02  0.45594000000E+02  0.51100000000E-03 0.  1.
         23    2    1    2    0    0 -0.17763568394E-14  0.00000000000E+00  0.00000000000E+00  0.91188000000E+02  0.91188000000E+02 0.  0.
    9900012    2    3    3    0    0 -0.14616734982E+02  0.21099404963E+02 -0.26399716357E+02  0.54367097580E+02  0.40000030552E+02 0.  0.
         12    1    3    3    0    0  0.14616734982E+02 -0.21099404963E+02  0.26399716357E+02  0.36820902420E+02  0.00000000000E+00 0. -1.
         11    1    4    4    0    0 -0.89567185193E+01 -0.10659547986E+02 -0.12650776031E+02  0.18811988315E+02  0.51100000000E-03 0. -1.
        -11    1    4    4    0    0  0.96084400706E+00  0.13296175443E+01 -0.52533597745E+00  0.17225220377E+01  0.51100000000E-03 0.  1.
        -12    1    4    4    0    0 -0.66208604695E+01  0.30429335405E+02 -0.13223604348E+02  0.33832587227E+02  0.00000000000E+00 0.  1.
</event>
<event>
 8    1  0.2490104E-006  0.9118800E+02  0.7816164E-02  0.1184000E+00
        -11   -1    0    0    0    0  0.00000000000E+00  0.00000000000E+00  0.45593999997E+02  0.45594000000E+02  0.51100000000E-03 0.  1.
         11   -1    0    0    0    0 -0.00000000000E+00 -0.00000000000E+00 -0.45593999997E+02  0.45594000000E+02  0.51100000000E-03 0. -1.
         23    2    1    2    0    0 -0.17763568394E-14  0.00000000000E+00  0.71054273576E-14  0.91188000000E+02  0.91188000000E+02 0.  0.
    9900012    2    3    3    0    0  0.27292255746E+01  0.93348307152E+01 -0.35513266051E+02  0.54367084717E+02  0.40000001229E+02 0.  0.
        -12    1    3    3    0    0 -0.27292255746E+01 -0.93348307152E+01  0.35513266051E+02  0.36820915283E+02  0.00000000000E+00 0.  1.
         11    1    4    4    0    0  0.78647373972E+00  0.80646368130E+01 -0.15728924782E+02  0.17693388113E+02  0.51100000000E-03 0. -1.
        -11    1    4    4    0    0 -0.14283898473E+02 -0.95612560419E+00 -0.11234556709E+02  0.18197779987E+02  0.51100000000E-03 0.  1.
         12    1    4    4    0    0  0.16226650308E+02  0.22263195064E+01 -0.85497845597E+01  0.18475916616E+02  0.00000000000E+00 0. -1.
</event>
<event>
 8    1  0.2490104E-006  0.9118800E+02  0.7816164E-02  0.1184000E+00
        -11   -1    0    0    0    0  0.00000000000E+00  0.00000000000E+00  0.45593999997E+02  0.45594000000E+02  0.51100000000E-03 0. -1.
         11   -1    0    0    0    0 -0.00000000000E+00 -0.00000000000E+00 -0.45593999997E+02  0.45594000000E+02  0.51100000000E-03 0.  1.
         23    2    1    2    0    0  0.00000000000E+00  0.00000000000E+00  0.00000000000E+00  0.91188000000E+02  0.91188000000E+02 0.  0.
    9900012    2    3    3    0    0 -0.15296142890E+02 -0.25571500296E+02 -0.21631079136E+02  0.54367120064E+02  0.40000081809E+02 0.  0.
         12    1    3    3    0    0  0.15296142890E+02  0.25571500296E+02  0.21631079136E+02  0.36820879936E+02  0.00000000000E+00 0. -1.
         11    1    4    4    0    0 -0.31104734481E+01  0.14690555671E+00  0.20851382479E+01  0.37475896371E+01  0.51100000000E-03 0. -1.
        -11    1    4    4    0    0  0.12755282046E+01 -0.33164934074E+01  0.84544126794E+01  0.91707793964E+01  0.51100000000E-03 0.  1.
        -12    1    4    4    0    0 -0.13461197647E+02 -0.22401912445E+02 -0.32170630063E+02  0.41448751030E+02  0.00000000000E+00 0.  1.
</event>
<event>
 8    1  0.2490104E-006  0.9118800E+02  0.7816164E-02  0.1184000E+00
        -11   -1    0    0    0    0  0.00000000000E+00  0.00000000000E+00  0.45593999997E+02  0.45594000000E+02  0.51100000000E-03 0.  1.
         11   -1    0    0    0    0 -0.00000000000E+00 -0.00000000000E+00 -0.45593999997E+02  0.45594000000E+02  0.51100000000E-03 0. -1.
         23    2    1    2    0    0  0.00000000000E+00 -0.35527136788E-14  0.00000000000E+00  0.91188000000E+02  0.91188000000E+02 0.  0.
    9900012    2    3    3    0    0 -0.12753778282E+02 -0.30106329137E+02  0.16932993810E+02  0.54367133715E+02  0.40000112931E+02 0.  0.
         12    1    3    3    0    0  0.12753778282E+02  0.30106329137E+02 -0.16932993810E+02  0.36820866285E+02  0.00000000000E+00 0. -1.
         11    1    4    4    0    0 -0.34281301472E+01  0.70785651702E+00 -0.51733405627E+01  0.62463261197E+01  0.51100000000E-03 0. -1.
        -11    1    4    4    0    0  0.73306874652E+01 -0.22209626029E+02  0.82203753300E+01  0.24790745005E+02  0.51100000000E-03 0.  1.
         12    1    4    4    0    0 -0.16656335600E+02 -0.86045596249E+01  0.13885959043E+02  0.23330062591E+02  0.00000000000E+00 0. -1.
</event>
<event>
 8    1  0.2490104E-006  0.9118800E+02  0.7816164E-02  0.1184000E+00
        -11   -1    0    0    0    0  0.00000000000E+00  0.00000000000E+00  0.45593999997E+02  0.45594000000E+02  0.51100000000E-03 0.  1.
         11   -1    0    0    0    0 -0.00000000000E+00 -0.00000000000E+00 -0.45593999997E+02  0.45594000000E+02  0.51100000000E-03 0. -1.
         23    2    1    2    0    0  0.88817841970E-15 -0.71054273576E-14  0.17763568394E-14  0.91188000000E+02  0.91188000000E+02 0.  0.
    9900012    2    3    3    0    0  0.77937955753E+01 -0.33117338635E+02  0.14081144969E+02  0.54367081877E+02  0.39999994756E+02 0.  0.
         12    1    3    3    0    0 -0.77937955753E+01  0.33117338635E+02 -0.14081144969E+02  0.36820918123E+02  0.00000000000E+00 0. -1.
         11    1    4    4    0    0 -0.53457822042E+01 -0.58158243677E+01 -0.56842778023E+01  0.97320200804E+01  0.51100000000E-03 0. -1.
        -11    1    4    4    0    0  0.73275414582E+01 -0.25361279360E+02  0.27398007560E+01  0.26540419421E+02  0.51100000000E-03 0.  1.
         12    1    4    4    0    0  0.58120363212E+01 -0.19402349072E+01  0.17025622015E+02  0.18094642375E+02  0.00000000000E+00 0. -1.
</event>
<event>
 8    1  0.2490104E-006  0.9118800E+02  0.7816164E-02  0.1184000E+00
        -11   -1    0    0    0    0  0.00000000000E+00  0.00000000000E+00  0.45593999997E+02  0.45594000000E+02  0.51100000000E-03 0. -1.
         11   -1    0    0    0    0 -0.00000000000E+00 -0.00000000000E+00 -0.45593999997E+02  0.45594000000E+02  0.51100000000E-03 0.  1.
         23    2    1    2    0    0 -0.35527136788E-14  0.00000000000E+00 -0.35527136788E-14  0.91188000000E+02  0.91188000000E+02 0.  0.
    9900012    2    3    3    0    0  0.17292473132E+02 -0.15167136848E+02  0.28752524368E+02  0.54367091202E+02  0.40000016012E+02 0.  0.
        -12    1    3    3    0    0 -0.17292473132E+02  0.15167136848E+02 -0.28752524368E+02  0.36820908798E+02  0.00000000000E+00 0.  1.
         11    1    4    4    0    0 -0.95563259297E+00 -0.35661856513E+01  0.12231067378E+02  0.12776146650E+02  0.51100000000E-03 0. -1.
        -11    1    4    4    0    0 -0.43412775166E+01  0.36784583413E+01 -0.44211637932E+01  0.72058612109E+01  0.51100000000E-03 0.  1.
        -12    1    4    4    0    0  0.22589383242E+02 -0.15279409538E+02  0.20942620783E+02  0.34385083341E+02  0.00000000000E+00 0.  1.
</event>
<event>
 8    1  0.2490104E-006  0.9118800E+02  0.7816164E-02  0.1184000E+00
        -11   -1    0    0    0    0  0.00000000000E+00  0.00000000000E+00  0.45593999997E+02  0.45594000000E+02  0.51100000000E-03 0.  1.
         11   -1    0    0    0    0 -0.00000000000E+00 -0.00000000000E+00 -0.45593999997E+02  0.45594000000E+02  0.51100000000E-03 0. -1.
         23    2    1    2    0    0  0.17763568394E-14  0.00000000000E+00  0.00000000000E+00  0.91188000000E+02  0.91188000000E+02 0.  0.
    9900012    2    3    3    0    0  0.13846993169E+02  0.33767495350E+02 -0.48781696199E+01  0.54367088810E+02  0.40000010560E+02 0.  0.
        -12    1    3    3    0    0 -0.13846993169E+02 -0.33767495350E+02  0.48781696199E+01  0.36820911190E+02  0.00000000000E+00 0.  1.
         11    1    4    4    0    0  0.32214555907E+01  0.22532222250E+01 -0.50170887233E+01  0.63738501737E+01  0.51100000000E-03 0. -1.
        -11    1    4    4    0    0  0.16041738289E+02  0.14411497144E+02  0.13661471248E+02  0.25527718547E+02  0.51100000000E-03 0.  1.
        -12    1    4    4    0    0 -0.54162007107E+01  0.17102775981E+02 -0.13522552144E+02  0.22465520089E+02  0.00000000000E+00 0.  1.
</event>
<event>
 8    1  0.2490104E-006  0.9118800E+02  0.7816164E-02  0.1184000E+00
        -11   -1    0    0    0    0  0.00000000000E+00  0.00000000000E+00  0.45593999997E+02  0.45594000000E+02  0.51100000000E-03 0.  1.
         11   -1    0    0    0    0 -0.00000000000E+00 -0.00000000000E+00 -0.45593999997E+02  0.45594000000E+02  0.51100000000E-03 0. -1.
         23    2    1    2    0    0  0.00000000000E+00 -0.71054273576E-14  0.35527136788E-14  0.91188000000E+02  0.91188000000E+02 0.  0.
    9900012    2    3    3    0    0 -0.17402686312E+02 -0.28289644014E+02  0.15893787600E+02  0.54367218727E+02  0.40000306730E+02 0.  0.
        -12    1    3    3    0    0  0.17402686312E+02  0.28289644014E+02 -0.15893787600E+02  0.36820781273E+02  0.00000000000E+00 0.  1.
         11    1    4    4    0    0 -0.48436421841E+01 -0.99771782581E+01  0.30099828131E+01  0.11491951636E+02  0.51100000000E-03 0. -1.
        -11    1    4    4    0    0 -0.21867080836E+00 -0.22865144088E+02  0.17649210089E+02  0.28885242739E+02  0.51100000000E-03 0.  1.
         12    1    4    4    0    0 -0.12340373320E+02  0.45526783323E+01 -0.47654053020E+01  0.13990024352E+02  0.00000000000E+00 0. -1.
</event>
<event>
 8    1  0.2490104E-006  0.9118800E+02  0.7816164E-02  0.1184000E+00
        -11   -1    0    0    0    0  0.00000000000E+00  0.00000000000E+00  0.45593999997E+02  0.45594000000E+02  0.51100000000E-03 0.  1.
         11   -1    0    0    0    0 -0.00000000000E+00 -0.00000000000E+00 -0.45593999997E+02  0.45594000000E+02  0.51100000000E-03 0. -1.
         23    2    1    2    0    0  0.00000000000E+00 -0.35527136788E-14  0.17763568394E-14  0.91188000000E+02  0.91188000000E+02 0.  0.
    9900012    2    3    3    0    0  0.29335760320E+02  0.19106210018E+02 -0.11407963850E+02  0.54367139961E+02  0.40000127169E+02 0.  0.
        -12    1    3    3    0    0 -0.29335760320E+02 -0.19106210018E+02  0.11407963850E+02  0.36820860039E+02  0.00000000000E+00 0.  1.
         11    1    4    4    0    0  0.17783776909E+02  0.24337698336E+02 -0.96801365991E+01  0.31658984922E+02  0.51100000000E-03 0. -1.
        -11    1    4    4    0    0  0.16728368717E+02 -0.33651054062E+01 -0.21041637616E+01  0.17192724034E+02  0.51100000000E-03 0.  1.
         12    1    4    4    0    0 -0.51763853062E+01 -0.18663829109E+01  0.37633651091E+00  0.55154310056E+01  0.00000000000E+00 0. -1.
</event>
<event>
 8    1  0.2490104E-006  0.9118800E+02  0.7816164E-02  0.1184000E+00
        -11   -1    0    0    0    0  0.00000000000E+00  0.00000000000E+00  0.45593999997E+02  0.45594000000E+02  0.51100000000E-03 0. -1.
         11   -1    0    0    0    0 -0.00000000000E+00 -0.00000000000E+00 -0.45593999997E+02  0.45594000000E+02  0.51100000000E-03 0.  1.
         23    2    1    2    0    0  0.00000000000E+00 -0.71054273576E-14  0.00000000000E+00  0.91188000000E+02  0.91188000000E+02 0.  0.
    9900012    2    3    3    0    0 -0.14625007145E+02 -0.32289626714E+02 -0.99634752673E+01  0.54367059399E+02  0.39999943512E+02 0.  0.
         12    1    3    3    0    0  0.14625007145E+02  0.32289626714E+02  0.99634752673E+01  0.36820940601E+02  0.00000000000E+00 0. -1.
         11    1    4    4    0    0 -0.14553362183E+02 -0.21210636758E+02 -0.77656776798E+01  0.26870005817E+02  0.51100000000E-03 0. -1.
        -11    1    4    4    0    0 -0.10945946626E+02  0.89251454731E+00 -0.27254445936E+01  0.11315404466E+02  0.51100000000E-03 0.  1.
         12    1    4    4    0    0  0.10874301663E+02 -0.11971504503E+02  0.52764700609E+00  0.16181649115E+02  0.00000000000E+00 0. -1.
</event>
<event>
 8    1  0.2490104E-006  0.9118800E+02  0.7816164E-02  0.1184000E+00
        -11   -1    0    0    0    0  0.00000000000E+00  0.00000000000E+00  0.45593999997E+02  0.45594000000E+02  0.51100000000E-03 0.  1.
         11   -1    0    0    0    0 -0.00000000000E+00 -0.00000000000E+00 -0.45593999997E+02  0.45594000000E+02  0.51100000000E-03 0. -1.
         23    2    1    2    0    0  0.17763568394E-14  0.71054273576E-14  0.33306690739E-15  0.91188000000E+02  0.91188000000E+02 0.  0.
    9900012    2    3    3    0    0  0.10829001140E+02  0.35188735295E+02 -0.52855218280E+00  0.54366895661E+02  0.39999570235E+02 0.  0.
         12    1    3    3    0    0 -0.10829001140E+02 -0.35188735295E+02  0.52855218280E+00  0.36821104339E+02  0.00000000000E+00 0. -1.
         11    1    4    4    0    0  0.19055968949E+02  0.23688732670E+02 -0.83247070455E+01  0.31521211204E+02  0.51100000000E-03 0. -1.
        -11    1    4    4    0    0  0.41937636406E+01  0.21001988736E+01 -0.12220265478E+01  0.48468379307E+01  0.51100000000E-03 0.  1.
        -12    1    4    4    0    0 -0.12420731450E+02  0.93998037512E+01  0.90181814104E+01  0.17998846526E+02  0.00000000000E+00 0.  1.
</event>
<event>
 8    1  0.2490104E-006  0.9118800E+02  0.7816164E-02  0.1184000E+00
        -11   -1    0    0    0    0  0.00000000000E+00  0.00000000000E+00  0.45593999997E+02  0.45594000000E+02  0.51100000000E-03 0. -1.
         11   -1    0    0    0    0 -0.00000000000E+00 -0.00000000000E+00 -0.45593999997E+02  0.45594000000E+02  0.51100000000E-03 0.  1.
         23    2    1    2    0    0 -0.17763568394E-14  0.71054273576E-14 -0.17763568394E-14  0.91188000000E+02  0.91188000000E+02 0.  0.
    9900012    2    3    3    0    0 -0.81152224424E+01  0.35607117588E+02  0.46963688602E+01  0.54367088296E+02  0.40000009389E+02 0.  0.
        -12    1    3    3    0    0  0.81152224424E+01 -0.35607117588E+02 -0.46963688602E+01  0.36820911704E+02  0.00000000000E+00 0.  1.
         11    1    4    4    0    0 -0.19855241038E+02  0.25179889181E+02  0.63191415064E+00  0.32072678897E+02  0.51100000000E-03 0. -1.
        -11    1    4    4    0    0  0.33410243444E+01  0.27241899447E+01 -0.57966227941E+01  0.72238833464E+01  0.51100000000E-03 0.  1.
        -12    1    4    4    0    0  0.83989942516E+01  0.77030384621E+01  0.98610775037E+01  0.15070526053E+02  0.00000000000E+00 0.  1.
</event>
<event>
 8    1  0.2490104E-006  0.9118800E+02  0.7816164E-02  0.1184000E+00
        -11   -1    0    0    0    0  0.00000000000E+00  0.00000000000E+00  0.45593999997E+02  0.45594000000E+02  0.51100000000E-03 0. -1.
         11   -1    0    0    0    0 -0.00000000000E+00 -0.00000000000E+00 -0.45593999997E+02  0.45594000000E+02  0.51100000000E-03 0.  1.
         23    2    1    2    0    0  0.35527136788E-14  0.17763568394E-14 -0.17763568394E-14  0.91188000000E+02  0.91188000000E+02 0.  0.
    9900012    2    3    3    0    0 -0.31766384662E+02 -0.10996006887E+02  0.15025460730E+02  0.54367084312E+02  0.40000000306E+02 0.  0.
        -12    1    3    3    0    0  0.31766384662E+02  0.10996006887E+02 -0.15025460730E+02  0.36820915688E+02  0.00000000000E+00 0.  1.
         11    1    4    4    0    0 -0.20418821716E+02  0.73918554383E+01  0.11250511518E+02  0.24456938008E+02  0.51100000000E-03 0. -1.
        -11    1    4    4    0    0 -0.67985491394E+01 -0.79760480151E+01  0.11963438822E+02  0.15904762841E+02  0.51100000000E-03 0.  1.
        -12    1    4    4    0    0 -0.45490138071E+01 -0.10411814310E+02 -0.81884896098E+01  0.14005383462E+02  0.00000000000E+00 0.  1.
</event>
<event>
 8    1  0.2490104E-006  0.9118800E+02  0.7816164E-02  0.1184000E+00
        -11   -1    0    0    0    0  0.00000000000E+00  0.00000000000E+00  0.45593999997E+02  0.45594000000E+02  0.51100000000E-03 0.  1.
         11   -1    0    0    0    0 -0.00000000000E+00 -0.00000000000E+00 -0.45593999997E+02  0.45594000000E+02  0.51100000000E-03 0. -1.
         23    2    1    2    0    0  0.88817841970E-15 -0.88817841970E-15  0.00000000000E+00  0.91188000000E+02  0.91188000000E+02 0.  0.
    9900012    2    3    3    0    0 -0.46218070392E+01  0.66499318575E+01  0.35919316609E+02  0.54367082037E+02  0.39999995120E+02 0.  0.
         12    1    3    3    0    0  0.46218070392E+01 -0.66499318575E+01 -0.35919316609E+02  0.36820917963E+02  0.00000000000E+00 0. -1.
         11    1    4    4    0    0 -0.65214259479E+01  0.10391027827E+02  0.12558667037E+02  0.17556268786E+02  0.51100000000E-03 0. -1.
        -11    1    4    4    0    0 -0.12769480047E+02 -0.46285826972E+01  0.92177745955E+01  0.16414955596E+02  0.51100000000E-03 0.  1.
         12    1    4    4    0    0  0.14669098956E+02  0.88748672722E+00  0.14142874976E+02  0.20395857655E+02  0.00000000000E+00 0. -1.
</event>
<event>
 8    1  0.2490104E-006  0.9118800E+02  0.7816164E-02  0.1184000E+00
        -11   -1    0    0    0    0  0.00000000000E+00  0.00000000000E+00  0.45593999997E+02  0.45594000000E+02  0.51100000000E-03 0.  1.
         11   -1    0    0    0    0 -0.00000000000E+00 -0.00000000000E+00 -0.45593999997E+02  0.45594000000E+02  0.51100000000E-03 0. -1.
         23    2    1    2    0    0  0.35527136788E-14  0.35527136788E-14  0.88817841970E-15  0.91188000000E+02  0.91188000000E+02 0.  0.
    9900012    2    3    3    0    0 -0.24582698354E+02  0.26235412525E+02 -0.79482159093E+01  0.54367081151E+02  0.39999993099E+02 0.  0.
         12    1    3    3    0    0  0.24582698354E+02 -0.26235412525E+02  0.79482159093E+01  0.36820918849E+02  0.00000000000E+00 0. -1.
         11    1    4    4    0    0  0.95492983495E+00 -0.54500500590E+01  0.13825150651E+01  0.57031819892E+01  0.51100000000E-03 0. -1.
        -11    1    4    4    0    0 -0.22169743195E+02  0.15267338370E+02  0.40454603872E+01  0.27220486481E+02  0.51100000000E-03 0.  1.
         12    1    4    4    0    0 -0.33678849943E+01  0.16418124215E+02 -0.13376191362E+02  0.21443412681E+02  0.00000000000E+00 0. -1.
</event>
<event>
 8    1  0.2490104E-006  0.9118800E+02  0.7816164E-02  0.1184000E+00
        -11   -1    0    0    0    0  0.00000000000E+00  0.00000000000E+00  0.45593999997E+02  0.45594000000E+02  0.51100000000E-03 0.  1.
         11   -1    0    0    0    0 -0.00000000000E+00 -0.00000000000E+00 -0.45593999997E+02  0.45594000000E+02  0.51100000000E-03 0. -1.
         23    2    1    2    0    0 -0.35527136788E-14  0.00000000000E+00  0.00000000000E+00  0.91188000000E+02  0.91188000000E+02 0.  0.
    9900012    2    3    3    0    0  0.19836287706E+02 -0.23420710418E+02  0.20341358753E+02  0.54367097480E+02  0.40000030326E+02 0.  0.
         12    1    3    3    0    0 -0.19836287706E+02  0.23420710418E+02 -0.20341358753E+02  0.36820902520E+02  0.00000000000E+00 0. -1.
         11    1    4    4    0    0  0.92450517834E+01 -0.83877322335E+01 -0.58768852522E+01  0.13797203160E+02  0.51100000000E-03 0. -1.
        -11    1    4    4    0    0  0.17172780269E+02 -0.33214359208E+01  0.15777742974E+02  0.23555752851E+02  0.51100000000E-03 0.  1.
         12    1    4    4    0    0 -0.65815443467E+01 -0.11711542264E+02  0.10440501031E+02  0.17014141470E+02  0.00000000000E+00 0. -1.
</event>
<event>
 8    1  0.2490104E-006  0.9118800E+02  0.7816164E-02  0.1184000E+00
        -11   -1    0    0    0    0  0.00000000000E+00  0.00000000000E+00  0.45593999997E+02  0.45594000000E+02  0.51100000000E-03 0.  1.
         11   -1    0    0    0    0 -0.00000000000E+00 -0.00000000000E+00 -0.45593999997E+02  0.45594000000E+02  0.51100000000E-03 0. -1.
         23    2    1    2    0    0  0.00000000000E+00  0.00000000000E+00  0.00000000000E+00  0.91188000000E+02  0.91188000000E+02 0.  0.
    9900012    2    3    3    0    0  0.11420427240E+02 -0.10361591397E+02  0.33436354290E+02  0.54367102091E+02  0.40000040836E+02 0.  0.
         12    1    3    3    0    0 -0.11420427240E+02  0.10361591397E+02 -0.33436354290E+02  0.36820897909E+02  0.00000000000E+00 0. -1.
         11    1    4    4    0    0  0.10156594464E+02 -0.15613970404E+02  0.35963565832E+00  0.18630132070E+02  0.51100000000E-03 0. -1.
        -11    1    4    4    0    0 -0.25773321484E+01  0.36521051176E+01  0.30222144045E+01  0.53957662071E+01  0.51100000000E-03 0.  1.
         12    1    4    4    0    0  0.38411649241E+01  0.16002738889E+01  0.30054504228E+02  0.30341203814E+02  0.00000000000E+00 0. -1.
</event>
<event>
 8    1  0.2490104E-006  0.9118800E+02  0.7816164E-02  0.1184000E+00
        -11   -1    0    0    0    0  0.00000000000E+00  0.00000000000E+00  0.45593999997E+02  0.45594000000E+02  0.51100000000E-03 0. -1.
         11   -1    0    0    0    0 -0.00000000000E+00 -0.00000000000E+00 -0.45593999997E+02  0.45594000000E+02  0.51100000000E-03 0.  1.
         23    2    1    2    0    0  0.00000000000E+00  0.00000000000E+00  0.00000000000E+00  0.91188000000E+02  0.91188000000E+02 0.  0.
    9900012    2    3    3    0    0  0.32735677276E+02  0.13213211632E+02 -0.10467340935E+02  0.54367098943E+02  0.40000033661E+02 0.  0.
         12    1    3    3    0    0 -0.32735677276E+02 -0.13213211632E+02  0.10467340935E+02  0.36820901057E+02  0.00000000000E+00 0. -1.
         11    1    4    4    0    0  0.18227087232E+02  0.18945941220E+02  0.82808229313E+00  0.26303252997E+02  0.51100000000E-03 0. -1.
        -11    1    4    4    0    0  0.18081951527E+02  0.40477022979E+00 -0.55203125392E+01  0.18910173472E+02  0.51100000000E-03 0.  1.
         12    1    4    4    0    0 -0.35733614822E+01 -0.61374998178E+01 -0.57751106887E+01  0.91536724740E+01  0.00000000000E+00 0. -1.
</event>
<event>
 8    1  0.2490104E-006  0.9118800E+02  0.7816164E-02  0.1184000E+00
        -11   -1    0    0    0    0  0.00000000000E+00  0.00000000000E+00  0.45593999997E+02  0.45594000000E+02  0.51100000000E-03 0.  1.
         11   -1    0    0    0    0 -0.00000000000E+00 -0.00000000000E+00 -0.45593999997E+02  0.45594000000E+02  0.51100000000E-03 0. -1.
         23    2    1    2    0    0  0.17763568394E-14  0.00000000000E+00  0.00000000000E+00  0.91188000000E+02  0.91188000000E+02 0.  0.
    9900012    2    3    3    0    0  0.10029785809E+02  0.34506011457E+02 -0.80329515034E+01  0.54366949772E+02  0.39999693594E+02 0.  0.
         12    1    3    3    0    0 -0.10029785809E+02 -0.34506011457E+02  0.80329515034E+01  0.36821050228E+02  0.00000000000E+00 0. -1.
         11    1    4    4    0    0  0.60114773119E+01  0.22149059834E+02 -0.38355596580E+01  0.23268653359E+02  0.51100000000E-03 0. -1.
        -11    1    4    4    0    0  0.66089445328E+00 -0.71224489246E+00  0.10846260471E+02  0.10889694244E+02  0.51100000000E-03 0.  1.
         12    1    4    4    0    0  0.33574140434E+01  0.13069196516E+02 -0.15043652316E+02  0.20208602169E+02  0.00000000000E+00 0. -1.
</event>
<event>
 8    1  0.2490104E-006  0.9118800E+02  0.7816164E-02  0.1184000E+00
        -11   -1    0    0    0    0  0.00000000000E+00  0.00000000000E+00  0.45593999997E+02  0.45594000000E+02  0.51100000000E-03 0. -1.
         11   -1    0    0    0    0 -0.00000000000E+00 -0.00000000000E+00 -0.45593999997E+02  0.45594000000E+02  0.51100000000E-03 0.  1.
         23    2    1    2    0    0  0.00000000000E+00  0.00000000000E+00  0.00000000000E+00  0.91188000000E+02  0.91188000000E+02 0.  0.
    9900012    2    3    3    0    0 -0.12618580641E+02 -0.19571074054E+02 -0.28522349774E+02  0.54367082661E+02  0.39999996542E+02 0.  0.
         12    1    3    3    0    0  0.12618580641E+02  0.19571074054E+02  0.28522349774E+02  0.36820917339E+02  0.00000000000E+00 0. -1.
         11    1    4    4    0    0 -0.17808398280E+01  0.48257265306E+01 -0.18192738057E+02  0.18905944709E+02  0.51100000000E-03 0. -1.
        -11    1    4    4    0    0  0.30371236596E+01 -0.12701537220E+02 -0.11326962236E+02  0.17287372317E+02  0.51100000000E-03 0.  1.
        -12    1    4    4    0    0 -0.13874864473E+02 -0.11695263365E+02  0.99735051867E+00  0.18173765635E+02  0.00000000000E+00 0.  1.
</event>
<event>
 8    1  0.2490104E-006  0.9118800E+02  0.7816164E-02  0.1184000E+00
        -11   -1    0    0    0    0  0.00000000000E+00  0.00000000000E+00  0.45593999997E+02  0.45594000000E+02  0.51100000000E-03 0. -1.
         11   -1    0    0    0    0 -0.00000000000E+00 -0.00000000000E+00 -0.45593999997E+02  0.45594000000E+02  0.51100000000E-03 0.  1.
         23    2    1    2    0    0 -0.17763568394E-14  0.00000000000E+00  0.00000000000E+00  0.91188000000E+02  0.91188000000E+02 0.  0.
    9900012    2    3    3    0    0  0.10821621325E+02 -0.32846982063E+02  0.12639156418E+02  0.54367082117E+02  0.39999995302E+02 0.  0.
         12    1    3    3    0    0 -0.10821621325E+02  0.32846982063E+02 -0.12639156418E+02  0.36820917883E+02  0.00000000000E+00 0. -1.
         11    1    4    4    0    0  0.18437268312E+02 -0.30983460502E+01 -0.61029674981E+00  0.18705749743E+02  0.51100000000E-03 0. -1.
        -11    1    4    4    0    0 -0.10434889137E+02 -0.18908976475E+02  0.63697674501E+01  0.22516887890E+02  0.51100000000E-03 0.  1.
         12    1    4    4    0    0  0.28192421498E+01 -0.10839659539E+02  0.68796857181E+01  0.13144444484E+02  0.00000000000E+00 0. -1.
</event>
<event>
 8    1  0.2490104E-006  0.9118800E+02  0.7816164E-02  0.1184000E+00
        -11   -1    0    0    0    0  0.00000000000E+00  0.00000000000E+00  0.45593999997E+02  0.45594000000E+02  0.51100000000E-03 0.  1.
         11   -1    0    0    0    0 -0.00000000000E+00 -0.00000000000E+00 -0.45593999997E+02  0.45594000000E+02  0.51100000000E-03 0. -1.
         23    2    1    2    0    0  0.00000000000E+00  0.00000000000E+00  0.00000000000E+00  0.91188000000E+02  0.91188000000E+02 0.  0.
    9900012    2    3    3    0    0  0.26576572891E+02 -0.20524881942E+02  0.15106142890E+02  0.54367074450E+02  0.39999977823E+02 0.  0.
         12    1    3    3    0    0 -0.26576572891E+02  0.20524881942E+02 -0.15106142890E+02  0.36820925550E+02  0.00000000000E+00 0. -1.
         11    1    4    4    0    0  0.73066787570E-01 -0.11595150863E+02 -0.51278460542E+01  0.12678630356E+02  0.51100000000E-03 0. -1.
        -11    1    4    4    0    0  0.21128133012E+02 -0.14556838510E+02  0.21896769776E+02  0.33730817939E+02  0.51100000000E-03 0.  1.
         12    1    4    4    0    0  0.53753730917E+01  0.56271074315E+01 -0.16627808319E+01  0.79576261545E+01  0.00000000000E+00 0. -1.
</event>
<event>
 8    1  0.2490104E-006  0.9118800E+02  0.7816164E-02  0.1184000E+00
        -11   -1    0    0    0    0  0.00000000000E+00  0.00000000000E+00  0.45593999997E+02  0.45594000000E+02  0.51100000000E-03 0.  1.
         11   -1    0    0    0    0 -0.00000000000E+00 -0.00000000000E+00 -0.45593999997E+02  0.45594000000E+02  0.51100000000E-03 0. -1.
         23    2    1    2    0    0  0.00000000000E+00  0.00000000000E+00 -0.88817841970E-15  0.91188000000E+02  0.91188000000E+02 0.  0.
    9900012    2    3    3    0    0 -0.34419997482E+02  0.12403211182E+02  0.41477144378E+01  0.54367090052E+02  0.40000013392E+02 0.  0.
        -12    1    3    3    0    0  0.34419997482E+02 -0.12403211182E+02 -0.41477144378E+01  0.36820909948E+02  0.00000000000E+00 0.  1.
         11    1    4    4    0    0 -0.16456347114E+02  0.38748192428E+01 -0.12026638161E+02  0.20747665175E+02  0.51100000000E-03 0. -1.
        -11    1    4    4    0    0 -0.15306967700E+02 -0.19550958339E+01  0.16620432787E+01  0.15520568547E+02  0.51100000000E-03 0.  1.
        -12    1    4    4    0    0 -0.26566826684E+01  0.10483487773E+02  0.14512309320E+02  0.18098856331E+02  0.00000000000E+00 0.  1.
</event>
<event>
 8    1  0.2490104E-006  0.9118800E+02  0.7816164E-02  0.1184000E+00
        -11   -1    0    0    0    0  0.00000000000E+00  0.00000000000E+00  0.45593999997E+02  0.45594000000E+02  0.51100000000E-03 0.  1.
         11   -1    0    0    0    0 -0.00000000000E+00 -0.00000000000E+00 -0.45593999997E+02  0.45594000000E+02  0.51100000000E-03 0. -1.
         23    2    1    2    0    0  0.71054273576E-14 -0.22204460493E-15  0.00000000000E+00  0.91188000000E+02  0.91188000000E+02 0.  0.
    9900012    2    3    3    0    0 -0.31870017996E+02  0.19437048784E+01 -0.18338577383E+02  0.54367089417E+02  0.40000011944E+02 0.  0.
         12    1    3    3    0    0  0.31870017996E+02 -0.19437048784E+01  0.18338577383E+02  0.36820910583E+02  0.00000000000E+00 0. -1.
         11    1    4    4    0    0 -0.90883691121E+01  0.67534000837E+01  0.38551137139E+01  0.11961135724E+02  0.51100000000E-03 0. -1.
        -11    1    4    4    0    0  0.23963255152E+00  0.51884368057E+01 -0.15619712133E+02  0.16460641167E+02  0.51100000000E-03 0.  1.
        -12    1    4    4    0    0 -0.23021281435E+02 -0.99981320111E+01 -0.65739789638E+01  0.25945312526E+02  0.00000000000E+00 0.  1.
</event>
<event>
 8    1  0.2490104E-006  0.9118800E+02  0.7816164E-02  0.1184000E+00
        -11   -1    0    0    0    0  0.00000000000E+00  0.00000000000E+00  0.45593999997E+02  0.45594000000E+02  0.51100000000E-03 0.  1.
         11   -1    0    0    0    0 -0.00000000000E+00 -0.00000000000E+00 -0.45593999997E+02  0.45594000000E+02  0.51100000000E-03 0. -1.
         23    2    1    2    0    0  0.00000000000E+00  0.44408920985E-15  0.00000000000E+00  0.91188000000E+02  0.91188000000E+02 0.  0.
    9900012    2    3    3    0    0  0.11156146230E+02 -0.20731480789E+01  0.35028872179E+02  0.54367089802E+02  0.40000012822E+02 0.  0.
         12    1    3    3    0    0 -0.11156146230E+02  0.20731480789E+01 -0.35028872179E+02  0.36820910198E+02  0.00000000000E+00 0. -1.
         11    1    4    4    0    0  0.71508350520E+01  0.67919419603E+01  0.21478055092E+02  0.23634122965E+02  0.51100000000E-03 0.  1.
        -11    1    4    4    0    0  0.16050859567E+01  0.84985140648E+01  0.11875192604E+00  0.86495748173E+01  0.51100000000E-03 0. -1.
         12    1    4    4    0    0  0.24002252208E+01 -0.17363604104E+02  0.13432065161E+02  0.22083392020E+02  0.00000000000E+00 0. -1.
</event>
<event>
 8    1  0.2490104E-006  0.9118800E+02  0.7816164E-02  0.1184000E+00
        -11   -1    0    0    0    0  0.00000000000E+00  0.00000000000E+00  0.45593999997E+02  0.45594000000E+02  0.51100000000E-03 0.  1.
         11   -1    0    0    0    0 -0.00000000000E+00 -0.00000000000E+00 -0.45593999997E+02  0.45594000000E+02  0.51100000000E-03 0. -1.
         23    2    1    2    0    0  0.00000000000E+00 -0.44408920985E-15  0.00000000000E+00  0.91188000000E+02  0.91188000000E+02 0.  0.
    9900012    2    3    3    0    0  0.11210037201E+02  0.38172713565E+01 -0.34864643095E+02  0.54367084303E+02  0.40000000285E+02 0.  0.
        -12    1    3    3    0    0 -0.11210037201E+02 -0.38172713565E+01  0.34864643095E+02  0.36820915697E+02  0.00000000000E+00 0.  1.
         11    1    4    4    0    0 -0.78650675908E+01  0.12751133412E+02 -0.61771156588E+01  0.16205167374E+02  0.51100000000E-03 0. -1.
        -11    1    4    4    0    0  0.16386177669E+02 -0.68675454633E+00 -0.17182965325E+02  0.23753583899E+02  0.51100000000E-03 0.  1.
        -12    1    4    4    0    0  0.26889271225E+01 -0.82471075090E+01 -0.11504562111E+02  0.14408333030E+02  0.00000000000E+00 0.  1.
</event>
<event>
 8    1  0.2490104E-006  0.9118800E+02  0.7816164E-02  0.1184000E+00
        -11   -1    0    0    0    0  0.00000000000E+00  0.00000000000E+00  0.45593999997E+02  0.45594000000E+02  0.51100000000E-03 0.  1.
         11   -1    0    0    0    0 -0.00000000000E+00 -0.00000000000E+00 -0.45593999997E+02  0.45594000000E+02  0.51100000000E-03 0. -1.
         23    2    1    2    0    0  0.35527136788E-14  0.00000000000E+00  0.71054273576E-14  0.91188000000E+02  0.91188000000E+02 0.  0.
    9900012    2    3    3    0    0  0.17193439101E+02 -0.59428343584E+01  0.32013257139E+02  0.54367078488E+02  0.39999987030E+02 0.  0.
         12    1    3    3    0    0 -0.17193439101E+02  0.59428343584E+01 -0.32013257139E+02  0.36820921512E+02  0.00000000000E+00 0. -1.
         11    1    4    4    0    0  0.18700661057E+01  0.30796416085E+01  0.62534306193E+01  0.72171139972E+01  0.51100000000E-03 0. -1.
        -11    1    4    4    0    0  0.10338449614E+02  0.78713873567E+01 -0.30824721589E+01  0.13354546574E+02  0.51100000000E-03 0.  1.
         12    1    4    4    0    0  0.49849233820E+01 -0.16893863324E+02  0.28842298678E+02  0.33795417917E+02  0.00000000000E+00 0. -1.
</event>
<event>
 8    1  0.2490104E-006  0.9118800E+02  0.7816164E-02  0.1184000E+00
        -11   -1    0    0    0    0  0.00000000000E+00  0.00000000000E+00  0.45593999997E+02  0.45594000000E+02  0.51100000000E-03 0.  1.
         11   -1    0    0    0    0 -0.00000000000E+00 -0.00000000000E+00 -0.45593999997E+02  0.45594000000E+02  0.51100000000E-03 0. -1.
         23    2    1    2    0    0  0.35527136788E-14  0.00000000000E+00  0.26645352591E-14  0.91188000000E+02  0.91188000000E+02 0.  0.
    9900012    2    3    3    0    0  0.24419220555E+02 -0.26527209311E+02  0.74691739378E+01  0.54367085757E+02  0.40000003601E+02 0.  0.
        -12    1    3    3    0    0 -0.24419220555E+02  0.26527209311E+02 -0.74691739378E+01  0.36820914243E+02  0.00000000000E+00 0.  1.
         11    1    4    4    0    0  0.33459553720E+01 -0.39111735096E+00  0.61532443848E+00  0.34244728878E+01  0.51100000000E-03 0. -1.
        -11    1    4    4    0    0  0.21678333293E+02 -0.80401611106E+01  0.18330254899E+02  0.29505805700E+02  0.51100000000E-03 0.  1.
         12    1    4    4    0    0 -0.60506810975E+00 -0.18095930849E+02 -0.11476405400E+02  0.21436807170E+02  0.00000000000E+00 0. -1.
</event>
<event>
 8    1  0.2490104E-006  0.9118800E+02  0.7816164E-02  0.1184000E+00
        -11   -1    0    0    0    0  0.00000000000E+00  0.00000000000E+00  0.45593999997E+02  0.45594000000E+02  0.51100000000E-03 0. -1.
         11   -1    0    0    0    0 -0.00000000000E+00 -0.00000000000E+00 -0.45593999997E+02  0.45594000000E+02  0.51100000000E-03 0.  1.
         23    2    1    2    0    0  0.00000000000E+00  0.00000000000E+00  0.00000000000E+00  0.91188000000E+02  0.91188000000E+02 0.  0.
    9900012    2    3    3    0    0 -0.21515808782E+02 -0.27821462074E+02  0.10900211491E+02  0.54367103895E+02  0.40000044949E+02 0.  0.
        -12    1    3    3    0    0  0.21515808782E+02  0.27821462074E+02 -0.10900211491E+02  0.36820896105E+02  0.00000000000E+00 0.  1.
         11    1    4    4    0    0 -0.14355533749E+02 -0.41133657420E+01  0.60679073417E+01  0.16118952407E+02  0.51100000000E-03 0. -1.
        -11    1    4    4    0    0 -0.22587719043E+01 -0.39802017091E+01 -0.11367996965E+02  0.12254607763E+02  0.51100000000E-03 0.  1.
         12    1    4    4    0    0 -0.49015031284E+01 -0.19727894622E+02  0.16200301114E+02  0.25993543724E+02  0.00000000000E+00 0. -1.
</event>
<event>
 8    1  0.2490104E-006  0.9118800E+02  0.7816164E-02  0.1184000E+00
        -11   -1    0    0    0    0  0.00000000000E+00  0.00000000000E+00  0.45593999997E+02  0.45594000000E+02  0.51100000000E-03 0. -1.
         11   -1    0    0    0    0 -0.00000000000E+00 -0.00000000000E+00 -0.45593999997E+02  0.45594000000E+02  0.51100000000E-03 0.  1.
         23    2    1    2    0    0 -0.35527136788E-14  0.00000000000E+00  0.00000000000E+00  0.91188000000E+02  0.91188000000E+02 0.  0.
    9900012    2    3    3    0    0 -0.11630208734E+02 -0.23372764776E+02 -0.25965963988E+02  0.54367093244E+02  0.40000020669E+02 0.  0.
         12    1    3    3    0    0  0.11630208734E+02  0.23372764776E+02  0.25965963988E+02  0.36820906756E+02  0.00000000000E+00 0. -1.
         11    1    4    4    0    0  0.53438056337E-01 -0.13665662624E+02 -0.52640665349E+01  0.14644575354E+02  0.51100000000E-03 0.  1.
        -11    1    4    4    0    0 -0.95076008598E+00 -0.45112405467E+01  0.76686720756E+01  0.89478359214E+01  0.51100000000E-03 0. -1.
         12    1    4    4    0    0 -0.10732886705E+02 -0.51958616055E+01 -0.28370569529E+02  0.30774681968E+02  0.00000000000E+00 0. -1.
</event>
<event>
 8    1  0.2490104E-006  0.9118800E+02  0.7816164E-02  0.1184000E+00
        -11   -1    0    0    0    0  0.00000000000E+00  0.00000000000E+00  0.45593999997E+02  0.45594000000E+02  0.51100000000E-03 0.  1.
         11   -1    0    0    0    0 -0.00000000000E+00 -0.00000000000E+00 -0.45593999997E+02  0.45594000000E+02  0.51100000000E-03 0. -1.
         23    2    1    2    0    0  0.00000000000E+00  0.00000000000E+00 -0.71054273576E-14  0.91188000000E+02  0.91188000000E+02 0.  0.
    9900012    2    3    3    0    0  0.67320947218E+01  0.22037229761E+02 -0.28719666834E+02  0.54367083961E+02  0.39999999506E+02 0.  0.
        -12    1    3    3    0    0 -0.67320947218E+01 -0.22037229761E+02  0.28719666834E+02  0.36820916039E+02  0.00000000000E+00 0.  1.
         11    1    4    4    0    0 -0.40841177992E+00 -0.14293036498E+01 -0.11592408650E+02  0.11687328509E+02  0.51100000000E-03 0. -1.
        -11    1    4    4    0    0 -0.12232930869E+01  0.17260565263E+02  0.51787317800E+01  0.18062193174E+02  0.51100000000E-03 0.  1.
        -12    1    4    4    0    0  0.83637995887E+01  0.62059681481E+01 -0.22305989964E+02  0.24617562277E+02  0.00000000000E+00 0.  1.
</event>
<event>
 8    1  0.2490104E-006  0.9118800E+02  0.7816164E-02  0.1184000E+00
        -11   -1    0    0    0    0  0.00000000000E+00  0.00000000000E+00  0.45593999997E+02  0.45594000000E+02  0.51100000000E-03 0.  1.
         11   -1    0    0    0    0 -0.00000000000E+00 -0.00000000000E+00 -0.45593999997E+02  0.45594000000E+02  0.51100000000E-03 0. -1.
         23    2    1    2    0    0  0.00000000000E+00  0.00000000000E+00  0.00000000000E+00  0.91188000000E+02  0.91188000000E+02 0.  0.
    9900012    2    3    3    0    0  0.94844922372E+01  0.73419209276E+01 -0.34812645372E+02  0.54367086463E+02  0.40000005210E+02 0.  0.
        -12    1    3    3    0    0 -0.94844922372E+01 -0.73419209276E+01  0.34812645372E+02  0.36820913537E+02  0.00000000000E+00 0.  1.
         11    1    4    4    0    0 -0.35708579985E+01  0.11705371455E+01 -0.19299821680E+02  0.19662255750E+02  0.51100000000E-03 0. -1.
        -11    1    4    4    0    0  0.24728279215E+01 -0.83880351833E+01  0.26466072573E+01  0.91366592582E+01  0.51100000000E-03 0.  1.
         12    1    4    4    0    0  0.10582522314E+02  0.14559418965E+02 -0.18159430949E+02  0.25568171455E+02  0.00000000000E+00 0. -1.
</event>
<event>
 8    1  0.2490104E-006  0.9118800E+02  0.7816164E-02  0.1184000E+00
        -11   -1    0    0    0    0  0.00000000000E+00  0.00000000000E+00  0.45593999997E+02  0.45594000000E+02  0.51100000000E-03 0.  1.
         11   -1    0    0    0    0 -0.00000000000E+00 -0.00000000000E+00 -0.45593999997E+02  0.45594000000E+02  0.51100000000E-03 0. -1.
         23    2    1    2    0    0  0.00000000000E+00  0.17763568394E-14  0.00000000000E+00  0.91188000000E+02  0.91188000000E+02 0.  0.
    9900012    2    3    3    0    0  0.22039638715E+02  0.11025013081E+02 -0.27358282137E+02  0.54367188091E+02  0.40000236891E+02 0.  0.
        -12    1    3    3    0    0 -0.22039638715E+02 -0.11025013081E+02  0.27358282137E+02  0.36820811909E+02  0.00000000000E+00 0.  1.
         11    1    4    4    0    0 -0.11914013560E+01  0.13274144073E+02 -0.70840534927E+01  0.15093248563E+02  0.51100000000E-03 0. -1.
        -11    1    4    4    0    0  0.21297525061E+02  0.82638364673E+01 -0.12361828049E+02  0.25974802403E+02  0.51100000000E-03 0.  1.
        -12    1    4    4    0    0  0.19335150098E+01 -0.10512967459E+02 -0.79124005958E+01  0.13299137125E+02  0.00000000000E+00 0.  1.
</event>
<event>
 8    1  0.2490104E-006  0.9118800E+02  0.7816164E-02  0.1184000E+00
        -11   -1    0    0    0    0  0.00000000000E+00  0.00000000000E+00  0.45593999997E+02  0.45594000000E+02  0.51100000000E-03 0.  1.
         11   -1    0    0    0    0 -0.00000000000E+00 -0.00000000000E+00 -0.45593999997E+02  0.45594000000E+02  0.51100000000E-03 0. -1.
         23    2    1    2    0    0 -0.17763568394E-14  0.00000000000E+00  0.44408920985E-15  0.91188000000E+02  0.91188000000E+02 0.  0.
    9900012    2    3    3    0    0  0.15019877840E+02 -0.33543359116E+02 -0.22419111167E+01  0.54367084252E+02  0.40000000168E+02 0.  0.
        -12    1    3    3    0    0 -0.15019877840E+02  0.33543359116E+02  0.22419111167E+01  0.36820915748E+02  0.00000000000E+00 0.  1.
         11    1    4    4    0    0  0.76047108600E+00 -0.11903480343E+02  0.72132408216E+01  0.13939225372E+02  0.51100000000E-03 0. -1.
        -11    1    4    4    0    0  0.58002680848E+01 -0.82403061617E+01 -0.19300018002E+02  0.21772378157E+02  0.51100000000E-03 0.  1.
        -12    1    4    4    0    0  0.84591386693E+01 -0.13399572611E+02  0.98448660634E+01  0.18655480723E+02  0.00000000000E+00 0.  1.
</event>
<event>
 8    1  0.2490104E-006  0.9118800E+02  0.7816164E-02  0.1184000E+00
        -11   -1    0    0    0    0  0.00000000000E+00  0.00000000000E+00  0.45593999997E+02  0.45594000000E+02  0.51100000000E-03 0.  1.
         11   -1    0    0    0    0 -0.00000000000E+00 -0.00000000000E+00 -0.45593999997E+02  0.45594000000E+02  0.51100000000E-03 0. -1.
         23    2    1    2    0    0 -0.19984014443E-14  0.00000000000E+00  0.00000000000E+00  0.91188000000E+02  0.91188000000E+02 0.  0.
    9900012    2    3    3    0    0 -0.10749518664E+01 -0.36584042447E+02  0.40289149424E+01  0.54367084220E+02  0.40000000096E+02 0.  0.
         12    1    3    3    0    0  0.10749518664E+01  0.36584042447E+02 -0.40289149424E+01  0.36820915780E+02  0.00000000000E+00 0. -1.
         11    1    4    4    0    0  0.15686515348E+02 -0.22208152034E+02  0.66248603747E+00  0.27197567328E+02  0.51100000000E-03 0. -1.
        -11    1    4    4    0    0 -0.11536614141E+02 -0.15840432439E+02  0.68065571583E+01  0.20744685736E+02  0.51100000000E-03 0.  1.
         12    1    4    4    0    0 -0.52248530739E+01  0.14645420257E+01 -0.34401282534E+01  0.64248311565E+01  0.00000000000E+00 0. -1.
</event>
<event>
 8    1  0.2490104E-006  0.9118800E+02  0.7816164E-02  0.1184000E+00
        -11   -1    0    0    0    0  0.00000000000E+00  0.00000000000E+00  0.45593999997E+02  0.45594000000E+02  0.51100000000E-03 0. -1.
         11   -1    0    0    0    0 -0.00000000000E+00 -0.00000000000E+00 -0.45593999997E+02  0.45594000000E+02  0.51100000000E-03 0.  1.
         23    2    1    2    0    0 -0.17763568394E-14  0.00000000000E+00  0.00000000000E+00  0.91188000000E+02  0.91188000000E+02 0.  0.
    9900012    2    3    3    0    0 -0.12367908830E+02 -0.92353395487E+01 -0.33429366049E+02  0.54367093169E+02  0.40000020498E+02 0.  0.
         12    1    3    3    0    0  0.12367908830E+02  0.92353395487E+01  0.33429366049E+02  0.36820906831E+02  0.00000000000E+00 0. -1.
         11    1    4    4    0    0 -0.10988724808E+02  0.71758920076E+01 -0.21020650916E+01  0.13291507699E+02  0.51100000000E-03 0. -1.
        -11    1    4    4    0    0 -0.98258292927E+01 -0.25213916520E+01 -0.98496034983E+01  0.14139272488E+02  0.51100000000E-03 0.  1.
        -12    1    4    4    0    0  0.84466452712E+01 -0.13889839904E+02 -0.21477697459E+02  0.26936312982E+02  0.00000000000E+00 0.  1.
</event>
<event>
 8    1  0.2490104E-006  0.9118800E+02  0.7816164E-02  0.1184000E+00
        -11   -1    0    0    0    0  0.00000000000E+00  0.00000000000E+00  0.45593999997E+02  0.45594000000E+02  0.51100000000E-03 0.  1.
         11   -1    0    0    0    0 -0.00000000000E+00 -0.00000000000E+00 -0.45593999997E+02  0.45594000000E+02  0.51100000000E-03 0. -1.
         23    2    1    2    0    0 -0.17763568394E-14  0.00000000000E+00  0.00000000000E+00  0.91188000000E+02  0.91188000000E+02 0.  0.
    9900012    2    3    3    0    0 -0.84918191521E+01  0.24150604036E+02  0.26465360797E+02  0.54367109327E+02  0.40000057333E+02 0.  0.
         12    1    3    3    0    0  0.84918191521E+01 -0.24150604036E+02 -0.26465360797E+02  0.36820890673E+02  0.00000000000E+00 0. -1.
         11    1    4    4    0    0 -0.17105023797E+02  0.13493154262E+02  0.16923432490E+00  0.21787053301E+02  0.51100000000E-03 0. -1.
        -11    1    4    4    0    0  0.94852847920E+01  0.29735766011E+01  0.81484354581E+01  0.12853395896E+02  0.51100000000E-03 0.  1.
         12    1    4    4    0    0 -0.87208014723E+00  0.76838731734E+01  0.18147691014E+02  0.19726660130E+02  0.00000000000E+00 0. -1.
</event>
<event>
 8    1  0.2490104E-006  0.9118800E+02  0.7816164E-02  0.1184000E+00
        -11   -1    0    0    0    0  0.00000000000E+00  0.00000000000E+00  0.45593999997E+02  0.45594000000E+02  0.51100000000E-03 0.  1.
         11   -1    0    0    0    0 -0.00000000000E+00 -0.00000000000E+00 -0.45593999997E+02  0.45594000000E+02  0.51100000000E-03 0. -1.
         23    2    1    2    0    0 -0.17763568394E-14 -0.35527136788E-14 -0.35527136788E-14  0.91188000000E+02  0.91188000000E+02 0.  0.
    9900012    2    3    3    0    0  0.31313657947E+01  0.29225374481E+02  0.22177696627E+02  0.54367106570E+02  0.40000051049E+02 0.  0.
         12    1    3    3    0    0 -0.31313657947E+01 -0.29225374481E+02 -0.22177696627E+02  0.36820893430E+02  0.00000000000E+00 0. -1.
         11    1    4    4    0    0  0.12883869186E+02  0.44693063910E+01  0.20932674557E+02  0.24982907140E+02  0.51100000000E-03 0. -1.
        -11    1    4    4    0    0  0.29356563274E+01  0.43590453160E+01 -0.61300679448E+00  0.52910425940E+01  0.51100000000E-03 0.  1.
         12    1    4    4    0    0 -0.12688159718E+02  0.20397022774E+02  0.18580288642E+01  0.24093156836E+02  0.00000000000E+00 0. -1.
</event>
<event>
 8    1  0.2490104E-006  0.9118800E+02  0.7816164E-02  0.1184000E+00
        -11   -1    0    0    0    0  0.00000000000E+00  0.00000000000E+00  0.45593999997E+02  0.45594000000E+02  0.51100000000E-03 0. -1.
         11   -1    0    0    0    0 -0.00000000000E+00 -0.00000000000E+00 -0.45593999997E+02  0.45594000000E+02  0.51100000000E-03 0.  1.
         23    2    1    2    0    0  0.00000000000E+00  0.00000000000E+00  0.17763568394E-14  0.91188000000E+02  0.91188000000E+02 0.  0.
    9900012    2    3    3    0    0  0.50910296020E+01 -0.33991849269E+02  0.13206656933E+02  0.54367079500E+02  0.39999989336E+02 0.  0.
        -12    1    3    3    0    0 -0.50910296020E+01  0.33991849269E+02 -0.13206656933E+02  0.36820920500E+02  0.00000000000E+00 0.  1.
         11    1    4    4    0    0 -0.31394837179E+01 -0.12043103512E+02  0.36137000383E+01  0.12959611431E+02  0.51100000000E-03 0. -1.
        -11    1    4    4    0    0 -0.55601326959E+01 -0.25318210721E+02  0.79674965745E+01  0.27118404666E+02  0.51100000000E-03 0.  1.
         12    1    4    4    0    0  0.13790646016E+02  0.33694649639E+01  0.16254603201E+01  0.14289063403E+02  0.00000000000E+00 0. -1.
</event>
<event>
 8    1  0.2490104E-006  0.9118800E+02  0.7816164E-02  0.1184000E+00
        -11   -1    0    0    0    0  0.00000000000E+00  0.00000000000E+00  0.45593999997E+02  0.45594000000E+02  0.51100000000E-03 0. -1.
         11   -1    0    0    0    0 -0.00000000000E+00 -0.00000000000E+00 -0.45593999997E+02  0.45594000000E+02  0.51100000000E-03 0.  1.
         23    2    1    2    0    0  0.00000000000E+00 -0.88817841970E-15 -0.35527136788E-14  0.91188000000E+02  0.91188000000E+02 0.  0.
    9900012    2    3    3    0    0 -0.20320987697E+02 -0.29283176117E+01 -0.30565684375E+02  0.54367100414E+02  0.40000037013E+02 0.  0.
         12    1    3    3    0    0  0.20320987697E+02  0.29283176117E+01  0.30565684375E+02  0.36820899586E+02  0.00000000000E+00 0. -1.
         11    1    4    4    0    0  0.64846995748E+01 -0.59648953772E+01 -0.12579902952E+02  0.15358556703E+02  0.51100000000E-03 0. -1.
        -11    1    4    4    0    0 -0.30236456540E+02  0.23954280675E+01 -0.13184688314E+02  0.33072910152E+02  0.51100000000E-03 0.  1.
        -12    1    4    4    0    0  0.34307692681E+01  0.64114969798E+00 -0.48010931085E+01  0.59356335586E+01  0.00000000000E+00 0.  1.
</event>
<event>
 8    1  0.2490104E-006  0.9118800E+02  0.7816164E-02  0.1184000E+00
        -11   -1    0    0    0    0  0.00000000000E+00  0.00000000000E+00  0.45593999997E+02  0.45594000000E+02  0.51100000000E-03 0.  1.
         11   -1    0    0    0    0 -0.00000000000E+00 -0.00000000000E+00 -0.45593999997E+02  0.45594000000E+02  0.51100000000E-03 0. -1.
         23    2    1    2    0    0  0.19984014443E-14  0.00000000000E+00  0.35527136788E-14  0.91188000000E+02  0.91188000000E+02 0.  0.
    9900012    2    3    3    0    0  0.83742033617E+00  0.34939742217E+02 -0.11588462306E+02  0.54367091298E+02  0.40000016231E+02 0.  0.
         12    1    3    3    0    0 -0.83742033617E+00 -0.34939742217E+02  0.11588462306E+02  0.36820908702E+02  0.00000000000E+00 0. -1.
         11    1    4    4    0    0 -0.20096507070E+01  0.74655793430E+01 -0.12761905317E+02  0.14921119209E+02  0.51100000000E-03 0. -1.
        -11    1    4    4    0    0  0.95128829643E+01  0.27128728941E+02  0.80587246147E+01  0.29856421737E+02  0.51100000000E-03 0.  1.
        -12    1    4    4    0    0 -0.66658119211E+01  0.34543393305E+00 -0.68852816041E+01  0.95895503512E+01  0.00000000000E+00 0.  1.
</event>
<event>
 8    1  0.2490104E-006  0.9118800E+02  0.7816164E-02  0.1184000E+00
        -11   -1    0    0    0    0  0.00000000000E+00  0.00000000000E+00  0.45593999997E+02  0.45594000000E+02  0.51100000000E-03 0.  1.
         11   -1    0    0    0    0 -0.00000000000E+00 -0.00000000000E+00 -0.45593999997E+02  0.45594000000E+02  0.51100000000E-03 0. -1.
         23    2    1    2    0    0 -0.71054273576E-14  0.47184478547E-15 -0.35527136788E-14  0.91188000000E+02  0.91188000000E+02 0.  0.
    9900012    2    3    3    0    0 -0.32685704258E+02 -0.20213728296E+00 -0.16952397826E+02  0.54367083195E+02  0.39999997759E+02 0.  0.
         12    1    3    3    0    0  0.32685704258E+02  0.20213728296E+00  0.16952397826E+02  0.36820916805E+02  0.00000000000E+00 0. -1.
         11    1    4    4    0    0 -0.83333921422E+01 -0.80679454681E+00 -0.56245493480E+01  0.10086223162E+02  0.51100000000E-03 0. -1.
        -11    1    4    4    0    0 -0.30342329877E+02  0.51594048724E+01 -0.11628580856E+00  0.30778076022E+02  0.51100000000E-03 0.  1.
        -12    1    4    4    0    0  0.59900177607E+01 -0.45547476086E+01 -0.11211562669E+02  0.13502784011E+02  0.00000000000E+00 0.  1.
</event>
<event>
 8    1  0.2490104E-006  0.9118800E+02  0.7816164E-02  0.1184000E+00
        -11   -1    0    0    0    0  0.00000000000E+00  0.00000000000E+00  0.45593999997E+02  0.45594000000E+02  0.51100000000E-03 0.  1.
         11   -1    0    0    0    0 -0.00000000000E+00 -0.00000000000E+00 -0.45593999997E+02  0.45594000000E+02  0.51100000000E-03 0. -1.
         23    2    1    2    0    0  0.17763568394E-14  0.88817841970E-15  0.00000000000E+00  0.91188000000E+02  0.91188000000E+02 0.  0.
    9900012    2    3    3    0    0  0.14875358804E+02  0.62277195709E+01  0.33101650497E+02  0.54367081269E+02  0.39999993369E+02 0.  0.
         12    1    3    3    0    0 -0.14875358804E+02 -0.62277195709E+01 -0.33101650497E+02  0.36820918731E+02  0.00000000000E+00 0. -1.
         11    1    4    4    0    0  0.15327398489E+02 -0.78261324642E+01  0.27570400013E+02  0.32500837696E+02  0.51100000000E-03 0. -1.
        -11    1    4    4    0    0  0.66102263497E+01  0.12161784371E+02  0.34894663278E+01  0.14275169596E+02  0.51100000000E-03 0.  1.
         12    1    4    4    0    0 -0.70622660344E+01  0.18920676640E+01  0.20417841556E+01  0.75910739769E+01  0.00000000000E+00 0. -1.
</event>
<event>
 8    1  0.2490104E-006  0.9118800E+02  0.7816164E-02  0.1184000E+00
        -11   -1    0    0    0    0  0.00000000000E+00  0.00000000000E+00  0.45593999997E+02  0.45594000000E+02  0.51100000000E-03 0.  1.
         11   -1    0    0    0    0 -0.00000000000E+00 -0.00000000000E+00 -0.45593999997E+02  0.45594000000E+02  0.51100000000E-03 0. -1.
         23    2    1    2    0    0  0.00000000000E+00  0.00000000000E+00  0.00000000000E+00  0.91188000000E+02  0.91188000000E+02 0.  0.
    9900012    2    3    3    0    0 -0.11908668656E+02 -0.18310107132E+02 -0.29643021629E+02  0.54367012185E+02  0.39999835879E+02 0.  0.
        -12    1    3    3    0    0  0.11908668656E+02  0.18310107132E+02  0.29643021629E+02  0.36820987815E+02  0.00000000000E+00 0.  1.
         11    1    4    4    0    0 -0.12977893989E+02  0.25791081722E+00  0.90584906103E-01  0.12980772560E+02  0.51100000000E-03 0. -1.
        -11    1    4    4    0    0 -0.85885980481E+01 -0.34924326453E+01 -0.41445698346E+01  0.10155715710E+02  0.51100000000E-03 0.  1.
         12    1    4    4    0    0  0.96578233812E+01 -0.15075585304E+02 -0.25589036700E+02  0.31230523915E+02  0.00000000000E+00 0. -1.
</event>
<event>
 8    1  0.2490104E-006  0.9118800E+02  0.7816164E-02  0.1184000E+00
        -11   -1    0    0    0    0  0.00000000000E+00  0.00000000000E+00  0.45593999997E+02  0.45594000000E+02  0.51100000000E-03 0.  1.
         11   -1    0    0    0    0 -0.00000000000E+00 -0.00000000000E+00 -0.45593999997E+02  0.45594000000E+02  0.51100000000E-03 0. -1.
         23    2    1    2    0    0  0.17763568394E-14  0.00000000000E+00  0.00000000000E+00  0.91188000000E+02  0.91188000000E+02 0.  0.
    9900012    2    3    3    0    0 -0.13844558849E+02  0.23256680612E+02  0.24964681085E+02  0.54367077898E+02  0.39999985684E+02 0.  0.
         12    1    3    3    0    0  0.13844558849E+02 -0.23256680612E+02 -0.24964681085E+02  0.36820922102E+02  0.00000000000E+00 0. -1.
         11    1    4    4    0    0 -0.66021451482E+01 -0.21580366092E+01  0.10680107609E+01  0.70275237326E+01  0.51100000000E-03 0. -1.
        -11    1    4    4    0    0 -0.14249866422E+01 -0.44134509167E+01 -0.39716617787E+01  0.61059997928E+01  0.51100000000E-03 0.  1.
        -12    1    4    4    0    0 -0.58174270585E+01  0.29828168137E+02  0.27868332102E+02  0.41233554373E+02  0.00000000000E+00 0.  1.
</event>
<event>
 8    1  0.2490104E-006  0.9118800E+02  0.7816164E-02  0.1184000E+00
        -11   -1    0    0    0    0  0.00000000000E+00  0.00000000000E+00  0.45593999997E+02  0.45594000000E+02  0.51100000000E-03 0.  1.
         11   -1    0    0    0    0 -0.00000000000E+00 -0.00000000000E+00 -0.45593999997E+02  0.45594000000E+02  0.51100000000E-03 0. -1.
         23    2    1    2    0    0 -0.17763568394E-14  0.35527136788E-14 -0.14210854715E-13  0.91188000000E+02  0.91188000000E+02 0.  0.
    9900012    2    3    3    0    0 -0.91401936348E+01 -0.24729874264E+02  0.25703486479E+02  0.54367095096E+02  0.40000024890E+02 0.  0.
         12    1    3    3    0    0  0.91401936348E+01  0.24729874264E+02 -0.25703486479E+02  0.36820904904E+02  0.00000000000E+00 0. -1.
         11    1    4    4    0    0  0.74638094171E+01 -0.12329223198E+02 -0.62698600057E+01  0.15717167062E+02  0.51100000000E-03 0. -1.
        -11    1    4    4    0    0 -0.11907683367E+02 -0.58755551580E+01  0.23341921117E+02  0.26854428933E+02  0.51100000000E-03 0.  1.
         12    1    4    4    0    0 -0.46963196847E+01 -0.65250959081E+01  0.86314253669E+01  0.11795499102E+02  0.00000000000E+00 0. -1.
</event>
<event>
 8    1  0.2490104E-006  0.9118800E+02  0.7816164E-02  0.1184000E+00
        -11   -1    0    0    0    0  0.00000000000E+00  0.00000000000E+00  0.45593999997E+02  0.45594000000E+02  0.51100000000E-03 0.  1.
         11   -1    0    0    0    0 -0.00000000000E+00 -0.00000000000E+00 -0.45593999997E+02  0.45594000000E+02  0.51100000000E-03 0. -1.
         23    2    1    2    0    0  0.17763568394E-14  0.00000000000E+00  0.00000000000E+00  0.91188000000E+02  0.91188000000E+02 0.  0.
    9900012    2    3    3    0    0 -0.11602896637E+02  0.20986936613E+02 -0.27941024724E+02  0.54367087717E+02  0.40000008068E+02 0.  0.
        -12    1    3    3    0    0  0.11602896637E+02 -0.20986936613E+02  0.27941024724E+02  0.36820912283E+02  0.00000000000E+00 0.  1.
         11    1    4    4    0    0 -0.43422669523E+01  0.15923440937E+02 -0.19382929580E+02  0.25457989177E+02  0.51100000000E-03 0. -1.
        -11    1    4    4    0    0  0.90027883487E+01  0.17668680886E+01  0.17972946686E+01  0.93489191504E+01  0.51100000000E-03 0.  1.
         12    1    4    4    0    0 -0.16263418033E+02  0.32966275873E+01 -0.10355389813E+02  0.19560179389E+02  0.00000000000E+00 0. -1.
</event>
<event>
 8    1  0.2490104E-006  0.9118800E+02  0.7816164E-02  0.1184000E+00
        -11   -1    0    0    0    0  0.00000000000E+00  0.00000000000E+00  0.45593999997E+02  0.45594000000E+02  0.51100000000E-03 0.  1.
         11   -1    0    0    0    0 -0.00000000000E+00 -0.00000000000E+00 -0.45593999997E+02  0.45594000000E+02  0.51100000000E-03 0. -1.
         23    2    1    2    0    0  0.00000000000E+00  0.00000000000E+00  0.00000000000E+00  0.91188000000E+02  0.91188000000E+02 0.  0.
    9900012    2    3    3    0    0  0.22235034765E+02  0.12218366534E+02  0.26684926667E+02  0.54367210180E+02  0.40000287246E+02 0.  0.
         12    1    3    3    0    0 -0.22235034765E+02 -0.12218366534E+02 -0.26684926667E+02  0.36820789820E+02  0.00000000000E+00 0. -1.
         11    1    4    4    0    0  0.41521773331E+01  0.87870224933E+01 -0.72942275330E+01  0.12151464787E+02  0.51100000000E-03 0. -1.
        -11    1    4    4    0    0  0.54390850698E+01  0.85797868598E+01  0.21235789488E+02  0.23540500088E+02  0.51100000000E-03 0.  1.
        -12    1    4    4    0    0  0.12643772362E+02 -0.51484428193E+01  0.12743364712E+02  0.18675245305E+02  0.00000000000E+00 0.  1.
</event>
<event>
 8    1  0.2490104E-006  0.9118800E+02  0.7816164E-02  0.1184000E+00
        -11   -1    0    0    0    0  0.00000000000E+00  0.00000000000E+00  0.45593999997E+02  0.45594000000E+02  0.51100000000E-03 0.  1.
         11   -1    0    0    0    0 -0.00000000000E+00 -0.00000000000E+00 -0.45593999997E+02  0.45594000000E+02  0.51100000000E-03 0. -1.
         23    2    1    2    0    0  0.35527136788E-14  0.35527136788E-14 -0.35527136788E-14  0.91188000000E+02  0.91188000000E+02 0.  0.
    9900012    2    3    3    0    0 -0.18486996673E+02 -0.54856225629E+01  0.31367479124E+02  0.54367084103E+02  0.39999999831E+02 0.  0.
         12    1    3    3    0    0  0.18486996673E+02  0.54856225629E+01 -0.31367479124E+02  0.36820915897E+02  0.00000000000E+00 0. -1.
         11    1    4    4    0    0  0.48582688161E+01  0.78442196994E+01  0.93220101551E+01  0.13116189697E+02  0.51100000000E-03 0. -1.
        -11    1    4    4    0    0 -0.15249807368E+02 -0.18349926357E+02  0.20783134442E+02  0.31641983180E+02  0.51100000000E-03 0.  1.
         12    1    4    4    0    0 -0.80954581208E+01  0.50200840944E+01  0.12623345269E+01  0.96089112265E+01  0.00000000000E+00 0. -1.
</event>
<event>
 8    1  0.2490104E-006  0.9118800E+02  0.7816164E-02  0.1184000E+00
        -11   -1    0    0    0    0  0.00000000000E+00  0.00000000000E+00  0.45593999997E+02  0.45594000000E+02  0.51100000000E-03 0.  1.
         11   -1    0    0    0    0 -0.00000000000E+00 -0.00000000000E+00 -0.45593999997E+02  0.45594000000E+02  0.51100000000E-03 0. -1.
         23    2    1    2    0    0 -0.88817841970E-15  0.00000000000E+00  0.00000000000E+00  0.91188000000E+02  0.91188000000E+02 0.  0.
    9900012    2    3    3    0    0 -0.74177135384E+01  0.14545715262E+02 -0.33002711195E+02  0.54367092177E+02  0.40000018237E+02 0.  0.
        -12    1    3    3    0    0  0.74177135384E+01 -0.14545715262E+02  0.33002711195E+02  0.36820907823E+02  0.00000000000E+00 0.  1.
         11    1    4    4    0    0  0.68156224894E+01  0.20040490102E+01 -0.26039714577E+02  0.26991399702E+02  0.51100000000E-03 0.  1.
        -11    1    4    4    0    0 -0.92973835153E+01 -0.26338129659E+01 -0.60302061319E+01  0.11390421293E+02  0.51100000000E-03 0. -1.
         12    1    4    4    0    0 -0.49359525125E+01  0.15175479218E+02 -0.93279048658E+00  0.15985271183E+02  0.00000000000E+00 0. -1.
</event>
<event>
 8    1  0.2490104E-006  0.9118800E+02  0.7816164E-02  0.1184000E+00
        -11   -1    0    0    0    0  0.00000000000E+00  0.00000000000E+00  0.45593999997E+02  0.45594000000E+02  0.51100000000E-03 0. -1.
         11   -1    0    0    0    0 -0.00000000000E+00 -0.00000000000E+00 -0.45593999997E+02  0.45594000000E+02  0.51100000000E-03 0.  1.
         23    2    1    2    0    0  0.35527136788E-14 -0.88817841970E-15  0.35527136788E-14  0.91188000000E+02  0.91188000000E+02 0.  0.
    9900012    2    3    3    0    0  0.31017470565E+02 -0.59268202878E+01  0.18935818022E+02  0.54367137936E+02  0.40000122552E+02 0.  0.
         12    1    3    3    0    0 -0.31017470565E+02  0.59268202878E+01 -0.18935818022E+02  0.36820862064E+02  0.00000000000E+00 0. -1.
         11    1    4    4    0    0  0.93133656885E+01 -0.16030897099E+02  0.78691018835E+01  0.20140784666E+02  0.51100000000E-03 0. -1.
        -11    1    4    4    0    0  0.16095471563E+02 -0.26297546587E+01 -0.21935868600E+00  0.16310362746E+02  0.51100000000E-03 0.  1.
        -12    1    4    4    0    0  0.56086333140E+01  0.12733831470E+02  0.11286074824E+02  0.17915990525E+02  0.00000000000E+00 0.  1.
</event>
<event>
 8    1  0.2490104E-006  0.9118800E+02  0.7816164E-02  0.1184000E+00
        -11   -1    0    0    0    0  0.00000000000E+00  0.00000000000E+00  0.45593999997E+02  0.45594000000E+02  0.51100000000E-03 0.  1.
         11   -1    0    0    0    0 -0.00000000000E+00 -0.00000000000E+00 -0.45593999997E+02  0.45594000000E+02  0.51100000000E-03 0. -1.
         23    2    1    2    0    0  0.71054273576E-14  0.71054273576E-14  0.49960036108E-15  0.91188000000E+02  0.91188000000E+02 0.  0.
    9900012    2    3    3    0    0 -0.20974306113E+02 -0.30259477911E+02  0.47352261605E+00  0.54367058349E+02  0.39999941119E+02 0.  0.
        -12    1    3    3    0    0  0.20974306113E+02  0.30259477911E+02 -0.47352261605E+00  0.36820941651E+02  0.00000000000E+00 0.  1.
         11    1    4    4    0    0 -0.81852823827E+01 -0.20438216177E+02 -0.79924039037E+01  0.23422170023E+02  0.51100000000E-03 0. -1.
        -11    1    4    4    0    0  0.44787910661E+01 -0.12075569431E+01 -0.54475835808E+01  0.71549933833E+01  0.51100000000E-03 0.  1.
        -12    1    4    4    0    0 -0.17267814796E+02 -0.86137047916E+01  0.13913510101E+02  0.23789894943E+02  0.00000000000E+00 0.  1.
</event>
<event>
 8    1  0.2490104E-006  0.9118800E+02  0.7816164E-02  0.1184000E+00
        -11   -1    0    0    0    0  0.00000000000E+00  0.00000000000E+00  0.45593999997E+02  0.45594000000E+02  0.51100000000E-03 0.  1.
         11   -1    0    0    0    0 -0.00000000000E+00 -0.00000000000E+00 -0.45593999997E+02  0.45594000000E+02  0.51100000000E-03 0. -1.
         23    2    1    2    0    0  0.71054273576E-14  0.00000000000E+00  0.00000000000E+00  0.91188000000E+02  0.91188000000E+02 0.  0.
    9900012    2    3    3    0    0  0.34896418875E+02 -0.76433395702E+01 -0.89217694444E+01  0.54367100227E+02  0.40000036588E+02 0.  0.
         12    1    3    3    0    0 -0.34896418875E+02  0.76433395702E+01  0.89217694444E+01  0.36820899773E+02  0.00000000000E+00 0. -1.
         11    1    4    4    0    0 -0.49370991291E+01  0.43806761726E+01 -0.29540973958E+01  0.72313182218E+01  0.51100000000E-03 0. -1.
        -11    1    4    4    0    0  0.26974216028E+02 -0.12553846361E+01 -0.11674146246E+02  0.29418871694E+02  0.51100000000E-03 0.  1.
         12    1    4    4    0    0  0.12859301976E+02 -0.10768631107E+02  0.57064741975E+01  0.17716910312E+02  0.00000000000E+00 0. -1.
</event>
<event>
 8    1  0.2490104E-006  0.9118800E+02  0.7816164E-02  0.1184000E+00
        -11   -1    0    0    0    0  0.00000000000E+00  0.00000000000E+00  0.45593999997E+02  0.45594000000E+02  0.51100000000E-03 0. -1.
         11   -1    0    0    0    0 -0.00000000000E+00 -0.00000000000E+00 -0.45593999997E+02  0.45594000000E+02  0.51100000000E-03 0.  1.
         23    2    1    2    0    0 -0.88817841970E-15  0.00000000000E+00  0.71054273576E-14  0.91188000000E+02  0.91188000000E+02 0.  0.
    9900012    2    3    3    0    0  0.72338378830E+01  0.90538064305E+01 -0.34949682983E+02  0.54367079832E+02  0.39999990094E+02 0.  0.
         12    1    3    3    0    0 -0.72338378830E+01 -0.90538064305E+01  0.34949682983E+02  0.36820920168E+02  0.00000000000E+00 0. -1.
         11    1    4    4    0    0  0.32288846690E+00  0.16992562596E+01  0.21002188992E+01  0.27207808592E+01  0.51100000000E-03 0. -1.
        -11    1    4    4    0    0  0.46279324427E+01 -0.13760851843E+02 -0.17916012680E+02  0.23059972089E+02  0.51100000000E-03 0.  1.
        -12    1    4    4    0    0  0.22830169734E+01  0.21115402014E+02 -0.19133889202E+02  0.28586326884E+02  0.00000000000E+00 0.  1.
</event>
<event>
 8    1  0.2490104E-006  0.9118800E+02  0.7816164E-02  0.1184000E+00
        -11   -1    0    0    0    0  0.00000000000E+00  0.00000000000E+00  0.45593999997E+02  0.45594000000E+02  0.51100000000E-03 0.  1.
         11   -1    0    0    0    0 -0.00000000000E+00 -0.00000000000E+00 -0.45593999997E+02  0.45594000000E+02  0.51100000000E-03 0. -1.
         23    2    1    2    0    0 -0.88817841970E-15  0.44408920985E-15  0.00000000000E+00  0.91188000000E+02  0.91188000000E+02 0.  0.
    9900012    2    3    3    0    0 -0.71944987253E+01 -0.30279122268E+01 -0.35984033644E+02  0.54367085541E+02  0.40000003107E+02 0.  0.
        -12    1    3    3    0    0  0.71944987253E+01  0.30279122268E+01  0.35984033644E+02  0.36820914459E+02  0.00000000000E+00 0.  1.
         11    1    4    4    0    0  0.26210150998E+01 -0.91119942344E+01 -0.37623149439E+02  0.38799478515E+02  0.51100000000E-03 0. -1.
        -11    1    4    4    0    0 -0.11087479610E+02  0.28193771993E+01 -0.51980817227E+00  0.11452130487E+02  0.51100000000E-03 0.  1.
        -12    1    4    4    0    0  0.12719657845E+01  0.32647048083E+01  0.21589239676E+01  0.41154765387E+01  0.00000000000E+00 0.  1.
</event>
<event>
 8    1  0.2490104E-006  0.9118800E+02  0.7816164E-02  0.1184000E+00
        -11   -1    0    0    0    0  0.00000000000E+00  0.00000000000E+00  0.45593999997E+02  0.45594000000E+02  0.51100000000E-03 0.  1.
         11   -1    0    0    0    0 -0.00000000000E+00 -0.00000000000E+00 -0.45593999997E+02  0.45594000000E+02  0.51100000000E-03 0. -1.
         23    2    1    2    0    0  0.17763568394E-14 -0.44408920985E-15  0.00000000000E+00  0.91188000000E+02  0.91188000000E+02 0.  0.
    9900012    2    3    3    0    0 -0.14761249683E+02 -0.21884571514E+01 -0.33661503103E+02  0.54367073503E+02  0.39999975665E+02 0.  0.
        -12    1    3    3    0    0  0.14761249683E+02  0.21884571514E+01  0.33661503103E+02  0.36820926497E+02  0.00000000000E+00 0.  1.
         11    1    4    4    0    0  0.11326719788E+01 -0.11838933198E+02 -0.22908584460E+02  0.25811751729E+02  0.51100000000E-03 0. -1.
        -11    1    4    4    0    0 -0.19134778241E+02  0.81835339934E+01 -0.12817979935E+02  0.24441983897E+02  0.51100000000E-03 0.  1.
         12    1    4    4    0    0  0.32408565794E+01  0.14669420535E+01  0.20650612912E+01  0.41133378773E+01  0.00000000000E+00 0. -1.
</event>
<event>
 8    1  0.2490104E-006  0.9118800E+02  0.7816164E-02  0.1184000E+00
        -11   -1    0    0    0    0  0.00000000000E+00  0.00000000000E+00  0.45593999997E+02  0.45594000000E+02  0.51100000000E-03 0.  1.
         11   -1    0    0    0    0 -0.00000000000E+00 -0.00000000000E+00 -0.45593999997E+02  0.45594000000E+02  0.51100000000E-03 0. -1.
         23    2    1    2    0    0  0.17763568394E-14  0.35527136788E-14 -0.17763568394E-14  0.91188000000E+02  0.91188000000E+02 0.  0.
    9900012    2    3    3    0    0  0.13390990739E+02 -0.31434377131E+02 -0.13723801100E+02  0.54367062814E+02  0.39999951297E+02 0.  0.
        -12    1    3    3    0    0 -0.13390990739E+02  0.31434377131E+02  0.13723801100E+02  0.36820937186E+02  0.00000000000E+00 0.  1.
         11    1    4    4    0    0 -0.79309529473E+01 -0.20708301172E+02  0.20800698768E+01  0.22272414396E+02  0.51100000000E-03 0.  1.
        -11    1    4    4    0    0  0.18219050855E+02 -0.92614933937E+01 -0.18625926803E+02  0.27652020242E+02  0.51100000000E-03 0. -1.
        -12    1    4    4    0    0  0.31028928316E+01 -0.14645825653E+01  0.28220558264E+01  0.44426281751E+01  0.00000000000E+00 0.  1.
</event>
<event>
 8    1  0.2490104E-006  0.9118800E+02  0.7816164E-02  0.1184000E+00
        -11   -1    0    0    0    0  0.00000000000E+00  0.00000000000E+00  0.45593999997E+02  0.45594000000E+02  0.51100000000E-03 0.  1.
         11   -1    0    0    0    0 -0.00000000000E+00 -0.00000000000E+00 -0.45593999997E+02  0.45594000000E+02  0.51100000000E-03 0. -1.
         23    2    1    2    0    0 -0.44408920985E-15  0.35527136788E-14  0.35527136788E-14  0.91188000000E+02  0.91188000000E+02 0.  0.
    9900012    2    3    3    0    0 -0.60872918294E+00 -0.26715486928E+02  0.25331644348E+02  0.54367082054E+02  0.39999995158E+02 0.  0.
         12    1    3    3    0    0  0.60872918294E+00  0.26715486928E+02 -0.25331644348E+02  0.36820917946E+02  0.00000000000E+00 0. -1.
         11    1    4    4    0    0 -0.13719058689E+02 -0.18359335549E+01  0.40284418270E+01  0.14415670888E+02  0.51100000000E-03 0. -1.
        -11    1    4    4    0    0  0.40865625276E+01 -0.34885948498E+01  0.14942866489E+02  0.15879532313E+02  0.51100000000E-03 0.  1.
        -12    1    4    4    0    0  0.90237669787E+01 -0.21390958523E+02  0.63603360321E+01  0.24071878852E+02  0.00000000000E+00 0.  1.
</event>
<event>
 8    1  0.2490104E-006  0.9118800E+02  0.7816164E-02  0.1184000E+00
        -11   -1    0    0    0    0  0.00000000000E+00  0.00000000000E+00  0.45593999997E+02  0.45594000000E+02  0.51100000000E-03 0.  1.
         11   -1    0    0    0    0 -0.00000000000E+00 -0.00000000000E+00 -0.45593999997E+02  0.45594000000E+02  0.51100000000E-03 0. -1.
         23    2    1    2    0    0  0.00000000000E+00 -0.71054273576E-14 -0.88817841970E-15  0.91188000000E+02  0.91188000000E+02 0.  0.
    9900012    2    3    3    0    0 -0.41998007139E+01  0.36508463972E+02 -0.22964988247E+01  0.54367079663E+02  0.39999989708E+02 0.  0.
        -12    1    3    3    0    0  0.41998007139E+01 -0.36508463972E+02  0.22964988247E+01  0.36820920337E+02  0.00000000000E+00 0.  1.
         11    1    4    4    0    0 -0.15047920928E+02  0.11710856826E+02 -0.88385633350E+01  0.21016762214E+02  0.51100000000E-03 0. -1.
        -11    1    4    4    0    0  0.10053160812E+02  0.41243701894E+01 -0.18534162944E+01  0.11023231105E+02  0.51100000000E-03 0.  1.
         12    1    4    4    0    0  0.79495940215E+00  0.20673236956E+02  0.83954808047E+01  0.22327086344E+02  0.00000000000E+00 0. -1.
</event>
<event>
 8    1  0.2490104E-006  0.9118800E+02  0.7816164E-02  0.1184000E+00
        -11   -1    0    0    0    0  0.00000000000E+00  0.00000000000E+00  0.45593999997E+02  0.45594000000E+02  0.51100000000E-03 0.  1.
         11   -1    0    0    0    0 -0.00000000000E+00 -0.00000000000E+00 -0.45593999997E+02  0.45594000000E+02  0.51100000000E-03 0. -1.
         23    2    1    2    0    0  0.35527136788E-14  0.00000000000E+00  0.00000000000E+00  0.91188000000E+02  0.91188000000E+02 0.  0.
    9900012    2    3    3    0    0 -0.28119762943E+02  0.56174871224E+01 -0.23097685154E+02  0.54367078107E+02  0.39999986161E+02 0.  0.
        -12    1    3    3    0    0  0.28119762943E+02 -0.56174871224E+01  0.23097685154E+02  0.36820921893E+02  0.00000000000E+00 0.  1.
         11    1    4    4    0    0 -0.10074269416E+02  0.38344785296E+01 -0.71127839704E+01  0.12914558681E+02  0.51100000000E-03 0. -1.
        -11    1    4    4    0    0 -0.24644469216E+02 -0.61606594983E+01 -0.41401619388E+01  0.25737997776E+02  0.51100000000E-03 0.  1.
        -12    1    4    4    0    0  0.65989756888E+01  0.79436680911E+01 -0.11844739245E+02  0.15714521649E+02  0.00000000000E+00 0.  1.
</event>
<event>
 8    1  0.2490104E-006  0.9118800E+02  0.7816164E-02  0.1184000E+00
        -11   -1    0    0    0    0  0.00000000000E+00  0.00000000000E+00  0.45593999997E+02  0.45594000000E+02  0.51100000000E-03 0.  1.
         11   -1    0    0    0    0 -0.00000000000E+00 -0.00000000000E+00 -0.45593999997E+02  0.45594000000E+02  0.51100000000E-03 0. -1.
         23    2    1    2    0    0  0.17763568394E-14  0.00000000000E+00  0.69388939039E-15  0.91188000000E+02  0.91188000000E+02 0.  0.
    9900012    2    3    3    0    0 -0.86455102367E+01  0.35791399965E+02  0.10020713116E+00  0.54367092893E+02  0.40000019868E+02 0.  0.
         12    1    3    3    0    0  0.86455102367E+01 -0.35791399965E+02 -0.10020713116E+00  0.36820907107E+02  0.00000000000E+00 0. -1.
         11    1    4    4    0    0  0.11078198373E+02  0.14150038579E+02  0.87256338821E+01  0.19977155901E+02  0.51100000000E-03 0. -1.
        -11    1    4    4    0    0 -0.81137624162E+01  0.19901956922E+02 -0.65507750850E+01  0.22468504274E+02  0.51100000000E-03 0.  1.
        -12    1    4    4    0    0 -0.11609946194E+02  0.17394044646E+01 -0.20746516660E+01  0.11921432718E+02  0.00000000000E+00 0.  1.
</event>
<event>
 8    1  0.2490104E-006  0.9118800E+02  0.7816164E-02  0.1184000E+00
        -11   -1    0    0    0    0  0.00000000000E+00  0.00000000000E+00  0.45593999997E+02  0.45594000000E+02  0.51100000000E-03 0.  1.
         11   -1    0    0    0    0 -0.00000000000E+00 -0.00000000000E+00 -0.45593999997E+02  0.45594000000E+02  0.51100000000E-03 0. -1.
         23    2    1    2    0    0  0.00000000000E+00  0.00000000000E+00  0.00000000000E+00  0.91188000000E+02  0.91188000000E+02 0.  0.
    9900012    2    3    3    0    0 -0.22930392574E+02 -0.85656619580E+01 -0.27506464446E+02  0.54367094869E+02  0.40000024373E+02 0.  0.
         12    1    3    3    0    0  0.22930392574E+02  0.85656619580E+01  0.27506464446E+02  0.36820905131E+02  0.00000000000E+00 0. -1.
         11    1    4    4    0    0 -0.21870306913E+02  0.21517241484E+01 -0.70955486543E+01  0.23093008731E+02  0.51100000000E-03 0. -1.
        -11    1    4    4    0    0 -0.18413415339E+01 -0.56945964607E+01  0.34294488490E+01  0.68978320626E+01  0.51100000000E-03 0.  1.
         12    1    4    4    0    0  0.78125587294E+00 -0.50227896457E+01 -0.23840364640E+02  0.24376254075E+02  0.00000000000E+00 0. -1.
</event>
<event>
 8    1  0.2490104E-006  0.9118800E+02  0.7816164E-02  0.1184000E+00
        -11   -1    0    0    0    0  0.00000000000E+00  0.00000000000E+00  0.45593999997E+02  0.45594000000E+02  0.51100000000E-03 0.  1.
         11   -1    0    0    0    0 -0.00000000000E+00 -0.00000000000E+00 -0.45593999997E+02  0.45594000000E+02  0.51100000000E-03 0. -1.
         23    2    1    2    0    0  0.00000000000E+00  0.00000000000E+00 -0.35527136788E-14  0.91188000000E+02  0.91188000000E+02 0.  0.
    9900012    2    3    3    0    0  0.23315804551E+02  0.25734764054E+02 -0.12242377498E+02  0.54367073483E+02  0.39999975618E+02 0.  0.
        -12    1    3    3    0    0 -0.23315804551E+02 -0.25734764054E+02  0.12242377498E+02  0.36820926517E+02  0.00000000000E+00 0.  1.
         11    1    4    4    0    0  0.17201374185E+02  0.23969982945E+01  0.89301187363E+01  0.19528950192E+02  0.51100000000E-03 0. -1.
        -11    1    4    4    0    0 -0.13916638334E+01 -0.77349070375E+00  0.38200660610E+00  0.16373592771E+01  0.51100000000E-03 0.  1.
         12    1    4    4    0    0  0.75060941990E+01  0.24111256464E+02 -0.21554502841E+02  0.33200764014E+02  0.00000000000E+00 0. -1.
</event>
<event>
 8    1  0.2490104E-006  0.9118800E+02  0.7816164E-02  0.1184000E+00
        -11   -1    0    0    0    0  0.00000000000E+00  0.00000000000E+00  0.45593999997E+02  0.45594000000E+02  0.51100000000E-03 0.  1.
         11   -1    0    0    0    0 -0.00000000000E+00 -0.00000000000E+00 -0.45593999997E+02  0.45594000000E+02  0.51100000000E-03 0. -1.
         23    2    1    2    0    0  0.00000000000E+00  0.00000000000E+00  0.35527136788E-14  0.91188000000E+02  0.91188000000E+02 0.  0.
    9900012    2    3    3    0    0 -0.94698475322E+01 -0.26192209039E+02  0.24084482358E+02  0.54367189076E+02  0.40000239136E+02 0.  0.
         12    1    3    3    0    0  0.94698475322E+01  0.26192209039E+02 -0.24084482358E+02  0.36820810924E+02  0.00000000000E+00 0. -1.
         11    1    4    4    0    0 -0.26526272012E+01 -0.21191646691E+02  0.52808791361E+01  0.22000227391E+02  0.51100000000E-03 0. -1.
        -11    1    4    4    0    0  0.18959530648E+01  0.15132696722E+01  0.21107825099E+02  0.21246762196E+02  0.51100000000E-03 0.  1.
         12    1    4    4    0    0 -0.87131733958E+01 -0.65138320201E+01 -0.23042218778E+01  0.11120199489E+02  0.00000000000E+00 0. -1.
</event>
<event>
 8    1  0.2490104E-006  0.9118800E+02  0.7816164E-02  0.1184000E+00
        -11   -1    0    0    0    0  0.00000000000E+00  0.00000000000E+00  0.45593999997E+02  0.45594000000E+02  0.51100000000E-03 0. -1.
         11   -1    0    0    0    0 -0.00000000000E+00 -0.00000000000E+00 -0.45593999997E+02  0.45594000000E+02  0.51100000000E-03 0.  1.
         23    2    1    2    0    0  0.00000000000E+00  0.88817841970E-15  0.35527136788E-14  0.91188000000E+02  0.91188000000E+02 0.  0.
    9900012    2    3    3    0    0  0.25723771261E+02 -0.54692646435E+01 -0.25771192291E+02  0.54367087250E+02  0.40000007005E+02 0.  0.
         12    1    3    3    0    0 -0.25723771261E+02  0.54692646435E+01  0.25771192291E+02  0.36820912750E+02  0.00000000000E+00 0. -1.
         11    1    4    4    0    0 -0.23165392055E+01  0.22789871088E+01  0.15756343995E+01  0.36114761739E+01  0.51100000000E-03 0. -1.
        -11    1    4    4    0    0 -0.22772522920E+01  0.34400129689E+01  0.39911085582E+01  0.57400797043E+01  0.51100000000E-03 0.  1.
        -12    1    4    4    0    0  0.30317562758E+02 -0.11188264721E+02 -0.31337935249E+02  0.45015531372E+02  0.00000000000E+00 0.  1.
</event>
<event>
 8    1  0.2490104E-006  0.9118800E+02  0.7816164E-02  0.1184000E+00
        -11   -1    0    0    0    0  0.00000000000E+00  0.00000000000E+00  0.45593999997E+02  0.45594000000E+02  0.51100000000E-03 0. -1.
         11   -1    0    0    0    0 -0.00000000000E+00 -0.00000000000E+00 -0.45593999997E+02  0.45594000000E+02  0.51100000000E-03 0.  1.
         23    2    1    2    0    0  0.00000000000E+00  0.00000000000E+00  0.00000000000E+00  0.91188000000E+02  0.91188000000E+02 0.  0.
    9900012    2    3    3    0    0  0.28212160074E+02  0.21124808384E+02  0.10658163596E+02  0.54367082622E+02  0.39999996453E+02 0.  0.
        -12    1    3    3    0    0 -0.28212160074E+02 -0.21124808384E+02 -0.10658163596E+02  0.36820917378E+02  0.00000000000E+00 0.  1.
         11    1    4    4    0    0  0.21488216717E+02  0.13073160023E+02 -0.12254633157E+02  0.27979045816E+02  0.51100000000E-03 0.  1.
        -11    1    4    4    0    0  0.72994132460E+00  0.67204474702E+01  0.97574053651E+01  0.11870306999E+02  0.51100000000E-03 0. -1.
        -12    1    4    4    0    0  0.59940020324E+01  0.13312008904E+01  0.13155391388E+02  0.14517729807E+02  0.00000000000E+00 0.  1.
</event>
<event>
 8    1  0.2490104E-006  0.9118800E+02  0.7816164E-02  0.1184000E+00
        -11   -1    0    0    0    0  0.00000000000E+00  0.00000000000E+00  0.45593999997E+02  0.45594000000E+02  0.51100000000E-03 0. -1.
         11   -1    0    0    0    0 -0.00000000000E+00 -0.00000000000E+00 -0.45593999997E+02  0.45594000000E+02  0.51100000000E-03 0.  1.
         23    2    1    2    0    0  0.00000000000E+00  0.00000000000E+00  0.00000000000E+00  0.91188000000E+02  0.91188000000E+02 0.  0.
    9900012    2    3    3    0    0 -0.93135054012E+01 -0.27223742638E+02  0.22976204537E+02  0.54367088537E+02  0.40000009938E+02 0.  0.
        -12    1    3    3    0    0  0.93135054012E+01  0.27223742638E+02 -0.22976204537E+02  0.36820911463E+02  0.00000000000E+00 0.  1.
         11    1    4    4    0    0 -0.61428378337E+01 -0.27197195328E+01 -0.21310030476E+01  0.70478723909E+01  0.51100000000E-03 0. -1.
        -11    1    4    4    0    0  0.73926811493E+01 -0.40378233377E+00 -0.37221560269E+01  0.82866893569E+01  0.51100000000E-03 0.  1.
         12    1    4    4    0    0 -0.10563348717E+02 -0.24100240771E+02  0.28829363611E+02  0.39032526789E+02  0.00000000000E+00 0. -1.
</event>
<event>
 8    1  0.2490104E-006  0.9118800E+02  0.7816164E-02  0.1184000E+00
        -11   -1    0    0    0    0  0.00000000000E+00  0.00000000000E+00  0.45593999997E+02  0.45594000000E+02  0.51100000000E-03 0. -1.
         11   -1    0    0    0    0 -0.00000000000E+00 -0.00000000000E+00 -0.45593999997E+02  0.45594000000E+02  0.51100000000E-03 0.  1.
         23    2    1    2    0    0  0.00000000000E+00  0.00000000000E+00  0.88817841970E-15  0.91188000000E+02  0.91188000000E+02 0.  0.
    9900012    2    3    3    0    0 -0.15716177816E+02 -0.32529015687E+02  0.71164995218E+01  0.54367086484E+02  0.40000005257E+02 0.  0.
        -12    1    3    3    0    0  0.15716177816E+02  0.32529015687E+02 -0.71164995218E+01  0.36820913516E+02  0.00000000000E+00 0.  1.
         11    1    4    4    0    0 -0.57754708429E+01  0.60515836545E+00  0.11142105469E+02  0.12564584937E+02  0.51100000000E-03 0. -1.
        -11    1    4    4    0    0 -0.10249675935E+02 -0.50304432363E+01 -0.72311897254E+01  0.13514855569E+02  0.51100000000E-03 0.  1.
         12    1    4    4    0    0  0.30896896192E+00 -0.28103730816E+02  0.32055837782E+01  0.28287645978E+02  0.00000000000E+00 0. -1.
</event>
<event>
 8    1  0.2490104E-006  0.9118800E+02  0.7816164E-02  0.1184000E+00
        -11   -1    0    0    0    0  0.00000000000E+00  0.00000000000E+00  0.45593999997E+02  0.45594000000E+02  0.51100000000E-03 0. -1.
         11   -1    0    0    0    0 -0.00000000000E+00 -0.00000000000E+00 -0.45593999997E+02  0.45594000000E+02  0.51100000000E-03 0.  1.
         23    2    1    2    0    0  0.00000000000E+00  0.15820678101E-14  0.00000000000E+00  0.91188000000E+02  0.91188000000E+02 0.  0.
    9900012    2    3    3    0    0  0.84641462633E+01 -0.13683470281E+00  0.35834594844E+02  0.54367099911E+02  0.40000035868E+02 0.  0.
        -12    1    3    3    0    0 -0.84641462633E+01  0.13683470281E+00 -0.35834594844E+02  0.36820900089E+02  0.00000000000E+00 0.  1.
         11    1    4    4    0    0  0.12389162924E+02 -0.13868902827E+02  0.14002410365E+02  0.23278859935E+02  0.51100000000E-03 0. -1.
        -11    1    4    4    0    0 -0.35394296032E+01 -0.24352896445E+01  0.10488933021E+02  0.11334721600E+02  0.51100000000E-03 0.  1.
        -12    1    4    4    0    0 -0.38558705782E+00  0.16167357769E+02  0.11343251458E+02  0.19753518376E+02  0.00000000000E+00 0.  1.
</event>
<event>
 8    1  0.2490104E-006  0.9118800E+02  0.7816164E-02  0.1184000E+00
        -11   -1    0    0    0    0  0.00000000000E+00  0.00000000000E+00  0.45593999997E+02  0.45594000000E+02  0.51100000000E-03 0.  1.
         11   -1    0    0    0    0 -0.00000000000E+00 -0.00000000000E+00 -0.45593999997E+02  0.45594000000E+02  0.51100000000E-03 0. -1.
         23    2    1    2    0    0  0.00000000000E+00  0.00000000000E+00  0.35527136788E-14  0.91188000000E+02  0.91188000000E+02 0.  0.
    9900012    2    3    3    0    0  0.18926373793E+02 -0.27047286031E+02  0.16309979038E+02  0.54367099375E+02  0.40000034645E+02 0.  0.
         12    1    3    3    0    0 -0.18926373793E+02  0.27047286031E+02 -0.16309979038E+02  0.36820900625E+02  0.00000000000E+00 0. -1.
         11    1    4    4    0    0  0.17692676916E+02 -0.53408143363E+01 -0.50171295554E+01  0.19150109750E+02  0.51100000000E-03 0. -1.
        -11    1    4    4    0    0  0.11895323127E+01 -0.19860587500E-01  0.11233730942E+02  0.11296552249E+02  0.51100000000E-03 0.  1.
         12    1    4    4    0    0  0.44164564998E-01 -0.21686611107E+02  0.10093377651E+02  0.23920437376E+02  0.00000000000E+00 0. -1.
</event>
<event>
 8    1  0.2490104E-006  0.9118800E+02  0.7816164E-02  0.1184000E+00
        -11   -1    0    0    0    0  0.00000000000E+00  0.00000000000E+00  0.45593999997E+02  0.45594000000E+02  0.51100000000E-03 0.  1.
         11   -1    0    0    0    0 -0.00000000000E+00 -0.00000000000E+00 -0.45593999997E+02  0.45594000000E+02  0.51100000000E-03 0. -1.
         23    2    1    2    0    0 -0.17763568394E-14 -0.88817841970E-15  0.00000000000E+00  0.91188000000E+02  0.91188000000E+02 0.  0.
    9900012    2    3    3    0    0  0.15534379749E+02  0.71618663454E+01 -0.32606268301E+02  0.54367108970E+02  0.40000056520E+02 0.  0.
        -12    1    3    3    0    0 -0.15534379749E+02 -0.71618663454E+01  0.32606268301E+02  0.36820891030E+02  0.00000000000E+00 0.  1.
         11    1    4    4    0    0 -0.59997370434E+01 -0.12666173070E+01 -0.24381145525E+02  0.25140433993E+02  0.51100000000E-03 0. -1.
        -11    1    4    4    0    0  0.33270370210E+01  0.17709013901E+01  0.46266436363E+01  0.59675035543E+01  0.51100000000E-03 0.  1.
         12    1    4    4    0    0  0.18207079771E+02  0.66575822622E+01 -0.12851766412E+02  0.23259171423E+02  0.00000000000E+00 0. -1.
</event>
<event>
 8    1  0.2490104E-006  0.9118800E+02  0.7816164E-02  0.1184000E+00
        -11   -1    0    0    0    0  0.00000000000E+00  0.00000000000E+00  0.45593999997E+02  0.45594000000E+02  0.51100000000E-03 0.  1.
         11   -1    0    0    0    0 -0.00000000000E+00 -0.00000000000E+00 -0.45593999997E+02  0.45594000000E+02  0.51100000000E-03 0. -1.
         23    2    1    2    0    0  0.00000000000E+00  0.00000000000E+00  0.71054273576E-14  0.91188000000E+02  0.91188000000E+02 0.  0.
    9900012    2    3    3    0    0  0.62114367196E+01 -0.73746124191E+01 -0.35536074004E+02  0.54367090043E+02  0.40000013371E+02 0.  0.
        -12    1    3    3    0    0 -0.62114367196E+01  0.73746124191E+01  0.35536074004E+02  0.36820909957E+02  0.00000000000E+00 0.  1.
         11    1    4    4    0    0  0.10717875192E+01 -0.17943683721E+02 -0.22407266224E+02  0.28726470265E+02  0.51100000000E-03 0. -1.
        -11    1    4    4    0    0  0.24673266426E+01 -0.48585722199E+01 -0.68940255909E+01  0.87875487986E+01  0.51100000000E-03 0.  1.
        -12    1    4    4    0    0  0.26723225578E+01  0.15427643522E+02 -0.62347821885E+01  0.16853070980E+02  0.00000000000E+00 0.  1.
</event>
<event>
 8    1  0.2490104E-006  0.9118800E+02  0.7816164E-02  0.1184000E+00
        -11   -1    0    0    0    0  0.00000000000E+00  0.00000000000E+00  0.45593999997E+02  0.45594000000E+02  0.51100000000E-03 0. -1.
         11   -1    0    0    0    0 -0.00000000000E+00 -0.00000000000E+00 -0.45593999997E+02  0.45594000000E+02  0.51100000000E-03 0.  1.
         23    2    1    2    0    0  0.00000000000E+00  0.00000000000E+00  0.17763568394E-14  0.91188000000E+02  0.91188000000E+02 0.  0.
    9900012    2    3    3    0    0  0.25597864123E+02  0.25416369428E+02  0.73848788459E+01  0.54367096723E+02  0.40000028600E+02 0.  0.
        -12    1    3    3    0    0 -0.25597864123E+02 -0.25416369428E+02 -0.73848788459E+01  0.36820903277E+02  0.00000000000E+00 0.  1.
         11    1    4    4    0    0  0.71983588413E+01  0.21008222287E+02  0.59947195107E+01  0.23002139812E+02  0.51100000000E-03 0. -1.
        -11    1    4    4    0    0  0.15285578823E+02  0.11449640154E+02  0.84821457526E+01  0.20897128426E+02  0.51100000000E-03 0.  1.
        -12    1    4    4    0    0  0.31139264582E+01 -0.70414930134E+01 -0.70919864174E+01  0.10467828485E+02  0.00000000000E+00 0.  1.
</event>
<event>
 8    1  0.2490104E-006  0.9118800E+02  0.7816164E-02  0.1184000E+00
        -11   -1    0    0    0    0  0.00000000000E+00  0.00000000000E+00  0.45593999997E+02  0.45594000000E+02  0.51100000000E-03 0. -1.
         11   -1    0    0    0    0 -0.00000000000E+00 -0.00000000000E+00 -0.45593999997E+02  0.45594000000E+02  0.51100000000E-03 0.  1.
         23    2    1    2    0    0 -0.35527136788E-14  0.00000000000E+00  0.35527136788E-14  0.91188000000E+02  0.91188000000E+02 0.  0.
    9900012    2    3    3    0    0  0.16929230428E+02 -0.70235003004E+01 -0.31935108225E+02  0.54367088324E+02  0.40000009452E+02 0.  0.
         12    1    3    3    0    0 -0.16929230428E+02  0.70235003004E+01  0.31935108225E+02  0.36820911676E+02  0.00000000000E+00 0. -1.
         11    1    4    4    0    0 -0.44610734915E+01 -0.10499336537E+01  0.24167170810E+01  0.51811252720E+01  0.51100000000E-03 0. -1.
        -11    1    4    4    0    0  0.25255531031E+02 -0.86443161964E+01 -0.35435075428E+02  0.44364519844E+02  0.51100000000E-03 0.  1.
        -12    1    4    4    0    0 -0.38652271112E+01  0.26707495497E+01  0.10832501223E+01  0.48214432078E+01  0.00000000000E+00 0.  1.
</event>
<event>
 8    1  0.2490104E-006  0.9118800E+02  0.7816164E-02  0.1184000E+00
        -11   -1    0    0    0    0  0.00000000000E+00  0.00000000000E+00  0.45593999997E+02  0.45594000000E+02  0.51100000000E-03 0.  1.
         11   -1    0    0    0    0 -0.00000000000E+00 -0.00000000000E+00 -0.45593999997E+02  0.45594000000E+02  0.51100000000E-03 0. -1.
         23    2    1    2    0    0 -0.26645352591E-14  0.17763568394E-14  0.71054273576E-14  0.91188000000E+02  0.91188000000E+02 0.  0.
    9900012    2    3    3    0    0  0.61901071120E+01 -0.13243646704E+02 -0.33794507419E+02  0.54367077473E+02  0.39999984715E+02 0.  0.
        -12    1    3    3    0    0 -0.61901071120E+01  0.13243646704E+02  0.33794507419E+02  0.36820922527E+02  0.00000000000E+00 0.  1.
         11    1    4    4    0    0  0.26096268563E+01 -0.44090730395E+01 -0.10226171947E+02  0.11437861266E+02  0.51100000000E-03 0. -1.
        -11    1    4    4    0    0  0.14016690808E+02 -0.15816903291E+02 -0.72582281961E+01  0.22345557226E+02  0.51100000000E-03 0.  1.
         12    1    4    4    0    0 -0.10436210552E+02  0.69823296264E+01 -0.16310107276E+02  0.20583658981E+02  0.00000000000E+00 0. -1.
</event>
<event>
 8    1  0.2490104E-006  0.9118800E+02  0.7816164E-02  0.1184000E+00
        -11   -1    0    0    0    0  0.00000000000E+00  0.00000000000E+00  0.45593999997E+02  0.45594000000E+02  0.51100000000E-03 0.  1.
         11   -1    0    0    0    0 -0.00000000000E+00 -0.00000000000E+00 -0.45593999997E+02  0.45594000000E+02  0.51100000000E-03 0. -1.
         23    2    1    2    0    0  0.17763568394E-14  0.00000000000E+00 -0.35527136788E-14  0.91188000000E+02  0.91188000000E+02 0.  0.
    9900012    2    3    3    0    0 -0.84682238124E+01  0.25798927941E+02 -0.24869361820E+02  0.54367073141E+02  0.39999974840E+02 0.  0.
        -12    1    3    3    0    0  0.84682238124E+01 -0.25798927941E+02  0.24869361820E+02  0.36820926859E+02  0.00000000000E+00 0.  1.
         11    1    4    4    0    0 -0.13803180808E+01 -0.76053518031E+01 -0.81690839674E+01  0.11246358841E+02  0.51100000000E-03 0. -1.
        -11    1    4    4    0    0 -0.12013100184E+02  0.10477729591E+02 -0.39233903818E+01  0.16416162334E+02  0.51100000000E-03 0.  1.
         12    1    4    4    0    0  0.49251944524E+01  0.22926550153E+02 -0.12776887471E+02  0.26704551967E+02  0.00000000000E+00 0. -1.
</event>
<event>
 8    1  0.2490104E-006  0.9118800E+02  0.7816164E-02  0.1184000E+00
        -11   -1    0    0    0    0  0.00000000000E+00  0.00000000000E+00  0.45593999997E+02  0.45594000000E+02  0.51100000000E-03 0.  1.
         11   -1    0    0    0    0 -0.00000000000E+00 -0.00000000000E+00 -0.45593999997E+02  0.45594000000E+02  0.51100000000E-03 0. -1.
         23    2    1    2    0    0  0.00000000000E+00 -0.88817841970E-15  0.00000000000E+00  0.91188000000E+02  0.91188000000E+02 0.  0.
    9900012    2    3    3    0    0  0.34366232791E+02  0.65731949347E+01  0.11468920438E+02  0.54367068672E+02  0.39999964651E+02 0.  0.
         12    1    3    3    0    0 -0.34366232791E+02 -0.65731949347E+01 -0.11468920438E+02  0.36820931328E+02  0.00000000000E+00 0. -1.
         11    1    4    4    0    0 -0.43532408240E+01 -0.92007386936E-01  0.44290696447E+01  0.62109443090E+01  0.51100000000E-03 0. -1.
        -11    1    4    4    0    0  0.35084463360E+01  0.20211960059E+01  0.11658046323E+02  0.12341169852E+02  0.51100000000E-03 0.  1.
        -12    1    4    4    0    0  0.35211027279E+02  0.46440063157E+01 -0.46181955298E+01  0.35814954511E+02  0.00000000000E+00 0.  1.
</event>
<event>
 8    1  0.2490104E-006  0.9118800E+02  0.7816164E-02  0.1184000E+00
        -11   -1    0    0    0    0  0.00000000000E+00  0.00000000000E+00  0.45593999997E+02  0.45594000000E+02  0.51100000000E-03 0.  1.
         11   -1    0    0    0    0 -0.00000000000E+00 -0.00000000000E+00 -0.45593999997E+02  0.45594000000E+02  0.51100000000E-03 0. -1.
         23    2    1    2    0    0  0.22204460493E-15  0.00000000000E+00  0.22204460493E-15  0.91188000000E+02  0.91188000000E+02 0.  0.
    9900012    2    3    3    0    0  0.11290919753E+01 -0.36800407840E+02  0.48420108119E+00  0.54367091313E+02  0.40000016266E+02 0.  0.
        -12    1    3    3    0    0 -0.11290919753E+01  0.36800407840E+02 -0.48420108119E+00  0.36820908687E+02  0.00000000000E+00 0.  1.
         11    1    4    4    0    0  0.16481246372E+01  0.38660481617E+01  0.28312672429E+01  0.50674172583E+01  0.51100000000E-03 0.  1.
        -11    1    4    4    0    0 -0.10856409276E+02 -0.29807972625E+02 -0.88845000445E+01  0.32944061614E+02  0.51100000000E-03 0. -1.
         12    1    4    4    0    0  0.10337376614E+02 -0.10858483377E+02  0.65374338829E+01  0.16355612440E+02  0.00000000000E+00 0. -1.
</event>
<event>
 8    1  0.2490104E-006  0.9118800E+02  0.7816164E-02  0.1184000E+00
        -11   -1    0    0    0    0  0.00000000000E+00  0.00000000000E+00  0.45593999997E+02  0.45594000000E+02  0.51100000000E-03 0. -1.
         11   -1    0    0    0    0 -0.00000000000E+00 -0.00000000000E+00 -0.45593999997E+02  0.45594000000E+02  0.51100000000E-03 0.  1.
         23    2    1    2    0    0  0.35527136788E-14 -0.66613381478E-15  0.00000000000E+00  0.91188000000E+02  0.91188000000E+02 0.  0.
    9900012    2    3    3    0    0  0.30322013769E+02  0.19490028998E+01 -0.20798014043E+02  0.54367074978E+02  0.39999979028E+02 0.  0.
         12    1    3    3    0    0 -0.30322013769E+02 -0.19490028998E+01  0.20798014043E+02  0.36820925022E+02  0.00000000000E+00 0. -1.
         11    1    4    4    0    0  0.27630235219E+02  0.61419369030E+01 -0.54326141085E+01  0.28821286985E+02  0.51100000000E-03 0. -1.
        -11    1    4    4    0    0  0.55947802759E+01  0.64920759150E+01 -0.10215587982E+02  0.13334423651E+02  0.51100000000E-03 0.  1.
        -12    1    4    4    0    0 -0.29030017253E+01 -0.10685009918E+02 -0.51498119522E+01  0.12211364343E+02  0.00000000000E+00 0.  1.
</event>
<event>
 8    1  0.2490104E-006  0.9118800E+02  0.7816164E-02  0.1184000E+00
        -11   -1    0    0    0    0  0.00000000000E+00  0.00000000000E+00  0.45593999997E+02  0.45594000000E+02  0.51100000000E-03 0. -1.
         11   -1    0    0    0    0 -0.00000000000E+00 -0.00000000000E+00 -0.45593999997E+02  0.45594000000E+02  0.51100000000E-03 0.  1.
         23    2    1    2    0    0  0.71054273576E-14  0.00000000000E+00  0.00000000000E+00  0.91188000000E+02  0.91188000000E+02 0.  0.
    9900012    2    3    3    0    0 -0.31429003476E+02  0.17839051444E+02  0.70545247915E+01  0.54367077470E+02  0.39999984709E+02 0.  0.
        -12    1    3    3    0    0  0.31429003476E+02 -0.17839051444E+02 -0.70545247915E+01  0.36820922530E+02  0.00000000000E+00 0.  1.
         11    1    4    4    0    0  0.21194291711E+01  0.12977478453E+01  0.12769366367E+02  0.13008952577E+02  0.51100000000E-03 0. -1.
        -11    1    4    4    0    0 -0.23487067063E+00 -0.76675973356E+00 -0.36747766610E+01  0.37612588970E+01  0.51100000000E-03 0.  1.
         12    1    4    4    0    0 -0.33313561976E+02  0.17308063333E+02 -0.20400649145E+01  0.37596865996E+02  0.00000000000E+00 0. -1.
</event>
<event>
 8    1  0.2490104E-006  0.9118800E+02  0.7816164E-02  0.1184000E+00
        -11   -1    0    0    0    0  0.00000000000E+00  0.00000000000E+00  0.45593999997E+02  0.45594000000E+02  0.51100000000E-03 0.  1.
         11   -1    0    0    0    0 -0.00000000000E+00 -0.00000000000E+00 -0.45593999997E+02  0.45594000000E+02  0.51100000000E-03 0. -1.
         23    2    1    2    0    0  0.17763568394E-14  0.00000000000E+00 -0.35527136788E-14  0.91188000000E+02  0.91188000000E+02 0.  0.
    9900012    2    3    3    0    0 -0.14668904941E+02 -0.22878081996E+02  0.24843481336E+02  0.54367055242E+02  0.39999934035E+02 0.  0.
         12    1    3    3    0    0  0.14668904941E+02  0.22878081996E+02 -0.24843481336E+02  0.36820944758E+02  0.00000000000E+00 0. -1.
         11    1    4    4    0    0 -0.73099037563E+01 -0.21169693215E+02  0.51650764531E+00  0.22402173648E+02  0.51100000000E-03 0. -1.
        -11    1    4    4    0    0 -0.75972860256E+01 -0.65233699668E+01  0.35318133216E+01  0.10618230374E+02  0.51100000000E-03 0.  1.
        -12    1    4    4    0    0  0.23828484068E+00  0.48149811863E+01  0.20795160369E+02  0.21346651219E+02  0.00000000000E+00 0.  1.
</event>
<event>
 8    1  0.2490104E-006  0.9118800E+02  0.7816164E-02  0.1184000E+00
        -11   -1    0    0    0    0  0.00000000000E+00  0.00000000000E+00  0.45593999997E+02  0.45594000000E+02  0.51100000000E-03 0.  1.
         11   -1    0    0    0    0 -0.00000000000E+00 -0.00000000000E+00 -0.45593999997E+02  0.45594000000E+02  0.51100000000E-03 0. -1.
         23    2    1    2    0    0  0.00000000000E+00 -0.71054273576E-14  0.00000000000E+00  0.91188000000E+02  0.91188000000E+02 0.  0.
    9900012    2    3    3    0    0  0.16644388767E+02 -0.24669315849E+02  0.21683406867E+02  0.54367069061E+02  0.39999965538E+02 0.  0.
         12    1    3    3    0    0 -0.16644388767E+02  0.24669315849E+02 -0.21683406867E+02  0.36820930939E+02  0.00000000000E+00 0. -1.
         11    1    4    4    0    0  0.88655214614E+01 -0.11770625721E+02  0.11082349802E+02  0.18438101259E+02  0.51100000000E-03 0. -1.
        -11    1    4    4    0    0 -0.31596195212E+01 -0.19783264343E+02  0.11271086950E+02  0.22986912470E+02  0.51100000000E-03 0.  1.
         12    1    4    4    0    0  0.10938486826E+02  0.68845742148E+01 -0.67002988529E+00  0.12942055332E+02  0.00000000000E+00 0. -1.
</event>
<event>
 8    1  0.2490104E-006  0.9118800E+02  0.7816164E-02  0.1184000E+00
        -11   -1    0    0    0    0  0.00000000000E+00  0.00000000000E+00  0.45593999997E+02  0.45594000000E+02  0.51100000000E-03 0.  1.
         11   -1    0    0    0    0 -0.00000000000E+00 -0.00000000000E+00 -0.45593999997E+02  0.45594000000E+02  0.51100000000E-03 0. -1.
         23    2    1    2    0    0  0.00000000000E+00  0.00000000000E+00  0.00000000000E+00  0.91188000000E+02  0.91188000000E+02 0.  0.
    9900012    2    3    3    0    0 -0.16512175105E+02  0.19697877619E+02  0.26365135321E+02  0.54367100095E+02  0.40000036285E+02 0.  0.
         12    1    3    3    0    0  0.16512175105E+02 -0.19697877619E+02 -0.26365135321E+02  0.36820899905E+02  0.00000000000E+00 0. -1.
         11    1    4    4    0    0 -0.28651783007E+01  0.91856716607E+01  0.70677913695E+01  0.11938990144E+02  0.51100000000E-03 0.  1.
        -11    1    4    4    0    0 -0.21567672496E+02 -0.16048648373E+01  0.52473057512E+01  0.22254759175E+02  0.51100000000E-03 0. -1.
        -12    1    4    4    0    0  0.79206756922E+01  0.12117070795E+02  0.14050038200E+02  0.20173350775E+02  0.00000000000E+00 0.  1.
</event>
<event>
 8    1  0.2490104E-006  0.9118800E+02  0.7816164E-02  0.1184000E+00
        -11   -1    0    0    0    0  0.00000000000E+00  0.00000000000E+00  0.45593999997E+02  0.45594000000E+02  0.51100000000E-03 0.  1.
         11   -1    0    0    0    0 -0.00000000000E+00 -0.00000000000E+00 -0.45593999997E+02  0.45594000000E+02  0.51100000000E-03 0. -1.
         23    2    1    2    0    0  0.00000000000E+00  0.00000000000E+00  0.00000000000E+00  0.91188000000E+02  0.91188000000E+02 0.  0.
    9900012    2    3    3    0    0 -0.24379496580E+02 -0.22611989370E+02  0.15815134898E+02  0.54367076484E+02  0.39999982460E+02 0.  0.
         12    1    3    3    0    0  0.24379496580E+02  0.22611989370E+02 -0.15815134898E+02  0.36820923516E+02  0.00000000000E+00 0. -1.
         11    1    4    4    0    0 -0.95181780554E+01 -0.17679327946E+02 -0.87811059552E+00  0.20097896124E+02  0.51100000000E-03 0. -1.
        -11    1    4    4    0    0 -0.90856648496E+01  0.88123239401E+01  0.11152160796E+01  0.12706300254E+02  0.51100000000E-03 0.  1.
        -12    1    4    4    0    0 -0.57756536751E+01 -0.13744985363E+02  0.15578029414E+02  0.21562880105E+02  0.00000000000E+00 0.  1.
</event>
<event>
 8    1  0.2490104E-006  0.9118800E+02  0.7816164E-02  0.1184000E+00
        -11   -1    0    0    0    0  0.00000000000E+00  0.00000000000E+00  0.45593999997E+02  0.45594000000E+02  0.51100000000E-03 0. -1.
         11   -1    0    0    0    0 -0.00000000000E+00 -0.00000000000E+00 -0.45593999997E+02  0.45594000000E+02  0.51100000000E-03 0.  1.
         23    2    1    2    0    0  0.00000000000E+00  0.17763568394E-14  0.00000000000E+00  0.91188000000E+02  0.91188000000E+02 0.  0.
    9900012    2    3    3    0    0 -0.32412795725E+02 -0.15059030955E+02 -0.88553215592E+01  0.54367075786E+02  0.39999980870E+02 0.  0.
         12    1    3    3    0    0  0.32412795725E+02  0.15059030955E+02  0.88553215592E+01  0.36820924214E+02  0.00000000000E+00 0. -1.
         11    1    4    4    0    0 -0.21132495378E+02 -0.12068641806E+01 -0.15514247320E+02  0.26243680234E+02  0.51100000000E-03 0. -1.
        -11    1    4    4    0    0 -0.98185737697E+01 -0.70510773685E+01  0.13669167622E+02  0.18247416986E+02  0.51100000000E-03 0.  1.
        -12    1    4    4    0    0 -0.14617265773E+01 -0.68010894056E+01 -0.70102418607E+01  0.98759785660E+01  0.00000000000E+00 0.  1.
</event>
<event>
 8    1  0.2490104E-006  0.9118800E+02  0.7816164E-02  0.1184000E+00
        -11   -1    0    0    0    0  0.00000000000E+00  0.00000000000E+00  0.45593999997E+02  0.45594000000E+02  0.51100000000E-03 0. -1.
         11   -1    0    0    0    0 -0.00000000000E+00 -0.00000000000E+00 -0.45593999997E+02  0.45594000000E+02  0.51100000000E-03 0.  1.
         23    2    1    2    0    0  0.00000000000E+00  0.44408920985E-15  0.00000000000E+00  0.91188000000E+02  0.91188000000E+02 0.  0.
    9900012    2    3    3    0    0  0.16112867344E+02  0.20557122226E+01 -0.33044347167E+02  0.54367091178E+02  0.40000015959E+02 0.  0.
         12    1    3    3    0    0 -0.16112867344E+02 -0.20557122226E+01  0.33044347167E+02  0.36820908822E+02  0.00000000000E+00 0. -1.
         11    1    4    4    0    0  0.18478062680E+01  0.20010952199E+02 -0.16816905371E+02  0.26204215356E+02  0.51100000000E-03 0. -1.
        -11    1    4    4    0    0  0.36276003712E+01 -0.46724790831E+01 -0.31548228422E+01  0.67040623999E+01  0.51100000000E-03 0.  1.
         12    1    4    4    0    0  0.10637460705E+02 -0.13282760893E+02 -0.13072618954E+02  0.21458813423E+02  0.00000000000E+00 0. -1.
</event>
<event>
 8    1  0.2490104E-006  0.9118800E+02  0.7816164E-02  0.1184000E+00
        -11   -1    0    0    0    0  0.00000000000E+00  0.00000000000E+00  0.45593999997E+02  0.45594000000E+02  0.51100000000E-03 0. -1.
         11   -1    0    0    0    0 -0.00000000000E+00 -0.00000000000E+00 -0.45593999997E+02  0.45594000000E+02  0.51100000000E-03 0.  1.
         23    2    1    2    0    0  0.00000000000E+00  0.35527136788E-14  0.00000000000E+00  0.91188000000E+02  0.91188000000E+02 0.  0.
    9900012    2    3    3    0    0  0.23809691926E+02  0.23321029173E+02  0.15652741924E+02  0.54367079845E+02  0.39999990123E+02 0.  0.
        -12    1    3    3    0    0 -0.23809691926E+02 -0.23321029173E+02 -0.15652741924E+02  0.36820920155E+02  0.00000000000E+00 0.  1.
         11    1    4    4    0    0  0.21359126813E+02 -0.19589439944E+00  0.16335459364E+02  0.26890479834E+02  0.51100000000E-03 0. -1.
        -11    1    4    4    0    0  0.23168291637E+01  0.21241917876E+02 -0.55718712716E+01  0.22082402998E+02  0.51100000000E-03 0.  1.
         12    1    4    4    0    0  0.13373594930E+00  0.22750056968E+01  0.48891538322E+01  0.53941970134E+01  0.00000000000E+00 0. -1.
</event>
<event>
 8    1  0.2490104E-006  0.9118800E+02  0.7816164E-02  0.1184000E+00
        -11   -1    0    0    0    0  0.00000000000E+00  0.00000000000E+00  0.45593999997E+02  0.45594000000E+02  0.51100000000E-03 0.  1.
         11   -1    0    0    0    0 -0.00000000000E+00 -0.00000000000E+00 -0.45593999997E+02  0.45594000000E+02  0.51100000000E-03 0. -1.
         23    2    1    2    0    0  0.00000000000E+00  0.00000000000E+00 -0.35527136788E-14  0.91188000000E+02  0.91188000000E+02 0.  0.
    9900012    2    3    3    0    0 -0.95820029447E+01  0.32211071976E+02 -0.15047033064E+02  0.54367066520E+02  0.39999959746E+02 0.  0.
        -12    1    3    3    0    0  0.95820029447E+01 -0.32211071976E+02  0.15047033064E+02  0.36820933480E+02  0.00000000000E+00 0.  1.
         11    1    4    4    0    0 -0.11274006794E+02  0.25612181730E+02 -0.30946402841E+01  0.28154287079E+02  0.51100000000E-03 0. -1.
        -11    1    4    4    0    0  0.29210160895E+01 -0.23271168963E+00  0.61569665877E+01  0.68187042426E+01  0.51100000000E-03 0.  1.
         12    1    4    4    0    0 -0.12290122401E+01  0.68316019355E+01 -0.18109359368E+02  0.19394075199E+02  0.00000000000E+00 0. -1.
</event>
<event>
 8    1  0.2490104E-006  0.9118800E+02  0.7816164E-02  0.1184000E+00
        -11   -1    0    0    0    0  0.00000000000E+00  0.00000000000E+00  0.45593999997E+02  0.45594000000E+02  0.51100000000E-03 0.  1.
         11   -1    0    0    0    0 -0.00000000000E+00 -0.00000000000E+00 -0.45593999997E+02  0.45594000000E+02  0.51100000000E-03 0. -1.
         23    2    1    2    0    0  0.35527136788E-14  0.00000000000E+00  0.00000000000E+00  0.91188000000E+02  0.91188000000E+02 0.  0.
    9900012    2    3    3    0    0 -0.23013666504E+02  0.27890253576E+02  0.69487038459E+01  0.54367087795E+02  0.40000008247E+02 0.  0.
         12    1    3    3    0    0  0.23013666504E+02 -0.27890253576E+02 -0.69487038459E+01  0.36820912205E+02  0.00000000000E+00 0. -1.
         11    1    4    4    0    0 -0.10803444708E+02 -0.22259838851E+01  0.10118188861E+02  0.14968205233E+02  0.51100000000E-03 0. -1.
        -11    1    4    4    0    0 -0.79968084765E+01 -0.82939469553E+00 -0.58362350825E+00  0.80608596335E+01  0.51100000000E-03 0.  1.
         12    1    4    4    0    0 -0.42134133196E+01  0.30945632156E+02 -0.25858615067E+01  0.31338022929E+02  0.00000000000E+00 0. -1.
</event>
<event>
 8    1  0.2490104E-006  0.9118800E+02  0.7816164E-02  0.1184000E+00
        -11   -1    0    0    0    0  0.00000000000E+00  0.00000000000E+00  0.45593999997E+02  0.45594000000E+02  0.51100000000E-03 0.  1.
         11   -1    0    0    0    0 -0.00000000000E+00 -0.00000000000E+00 -0.45593999997E+02  0.45594000000E+02  0.51100000000E-03 0. -1.
         23    2    1    2    0    0  0.00000000000E+00  0.00000000000E+00  0.26645352591E-14  0.91188000000E+02  0.91188000000E+02 0.  0.
    9900012    2    3    3    0    0  0.96528050412E+01  0.34820311632E+02  0.70815048105E+01  0.54367102976E+02  0.40000042854E+02 0.  0.
         12    1    3    3    0    0 -0.96528050412E+01 -0.34820311632E+02 -0.70815048105E+01  0.36820897024E+02  0.00000000000E+00 0. -1.
         11    1    4    4    0    0  0.14508814312E+02  0.10301360448E+02 -0.76717237092E+01  0.19377282182E+02  0.51100000000E-03 0. -1.
        -11    1    4    4    0    0 -0.60185569594E+01  0.25201925402E+02  0.17949670834E+02  0.31520640145E+02  0.51100000000E-03 0.  1.
        -12    1    4    4    0    0  0.11625476883E+01 -0.68297421803E+00 -0.31964423140E+01  0.34691806492E+01  0.00000000000E+00 0.  1.
</event>
<event>
 8    1  0.2490104E-006  0.9118800E+02  0.7816164E-02  0.1184000E+00
        -11   -1    0    0    0    0  0.00000000000E+00  0.00000000000E+00  0.45593999997E+02  0.45594000000E+02  0.51100000000E-03 0.  1.
         11   -1    0    0    0    0 -0.00000000000E+00 -0.00000000000E+00 -0.45593999997E+02  0.45594000000E+02  0.51100000000E-03 0. -1.
         23    2    1    2    0    0  0.00000000000E+00 -0.22204460493E-15  0.00000000000E+00  0.91188000000E+02  0.91188000000E+02 0.  0.
    9900012    2    3    3    0    0  0.36373830959E+02 -0.80642453999E+00 -0.56634264432E+01  0.54367077982E+02  0.39999985875E+02 0.  0.
        -12    1    3    3    0    0 -0.36373830959E+02  0.80642453999E+00  0.56634264432E+01  0.36820922018E+02  0.00000000000E+00 0.  1.
         11    1    4    4    0    0 -0.68775052460E+01 -0.37739004578E+01 -0.44595141351E+00  0.78575617082E+01  0.51100000000E-03 0.  1.
        -11    1    4    4    0    0  0.24973350664E+02  0.79247169740E+01  0.19201414299E+01  0.26270826517E+02  0.51100000000E-03 0. -1.
         12    1    4    4    0    0  0.18277985542E+02 -0.49572410562E+01 -0.71376164596E+01  0.20238689757E+02  0.00000000000E+00 0. -1.
</event>
<event>
 8    1  0.2490104E-006  0.9118800E+02  0.7816164E-02  0.1184000E+00
        -11   -1    0    0    0    0  0.00000000000E+00  0.00000000000E+00  0.45593999997E+02  0.45594000000E+02  0.51100000000E-03 0. -1.
         11   -1    0    0    0    0 -0.00000000000E+00 -0.00000000000E+00 -0.45593999997E+02  0.45594000000E+02  0.51100000000E-03 0.  1.
         23    2    1    2    0    0  0.88817841970E-15 -0.71054273576E-14  0.00000000000E+00  0.91188000000E+02  0.91188000000E+02 0.  0.
    9900012    2    3    3    0    0  0.67258650588E+01 -0.29582553440E+02  0.20866588682E+02  0.54367092188E+02  0.40000018262E+02 0.  0.
        -12    1    3    3    0    0 -0.67258650588E+01  0.29582553440E+02 -0.20866588682E+02  0.36820907812E+02  0.00000000000E+00 0.  1.
         11    1    4    4    0    0 -0.30458867985E+01 -0.27366262819E+02  0.13975916015E+02  0.30879054321E+02  0.51100000000E-03 0. -1.
        -11    1    4    4    0    0  0.12933084570E+02  0.83350175679E+00  0.11350887663E+02  0.17227943948E+02  0.51100000000E-03 0.  1.
        -12    1    4    4    0    0 -0.31613327128E+01 -0.30497923786E+01 -0.44602149957E+01  0.62600939196E+01  0.00000000000E+00 0.  1.
</event>
<event>
 8    1  0.2490104E-006  0.9118800E+02  0.7816164E-02  0.1184000E+00
        -11   -1    0    0    0    0  0.00000000000E+00  0.00000000000E+00  0.45593999997E+02  0.45594000000E+02  0.51100000000E-03 0. -1.
         11   -1    0    0    0    0 -0.00000000000E+00 -0.00000000000E+00 -0.45593999997E+02  0.45594000000E+02  0.51100000000E-03 0.  1.
         23    2    1    2    0    0  0.35527136788E-14  0.17763568394E-14  0.00000000000E+00  0.91188000000E+02  0.91188000000E+02 0.  0.
    9900012    2    3    3    0    0  0.21638531323E+02  0.15314987552E+02 -0.25553972588E+02  0.54367076646E+02  0.39999982831E+02 0.  0.
         12    1    3    3    0    0 -0.21638531323E+02 -0.15314987552E+02  0.25553972588E+02  0.36820923354E+02  0.00000000000E+00 0. -1.
         11    1    4    4    0    0 -0.33351148548E+01 -0.24087057996E+01  0.29010919102E+01  0.50340033032E+01  0.51100000000E-03 0. -1.
        -11    1    4    4    0    0  0.42425124338E+01  0.29210988805E+01  0.50704232243E+01  0.72277882063E+01  0.51100000000E-03 0.  1.
        -12    1    4    4    0    0  0.20731133744E+02  0.14802594472E+02 -0.33525487723E+02  0.42105285137E+02  0.00000000000E+00 0.  1.
</event>
<event>
 8    1  0.2490104E-006  0.9118800E+02  0.7816164E-02  0.1184000E+00
        -11   -1    0    0    0    0  0.00000000000E+00  0.00000000000E+00  0.45593999997E+02  0.45594000000E+02  0.51100000000E-03 0.  1.
         11   -1    0    0    0    0 -0.00000000000E+00 -0.00000000000E+00 -0.45593999997E+02  0.45594000000E+02  0.51100000000E-03 0. -1.
         23    2    1    2    0    0 -0.88817841970E-15  0.00000000000E+00 -0.71054273576E-14  0.91188000000E+02  0.91188000000E+02 0.  0.
    9900012    2    3    3    0    0  0.58458681405E+01  0.80362990755E+01 -0.35454527578E+02  0.54367084708E+02  0.40000001209E+02 0.  0.
        -12    1    3    3    0    0 -0.58458681405E+01 -0.80362990755E+01  0.35454527578E+02  0.36820915292E+02  0.00000000000E+00 0.  1.
         11    1    4    4    0    0  0.29728581113E+01  0.65235411347E+01 -0.29818998744E+01  0.77644189356E+01  0.51100000000E-03 0. -1.
        -11    1    4    4    0    0 -0.69685849625E+01  0.61061102864E+01 -0.34352829134E+02  0.35580368590E+02  0.51100000000E-03 0.  1.
        -12    1    4    4    0    0  0.98415949917E+01 -0.45933523456E+01  0.18802014305E+01  0.11022297182E+02  0.00000000000E+00 0.  1.
</event>
<event>
 8    1  0.2490104E-006  0.9118800E+02  0.7816164E-02  0.1184000E+00
        -11   -1    0    0    0    0  0.00000000000E+00  0.00000000000E+00  0.45593999997E+02  0.45594000000E+02  0.51100000000E-03 0. -1.
         11   -1    0    0    0    0 -0.00000000000E+00 -0.00000000000E+00 -0.45593999997E+02  0.45594000000E+02  0.51100000000E-03 0.  1.
         23    2    1    2    0    0  0.00000000000E+00  0.44408920985E-15  0.00000000000E+00  0.91188000000E+02  0.91188000000E+02 0.  0.
    9900012    2    3    3    0    0  0.20206355916E+02  0.30688842563E+01  0.30627854495E+02  0.54367077402E+02  0.39999984554E+02 0.  0.
        -12    1    3    3    0    0 -0.20206355916E+02 -0.30688842563E+01 -0.30627854495E+02  0.36820922598E+02  0.00000000000E+00 0.  1.
         11    1    4    4    0    0 -0.62407661302E+01  0.40572329639E+01  0.92864743412E+01  0.11901550620E+02  0.51100000000E-03 0. -1.
        -11    1    4    4    0    0 -0.16528040020E+00  0.29211546459E+01  0.14389095444E+02  0.14683546235E+02  0.51100000000E-03 0.  1.
        -12    1    4    4    0    0  0.26612402446E+02 -0.39095033534E+01  0.69522847099E+01  0.27781980547E+02  0.00000000000E+00 0.  1.
</event>
<event>
 8    1  0.2490104E-006  0.9118800E+02  0.7816164E-02  0.1184000E+00
        -11   -1    0    0    0    0  0.00000000000E+00  0.00000000000E+00  0.45593999997E+02  0.45594000000E+02  0.51100000000E-03 0.  1.
         11   -1    0    0    0    0 -0.00000000000E+00 -0.00000000000E+00 -0.45593999997E+02  0.45594000000E+02  0.51100000000E-03 0. -1.
         23    2    1    2    0    0  0.00000000000E+00  0.00000000000E+00  0.00000000000E+00  0.91188000000E+02  0.91188000000E+02 0.  0.
    9900012    2    3    3    0    0  0.34002776251E+02  0.84966071640E+01 -0.11287086368E+02  0.54367089572E+02  0.40000012297E+02 0.  0.
        -12    1    3    3    0    0 -0.34002776251E+02 -0.84966071640E+01  0.11287086368E+02  0.36820910428E+02  0.00000000000E+00 0.  1.
         11    1    4    4    0    0  0.33920749731E+02  0.34461379347E+01  0.95179681533E+00  0.34108635951E+02  0.51100000000E-03 0. -1.
        -11    1    4    4    0    0 -0.50555007924E+01 -0.29284260051E+01 -0.17175652117E+01  0.60896467588E+01  0.51100000000E-03 0.  1.
         12    1    4    4    0    0  0.51375273119E+01  0.79788952344E+01 -0.10521317972E+02  0.14168806862E+02  0.00000000000E+00 0. -1.
</event>
<event>
 8    1  0.2490104E-006  0.9118800E+02  0.7816164E-02  0.1184000E+00
        -11   -1    0    0    0    0  0.00000000000E+00  0.00000000000E+00  0.45593999997E+02  0.45594000000E+02  0.51100000000E-03 0.  1.
         11   -1    0    0    0    0 -0.00000000000E+00 -0.00000000000E+00 -0.45593999997E+02  0.45594000000E+02  0.51100000000E-03 0. -1.
         23    2    1    2    0    0  0.00000000000E+00  0.00000000000E+00  0.00000000000E+00  0.91188000000E+02  0.91188000000E+02 0.  0.
    9900012    2    3    3    0    0  0.20626830142E+02  0.26255981866E+02 -0.15522180368E+02  0.54367071320E+02  0.39999970689E+02 0.  0.
        -12    1    3    3    0    0 -0.20626830142E+02 -0.26255981866E+02  0.15522180368E+02  0.36820928680E+02  0.00000000000E+00 0.  1.
         11    1    4    4    0    0  0.15707945358E+02  0.13313173632E+02 -0.22528707877E+02  0.30520858743E+02  0.51100000000E-03 0. -1.
        -11    1    4    4    0    0 -0.62776103107E+01  0.77710406586E+01  0.55479225489E+01  0.11427025378E+02  0.51100000000E-03 0.  1.
        -12    1    4    4    0    0  0.11196495094E+02  0.51717675753E+01  0.14586049600E+01  0.12419187199E+02  0.00000000000E+00 0.  1.
</event>
<event>
 8    1  0.2490104E-006  0.9118800E+02  0.7816164E-02  0.1184000E+00
        -11   -1    0    0    0    0  0.00000000000E+00  0.00000000000E+00  0.45593999997E+02  0.45594000000E+02  0.51100000000E-03 0. -1.
         11   -1    0    0    0    0 -0.00000000000E+00 -0.00000000000E+00 -0.45593999997E+02  0.45594000000E+02  0.51100000000E-03 0.  1.
         23    2    1    2    0    0  0.00000000000E+00 -0.35527136788E-14  0.00000000000E+00  0.91188000000E+02  0.91188000000E+02 0.  0.
    9900012    2    3    3    0    0  0.18878264390E+02 -0.28593565342E+02 -0.13483393573E+02  0.54367044722E+02  0.39999910053E+02 0.  0.
         12    1    3    3    0    0 -0.18878264390E+02  0.28593565342E+02  0.13483393573E+02  0.36820955278E+02  0.00000000000E+00 0. -1.
         11    1    4    4    0    0 -0.75011411668E+01 -0.34378795565E+01 -0.11087515169E+00  0.82521771800E+01  0.51100000000E-03 0. -1.
        -11    1    4    4    0    0  0.78290443456E+01 -0.24336581043E+02 -0.77896778820E+01  0.26725309989E+02  0.51100000000E-03 0.  1.
        -12    1    4    4    0    0  0.18550361211E+02 -0.81910474204E+00 -0.55828405397E+01  0.19389557553E+02  0.00000000000E+00 0.  1.
</event>
<event>
 8    1  0.2490104E-006  0.9118800E+02  0.7816164E-02  0.1184000E+00
        -11   -1    0    0    0    0  0.00000000000E+00  0.00000000000E+00  0.45593999997E+02  0.45594000000E+02  0.51100000000E-03 0. -1.
         11   -1    0    0    0    0 -0.00000000000E+00 -0.00000000000E+00 -0.45593999997E+02  0.45594000000E+02  0.51100000000E-03 0.  1.
         23    2    1    2    0    0  0.00000000000E+00  0.00000000000E+00  0.35527136788E-14  0.91188000000E+02  0.91188000000E+02 0.  0.
    9900012    2    3    3    0    0  0.27427296718E+02  0.18443571135E+02 -0.16228278672E+02  0.54367096289E+02  0.40000027609E+02 0.  0.
         12    1    3    3    0    0 -0.27427296718E+02 -0.18443571135E+02  0.16228278672E+02  0.36820903711E+02  0.00000000000E+00 0. -1.
         11    1    4    4    0    0  0.81793430872E+00 -0.66947687943E+00 -0.17330545331E+01  0.20299492854E+01  0.51100000000E-03 0. -1.
        -11    1    4    4    0    0  0.31332889712E+02  0.14694718583E+02  0.19533040353E+01  0.34662661884E+02  0.51100000000E-03 0.  1.
         12    1    4    4    0    0 -0.47235273027E+01  0.44183294314E+01 -0.16448528174E+02  0.17674485119E+02  0.00000000000E+00 0. -1.
</event>
<event>
 8    1  0.2490104E-006  0.9118800E+02  0.7816164E-02  0.1184000E+00
        -11   -1    0    0    0    0  0.00000000000E+00  0.00000000000E+00  0.45593999997E+02  0.45594000000E+02  0.51100000000E-03 0.  1.
         11   -1    0    0    0    0 -0.00000000000E+00 -0.00000000000E+00 -0.45593999997E+02  0.45594000000E+02  0.51100000000E-03 0. -1.
         23    2    1    2    0    0  0.00000000000E+00  0.17763568394E-14  0.00000000000E+00  0.91188000000E+02  0.91188000000E+02 0.  0.
    9900012    2    3    3    0    0 -0.34960870327E+02  0.79895307949E+01  0.83477442725E+01  0.54367083515E+02  0.39999998489E+02 0.  0.
         12    1    3    3    0    0  0.34960870327E+02 -0.79895307949E+01 -0.83477442725E+01  0.36820916485E+02  0.00000000000E+00 0. -1.
         11    1    4    4    0    0 -0.18009656812E+02  0.22835113678E+02  0.24483147891E+01  0.29185345650E+02  0.51100000000E-03 0. -1.
        -11    1    4    4    0    0 -0.15695810763E+02 -0.82425302534E+01  0.48415680117E+01  0.18377664747E+02  0.51100000000E-03 0.  1.
         12    1    4    4    0    0 -0.12554027529E+01 -0.66030526293E+01  0.10578614716E+01  0.68040731177E+01  0.00000000000E+00 0. -1.
</event>
<event>
 8    1  0.2490104E-006  0.9118800E+02  0.7816164E-02  0.1184000E+00
        -11   -1    0    0    0    0  0.00000000000E+00  0.00000000000E+00  0.45593999997E+02  0.45594000000E+02  0.51100000000E-03 0. -1.
         11   -1    0    0    0    0 -0.00000000000E+00 -0.00000000000E+00 -0.45593999997E+02  0.45594000000E+02  0.51100000000E-03 0.  1.
         23    2    1    2    0    0  0.35527136788E-14  0.00000000000E+00  0.17763568394E-14  0.91188000000E+02  0.91188000000E+02 0.  0.
    9900012    2    3    3    0    0  0.31241321105E+02 -0.17605413832E+02 -0.83552100539E+01  0.54367078289E+02  0.39999986576E+02 0.  0.
         12    1    3    3    0    0 -0.31241321105E+02  0.17605413832E+02  0.83552100539E+01  0.36820921711E+02  0.00000000000E+00 0. -1.
         11    1    4    4    0    0  0.32087578220E+02 -0.12482728238E+02  0.24690876196E+01  0.34518510602E+02  0.51100000000E-03 0. -1.
        -11    1    4    4    0    0  0.68729069192E+01 -0.18849396366E+01 -0.14350300445E+01  0.72697426669E+01  0.51100000000E-03 0.  1.
         12    1    4    4    0    0 -0.77191640341E+01 -0.32377459575E+01 -0.93892676290E+01  0.12578825020E+02  0.00000000000E+00 0. -1.
</event>
<event>
 8    1  0.2490104E-006  0.9118800E+02  0.7816164E-02  0.1184000E+00
        -11   -1    0    0    0    0  0.00000000000E+00  0.00000000000E+00  0.45593999997E+02  0.45594000000E+02  0.51100000000E-03 0. -1.
         11   -1    0    0    0    0 -0.00000000000E+00 -0.00000000000E+00 -0.45593999997E+02  0.45594000000E+02  0.51100000000E-03 0.  1.
         23    2    1    2    0    0  0.00000000000E+00  0.00000000000E+00  0.00000000000E+00  0.91188000000E+02  0.91188000000E+02 0.  0.
    9900012    2    3    3    0    0  0.11967643963E+02 -0.17974923027E+02  0.29823769356E+02  0.54367087757E+02  0.40000008159E+02 0.  0.
        -12    1    3    3    0    0 -0.11967643963E+02  0.17974923027E+02 -0.29823769356E+02  0.36820912243E+02  0.00000000000E+00 0.  1.
         11    1    4    4    0    0  0.11492561828E+02 -0.17915987976E+02  0.37702313551E+02  0.43295797139E+02  0.51100000000E-03 0. -1.
        -11    1    4    4    0    0  0.76438972023E+00  0.35097686177E+01 -0.18028132253E+01  0.40190674516E+01  0.51100000000E-03 0.  1.
         12    1    4    4    0    0 -0.28930758509E+00 -0.35687036691E+01 -0.60757309706E+01  0.70522231660E+01  0.00000000000E+00 0. -1.
</event>
<event>
 8    1  0.2490104E-006  0.9118800E+02  0.7816164E-02  0.1184000E+00
        -11   -1    0    0    0    0  0.00000000000E+00  0.00000000000E+00  0.45593999997E+02  0.45594000000E+02  0.51100000000E-03 0. -1.
         11   -1    0    0    0    0 -0.00000000000E+00 -0.00000000000E+00 -0.45593999997E+02  0.45594000000E+02  0.51100000000E-03 0.  1.
         23    2    1    2    0    0  0.00000000000E+00  0.35527136788E-14  0.00000000000E+00  0.91188000000E+02  0.91188000000E+02 0.  0.
    9900012    2    3    3    0    0  0.24148008255E+02  0.26627230378E+02  0.79777100504E+01  0.54367088035E+02  0.40000008793E+02 0.  0.
        -12    1    3    3    0    0 -0.24148008255E+02 -0.26627230378E+02 -0.79777100504E+01  0.36820911965E+02  0.00000000000E+00 0.  1.
         11    1    4    4    0    0  0.15744394111E+02  0.80509076363E+01  0.73987006977E+01  0.19168824480E+02  0.51100000000E-03 0. -1.
        -11    1    4    4    0    0  0.96677837700E+01  0.31125211042E+00 -0.10114638621E+02  0.13995314773E+02  0.51100000000E-03 0.  1.
        -12    1    4    4    0    0 -0.12641696257E+01  0.18265070632E+02  0.10693647974E+02  0.21202948781E+02  0.00000000000E+00 0.  1.
</event>
<event>
 8    1  0.2490104E-006  0.9118800E+02  0.7816164E-02  0.1184000E+00
        -11   -1    0    0    0    0  0.00000000000E+00  0.00000000000E+00  0.45593999997E+02  0.45594000000E+02  0.51100000000E-03 0.  1.
         11   -1    0    0    0    0 -0.00000000000E+00 -0.00000000000E+00 -0.45593999997E+02  0.45594000000E+02  0.51100000000E-03 0. -1.
         23    2    1    2    0    0  0.00000000000E+00 -0.35527136788E-14  0.00000000000E+00  0.91188000000E+02  0.91188000000E+02 0.  0.
    9900012    2    3    3    0    0 -0.20875709304E+02 -0.27262555104E+02  0.13294295432E+02  0.54367076047E+02  0.39999981465E+02 0.  0.
        -12    1    3    3    0    0  0.20875709304E+02  0.27262555104E+02 -0.13294295432E+02  0.36820923953E+02  0.00000000000E+00 0.  1.
         11    1    4    4    0    0 -0.53198214433E+00 -0.22325779205E+01  0.96860128727E+01  0.99542078943E+01  0.51100000000E-03 0. -1.
        -11    1    4    4    0    0 -0.88352289954E+01  0.57165022503E+01  0.47893374303E+01  0.11561895288E+02  0.51100000000E-03 0.  1.
         12    1    4    4    0    0 -0.11508498164E+02 -0.30746479433E+02 -0.11810548714E+01  0.32850972865E+02  0.00000000000E+00 0. -1.
</event>
<event>
 8    1  0.2490104E-006  0.9118800E+02  0.7816164E-02  0.1184000E+00
        -11   -1    0    0    0    0  0.00000000000E+00  0.00000000000E+00  0.45593999997E+02  0.45594000000E+02  0.51100000000E-03 0.  1.
         11   -1    0    0    0    0 -0.00000000000E+00 -0.00000000000E+00 -0.45593999997E+02  0.45594000000E+02  0.51100000000E-03 0. -1.
         23    2    1    2    0    0  0.00000000000E+00  0.00000000000E+00  0.00000000000E+00  0.91188000000E+02  0.91188000000E+02 0.  0.
    9900012    2    3    3    0    0 -0.31238648800E+02 -0.18235723331E+02  0.68836083112E+01  0.54367097681E+02  0.40000030783E+02 0.  0.
         12    1    3    3    0    0  0.31238648800E+02  0.18235723331E+02 -0.68836083112E+01  0.36820902319E+02  0.00000000000E+00 0. -1.
         11    1    4    4    0    0 -0.15891806727E+02 -0.46590836356E+01  0.10309391965E+02  0.19507438180E+02  0.51100000000E-03 0. -1.
        -11    1    4    4    0    0 -0.17457007268E+02 -0.10149465052E+02  0.87712462479E+01  0.22015755826E+02  0.51100000000E-03 0.  1.
         12    1    4    4    0    0  0.21101651959E+01 -0.34271746437E+01 -0.12197029901E+02  0.12843903675E+02  0.00000000000E+00 0. -1.
</event>
<event>
 8    1  0.2490104E-006  0.9118800E+02  0.7816164E-02  0.1184000E+00
        -11   -1    0    0    0    0  0.00000000000E+00  0.00000000000E+00  0.45593999997E+02  0.45594000000E+02  0.51100000000E-03 0. -1.
         11   -1    0    0    0    0 -0.00000000000E+00 -0.00000000000E+00 -0.45593999997E+02  0.45594000000E+02  0.51100000000E-03 0.  1.
         23    2    1    2    0    0  0.88817841970E-15 -0.71054273576E-14  0.00000000000E+00  0.91188000000E+02  0.91188000000E+02 0.  0.
    9900012    2    3    3    0    0 -0.77244072601E+01  0.34998367499E+02 -0.84396646324E+01  0.54367080210E+02  0.39999990954E+02 0.  0.
         12    1    3    3    0    0  0.77244072601E+01 -0.34998367499E+02  0.84396646324E+01  0.36820919790E+02  0.00000000000E+00 0. -1.
         11    1    4    4    0    0 -0.81108465318E+01 -0.71299691222E+00  0.84386085030E+00  0.81857374411E+01  0.51100000000E-03 0. -1.
        -11    1    4    4    0    0 -0.10264916122E+02  0.26947010584E+02  0.11923716380E+01  0.28860554963E+02  0.51100000000E-03 0.  1.
         12    1    4    4    0    0  0.10651355394E+02  0.87643538269E+01 -0.10475897121E+02  0.17320787806E+02  0.00000000000E+00 0. -1.
</event>
<event>
 8    1  0.2490104E-006  0.9118800E+02  0.7816164E-02  0.1184000E+00
        -11   -1    0    0    0    0  0.00000000000E+00  0.00000000000E+00  0.45593999997E+02  0.45594000000E+02  0.51100000000E-03 0.  1.
         11   -1    0    0    0    0 -0.00000000000E+00 -0.00000000000E+00 -0.45593999997E+02  0.45594000000E+02  0.51100000000E-03 0. -1.
         23    2    1    2    0    0  0.17763568394E-14  0.35527136788E-14  0.71054273576E-14  0.91188000000E+02  0.91188000000E+02 0.  0.
    9900012    2    3    3    0    0 -0.70727858056E+01  0.11413784403E+02 -0.34285285824E+02  0.54367087498E+02  0.40000007570E+02 0.  0.
        -12    1    3    3    0    0  0.70727858056E+01 -0.11413784403E+02  0.34285285824E+02  0.36820912502E+02  0.00000000000E+00 0.  1.
         11    1    4    4    0    0  0.62166101745E+01 -0.68483357948E+01 -0.64903498356E+01  0.11299140962E+02  0.51100000000E-03 0. -1.
        -11    1    4    4    0    0 -0.92619627801E+01  0.75657217322E+01  0.10851966687E+01  0.12008403388E+02  0.51100000000E-03 0.  1.
         12    1    4    4    0    0 -0.40274332000E+01  0.10696398466E+02 -0.28880132657E+02  0.31059543148E+02  0.00000000000E+00 0. -1.
</event>
<event>
 8    1  0.2490104E-006  0.9118800E+02  0.7816164E-02  0.1184000E+00
        -11   -1    0    0    0    0  0.00000000000E+00  0.00000000000E+00  0.45593999997E+02  0.45594000000E+02  0.51100000000E-03 0.  1.
         11   -1    0    0    0    0 -0.00000000000E+00 -0.00000000000E+00 -0.45593999997E+02  0.45594000000E+02  0.51100000000E-03 0. -1.
         23    2    1    2    0    0  0.17763568394E-14  0.00000000000E+00  0.00000000000E+00  0.91188000000E+02  0.91188000000E+02 0.  0.
    9900012    2    3    3    0    0 -0.15920253076E+02 -0.86982425895E+01 -0.32041634017E+02  0.54367079417E+02  0.39999989146E+02 0.  0.
        -12    1    3    3    0    0  0.15920253076E+02  0.86982425895E+01  0.32041634017E+02  0.36820920583E+02  0.00000000000E+00 0.  1.
         11    1    4    4    0    0 -0.12396546331E+02  0.11554570266E+02 -0.43594507164E+01  0.17498207502E+02  0.51100000000E-03 0. -1.
        -11    1    4    4    0    0  0.39338610267E+01 -0.15737211633E+01 -0.50004108483E+01  0.65540803924E+01  0.51100000000E-03 0.  1.
         12    1    4    4    0    0 -0.74575677709E+01 -0.18679091692E+02 -0.22681772452E+02  0.30314791523E+02  0.00000000000E+00 0. -1.
</event>
<event>
 8    1  0.2490104E-006  0.9118800E+02  0.7816164E-02  0.1184000E+00
        -11   -1    0    0    0    0  0.00000000000E+00  0.00000000000E+00  0.45593999997E+02  0.45594000000E+02  0.51100000000E-03 0.  1.
         11   -1    0    0    0    0 -0.00000000000E+00 -0.00000000000E+00 -0.45593999997E+02  0.45594000000E+02  0.51100000000E-03 0. -1.
         23    2    1    2    0    0 -0.66613381478E-15 -0.71054273576E-14 -0.35527136788E-14  0.91188000000E+02  0.91188000000E+02 0.  0.
    9900012    2    3    3    0    0  0.13088422428E+01 -0.35489391866E+02 -0.97246589654E+01  0.54367095678E+02  0.40000026218E+02 0.  0.
        -12    1    3    3    0    0 -0.13088422428E+01  0.35489391866E+02  0.97246589654E+01  0.36820904322E+02  0.00000000000E+00 0.  1.
         11    1    4    4    0    0  0.72477443471E+01 -0.18831584752E+02  0.10692392016E+02  0.22836059855E+02  0.51100000000E-03 0.  1.
        -11    1    4    4    0    0 -0.15157321432E+01 -0.45550459498E+01 -0.17729650580E+02  0.18368080942E+02  0.51100000000E-03 0. -1.
         12    1    4    4    0    0 -0.44231699611E+01 -0.12102761165E+02 -0.26874004015E+01  0.13162954882E+02  0.00000000000E+00 0. -1.
</event>
<event>
 8    1  0.2490104E-006  0.9118800E+02  0.7816164E-02  0.1184000E+00
        -11   -1    0    0    0    0  0.00000000000E+00  0.00000000000E+00  0.45593999997E+02  0.45594000000E+02  0.51100000000E-03 0.  1.
         11   -1    0    0    0    0 -0.00000000000E+00 -0.00000000000E+00 -0.45593999997E+02  0.45594000000E+02  0.51100000000E-03 0. -1.
         23    2    1    2    0    0  0.00000000000E+00 -0.17763568394E-14  0.00000000000E+00  0.91188000000E+02  0.91188000000E+02 0.  0.
    9900012    2    3    3    0    0 -0.32963004376E+02  0.15159114434E+02  0.62785942411E+01  0.54367093526E+02  0.40000021312E+02 0.  0.
        -12    1    3    3    0    0  0.32963004376E+02 -0.15159114434E+02 -0.62785942411E+01  0.36820906474E+02  0.00000000000E+00 0.  1.
         11    1    4    4    0    0 -0.71810174363E+01  0.71069098032E+01  0.87690747555E+01  0.13378036130E+02  0.51100000000E-03 0. -1.
        -11    1    4    4    0    0 -0.73850499178E+01  0.17071573116E+02 -0.72348998551E+01  0.19957989556E+02  0.51100000000E-03 0.  1.
         12    1    4    4    0    0 -0.18396937021E+02 -0.90193684848E+01  0.47444193407E+01  0.21031067841E+02  0.00000000000E+00 0. -1.
</event>
<event>
 8    1  0.2490104E-006  0.9118800E+02  0.7816164E-02  0.1184000E+00
        -11   -1    0    0    0    0  0.00000000000E+00  0.00000000000E+00  0.45593999997E+02  0.45594000000E+02  0.51100000000E-03 0.  1.
         11   -1    0    0    0    0 -0.00000000000E+00 -0.00000000000E+00 -0.45593999997E+02  0.45594000000E+02  0.51100000000E-03 0. -1.
         23    2    1    2    0    0 -0.35527136788E-14 -0.17763568394E-14  0.00000000000E+00  0.91188000000E+02  0.91188000000E+02 0.  0.
    9900012    2    3    3    0    0 -0.10730485475E+02 -0.13414752278E+02 -0.32568010228E+02  0.54367160962E+02  0.40000175046E+02 0.  0.
        -12    1    3    3    0    0  0.10730485475E+02  0.13414752278E+02  0.32568010228E+02  0.36820839038E+02  0.00000000000E+00 0.  1.
         11    1    4    4    0    0  0.16649020082E+01  0.32519174714E+01 -0.91630815607E+01  0.98645288730E+01  0.51100000000E-03 0. -1.
        -11    1    4    4    0    0 -0.22836920964E+02 -0.12194471807E+02 -0.12469695426E+02  0.28735403356E+02  0.51100000000E-03 0.  1.
        -12    1    4    4    0    0  0.10441533481E+02 -0.44721979428E+01 -0.10935233241E+02  0.15767228733E+02  0.00000000000E+00 0.  1.
</event>
<event>
 8    1  0.2490104E-006  0.9118800E+02  0.7816164E-02  0.1184000E+00
        -11   -1    0    0    0    0  0.00000000000E+00  0.00000000000E+00  0.45593999997E+02  0.45594000000E+02  0.51100000000E-03 0.  1.
         11   -1    0    0    0    0 -0.00000000000E+00 -0.00000000000E+00 -0.45593999997E+02  0.45594000000E+02  0.51100000000E-03 0. -1.
         23    2    1    2    0    0  0.71054273576E-14  0.22204460493E-15  0.11102230246E-14  0.91188000000E+02  0.91188000000E+02 0.  0.
    9900012    2    3    3    0    0  0.36741872898E+02 -0.19562335391E+01 -0.14099086596E+01  0.54367083171E+02  0.39999997704E+02 0.  0.
        -12    1    3    3    0    0 -0.36741872898E+02  0.19562335391E+01  0.14099086596E+01  0.36820916829E+02  0.00000000000E+00 0.  1.
         11    1    4    4    0    0  0.47747275539E+01 -0.19684810875E+01 -0.76367949724E+01  0.92191962078E+01  0.51100000000E-03 0. -1.
        -11    1    4    4    0    0  0.17122588237E+02  0.11983446184E+02 -0.68858245085E+01  0.22004558387E+02  0.51100000000E-03 0.  1.
         12    1    4    4    0    0  0.14844557108E+02 -0.11971198636E+02  0.13112710821E+02  0.23143328576E+02  0.00000000000E+00 0. -1.
</event>
<event>
 8    1  0.2490104E-006  0.9118800E+02  0.7816164E-02  0.1184000E+00
        -11   -1    0    0    0    0  0.00000000000E+00  0.00000000000E+00  0.45593999997E+02  0.45594000000E+02  0.51100000000E-03 0.  1.
         11   -1    0    0    0    0 -0.00000000000E+00 -0.00000000000E+00 -0.45593999997E+02  0.45594000000E+02  0.51100000000E-03 0. -1.
         23    2    1    2    0    0  0.00000000000E+00  0.00000000000E+00  0.00000000000E+00  0.91188000000E+02  0.91188000000E+02 0.  0.
    9900012    2    3    3    0    0  0.25430478189E+02 -0.11383306190E+02 -0.24072685345E+02  0.54367040473E+02  0.39999900366E+02 0.  0.
        -12    1    3    3    0    0 -0.25430478189E+02  0.11383306190E+02  0.24072685345E+02  0.36820959527E+02  0.00000000000E+00 0.  1.
         11    1    4    4    0    0  0.10147219641E+02 -0.11438884303E+02 -0.19842544176E+02  0.25050762467E+02  0.51100000000E-03 0. -1.
        -11    1    4    4    0    0 -0.46055055646E+01 -0.47765574453E+01 -0.57672037887E+01  0.87912924156E+01  0.51100000000E-03 0.  1.
         12    1    4    4    0    0  0.19888764113E+02  0.48321355579E+01  0.15370626198E+01  0.20524985591E+02  0.00000000000E+00 0. -1.
</event>
<event>
 8    1  0.2490104E-006  0.9118800E+02  0.7816164E-02  0.1184000E+00
        -11   -1    0    0    0    0  0.00000000000E+00  0.00000000000E+00  0.45593999997E+02  0.45594000000E+02  0.51100000000E-03 0.  1.
         11   -1    0    0    0    0 -0.00000000000E+00 -0.00000000000E+00 -0.45593999997E+02  0.45594000000E+02  0.51100000000E-03 0. -1.
         23    2    1    2    0    0  0.00000000000E+00 -0.35527136788E-14 -0.17763568394E-14  0.91188000000E+02  0.91188000000E+02 0.  0.
    9900012    2    3    3    0    0 -0.24370886910E+02  0.24876861814E+02  0.11957408355E+02  0.54367109231E+02  0.40000057113E+02 0.  0.
        -12    1    3    3    0    0  0.24370886910E+02 -0.24876861814E+02 -0.11957408355E+02  0.36820890769E+02  0.00000000000E+00 0.  1.
         11    1    4    4    0    0 -0.17516291144E+02 -0.81619902518E+00 -0.73113848867E+01  0.18998499559E+02  0.51100000000E-03 0. -1.
        -11    1    4    4    0    0 -0.18563130729E+00  0.11797361677E+02  0.15758065806E+01  0.11903586358E+02  0.51100000000E-03 0.  1.
         12    1    4    4    0    0 -0.66689644594E+01  0.13895699161E+02  0.17692986661E+02  0.23465023314E+02  0.00000000000E+00 0. -1.
</event>
<event>
 8    1  0.2490104E-006  0.9118800E+02  0.7816164E-02  0.1184000E+00
        -11   -1    0    0    0    0  0.00000000000E+00  0.00000000000E+00  0.45593999997E+02  0.45594000000E+02  0.51100000000E-03 0.  1.
         11   -1    0    0    0    0 -0.00000000000E+00 -0.00000000000E+00 -0.45593999997E+02  0.45594000000E+02  0.51100000000E-03 0. -1.
         23    2    1    2    0    0  0.00000000000E+00  0.00000000000E+00  0.00000000000E+00  0.91188000000E+02  0.91188000000E+02 0.  0.
    9900012    2    3    3    0    0 -0.71022986066E+01  0.12113751319E+02 -0.34038135098E+02  0.54367078536E+02  0.39999987139E+02 0.  0.
        -12    1    3    3    0    0  0.71022986066E+01 -0.12113751319E+02  0.34038135098E+02  0.36820921464E+02  0.00000000000E+00 0.  1.
         11    1    4    4    0    0 -0.19764526761E+00 -0.21727564869E+01 -0.12181184654E+02  0.12375022999E+02  0.51100000000E-03 0. -1.
        -11    1    4    4    0    0  0.72349060452E+01 -0.46171763052E+01  0.15800726371E+01  0.87269016447E+01  0.51100000000E-03 0.  1.
        -12    1    4    4    0    0 -0.14139559384E+02  0.18903684111E+02 -0.23437023081E+02  0.33265153892E+02  0.00000000000E+00 0.  1.
</event>
<event>
 8    1  0.2490104E-006  0.9118800E+02  0.7816164E-02  0.1184000E+00
        -11   -1    0    0    0    0  0.00000000000E+00  0.00000000000E+00  0.45593999997E+02  0.45594000000E+02  0.51100000000E-03 0.  1.
         11   -1    0    0    0    0 -0.00000000000E+00 -0.00000000000E+00 -0.45593999997E+02  0.45594000000E+02  0.51100000000E-03 0. -1.
         23    2    1    2    0    0  0.00000000000E+00  0.17763568394E-14  0.00000000000E+00  0.91188000000E+02  0.91188000000E+02 0.  0.
    9900012    2    3    3    0    0  0.31476112011E+02 -0.12297295915E+02 -0.14622279167E+02  0.54367079830E+02  0.39999990088E+02 0.  0.
        -12    1    3    3    0    0 -0.31476112011E+02  0.12297295915E+02  0.14622279167E+02  0.36820920170E+02  0.00000000000E+00 0.  1.
         11    1    4    4    0    0  0.21557926181E+01  0.52380534168E+01 -0.14056517174E+01  0.58361376288E+01  0.51100000000E-03 0. -1.
        -11    1    4    4    0    0 -0.56144914179E+01  0.23909307822E+01  0.27939649416E+00  0.61087745538E+01  0.51100000000E-03 0.  1.
         12    1    4    4    0    0  0.34934810811E+02 -0.19926280114E+02 -0.13496023944E+02  0.42422167647E+02  0.00000000000E+00 0. -1.
</event>
<event>
 8    1  0.2490104E-006  0.9118800E+02  0.7816164E-02  0.1184000E+00
        -11   -1    0    0    0    0  0.00000000000E+00  0.00000000000E+00  0.45593999997E+02  0.45594000000E+02  0.51100000000E-03 0.  1.
         11   -1    0    0    0    0 -0.00000000000E+00 -0.00000000000E+00 -0.45593999997E+02  0.45594000000E+02  0.51100000000E-03 0. -1.
         23    2    1    2    0    0  0.00000000000E+00 -0.71054273576E-14 -0.48849813084E-14  0.91188000000E+02  0.91188000000E+02 0.  0.
    9900012    2    3    3    0    0 -0.68644924148E+01  0.36171719151E+02 -0.51417012977E+00  0.54367097059E+02  0.40000029365E+02 0.  0.
         12    1    3    3    0    0  0.68644924148E+01 -0.36171719151E+02  0.51417012977E+00  0.36820902941E+02  0.00000000000E+00 0. -1.
         11    1    4    4    0    0 -0.66289665384E+01  0.10624505477E+02 -0.16928676780E+02  0.21057146335E+02  0.51100000000E-03 0. -1.
        -11    1    4    4    0    0  0.62168684222E+01  0.17050643364E+02  0.85870331280E+01  0.20077625116E+02  0.51100000000E-03 0.  1.
         12    1    4    4    0    0 -0.64523942986E+01  0.84965703107E+01  0.78274735226E+01  0.13232325607E+02  0.00000000000E+00 0. -1.
</event>
<event>
 8    1  0.2490104E-006  0.9118800E+02  0.7816164E-02  0.1184000E+00
        -11   -1    0    0    0    0  0.00000000000E+00  0.00000000000E+00  0.45593999997E+02  0.45594000000E+02  0.51100000000E-03 0.  1.
         11   -1    0    0    0    0 -0.00000000000E+00 -0.00000000000E+00 -0.45593999997E+02  0.45594000000E+02  0.51100000000E-03 0. -1.
         23    2    1    2    0    0 -0.17763568394E-14  0.00000000000E+00  0.88817841970E-15  0.91188000000E+02  0.91188000000E+02 0.  0.
    9900012    2    3    3    0    0  0.15358619908E+02 -0.33201997440E+02 -0.41857849880E+01  0.54367073403E+02  0.39999975437E+02 0.  0.
         12    1    3    3    0    0 -0.15358619908E+02  0.33201997440E+02  0.41857849880E+01  0.36820926597E+02  0.00000000000E+00 0. -1.
         11    1    4    4    0    0  0.27784017298E+02 -0.15069726682E+02 -0.61355123807E+01  0.32197714079E+02  0.51100000000E-03 0. -1.
        -11    1    4    4    0    0 -0.35373964162E+01 -0.65814851727E+01  0.54303037603E-01  0.74720860250E+01  0.51100000000E-03 0.  1.
         12    1    4    4    0    0 -0.88880009733E+01 -0.11550785585E+02  0.18954243551E+01  0.14697273299E+02  0.00000000000E+00 0. -1.
</event>
<event>
 8    1  0.2490104E-006  0.9118800E+02  0.7816164E-02  0.1184000E+00
        -11   -1    0    0    0    0  0.00000000000E+00  0.00000000000E+00  0.45593999997E+02  0.45594000000E+02  0.51100000000E-03 0. -1.
         11   -1    0    0    0    0 -0.00000000000E+00 -0.00000000000E+00 -0.45593999997E+02  0.45594000000E+02  0.51100000000E-03 0.  1.
         23    2    1    2    0    0  0.71054273576E-14  0.00000000000E+00  0.22204460493E-15  0.91188000000E+02  0.91188000000E+02 0.  0.
    9900012    2    3    3    0    0 -0.36675909437E+02  0.26872637496E+01 -0.18539696803E+01  0.54367069497E+02  0.39999966533E+02 0.  0.
        -12    1    3    3    0    0  0.36675909437E+02 -0.26872637496E+01  0.18539696803E+01  0.36820930503E+02  0.00000000000E+00 0.  1.
         11    1    4    4    0    0 -0.26651218072E+02  0.18178311953E+02 -0.75124889070E+01  0.33123646237E+02  0.51100000000E-03 0. -1.
        -11    1    4    4    0    0 -0.12115287317E+01 -0.87027986578E+01  0.49765449494E+01  0.10098143703E+02  0.51100000000E-03 0.  1.
        -12    1    4    4    0    0 -0.88131626338E+01 -0.67882495456E+01  0.68197427740E+00  0.11145279558E+02  0.00000000000E+00 0.  1.
</event>
<event>
 8    1  0.2490104E-006  0.9118800E+02  0.7816164E-02  0.1184000E+00
        -11   -1    0    0    0    0  0.00000000000E+00  0.00000000000E+00  0.45593999997E+02  0.45594000000E+02  0.51100000000E-03 0.  1.
         11   -1    0    0    0    0 -0.00000000000E+00 -0.00000000000E+00 -0.45593999997E+02  0.45594000000E+02  0.51100000000E-03 0. -1.
         23    2    1    2    0    0  0.88817841970E-15  0.00000000000E+00  0.00000000000E+00  0.91188000000E+02  0.91188000000E+02 0.  0.
    9900012    2    3    3    0    0  0.39191957499E+01  0.14679999730E+02  0.33539956037E+02  0.54366930782E+02  0.39999650302E+02 0.  0.
         12    1    3    3    0    0 -0.39191957499E+01 -0.14679999730E+02 -0.33539956037E+02  0.36821069218E+02  0.00000000000E+00 0. -1.
         11    1    4    4    0    0  0.48332383301E+01 -0.30027721329E+01  0.25935672174E+01  0.62532730957E+01  0.51100000000E-03 0. -1.
        -11    1    4    4    0    0  0.14186515077E+02  0.42486377610E+01  0.59286163534E+01  0.15951696617E+02  0.51100000000E-03 0.  1.
        -12    1    4    4    0    0 -0.15100557657E+02  0.13434134102E+02  0.25017772466E+02  0.32161961069E+02  0.00000000000E+00 0.  1.
</event>
<event>
 8    1  0.2490104E-006  0.9118800E+02  0.7816164E-02  0.1184000E+00
        -11   -1    0    0    0    0  0.00000000000E+00  0.00000000000E+00  0.45593999997E+02  0.45594000000E+02  0.51100000000E-03 0.  1.
         11   -1    0    0    0    0 -0.00000000000E+00 -0.00000000000E+00 -0.45593999997E+02  0.45594000000E+02  0.51100000000E-03 0. -1.
         23    2    1    2    0    0  0.00000000000E+00  0.00000000000E+00  0.00000000000E+00  0.91188000000E+02  0.91188000000E+02 0.  0.
    9900012    2    3    3    0    0 -0.21440405325E+02  0.27340551224E+02  0.12189426733E+02  0.54367097705E+02  0.40000030838E+02 0.  0.
         12    1    3    3    0    0  0.21440405325E+02 -0.27340551224E+02 -0.12189426733E+02  0.36820902295E+02  0.00000000000E+00 0. -1.
         11    1    4    4    0    0 -0.10954957120E+00 -0.39884189443E+01  0.70631662331E+01  0.81122009517E+01  0.51100000000E-03 0. -1.
        -11    1    4    4    0    0 -0.18144826951E+02  0.42046655438E+01  0.12116970363E+01  0.18664998457E+02  0.51100000000E-03 0.  1.
         12    1    4    4    0    0 -0.31860288022E+01  0.27124304625E+02  0.39145634638E+01  0.27589898296E+02  0.00000000000E+00 0. -1.
</event>
<event>
 8    1  0.2490104E-006  0.9118800E+02  0.7816164E-02  0.1184000E+00
        -11   -1    0    0    0    0  0.00000000000E+00  0.00000000000E+00  0.45593999997E+02  0.45594000000E+02  0.51100000000E-03 0.  1.
         11   -1    0    0    0    0 -0.00000000000E+00 -0.00000000000E+00 -0.45593999997E+02  0.45594000000E+02  0.51100000000E-03 0. -1.
         23    2    1    2    0    0  0.00000000000E+00  0.00000000000E+00 -0.88817841970E-15  0.91188000000E+02  0.91188000000E+02 0.  0.
    9900012    2    3    3    0    0 -0.33292163775E+02  0.13937257697E+02 -0.72912182113E+01  0.54367120272E+02  0.40000082284E+02 0.  0.
        -12    1    3    3    0    0  0.33292163775E+02 -0.13937257697E+02  0.72912182113E+01  0.36820879728E+02  0.00000000000E+00 0.  1.
         11    1    4    4    0    0 -0.29865665562E+02  0.10758587469E+02 -0.86481464630E+01  0.32901301210E+02  0.51100000000E-03 0. -1.
        -11    1    4    4    0    0 -0.28747240449E+01 -0.34533125760E+01  0.97612318598E+01  0.10745745845E+02  0.51100000000E-03 0.  1.
        -12    1    4    4    0    0 -0.55177416792E+00  0.66319828043E+01 -0.84043036081E+01  0.10720073217E+02  0.00000000000E+00 0.  1.
</event>
<event>
 8    1  0.2490104E-006  0.9118800E+02  0.7816164E-02  0.1184000E+00
        -11   -1    0    0    0    0  0.00000000000E+00  0.00000000000E+00  0.45593999997E+02  0.45594000000E+02  0.51100000000E-03 0. -1.
         11   -1    0    0    0    0 -0.00000000000E+00 -0.00000000000E+00 -0.45593999997E+02  0.45594000000E+02  0.51100000000E-03 0.  1.
         23    2    1    2    0    0 -0.71054273576E-14  0.00000000000E+00  0.17763568394E-14  0.91188000000E+02  0.91188000000E+02 0.  0.
    9900012    2    3    3    0    0  0.32401339694E+02  0.15703001165E+02  0.77039031782E+01  0.54367065958E+02  0.39999958464E+02 0.  0.
        -12    1    3    3    0    0 -0.32401339694E+02 -0.15703001165E+02 -0.77039031782E+01  0.36820934042E+02  0.00000000000E+00 0.  1.
         11    1    4    4    0    0 -0.26081373214E+01  0.42611796510E+01 -0.19588986467E+01  0.53663131175E+01  0.51100000000E-03 0. -1.
        -11    1    4    4    0    0  0.22475967482E+02 -0.45787710969E+01 -0.55510777825E+01  0.23599761097E+02  0.51100000000E-03 0.  1.
        -12    1    4    4    0    0  0.12533509533E+02  0.16020592611E+02  0.15213879607E+02  0.25400991743E+02  0.00000000000E+00 0.  1.
</event>
<event>
 8    1  0.2490104E-006  0.9118800E+02  0.7816164E-02  0.1184000E+00
        -11   -1    0    0    0    0  0.00000000000E+00  0.00000000000E+00  0.45593999997E+02  0.45594000000E+02  0.51100000000E-03 0. -1.
         11   -1    0    0    0    0 -0.00000000000E+00 -0.00000000000E+00 -0.45593999997E+02  0.45594000000E+02  0.51100000000E-03 0.  1.
         23    2    1    2    0    0  0.00000000000E+00  0.17763568394E-14  0.00000000000E+00  0.91188000000E+02  0.91188000000E+02 0.  0.
    9900012    2    3    3    0    0  0.32754469818E+02 -0.59366929761E+01 -0.15737863650E+02  0.54367082455E+02  0.39999996074E+02 0.  0.
         12    1    3    3    0    0 -0.32754469818E+02  0.59366929761E+01  0.15737863650E+02  0.36820917545E+02  0.00000000000E+00 0. -1.
         11    1    4    4    0    0 -0.36993645085E+01  0.56984320557E+01 -0.47219390924E+01  0.82737013914E+01  0.51100000000E-03 0. -1.
        -11    1    4    4    0    0  0.30977889874E+02  0.85192099641E+00 -0.92744353830E+01  0.32347651884E+02  0.51100000000E-03 0.  1.
         12    1    4    4    0    0  0.54759444525E+01 -0.12487046028E+02 -0.17414891743E+01  0.13745729180E+02  0.00000000000E+00 0. -1.
</event>
<event>
 8    1  0.2490104E-006  0.9118800E+02  0.7816164E-02  0.1184000E+00
        -11   -1    0    0    0    0  0.00000000000E+00  0.00000000000E+00  0.45593999997E+02  0.45594000000E+02  0.51100000000E-03 0. -1.
         11   -1    0    0    0    0 -0.00000000000E+00 -0.00000000000E+00 -0.45593999997E+02  0.45594000000E+02  0.51100000000E-03 0.  1.
         23    2    1    2    0    0  0.00000000000E+00  0.00000000000E+00 -0.22204460493E-14  0.91188000000E+02  0.91188000000E+02 0.  0.
    9900012    2    3    3    0    0 -0.24168042166E+01 -0.36697776747E+02 -0.17919601528E+01  0.54367097214E+02  0.40000029719E+02 0.  0.
         12    1    3    3    0    0  0.24168042166E+01  0.36697776747E+02  0.17919601528E+01  0.36820902786E+02  0.00000000000E+00 0. -1.
         11    1    4    4    0    0 -0.20037398295E+01 -0.16753615277E+01  0.74195234595E+01  0.78658208840E+01  0.51100000000E-03 0. -1.
        -11    1    4    4    0    0 -0.20944160590E+01 -0.24327483749E+02  0.84053758148E+01  0.25823698167E+02  0.51100000000E-03 0.  1.
        -12    1    4    4    0    0  0.16813516718E+01 -0.10694931470E+02 -0.17616859427E+02  0.20677578162E+02  0.00000000000E+00 0.  1.
</event>
<event>
 8    1  0.2490104E-006  0.9118800E+02  0.7816164E-02  0.1184000E+00
        -11   -1    0    0    0    0  0.00000000000E+00  0.00000000000E+00  0.45593999997E+02  0.45594000000E+02  0.51100000000E-03 0. -1.
         11   -1    0    0    0    0 -0.00000000000E+00 -0.00000000000E+00 -0.45593999997E+02  0.45594000000E+02  0.51100000000E-03 0.  1.
         23    2    1    2    0    0 -0.17763568394E-14  0.00000000000E+00  0.00000000000E+00  0.91188000000E+02  0.91188000000E+02 0.  0.
    9900012    2    3    3    0    0  0.12696684681E+02  0.12833428658E+02  0.32091697387E+02  0.54367085641E+02  0.40000003337E+02 0.  0.
        -12    1    3    3    0    0 -0.12696684681E+02 -0.12833428658E+02 -0.32091697387E+02  0.36820914359E+02  0.00000000000E+00 0.  1.
         11    1    4    4    0    0 -0.50397233952E+01 -0.71673346044E+01 -0.12244542957E+01  0.88469647798E+01  0.51100000000E-03 0.  1.
        -11    1    4    4    0    0  0.29847561349E+01  0.99469708647E+01  0.22149948164E+02  0.24463671076E+02  0.51100000000E-03 0. -1.
        -12    1    4    4    0    0  0.14751651941E+02  0.10053792397E+02  0.11166203519E+02  0.21056449786E+02  0.00000000000E+00 0.  1.
</event>
<event>
 8    1  0.2490104E-006  0.9118800E+02  0.7816164E-02  0.1184000E+00
        -11   -1    0    0    0    0  0.00000000000E+00  0.00000000000E+00  0.45593999997E+02  0.45594000000E+02  0.51100000000E-03 0.  1.
         11   -1    0    0    0    0 -0.00000000000E+00 -0.00000000000E+00 -0.45593999997E+02  0.45594000000E+02  0.51100000000E-03 0. -1.
         23    2    1    2    0    0  0.00000000000E+00  0.66613381478E-15  0.00000000000E+00  0.91188000000E+02  0.91188000000E+02 0.  0.
    9900012    2    3    3    0    0  0.36694586586E+01 -0.13343202936E+01  0.36613319588E+02  0.54367075124E+02  0.39999979360E+02 0.  0.
         12    1    3    3    0    0 -0.36694586586E+01  0.13343202936E+01 -0.36613319588E+02  0.36820924876E+02  0.00000000000E+00 0. -1.
         11    1    4    4    0    0 -0.11884755667E+01  0.64122512670E+01 -0.18704425412E+01  0.67843935650E+01  0.51100000000E-03 0. -1.
        -11    1    4    4    0    0 -0.78188478466E+01 -0.11291889853E+02  0.13056647921E+02  0.18950388209E+02  0.51100000000E-03 0.  1.
        -12    1    4    4    0    0  0.12676782072E+02  0.35453182924E+01  0.25427114208E+02  0.28632293349E+02  0.00000000000E+00 0.  1.
</event>
<event>
 8    1  0.2490104E-006  0.9118800E+02  0.7816164E-02  0.1184000E+00
        -11   -1    0    0    0    0  0.00000000000E+00  0.00000000000E+00  0.45593999997E+02  0.45594000000E+02  0.51100000000E-03 0.  1.
         11   -1    0    0    0    0 -0.00000000000E+00 -0.00000000000E+00 -0.45593999997E+02  0.45594000000E+02  0.51100000000E-03 0. -1.
         23    2    1    2    0    0 -0.35527136788E-14  0.00000000000E+00 -0.35527136788E-14  0.91188000000E+02  0.91188000000E+02 0.  0.
    9900012    2    3    3    0    0  0.18380214067E+02 -0.85949657268E+01  0.30725769501E+02  0.54367100820E+02  0.40000037940E+02 0.  0.
         12    1    3    3    0    0 -0.18380214067E+02  0.85949657268E+01 -0.30725769501E+02  0.36820899180E+02  0.00000000000E+00 0. -1.
         11    1    4    4    0    0  0.17986857550E+01 -0.47251292925E+01  0.28389517542E+02  0.28836206821E+02  0.51100000000E-03 0. -1.
        -11    1    4    4    0    0 -0.17836055621E+01  0.10562170277E+01 -0.47945368269E+01  0.52234497084E+01  0.51100000000E-03 0.  1.
        -12    1    4    4    0    0  0.18365133874E+02 -0.49260534620E+01  0.71307887852E+01  0.20307444291E+02  0.00000000000E+00 0.  1.
</event>
<event>
 8    1  0.2490104E-006  0.9118800E+02  0.7816164E-02  0.1184000E+00
        -11   -1    0    0    0    0  0.00000000000E+00  0.00000000000E+00  0.45593999997E+02  0.45594000000E+02  0.51100000000E-03 0. -1.
         11   -1    0    0    0    0 -0.00000000000E+00 -0.00000000000E+00 -0.45593999997E+02  0.45594000000E+02  0.51100000000E-03 0.  1.
         23    2    1    2    0    0 -0.88817841970E-15  0.00000000000E+00 -0.35527136788E-14  0.91188000000E+02  0.91188000000E+02 0.  0.
    9900012    2    3    3    0    0  0.28628767655E+01 -0.26630055444E+02  0.25267087449E+02  0.54367059973E+02  0.39999944820E+02 0.  0.
        -12    1    3    3    0    0 -0.28628767655E+01  0.26630055444E+02 -0.25267087449E+02  0.36820940027E+02  0.00000000000E+00 0.  1.
         11    1    4    4    0    0 -0.85420315365E+00 -0.15382851935E+02  0.18448578893E+02  0.24035637293E+02  0.51100000000E-03 0. -1.
        -11    1    4    4    0    0  0.90803629643E+01 -0.13363871749E+02  0.13820117783E+02  0.21261272668E+02  0.51100000000E-03 0.  1.
        -12    1    4    4    0    0 -0.53632830451E+01  0.21166682389E+01 -0.70016092271E+01  0.90701500112E+01  0.00000000000E+00 0.  1.
</event>
<event>
 8    1  0.2490104E-006  0.9118800E+02  0.7816164E-02  0.1184000E+00
        -11   -1    0    0    0    0  0.00000000000E+00  0.00000000000E+00  0.45593999997E+02  0.45594000000E+02  0.51100000000E-03 0.  1.
         11   -1    0    0    0    0 -0.00000000000E+00 -0.00000000000E+00 -0.45593999997E+02  0.45594000000E+02  0.51100000000E-03 0. -1.
         23    2    1    2    0    0 -0.71054273576E-14  0.00000000000E+00  0.00000000000E+00  0.91188000000E+02  0.91188000000E+02 0.  0.
    9900012    2    3    3    0    0 -0.36421744099E+02 -0.41477015371E+01 -0.34688690877E+01  0.54367083064E+02  0.39999997462E+02 0.  0.
        -12    1    3    3    0    0  0.36421744099E+02  0.41477015371E+01  0.34688690877E+01  0.36820916936E+02  0.00000000000E+00 0.  1.
         11    1    4    4    0    0 -0.38209650379E+02 -0.10548054753E+02  0.64047765351E+01  0.40152957598E+02  0.51100000000E-03 0. -1.
        -11    1    4    4    0    0  0.20726126979E+01 -0.73136473080E+00 -0.52984578362E+01  0.57362246703E+01  0.51100000000E-03 0.  1.
         12    1    4    4    0    0 -0.28470641747E+00  0.71317179471E+01 -0.45751877866E+01  0.84779007958E+01  0.00000000000E+00 0. -1.
</event>
<event>
 8    1  0.2490104E-006  0.9118800E+02  0.7816164E-02  0.1184000E+00
        -11   -1    0    0    0    0  0.00000000000E+00  0.00000000000E+00  0.45593999997E+02  0.45594000000E+02  0.51100000000E-03 0.  1.
         11   -1    0    0    0    0 -0.00000000000E+00 -0.00000000000E+00 -0.45593999997E+02  0.45594000000E+02  0.51100000000E-03 0. -1.
         23    2    1    2    0    0  0.00000000000E+00  0.00000000000E+00  0.35527136788E-14  0.91188000000E+02  0.91188000000E+02 0.  0.
    9900012    2    3    3    0    0 -0.16715529886E+02  0.15378690823E+02  0.28980511589E+02  0.54367039627E+02  0.39999898437E+02 0.  0.
         12    1    3    3    0    0  0.16715529886E+02 -0.15378690823E+02 -0.28980511589E+02  0.36820960373E+02  0.00000000000E+00 0. -1.
         11    1    4    4    0    0 -0.17984860428E+02  0.36096956060E+01  0.10524839856E+02  0.21148460021E+02  0.51100000000E-03 0. -1.
        -11    1    4    4    0    0 -0.92225275685E+01 -0.36953071432E+00  0.13635659292E+02  0.16465806154E+02  0.51100000000E-03 0.  1.
        -12    1    4    4    0    0  0.10491858111E+02  0.12138525932E+02  0.48200124412E+01  0.16752773452E+02  0.00000000000E+00 0.  1.
</event>
<event>
 8    1  0.2490104E-006  0.9118800E+02  0.7816164E-02  0.1184000E+00
        -11   -1    0    0    0    0  0.00000000000E+00  0.00000000000E+00  0.45593999997E+02  0.45594000000E+02  0.51100000000E-03 0.  1.
         11   -1    0    0    0    0 -0.00000000000E+00 -0.00000000000E+00 -0.45593999997E+02  0.45594000000E+02  0.51100000000E-03 0. -1.
         23    2    1    2    0    0  0.00000000000E+00  0.35527136788E-14  0.00000000000E+00  0.91188000000E+02  0.91188000000E+02 0.  0.
    9900012    2    3    3    0    0  0.60977006872E+01 -0.27536399408E+02 -0.23671609048E+02  0.54367077674E+02  0.39999985174E+02 0.  0.
        -12    1    3    3    0    0 -0.60977006872E+01  0.27536399408E+02  0.23671609048E+02  0.36820922326E+02  0.00000000000E+00 0.  1.
         11    1    4    4    0    0 -0.66617900917E+01 -0.15452350630E+02 -0.94707324597E+01  0.19309307621E+02  0.51100000000E-03 0. -1.
        -11    1    4    4    0    0  0.45240400950E+00  0.38695831042E+01  0.55907705444E+01  0.68143274304E+01  0.51100000000E-03 0.  1.
         12    1    4    4    0    0  0.12307086769E+02 -0.15953631882E+02 -0.19791647133E+02  0.28243442623E+02  0.00000000000E+00 0. -1.
</event>
<event>
 8    1  0.2490104E-006  0.9118800E+02  0.7816164E-02  0.1184000E+00
        -11   -1    0    0    0    0  0.00000000000E+00  0.00000000000E+00  0.45593999997E+02  0.45594000000E+02  0.51100000000E-03 0. -1.
         11   -1    0    0    0    0 -0.00000000000E+00 -0.00000000000E+00 -0.45593999997E+02  0.45594000000E+02  0.51100000000E-03 0.  1.
         23    2    1    2    0    0 -0.35527136788E-14 -0.53290705182E-14  0.35527136788E-14  0.91188000000E+02  0.91188000000E+02 0.  0.
    9900012    2    3    3    0    0 -0.18242695316E+02  0.12563954744E+02 -0.29413100994E+02  0.54367090163E+02  0.40000013644E+02 0.  0.
         12    1    3    3    0    0  0.18242695316E+02 -0.12563954744E+02  0.29413100994E+02  0.36820909837E+02  0.00000000000E+00 0. -1.
         11    1    4    4    0    0  0.26870970807E+01 -0.46076399023E+01 -0.43710620005E+01  0.68961597621E+01  0.51100000000E-03 0.  1.
        -11    1    4    4    0    0 -0.37943078422E+01 -0.25527875581E+01 -0.20434181244E+02  0.20939657583E+02  0.51100000000E-03 0. -1.
        -12    1    4    4    0    0 -0.17135484555E+02  0.19724382204E+02 -0.46078577485E+01  0.26531272817E+02  0.00000000000E+00 0.  1.
</event>
<event>
 8    1  0.2490104E-006  0.9118800E+02  0.7816164E-02  0.1184000E+00
        -11   -1    0    0    0    0  0.00000000000E+00  0.00000000000E+00  0.45593999997E+02  0.45594000000E+02  0.51100000000E-03 0.  1.
         11   -1    0    0    0    0 -0.00000000000E+00 -0.00000000000E+00 -0.45593999997E+02  0.45594000000E+02  0.51100000000E-03 0. -1.
         23    2    1    2    0    0  0.35527136788E-14  0.00000000000E+00  0.00000000000E+00  0.91188000000E+02  0.91188000000E+02 0.  0.
    9900012    2    3    3    0    0  0.21909707809E+02  0.24598728799E+02 -0.16451344019E+02  0.54367089163E+02  0.40000011366E+02 0.  0.
        -12    1    3    3    0    0 -0.21909707809E+02 -0.24598728799E+02  0.16451344019E+02  0.36820910837E+02  0.00000000000E+00 0.  1.
         11    1    4    4    0    0  0.66441601035E+01  0.14689314091E+02 -0.79842807546E+01  0.17990818529E+02  0.51100000000E-03 0. -1.
        -11    1    4    4    0    0  0.89251522531E+01  0.97066854167E+00  0.10901363818E+02  0.14122332439E+02  0.51100000000E-03 0.  1.
         12    1    4    4    0    0  0.63403954524E+01  0.89387461667E+01 -0.19368427083E+02  0.22253938195E+02  0.00000000000E+00 0. -1.
</event>
<event>
 8    1  0.2490104E-006  0.9118800E+02  0.7816164E-02  0.1184000E+00
        -11   -1    0    0    0    0  0.00000000000E+00  0.00000000000E+00  0.45593999997E+02  0.45594000000E+02  0.51100000000E-03 0.  1.
         11   -1    0    0    0    0 -0.00000000000E+00 -0.00000000000E+00 -0.45593999997E+02  0.45594000000E+02  0.51100000000E-03 0. -1.
         23    2    1    2    0    0  0.00000000000E+00  0.00000000000E+00  0.35527136788E-14  0.91188000000E+02  0.91188000000E+02 0.  0.
    9900012    2    3    3    0    0 -0.16775392579E+02  0.18459974840E+02 -0.27084975338E+02  0.54367077193E+02  0.39999984077E+02 0.  0.
        -12    1    3    3    0    0  0.16775392579E+02 -0.18459974840E+02  0.27084975338E+02  0.36820922807E+02  0.00000000000E+00 0.  1.
         11    1    4    4    0    0 -0.57199108728E+01  0.12669940028E+01 -0.17304677320E+01  0.61087783581E+01  0.51100000000E-03 0. -1.
        -11    1    4    4    0    0 -0.15393379771E+02  0.14391628619E+02 -0.32926842265E+02  0.39092864527E+02  0.51100000000E-03 0.  1.
        -12    1    4    4    0    0  0.43378980655E+01  0.28013522184E+01  0.75723346585E+01  0.91654343083E+01  0.00000000000E+00 0.  1.
</event>
<event>
 8    1  0.2490104E-006  0.9118800E+02  0.7816164E-02  0.1184000E+00
        -11   -1    0    0    0    0  0.00000000000E+00  0.00000000000E+00  0.45593999997E+02  0.45594000000E+02  0.51100000000E-03 0. -1.
         11   -1    0    0    0    0 -0.00000000000E+00 -0.00000000000E+00 -0.45593999997E+02  0.45594000000E+02  0.51100000000E-03 0.  1.
         23    2    1    2    0    0  0.00000000000E+00  0.00000000000E+00 -0.11102230246E-14  0.91188000000E+02  0.91188000000E+02 0.  0.
    9900012    2    3    3    0    0  0.29019423394E+02  0.22634176272E+02 -0.11602447689E+01  0.54367095102E+02  0.40000024904E+02 0.  0.
         12    1    3    3    0    0 -0.29019423394E+02 -0.22634176272E+02  0.11602447689E+01  0.36820904898E+02  0.00000000000E+00 0. -1.
         11    1    4    4    0    0  0.76321677570E+01  0.29568023882E+01  0.10588879275E+01  0.82531151051E+01  0.51100000000E-03 0. -1.
        -11    1    4    4    0    0  0.17038606821E+01  0.39970939041E+01 -0.16579473517E+02  0.17139394484E+02  0.51100000000E-03 0.  1.
         12    1    4    4    0    0  0.19683394954E+02  0.15680279980E+02  0.14360340821E+02  0.28974585513E+02  0.00000000000E+00 0. -1.
</event>
<event>
 8    1  0.2490104E-006  0.9118800E+02  0.7816164E-02  0.1184000E+00
        -11   -1    0    0    0    0  0.00000000000E+00  0.00000000000E+00  0.45593999997E+02  0.45594000000E+02  0.51100000000E-03 0. -1.
         11   -1    0    0    0    0 -0.00000000000E+00 -0.00000000000E+00 -0.45593999997E+02  0.45594000000E+02  0.51100000000E-03 0.  1.
         23    2    1    2    0    0 -0.35527136788E-14  0.00000000000E+00  0.00000000000E+00  0.91188000000E+02  0.91188000000E+02 0.  0.
    9900012    2    3    3    0    0  0.73274215181E+01 -0.18263263990E+02 -0.31121419973E+02  0.54367072543E+02  0.39999973476E+02 0.  0.
         12    1    3    3    0    0 -0.73274215181E+01  0.18263263990E+02  0.31121419973E+02  0.36820927457E+02  0.00000000000E+00 0. -1.
         11    1    4    4    0    0  0.18945681018E+02 -0.64784446250E+01 -0.75394275381E+01  0.21395140613E+02  0.51100000000E-03 0. -1.
        -11    1    4    4    0    0 -0.14644182052E+02 -0.12906179514E+02 -0.21887094480E+02  0.29326889413E+02  0.51100000000E-03 0.  1.
        -12    1    4    4    0    0  0.30259225518E+01  0.11213601491E+01 -0.16948979550E+01  0.36450425171E+01  0.00000000000E+00 0.  1.
</event>
<event>
 8    1  0.2490104E-006  0.9118800E+02  0.7816164E-02  0.1184000E+00
        -11   -1    0    0    0    0  0.00000000000E+00  0.00000000000E+00  0.45593999997E+02  0.45594000000E+02  0.51100000000E-03 0. -1.
         11   -1    0    0    0    0 -0.00000000000E+00 -0.00000000000E+00 -0.45593999997E+02  0.45594000000E+02  0.51100000000E-03 0.  1.
         23    2    1    2    0    0  0.35527136788E-14 -0.88817841970E-15  0.10658141036E-13  0.91188000000E+02  0.91188000000E+02 0.  0.
    9900012    2    3    3    0    0  0.23663568953E+02 -0.55283236515E+01 -0.27663194264E+02  0.54367093236E+02  0.40000020651E+02 0.  0.
         12    1    3    3    0    0 -0.23663568953E+02  0.55283236515E+01  0.27663194264E+02  0.36820906764E+02  0.00000000000E+00 0. -1.
         11    1    4    4    0    0 -0.22713420258E+01 -0.50450280846E+01  0.66362293626E+01  0.86400719549E+01  0.51100000000E-03 0. -1.
        -11    1    4    4    0    0  0.57145135095E+01 -0.69522142056E+01 -0.96393223018E+01  0.13187322765E+02  0.51100000000E-03 0.  1.
         12    1    4    4    0    0  0.20220397469E+02  0.64689186388E+01 -0.24660101325E+02  0.32539698516E+02  0.00000000000E+00 0. -1.
</event>
<event>
 8    1  0.2490104E-006  0.9118800E+02  0.7816164E-02  0.1184000E+00
        -11   -1    0    0    0    0  0.00000000000E+00  0.00000000000E+00  0.45593999997E+02  0.45594000000E+02  0.51100000000E-03 0.  1.
         11   -1    0    0    0    0 -0.00000000000E+00 -0.00000000000E+00 -0.45593999997E+02  0.45594000000E+02  0.51100000000E-03 0. -1.
         23    2    1    2    0    0  0.35527136788E-14 -0.35527136788E-14 -0.35527136788E-14  0.91188000000E+02  0.91188000000E+02 0.  0.
    9900012    2    3    3    0    0 -0.16461200569E+02  0.25896142254E+02  0.20351862243E+02  0.54367087402E+02  0.40000007349E+02 0.  0.
         12    1    3    3    0    0  0.16461200569E+02 -0.25896142254E+02 -0.20351862243E+02  0.36820912598E+02  0.00000000000E+00 0. -1.
         11    1    4    4    0    0 -0.41917995096E+01  0.42756613379E+01  0.98485730644E+00  0.60681469314E+01  0.51100000000E-03 0. -1.
        -11    1    4    4    0    0 -0.25220794187E+02  0.16622471073E+02  0.11349340466E+02  0.32267670093E+02  0.51100000000E-03 0.  1.
         12    1    4    4    0    0  0.12951393127E+02  0.49980098436E+01  0.80176644703E+01  0.16031270377E+02  0.00000000000E+00 0. -1.
</event>
<event>
 8    1  0.2490104E-006  0.9118800E+02  0.7816164E-02  0.1184000E+00
        -11   -1    0    0    0    0  0.00000000000E+00  0.00000000000E+00  0.45593999997E+02  0.45594000000E+02  0.51100000000E-03 0. -1.
         11   -1    0    0    0    0 -0.00000000000E+00 -0.00000000000E+00 -0.45593999997E+02  0.45594000000E+02  0.51100000000E-03 0.  1.
         23    2    1    2    0    0  0.17763568394E-14  0.00000000000E+00  0.00000000000E+00  0.91188000000E+02  0.91188000000E+02 0.  0.
    9900012    2    3    3    0    0 -0.12194202103E+02  0.33505431062E+02  0.91905864391E+01  0.54367090795E+02  0.40000015086E+02 0.  0.
        -12    1    3    3    0    0  0.12194202103E+02 -0.33505431062E+02 -0.91905864391E+01  0.36820909205E+02  0.00000000000E+00 0.  1.
         11    1    4    4    0    0 -0.11341474079E+02  0.10294711429E+02 -0.75308978731E+01  0.17068231915E+02  0.51100000000E-03 0. -1.
        -11    1    4    4    0    0  0.37716155458E+00  0.19168816215E+02 -0.88463001652E+00  0.19192924125E+02  0.51100000000E-03 0.  1.
         12    1    4    4    0    0 -0.12298895788E+01  0.40419034178E+01  0.17606114329E+02  0.18105934755E+02  0.00000000000E+00 0. -1.
</event>
<event>
 8    1  0.2490104E-006  0.9118800E+02  0.7816164E-02  0.1184000E+00
        -11   -1    0    0    0    0  0.00000000000E+00  0.00000000000E+00  0.45593999997E+02  0.45594000000E+02  0.51100000000E-03 0. -1.
         11   -1    0    0    0    0 -0.00000000000E+00 -0.00000000000E+00 -0.45593999997E+02  0.45594000000E+02  0.51100000000E-03 0.  1.
         23    2    1    2    0    0  0.17763568394E-14  0.35527136788E-14  0.35527136788E-14  0.91188000000E+02  0.91188000000E+02 0.  0.
    9900012    2    3    3    0    0 -0.12886910904E+02 -0.30177376065E+02  0.16704293299E+02  0.54367083208E+02  0.39999997788E+02 0.  0.
        -12    1    3    3    0    0  0.12886910904E+02  0.30177376065E+02 -0.16704293299E+02  0.36820916792E+02  0.00000000000E+00 0.  1.
         11    1    4    4    0    0 -0.12241814786E+02 -0.13613196199E+02  0.24978695072E+01  0.18477567274E+02  0.51100000000E-03 0. -1.
        -11    1    4    4    0    0  0.38022536642E+00 -0.88402068659E+01 -0.82634988974E+01  0.12106991495E+02  0.51100000000E-03 0.  1.
        -12    1    4    4    0    0 -0.10253214841E+01 -0.77239729996E+01  0.22469922689E+02  0.23782524439E+02  0.00000000000E+00 0.  1.
</event>
<event>
 8    1  0.2490104E-006  0.9118800E+02  0.7816164E-02  0.1184000E+00
        -11   -1    0    0    0    0  0.00000000000E+00  0.00000000000E+00  0.45593999997E+02  0.45594000000E+02  0.51100000000E-03 0. -1.
         11   -1    0    0    0    0 -0.00000000000E+00 -0.00000000000E+00 -0.45593999997E+02  0.45594000000E+02  0.51100000000E-03 0.  1.
         23    2    1    2    0    0  0.88817841970E-15  0.17763568394E-14  0.71054273576E-14  0.91188000000E+02  0.91188000000E+02 0.  0.
    9900012    2    3    3    0    0 -0.28502384371E+01 -0.80752086916E+01 -0.35811283167E+02  0.54367070399E+02  0.39999968589E+02 0.  0.
         12    1    3    3    0    0  0.28502384371E+01  0.80752086916E+01  0.35811283167E+02  0.36820929601E+02  0.00000000000E+00 0. -1.
         11    1    4    4    0    0 -0.23401362575E+01 -0.45153975185E+01  0.74750501145E+00  0.51404101448E+01  0.51100000000E-03 0. -1.
        -11    1    4    4    0    0 -0.16034147434E+02  0.82757944190E+00 -0.23553066362E+02  0.28504836555E+02  0.51100000000E-03 0.  1.
         12    1    4    4    0    0  0.15524045255E+02 -0.43873906150E+01 -0.13005721816E+02  0.20721823700E+02  0.00000000000E+00 0. -1.
</event>
<event>
 8    1  0.2490104E-006  0.9118800E+02  0.7816164E-02  0.1184000E+00
        -11   -1    0    0    0    0  0.00000000000E+00  0.00000000000E+00  0.45593999997E+02  0.45594000000E+02  0.51100000000E-03 0.  1.
         11   -1    0    0    0    0 -0.00000000000E+00 -0.00000000000E+00 -0.45593999997E+02  0.45594000000E+02  0.51100000000E-03 0. -1.
         23    2    1    2    0    0  0.00000000000E+00  0.00000000000E+00 -0.71054273576E-14  0.91188000000E+02  0.91188000000E+02 0.  0.
    9900012    2    3    3    0    0 -0.10816128679E+02  0.13908119196E+02 -0.32331964083E+02  0.54367077678E+02  0.39999985182E+02 0.  0.
        -12    1    3    3    0    0  0.10816128679E+02 -0.13908119196E+02  0.32331964083E+02  0.36820922322E+02  0.00000000000E+00 0.  1.
         11    1    4    4    0    0  0.68996918972E+01  0.28449980764E+01 -0.12941455975E+02  0.14939245140E+02  0.51100000000E-03 0. -1.
        -11    1    4    4    0    0 -0.75159661940E+01 -0.89924180699E+01 -0.81586186901E+01  0.14279929613E+02  0.51100000000E-03 0.  1.
        -12    1    4    4    0    0 -0.10199854382E+02  0.20055539190E+02 -0.11231889418E+02  0.25147902925E+02  0.00000000000E+00 0.  1.
</event>
<event>
 8    1  0.2490104E-006  0.9118800E+02  0.7816164E-02  0.1184000E+00
        -11   -1    0    0    0    0  0.00000000000E+00  0.00000000000E+00  0.45593999997E+02  0.45594000000E+02  0.51100000000E-03 0.  1.
         11   -1    0    0    0    0 -0.00000000000E+00 -0.00000000000E+00 -0.45593999997E+02  0.45594000000E+02  0.51100000000E-03 0. -1.
         23    2    1    2    0    0  0.71054273576E-14  0.00000000000E+00 -0.17763568394E-14  0.91188000000E+02  0.91188000000E+02 0.  0.
    9900012    2    3    3    0    0  0.33973977690E+02 -0.91161006295E+01  0.10883330715E+02  0.54367063860E+02  0.39999953681E+02 0.  0.
         12    1    3    3    0    0 -0.33973977690E+02  0.91161006295E+01 -0.10883330715E+02  0.36820936140E+02  0.00000000000E+00 0. -1.
         11    1    4    4    0    0  0.18726588838E+01 -0.15696842909E+02 -0.58386312443E+01  0.16851924035E+02  0.51100000000E-03 0. -1.
        -11    1    4    4    0    0  0.24518616099E+02  0.60693515042E+01  0.93685799951E+01  0.26940116081E+02  0.51100000000E-03 0.  1.
         12    1    4    4    0    0  0.75827027078E+01  0.51139077511E+00  0.73533819638E+01  0.10575023744E+02  0.00000000000E+00 0. -1.
</event>
<event>
 8    1  0.2490104E-006  0.9118800E+02  0.7816164E-02  0.1184000E+00
        -11   -1    0    0    0    0  0.00000000000E+00  0.00000000000E+00  0.45593999997E+02  0.45594000000E+02  0.51100000000E-03 0.  1.
         11   -1    0    0    0    0 -0.00000000000E+00 -0.00000000000E+00 -0.45593999997E+02  0.45594000000E+02  0.51100000000E-03 0. -1.
         23    2    1    2    0    0  0.17763568394E-14  0.00000000000E+00  0.00000000000E+00  0.91188000000E+02  0.91188000000E+02 0.  0.
    9900012    2    3    3    0    0 -0.10790258575E+02  0.21094375837E+02 -0.28184636352E+02  0.54367135013E+02  0.40000115890E+02 0.  0.
        -12    1    3    3    0    0  0.10790258575E+02 -0.21094375837E+02  0.28184636352E+02  0.36820864987E+02  0.00000000000E+00 0.  1.
         11    1    4    4    0    0 -0.12174469140E+02 -0.24434921869E+01 -0.17563575202E+02  0.21509707740E+02  0.51100000000E-03 0.  1.
        -11    1    4    4    0    0 -0.40102076487E+00  0.13910041248E+02  0.46883471604E+01  0.14684368033E+02  0.51100000000E-03 0. -1.
         12    1    4    4    0    0  0.17852313302E+01  0.96278267757E+01 -0.15309408310E+02  0.18173059240E+02  0.00000000000E+00 0. -1.
</event>
<event>
 8    1  0.2490104E-006  0.9118800E+02  0.7816164E-02  0.1184000E+00
        -11   -1    0    0    0    0  0.00000000000E+00  0.00000000000E+00  0.45593999997E+02  0.45594000000E+02  0.51100000000E-03 0.  1.
         11   -1    0    0    0    0 -0.00000000000E+00 -0.00000000000E+00 -0.45593999997E+02  0.45594000000E+02  0.51100000000E-03 0. -1.
         23    2    1    2    0    0 -0.71054273576E-14  0.35527136788E-14  0.17763568394E-14  0.91188000000E+02  0.91188000000E+02 0.  0.
    9900012    2    3    3    0    0 -0.26044566250E+02  0.24459692655E+02 -0.88985435196E+01  0.54367081045E+02  0.39999992858E+02 0.  0.
        -12    1    3    3    0    0  0.26044566250E+02 -0.24459692655E+02  0.88985435196E+01  0.36820918955E+02  0.00000000000E+00 0.  1.
         11    1    4    4    0    0 -0.40200380896E+01  0.12062909477E+02  0.87859431709E-01  0.12715431996E+02  0.51100000000E-03 0. -1.
        -11    1    4    4    0    0 -0.26465837464E+02  0.12541038530E+02  0.24432604440E+01  0.29388564475E+02  0.51100000000E-03 0.  1.
        -12    1    4    4    0    0  0.44413093034E+01 -0.14425535229E+00 -0.11429663395E+02  0.12263084574E+02  0.00000000000E+00 0.  1.
</event>
<event>
 8    1  0.2490104E-006  0.9118800E+02  0.7816164E-02  0.1184000E+00
        -11   -1    0    0    0    0  0.00000000000E+00  0.00000000000E+00  0.45593999997E+02  0.45594000000E+02  0.51100000000E-03 0.  1.
         11   -1    0    0    0    0 -0.00000000000E+00 -0.00000000000E+00 -0.45593999997E+02  0.45594000000E+02  0.51100000000E-03 0. -1.
         23    2    1    2    0    0 -0.44408920985E-15 -0.35527136788E-14  0.00000000000E+00  0.91188000000E+02  0.91188000000E+02 0.  0.
    9900012    2    3    3    0    0 -0.28700699259E+01 -0.28303151905E+02  0.23376804826E+02  0.54367072350E+02  0.39999973037E+02 0.  0.
         12    1    3    3    0    0  0.28700699259E+01  0.28303151905E+02 -0.23376804826E+02  0.36820927650E+02  0.00000000000E+00 0. -1.
         11    1    4    4    0    0 -0.89480799708E+01 -0.14930742567E+02  0.63699938911E+00  0.17418409148E+02  0.51100000000E-03 0. -1.
        -11    1    4    4    0    0  0.83235336492E+01 -0.20176727229E+02  0.15556883763E+02  0.26802950710E+02  0.51100000000E-03 0.  1.
         12    1    4    4    0    0 -0.22455236043E+01  0.68043178905E+01  0.71829216742E+01  0.10145712493E+02  0.00000000000E+00 0. -1.
</event>
<event>
 8    1  0.2490104E-006  0.9118800E+02  0.7816164E-02  0.1184000E+00
        -11   -1    0    0    0    0  0.00000000000E+00  0.00000000000E+00  0.45593999997E+02  0.45594000000E+02  0.51100000000E-03 0. -1.
         11   -1    0    0    0    0 -0.00000000000E+00 -0.00000000000E+00 -0.45593999997E+02  0.45594000000E+02  0.51100000000E-03 0.  1.
         23    2    1    2    0    0  0.00000000000E+00  0.00000000000E+00  0.00000000000E+00  0.91188000000E+02  0.91188000000E+02 0.  0.
    9900012    2    3    3    0    0  0.73234936821E+01  0.35830781357E+02  0.42775460486E+01  0.54367138351E+02  0.40000123499E+02 0.  0.
        -12    1    3    3    0    0 -0.73234936821E+01 -0.35830781357E+02 -0.42775460486E+01  0.36820861649E+02  0.00000000000E+00 0.  1.
         11    1    4    4    0    0 -0.48311337240E+01 -0.53187937787E+01  0.43447657314E+01  0.83968095037E+01  0.51100000000E-03 0. -1.
        -11    1    4    4    0    0  0.10246147637E+02  0.89173959245E+01  0.13533777501E+01  0.13650462375E+02  0.51100000000E-03 0.  1.
        -12    1    4    4    0    0  0.19084797696E+01  0.32232179211E+02 -0.14205974329E+01  0.32319866472E+02  0.00000000000E+00 0.  1.
</event>
<event>
 8    1  0.2490104E-006  0.9118800E+02  0.7816164E-02  0.1184000E+00
        -11   -1    0    0    0    0  0.00000000000E+00  0.00000000000E+00  0.45593999997E+02  0.45594000000E+02  0.51100000000E-03 0. -1.
         11   -1    0    0    0    0 -0.00000000000E+00 -0.00000000000E+00 -0.45593999997E+02  0.45594000000E+02  0.51100000000E-03 0.  1.
         23    2    1    2    0    0  0.00000000000E+00 -0.88817841970E-15 -0.17763568394E-14  0.91188000000E+02  0.91188000000E+02 0.  0.
    9900012    2    3    3    0    0 -0.35686591316E+02  0.71737901080E+01  0.55483495241E+01  0.54367078682E+02  0.39999987471E+02 0.  0.
        -12    1    3    3    0    0  0.35686591316E+02 -0.71737901080E+01 -0.55483495241E+01  0.36820921318E+02  0.00000000000E+00 0.  1.
         11    1    4    4    0    0 -0.28298348268E+02  0.10253296427E+02  0.15072260854E+02  0.33661545565E+02  0.51100000000E-03 0. -1.
        -11    1    4    4    0    0 -0.90447704497E+01  0.11852823385E+01 -0.12330573917E+02  0.15338051379E+02  0.51100000000E-03 0.  1.
        -12    1    4    4    0    0  0.16565274015E+01 -0.42647886573E+01  0.28066625873E+01  0.53674817375E+01  0.00000000000E+00 0.  1.
</event>
<event>
 8    1  0.2490104E-006  0.9118800E+02  0.7816164E-02  0.1184000E+00
        -11   -1    0    0    0    0  0.00000000000E+00  0.00000000000E+00  0.45593999997E+02  0.45594000000E+02  0.51100000000E-03 0.  1.
         11   -1    0    0    0    0 -0.00000000000E+00 -0.00000000000E+00 -0.45593999997E+02  0.45594000000E+02  0.51100000000E-03 0. -1.
         23    2    1    2    0    0  0.00000000000E+00 -0.17763568394E-14  0.00000000000E+00  0.91188000000E+02  0.91188000000E+02 0.  0.
    9900012    2    3    3    0    0 -0.26781115960E+02 -0.14255508093E+02  0.20864591245E+02  0.54367097636E+02  0.40000030682E+02 0.  0.
         12    1    3    3    0    0  0.26781115960E+02  0.14255508093E+02 -0.20864591245E+02  0.36820902364E+02  0.00000000000E+00 0. -1.
         11    1    4    4    0    0  0.51372363958E+01  0.81068981196E-01  0.12142434352E+02  0.13184706376E+02  0.51100000000E-03 0.  1.
        -11    1    4    4    0    0 -0.17041683997E+02  0.22428505586E+01  0.78329461331E+01  0.18889267256E+02  0.51100000000E-03 0. -1.
         12    1    4    4    0    0 -0.14876668359E+02 -0.16579427633E+02  0.88921075952E+00  0.22293124005E+02  0.00000000000E+00 0. -1.
</event>
<event>
 8    1  0.2490104E-006  0.9118800E+02  0.7816164E-02  0.1184000E+00
        -11   -1    0    0    0    0  0.00000000000E+00  0.00000000000E+00  0.45593999997E+02  0.45594000000E+02  0.51100000000E-03 0. -1.
         11   -1    0    0    0    0 -0.00000000000E+00 -0.00000000000E+00 -0.45593999997E+02  0.45594000000E+02  0.51100000000E-03 0.  1.
         23    2    1    2    0    0 -0.22204460493E-14  0.35527136788E-14  0.00000000000E+00  0.91188000000E+02  0.91188000000E+02 0.  0.
    9900012    2    3    3    0    0  0.23054146894E+01 -0.29525060305E+02  0.21880034067E+02  0.54367081846E+02  0.39999994684E+02 0.  0.
        -12    1    3    3    0    0 -0.23054146894E+01  0.29525060305E+02 -0.21880034067E+02  0.36820918154E+02  0.00000000000E+00 0.  1.
         11    1    4    4    0    0 -0.12344569677E+02 -0.36407727505E+01  0.12390009080E+02  0.17864936384E+02  0.51100000000E-03 0. -1.
        -11    1    4    4    0    0 -0.26686671089E+01 -0.13763878842E+02  0.50524034161E+01  0.14902782473E+02  0.51100000000E-03 0.  1.
         12    1    4    4    0    0  0.17318651476E+02 -0.12120408713E+02  0.44376215708E+01  0.21599362989E+02  0.00000000000E+00 0. -1.
</event>
<event>
 8    1  0.2490104E-006  0.9118800E+02  0.7816164E-02  0.1184000E+00
        -11   -1    0    0    0    0  0.00000000000E+00  0.00000000000E+00  0.45593999997E+02  0.45594000000E+02  0.51100000000E-03 0. -1.
         11   -1    0    0    0    0 -0.00000000000E+00 -0.00000000000E+00 -0.45593999997E+02  0.45594000000E+02  0.51100000000E-03 0.  1.
         23    2    1    2    0    0  0.00000000000E+00  0.00000000000E+00  0.00000000000E+00  0.91188000000E+02  0.91188000000E+02 0.  0.
    9900012    2    3    3    0    0 -0.51826562086E+01  0.16387043866E+02 -0.32563539768E+02  0.54367092158E+02  0.40000018193E+02 0.  0.
         12    1    3    3    0    0  0.51826562086E+01 -0.16387043866E+02  0.32563539768E+02  0.36820907842E+02  0.00000000000E+00 0. -1.
         11    1    4    4    0    0  0.36477401443E+01  0.20313663990E+02 -0.12968378605E+02  0.24374777881E+02  0.51100000000E-03 0. -1.
        -11    1    4    4    0    0 -0.10473470821E+02 -0.53073511078E+01 -0.23082679979E+02  0.25897329632E+02  0.51100000000E-03 0.  1.
        -12    1    4    4    0    0  0.16430744684E+01  0.13807309840E+01  0.34875188150E+01  0.40949846451E+01  0.00000000000E+00 0.  1.
</event>
<event>
 8    1  0.2490104E-006  0.9118800E+02  0.7816164E-02  0.1184000E+00
        -11   -1    0    0    0    0  0.00000000000E+00  0.00000000000E+00  0.45593999997E+02  0.45594000000E+02  0.51100000000E-03 0.  1.
         11   -1    0    0    0    0 -0.00000000000E+00 -0.00000000000E+00 -0.45593999997E+02  0.45594000000E+02  0.51100000000E-03 0. -1.
         23    2    1    2    0    0 -0.17763568394E-14  0.00000000000E+00  0.00000000000E+00  0.91188000000E+02  0.91188000000E+02 0.  0.
    9900012    2    3    3    0    0 -0.15347044502E+02 -0.24888188643E+02  0.22379141193E+02  0.54367086521E+02  0.40000005343E+02 0.  0.
         12    1    3    3    0    0  0.15347044502E+02  0.24888188643E+02 -0.22379141193E+02  0.36820913479E+02  0.00000000000E+00 0. -1.
         11    1    4    4    0    0  0.82655384782E+01 -0.16327650440E+02  0.52723525008E+01  0.19044920488E+02  0.51100000000E-03 0. -1.
        -11    1    4    4    0    0  0.22555443585E+01 -0.40463457787E+01  0.22228148884E+01  0.51382196142E+01  0.51100000000E-03 0.  1.
        -12    1    4    4    0    0 -0.25868127339E+02 -0.45141924236E+01  0.14883973804E+02  0.30183946419E+02  0.00000000000E+00 0.  1.
</event>
<event>
 8    1  0.2490104E-006  0.9118800E+02  0.7816164E-02  0.1184000E+00
        -11   -1    0    0    0    0  0.00000000000E+00  0.00000000000E+00  0.45593999997E+02  0.45594000000E+02  0.51100000000E-03 0. -1.
         11   -1    0    0    0    0 -0.00000000000E+00 -0.00000000000E+00 -0.45593999997E+02  0.45594000000E+02  0.51100000000E-03 0.  1.
         23    2    1    2    0    0  0.00000000000E+00  0.35527136788E-14  0.35527136788E-14  0.91188000000E+02  0.91188000000E+02 0.  0.
    9900012    2    3    3    0    0  0.21420006799E+02  0.80841561634E+01  0.28837641220E+02  0.54367084432E+02  0.40000000580E+02 0.  0.
        -12    1    3    3    0    0 -0.21420006799E+02 -0.80841561634E+01 -0.28837641220E+02  0.36820915568E+02  0.00000000000E+00 0.  1.
         11    1    4    4    0    0  0.94977184145E+01 -0.89040122019E+01  0.18915409017E+02  0.22962595387E+02  0.51100000000E-03 0.  1.
        -11    1    4    4    0    0  0.13410899227E+02  0.20541195943E+02  0.48021772530E+01  0.24997076939E+02  0.51100000000E-03 0. -1.
         12    1    4    4    0    0 -0.14886108426E+01 -0.35530275777E+01  0.51200549498E+01  0.64074121061E+01  0.00000000000E+00 0. -1.
</event>
<event>
 8    1  0.2490104E-006  0.9118800E+02  0.7816164E-02  0.1184000E+00
        -11   -1    0    0    0    0  0.00000000000E+00  0.00000000000E+00  0.45593999997E+02  0.45594000000E+02  0.51100000000E-03 0. -1.
         11   -1    0    0    0    0 -0.00000000000E+00 -0.00000000000E+00 -0.45593999997E+02  0.45594000000E+02  0.51100000000E-03 0.  1.
         23    2    1    2    0    0  0.00000000000E+00  0.88817841970E-15 -0.71054273576E-14  0.91188000000E+02  0.91188000000E+02 0.  0.
    9900012    2    3    3    0    0  0.20167566496E+02  0.35300823672E+01 -0.30603725543E+02  0.54367078813E+02  0.39999987771E+02 0.  0.
         12    1    3    3    0    0 -0.20167566496E+02 -0.35300823672E+01  0.30603725543E+02  0.36820921187E+02  0.00000000000E+00 0. -1.
         11    1    4    4    0    0  0.12363725238E+02  0.10864672492E+02  0.56364398219E+00  0.16468773631E+02  0.51100000000E-03 0. -1.
        -11    1    4    4    0    0  0.12748974675E+02 -0.65643991497E+01 -0.14093637486E+02  0.20106175900E+02  0.51100000000E-03 0.  1.
         12    1    4    4    0    0 -0.49451334170E+01 -0.77019097501E+00 -0.17073732039E+02  0.17792129282E+02  0.00000000000E+00 0. -1.
</event>
<event>
 8    1  0.2490104E-006  0.9118800E+02  0.7816164E-02  0.1184000E+00
        -11   -1    0    0    0    0  0.00000000000E+00  0.00000000000E+00  0.45593999997E+02  0.45594000000E+02  0.51100000000E-03 0.  1.
         11   -1    0    0    0    0 -0.00000000000E+00 -0.00000000000E+00 -0.45593999997E+02  0.45594000000E+02  0.51100000000E-03 0. -1.
         23    2    1    2    0    0  0.00000000000E+00  0.00000000000E+00  0.00000000000E+00  0.91188000000E+02  0.91188000000E+02 0.  0.
    9900012    2    3    3    0    0  0.28702808053E+02 -0.53985263330E+01  0.22422871653E+02  0.54367075923E+02  0.39999981182E+02 0.  0.
         12    1    3    3    0    0 -0.28702808053E+02  0.53985263330E+01 -0.22422871653E+02  0.36820924077E+02  0.00000000000E+00 0. -1.
         11    1    4    4    0    0  0.13420281340E+02  0.13264228160E+02 -0.12915322357E+01  0.18913269303E+02  0.51100000000E-03 0. -1.
        -11    1    4    4    0    0  0.12811607787E+02 -0.74538089195E+01  0.14494250628E+02  0.20731132700E+02  0.51100000000E-03 0.  1.
         12    1    4    4    0    0  0.24709189259E+01 -0.11208945574E+02  0.92201532606E+01  0.14722673920E+02  0.00000000000E+00 0. -1.
</event>
<event>
 8    1  0.2490104E-006  0.9118800E+02  0.7816164E-02  0.1184000E+00
        -11   -1    0    0    0    0  0.00000000000E+00  0.00000000000E+00  0.45593999997E+02  0.45594000000E+02  0.51100000000E-03 0.  1.
         11   -1    0    0    0    0 -0.00000000000E+00 -0.00000000000E+00 -0.45593999997E+02  0.45594000000E+02  0.51100000000E-03 0. -1.
         23    2    1    2    0    0  0.00000000000E+00 -0.71054273576E-14  0.00000000000E+00  0.91188000000E+02  0.91188000000E+02 0.  0.
    9900012    2    3    3    0    0  0.45471966014E+01 -0.36308421028E+02 -0.40989465184E+01  0.54367084788E+02  0.40000001391E+02 0.  0.
        -12    1    3    3    0    0 -0.45471966014E+01  0.36308421028E+02  0.40989465184E+01  0.36820915212E+02  0.00000000000E+00 0.  1.
         11    1    4    4    0    0  0.13066518610E+02 -0.20667319756E+02  0.11584503596E+02  0.27056842726E+02  0.51100000000E-03 0. -1.
        -11    1    4    4    0    0 -0.70381647507E+01 -0.35478328554E+01 -0.57703040598E+00  0.79029010736E+01  0.51100000000E-03 0.  1.
         12    1    4    4    0    0 -0.14811572576E+01 -0.12093268417E+02 -0.15106419708E+02  0.19407340988E+02  0.00000000000E+00 0. -1.
</event>
<event>
 8    1  0.2490104E-006  0.9118800E+02  0.7816164E-02  0.1184000E+00
        -11   -1    0    0    0    0  0.00000000000E+00  0.00000000000E+00  0.45593999997E+02  0.45594000000E+02  0.51100000000E-03 0.  1.
         11   -1    0    0    0    0 -0.00000000000E+00 -0.00000000000E+00 -0.45593999997E+02  0.45594000000E+02  0.51100000000E-03 0. -1.
         23    2    1    2    0    0  0.35527136788E-14  0.00000000000E+00 -0.35527136788E-14  0.91188000000E+02  0.91188000000E+02 0.  0.
    9900012    2    3    3    0    0 -0.30819312044E+02  0.16311813549E+01  0.20081901005E+02  0.54367170359E+02  0.40000196467E+02 0.  0.
         12    1    3    3    0    0  0.30819312044E+02 -0.16311813549E+01 -0.20081901005E+02  0.36820829641E+02  0.00000000000E+00 0. -1.
         11    1    4    4    0    0  0.22659480616E+01  0.54573462216E+01 -0.32893886953E+01  0.67629303302E+01  0.51100000000E-03 0. -1.
        -11    1    4    4    0    0  0.63809571340E+00 -0.23756410960E+01  0.11597104567E+02  0.11855111613E+02  0.51100000000E-03 0.  1.
         12    1    4    4    0    0 -0.33723355819E+02 -0.14505237707E+01  0.11774185133E+02  0.35749128415E+02  0.00000000000E+00 0. -1.
</event>
<event>
 8    1  0.2490104E-006  0.9118800E+02  0.7816164E-02  0.1184000E+00
        -11   -1    0    0    0    0  0.00000000000E+00  0.00000000000E+00  0.45593999997E+02  0.45594000000E+02  0.51100000000E-03 0. -1.
         11   -1    0    0    0    0 -0.00000000000E+00 -0.00000000000E+00 -0.45593999997E+02  0.45594000000E+02  0.51100000000E-03 0.  1.
         23    2    1    2    0    0  0.00000000000E+00  0.00000000000E+00  0.00000000000E+00  0.91188000000E+02  0.91188000000E+02 0.  0.
    9900012    2    3    3    0    0  0.16479878255E+02  0.51568143472E+01  0.32520795728E+02  0.54367064701E+02  0.39999955599E+02 0.  0.
        -12    1    3    3    0    0 -0.16479878255E+02 -0.51568143472E+01 -0.32520795728E+02  0.36820935299E+02  0.00000000000E+00 0.  1.
         11    1    4    4    0    0  0.16321795827E+02  0.15014246203E+02  0.34653394049E+02  0.41142269353E+02  0.51100000000E-03 0. -1.
        -11    1    4    4    0    0 -0.28857567805E+01 -0.55084277529E+01  0.19620059675E+01  0.65207235935E+01  0.51100000000E-03 0.  1.
         12    1    4    4    0    0  0.30438392084E+01 -0.43490041027E+01 -0.40946042892E+01  0.67040717551E+01  0.00000000000E+00 0. -1.
</event>
<event>
 8    1  0.2490104E-006  0.9118800E+02  0.7816164E-02  0.1184000E+00
        -11   -1    0    0    0    0  0.00000000000E+00  0.00000000000E+00  0.45593999997E+02  0.45594000000E+02  0.51100000000E-03 0. -1.
         11   -1    0    0    0    0 -0.00000000000E+00 -0.00000000000E+00 -0.45593999997E+02  0.45594000000E+02  0.51100000000E-03 0.  1.
         23    2    1    2    0    0  0.71054273576E-14  0.00000000000E+00  0.17763568394E-14  0.91188000000E+02  0.91188000000E+02 0.  0.
    9900012    2    3    3    0    0  0.31064602350E+02 -0.11862941410E+02 -0.15812667171E+02  0.54367090979E+02  0.40000015506E+02 0.  0.
         12    1    3    3    0    0 -0.31064602350E+02  0.11862941410E+02  0.15812667171E+02  0.36820909021E+02  0.00000000000E+00 0. -1.
         11    1    4    4    0    0  0.13203484296E+02  0.92685403914E+01  0.21489911396E+01  0.16274397123E+02  0.51100000000E-03 0. -1.
        -11    1    4    4    0    0 -0.38391797236E+01 -0.24223029249E+01 -0.56918817331E+00  0.45750221691E+01  0.51100000000E-03 0.  1.
        -12    1    4    4    0    0  0.21700297778E+02 -0.18709178876E+02 -0.17392470137E+02  0.33517671687E+02  0.00000000000E+00 0.  1.
</event>
<event>
 8    1  0.2490104E-006  0.9118800E+02  0.7816164E-02  0.1184000E+00
        -11   -1    0    0    0    0  0.00000000000E+00  0.00000000000E+00  0.45593999997E+02  0.45594000000E+02  0.51100000000E-03 0.  1.
         11   -1    0    0    0    0 -0.00000000000E+00 -0.00000000000E+00 -0.45593999997E+02  0.45594000000E+02  0.51100000000E-03 0. -1.
         23    2    1    2    0    0 -0.71054273576E-14  0.00000000000E+00  0.00000000000E+00  0.91188000000E+02  0.91188000000E+02 0.  0.
    9900012    2    3    3    0    0  0.27378635013E+02  0.94393289130E+01  0.22739500055E+02  0.54367143842E+02  0.40000136015E+02 0.  0.
         12    1    3    3    0    0 -0.27378635013E+02 -0.94393289130E+01 -0.22739500055E+02  0.36820856158E+02  0.00000000000E+00 0. -1.
         11    1    4    4    0    0  0.12675675512E+01 -0.55850376719E+01  0.14746298972E+01  0.59138741015E+01  0.51100000000E-03 0. -1.
        -11    1    4    4    0    0  0.41606305914E+01 -0.61132007327E+01 -0.44065023092E+01  0.86080969430E+01  0.51100000000E-03 0.  1.
        -12    1    4    4    0    0  0.21950436870E+02  0.21137567318E+02  0.25671372467E+02  0.39845172797E+02  0.00000000000E+00 0.  1.
</event>
<event>
 8    1  0.2490104E-006  0.9118800E+02  0.7816164E-02  0.1184000E+00
        -11   -1    0    0    0    0  0.00000000000E+00  0.00000000000E+00  0.45593999997E+02  0.45594000000E+02  0.51100000000E-03 0.  1.
         11   -1    0    0    0    0 -0.00000000000E+00 -0.00000000000E+00 -0.45593999997E+02  0.45594000000E+02  0.51100000000E-03 0. -1.
         23    2    1    2    0    0  0.17763568394E-14 -0.22204460493E-15 -0.71054273576E-14  0.91188000000E+02  0.91188000000E+02 0.  0.
    9900012    2    3    3    0    0  0.13583635582E+02 -0.34899739913E+00 -0.34221954136E+02  0.54367094257E+02  0.40000022978E+02 0.  0.
        -12    1    3    3    0    0 -0.13583635582E+02  0.34899739913E+00  0.34221954136E+02  0.36820905743E+02  0.00000000000E+00 0.  1.
         11    1    4    4    0    0  0.14920194167E+02  0.34184627032E+01 -0.17430826135E+02  0.23197667582E+02  0.51100000000E-03 0. -1.
        -11    1    4    4    0    0  0.93632858590E+01  0.40156592937E+00 -0.17299324448E+02  0.19674831737E+02  0.51100000000E-03 0.  1.
        -12    1    4    4    0    0 -0.10699844444E+02 -0.41690260317E+01  0.50819644658E+00  0.11494594938E+02  0.00000000000E+00 0.  1.
</event>
<event>
 8    1  0.2490104E-006  0.9118800E+02  0.7816164E-02  0.1184000E+00
        -11   -1    0    0    0    0  0.00000000000E+00  0.00000000000E+00  0.45593999997E+02  0.45594000000E+02  0.51100000000E-03 0. -1.
         11   -1    0    0    0    0 -0.00000000000E+00 -0.00000000000E+00 -0.45593999997E+02  0.45594000000E+02  0.51100000000E-03 0.  1.
         23    2    1    2    0    0 -0.22204460493E-15  0.00000000000E+00  0.88817841970E-15  0.91188000000E+02  0.91188000000E+02 0.  0.
    9900012    2    3    3    0    0  0.10586293195E+01 -0.36336181846E+02 -0.58599263710E+01  0.54367115380E+02  0.40000071131E+02 0.  0.
         12    1    3    3    0    0 -0.10586293195E+01  0.36336181846E+02  0.58599263710E+01  0.36820884620E+02  0.00000000000E+00 0. -1.
         11    1    4    4    0    0 -0.11159188141E+02 -0.13463539074E+02  0.82343531755E+01  0.19328707583E+02  0.51100000000E-03 0. -1.
        -11    1    4    4    0    0  0.38223937142E+01 -0.21470727297E+02 -0.15014524868E+02  0.26477136961E+02  0.51100000000E-03 0.  1.
        -12    1    4    4    0    0  0.83954237459E+01 -0.14019154753E+01  0.92024532173E+00  0.85612708359E+01  0.00000000000E+00 0.  1.
</event>
<event>
 8    1  0.2490104E-006  0.9118800E+02  0.7816164E-02  0.1184000E+00
        -11   -1    0    0    0    0  0.00000000000E+00  0.00000000000E+00  0.45593999997E+02  0.45594000000E+02  0.51100000000E-03 0. -1.
         11   -1    0    0    0    0 -0.00000000000E+00 -0.00000000000E+00 -0.45593999997E+02  0.45594000000E+02  0.51100000000E-03 0.  1.
         23    2    1    2    0    0  0.00000000000E+00  0.00000000000E+00  0.35527136788E-14  0.91188000000E+02  0.91188000000E+02 0.  0.
    9900012    2    3    3    0    0 -0.26366098921E+02 -0.16915832907E+01 -0.25646611321E+02  0.54367064398E+02  0.39999954909E+02 0.  0.
         12    1    3    3    0    0  0.26366098921E+02  0.16915832907E+01  0.25646611321E+02  0.36820935602E+02  0.00000000000E+00 0. -1.
         11    1    4    4    0    0  0.28082011655E+01 -0.55479040654E+01  0.52762541658E+01  0.81550040827E+01  0.51100000000E-03 0. -1.
        -11    1    4    4    0    0 -0.29753488469E+02 -0.10992180693E+00 -0.24060123059E+02  0.38264496348E+02  0.51100000000E-03 0.  1.
        -12    1    4    4    0    0  0.57918838255E+00  0.39662425817E+01 -0.68627424272E+01  0.79475639677E+01  0.00000000000E+00 0.  1.
</event>
<event>
 8    1  0.2490104E-006  0.9118800E+02  0.7816164E-02  0.1184000E+00
        -11   -1    0    0    0    0  0.00000000000E+00  0.00000000000E+00  0.45593999997E+02  0.45594000000E+02  0.51100000000E-03 0. -1.
         11   -1    0    0    0    0 -0.00000000000E+00 -0.00000000000E+00 -0.45593999997E+02  0.45594000000E+02  0.51100000000E-03 0.  1.
         23    2    1    2    0    0  0.71054273576E-14  0.88817841970E-15 -0.35527136788E-14  0.91188000000E+02  0.91188000000E+02 0.  0.
    9900012    2    3    3    0    0 -0.30308571871E+02 -0.57636450471E+01  0.20098814811E+02  0.54366926008E+02  0.39999639419E+02 0.  0.
        -12    1    3    3    0    0  0.30308571871E+02  0.57636450471E+01 -0.20098814811E+02  0.36821073992E+02  0.00000000000E+00 0.  1.
         11    1    4    4    0    0  0.27714257880E+01 -0.74935016937E+01  0.25708615564E+01  0.83930148299E+01  0.51100000000E-03 0. -1.
        -11    1    4    4    0    0 -0.73382927373E+01  0.74889510104E+01 -0.46895527141E+01  0.11485940643E+02  0.51100000000E-03 0.  1.
         12    1    4    4    0    0 -0.25741704922E+02 -0.57590943638E+01  0.22217505969E+02  0.34487970535E+02  0.00000000000E+00 0. -1.
</event>
<event>
 8    1  0.2490104E-006  0.9118800E+02  0.7816164E-02  0.1184000E+00
        -11   -1    0    0    0    0  0.00000000000E+00  0.00000000000E+00  0.45593999997E+02  0.45594000000E+02  0.51100000000E-03 0.  1.
         11   -1    0    0    0    0 -0.00000000000E+00 -0.00000000000E+00 -0.45593999997E+02  0.45594000000E+02  0.51100000000E-03 0. -1.
         23    2    1    2    0    0  0.35527136788E-14  0.17763568394E-14  0.00000000000E+00  0.91188000000E+02  0.91188000000E+02 0.  0.
    9900012    2    3    3    0    0  0.20725352327E+02  0.95650707434E+01  0.28892032832E+02  0.54367077027E+02  0.39999983698E+02 0.  0.
         12    1    3    3    0    0 -0.20725352327E+02 -0.95650707434E+01 -0.28892032832E+02  0.36820922973E+02  0.00000000000E+00 0. -1.
         11    1    4    4    0    0  0.12521835583E+02  0.16112498202E+02 -0.28389993367E+01  0.20602642602E+02  0.51100000000E-03 0. -1.
        -11    1    4    4    0    0  0.69260039184E+01 -0.29214109386E+01  0.23643232072E+02  0.24809405378E+02  0.51100000000E-03 0.  1.
         12    1    4    4    0    0  0.12775128256E+01 -0.36260165200E+01  0.80878000972E+01  0.89550290471E+01  0.00000000000E+00 0. -1.
</event>
<event>
 8    1  0.2490104E-006  0.9118800E+02  0.7816164E-02  0.1184000E+00
        -11   -1    0    0    0    0  0.00000000000E+00  0.00000000000E+00  0.45593999997E+02  0.45594000000E+02  0.51100000000E-03 0. -1.
         11   -1    0    0    0    0 -0.00000000000E+00 -0.00000000000E+00 -0.45593999997E+02  0.45594000000E+02  0.51100000000E-03 0.  1.
         23    2    1    2    0    0 -0.17763568394E-14  0.00000000000E+00  0.00000000000E+00  0.91188000000E+02  0.91188000000E+02 0.  0.
    9900012    2    3    3    0    0 -0.15047123200E+02  0.33513368004E+02 -0.24936348837E+01  0.54367082487E+02  0.39999996145E+02 0.  0.
        -12    1    3    3    0    0  0.15047123200E+02 -0.33513368004E+02  0.24936348837E+01  0.36820917513E+02  0.00000000000E+00 0.  1.
         11    1    4    4    0    0 -0.13981856598E+02  0.29490155178E+02  0.51211667159E-01  0.32636853237E+02  0.51100000000E-03 0. -1.
        -11    1    4    4    0    0 -0.43216709958E+01 -0.73026170535E+01 -0.47743630653E+01  0.97365085615E+01  0.51100000000E-03 0.  1.
        -12    1    4    4    0    0  0.32564043936E+01  0.11325829880E+02  0.22295165145E+01  0.11993720688E+02  0.00000000000E+00 0.  1.
</event>
<event>
 8    1  0.2490104E-006  0.9118800E+02  0.7816164E-02  0.1184000E+00
        -11   -1    0    0    0    0  0.00000000000E+00  0.00000000000E+00  0.45593999997E+02  0.45594000000E+02  0.51100000000E-03 0. -1.
         11   -1    0    0    0    0 -0.00000000000E+00 -0.00000000000E+00 -0.45593999997E+02  0.45594000000E+02  0.51100000000E-03 0.  1.
         23    2    1    2    0    0  0.00000000000E+00  0.00000000000E+00  0.00000000000E+00  0.91188000000E+02  0.91188000000E+02 0.  0.
    9900012    2    3    3    0    0 -0.18158216269E+02 -0.16906887861E+02  0.27206915571E+02  0.54367082981E+02  0.39999997272E+02 0.  0.
        -12    1    3    3    0    0  0.18158216269E+02  0.16906887861E+02 -0.27206915571E+02  0.36820917019E+02  0.00000000000E+00 0.  1.
         11    1    4    4    0    0 -0.16450378538E+02 -0.24737110063E+02  0.25510692421E+02  0.39157821650E+02  0.51100000000E-03 0. -1.
        -11    1    4    4    0    0  0.67201284035E+00  0.11032727734E+02  0.18946218919E+01  0.11214378043E+02  0.51100000000E-03 0.  1.
         12    1    4    4    0    0 -0.23798505714E+01 -0.32025055321E+01 -0.19839874214E+00  0.39948832882E+01  0.00000000000E+00 0. -1.
</event>
<event>
 8    1  0.2490104E-006  0.9118800E+02  0.7816164E-02  0.1184000E+00
        -11   -1    0    0    0    0  0.00000000000E+00  0.00000000000E+00  0.45593999997E+02  0.45594000000E+02  0.51100000000E-03 0.  1.
         11   -1    0    0    0    0 -0.00000000000E+00 -0.00000000000E+00 -0.45593999997E+02  0.45594000000E+02  0.51100000000E-03 0. -1.
         23    2    1    2    0    0  0.00000000000E+00  0.00000000000E+00  0.00000000000E+00  0.91188000000E+02  0.91188000000E+02 0.  0.
    9900012    2    3    3    0    0 -0.91731562467E+01  0.11643878940E+02  0.33705287452E+02  0.54367175532E+02  0.40000208260E+02 0.  0.
         12    1    3    3    0    0  0.91731562467E+01 -0.11643878940E+02 -0.33705287452E+02  0.36820824468E+02  0.00000000000E+00 0. -1.
         11    1    4    4    0    0 -0.63207620363E+01  0.11484457138E+01  0.26649551299E+02  0.27412944843E+02  0.51100000000E-03 0. -1.
        -11    1    4    4    0    0 -0.22172856543E+01 -0.74719141785E+01  0.38465801558E+01  0.86914921802E+01  0.51100000000E-03 0.  1.
         12    1    4    4    0    0 -0.63510855606E+00  0.17967347404E+02  0.32091559969E+01  0.18262738509E+02  0.00000000000E+00 0. -1.
</event>
<event>
 8    1  0.2490104E-006  0.9118800E+02  0.7816164E-02  0.1184000E+00
        -11   -1    0    0    0    0  0.00000000000E+00  0.00000000000E+00  0.45593999997E+02  0.45594000000E+02  0.51100000000E-03 0.  1.
         11   -1    0    0    0    0 -0.00000000000E+00 -0.00000000000E+00 -0.45593999997E+02  0.45594000000E+02  0.51100000000E-03 0. -1.
         23    2    1    2    0    0  0.11102230246E-14  0.17763568394E-14  0.71054273576E-14  0.91188000000E+02  0.91188000000E+02 0.  0.
    9900012    2    3    3    0    0  0.10094514978E+01 -0.11540784099E+02  0.34951111389E+02  0.54366961485E+02  0.39999720297E+02 0.  0.
         12    1    3    3    0    0 -0.10094514978E+01  0.11540784099E+02 -0.34951111389E+02  0.36821038515E+02  0.00000000000E+00 0. -1.
         11    1    4    4    0    0 -0.74884784184E+01  0.29730221205E+01  0.14920352646E+02  0.16956800786E+02  0.51100000000E-03 0. -1.
        -11    1    4    4    0    0  0.17972044314E+02 -0.12409813669E+02  0.14832021801E+02  0.26400506115E+02  0.51100000000E-03 0.  1.
         12    1    4    4    0    0 -0.94741143981E+01 -0.21039925497E+01  0.51987369417E+01  0.11009654584E+02  0.00000000000E+00 0. -1.
</event>
<event>
 8    1  0.2490104E-006  0.9118800E+02  0.7816164E-02  0.1184000E+00
        -11   -1    0    0    0    0  0.00000000000E+00  0.00000000000E+00  0.45593999997E+02  0.45594000000E+02  0.51100000000E-03 0.  1.
         11   -1    0    0    0    0 -0.00000000000E+00 -0.00000000000E+00 -0.45593999997E+02  0.45594000000E+02  0.51100000000E-03 0. -1.
         23    2    1    2    0    0  0.00000000000E+00  0.19984014443E-14 -0.71054273576E-14  0.91188000000E+02  0.91188000000E+02 0.  0.
    9900012    2    3    3    0    0 -0.94784440955E+01  0.15518138849E+01 -0.35546036049E+02  0.54367221795E+02  0.40000313725E+02 0.  0.
        -12    1    3    3    0    0  0.94784440955E+01 -0.15518138849E+01  0.35546036049E+02  0.36820778205E+02  0.00000000000E+00 0.  1.
         11    1    4    4    0    0 -0.41564392721E+01 -0.95230532446E+01 -0.20702627268E+02  0.23163836180E+02  0.51100000000E-03 0. -1.
        -11    1    4    4    0    0  0.13661786658E+01 -0.60046863557E+01  0.18206728193E+01  0.64216471526E+01  0.51100000000E-03 0.  1.
        -12    1    4    4    0    0 -0.66881834892E+01  0.17079553485E+02 -0.16664081601E+02  0.24781738463E+02  0.00000000000E+00 0.  1.
</event>
<event>
 8    1  0.2490104E-006  0.9118800E+02  0.7816164E-02  0.1184000E+00
        -11   -1    0    0    0    0  0.00000000000E+00  0.00000000000E+00  0.45593999997E+02  0.45594000000E+02  0.51100000000E-03 0. -1.
         11   -1    0    0    0    0 -0.00000000000E+00 -0.00000000000E+00 -0.45593999997E+02  0.45594000000E+02  0.51100000000E-03 0.  1.
         23    2    1    2    0    0 -0.22204460493E-15  0.00000000000E+00  0.00000000000E+00  0.91188000000E+02  0.91188000000E+02 0.  0.
    9900012    2    3    3    0    0 -0.16485697602E+01  0.53130339645E+01  0.36398261247E+02  0.54367088361E+02  0.40000009536E+02 0.  0.
        -12    1    3    3    0    0  0.16485697602E+01 -0.53130339645E+01 -0.36398261247E+02  0.36820911639E+02  0.00000000000E+00 0.  1.
         11    1    4    4    0    0 -0.39147997563E+00  0.49560572474E+01  0.33265109000E+02  0.33634554212E+02  0.51100000000E-03 0. -1.
        -11    1    4    4    0    0  0.18416589043E+01  0.60054482000E+01 -0.65671782742E+01  0.90876260018E+01  0.51100000000E-03 0.  1.
        -12    1    4    4    0    0 -0.30987486889E+01 -0.56484714828E+01  0.97003305209E+01  0.11644908147E+02  0.00000000000E+00 0.  1.
</event>
<event>
 8    1  0.2490104E-006  0.9118800E+02  0.7816164E-02  0.1184000E+00
        -11   -1    0    0    0    0  0.00000000000E+00  0.00000000000E+00  0.45593999997E+02  0.45594000000E+02  0.51100000000E-03 0.  1.
         11   -1    0    0    0    0 -0.00000000000E+00 -0.00000000000E+00 -0.45593999997E+02  0.45594000000E+02  0.51100000000E-03 0. -1.
         23    2    1    2    0    0  0.00000000000E+00  0.35527136788E-14  0.00000000000E+00  0.91188000000E+02  0.91188000000E+02 0.  0.
    9900012    2    3    3    0    0 -0.17441363200E+02 -0.27321437837E+02 -0.17467643554E+02  0.54367072701E+02  0.39999973837E+02 0.  0.
        -12    1    3    3    0    0  0.17441363200E+02  0.27321437837E+02  0.17467643554E+02  0.36820927299E+02  0.00000000000E+00 0.  1.
         11    1    4    4    0    0  0.57520015838E+01  0.56625688493E+01 -0.29045199997E+01  0.85782541862E+01  0.51100000000E-03 0. -1.
        -11    1    4    4    0    0 -0.59370878117E+01 -0.15113275093E+02 -0.13170504281E+02  0.20907469454E+02  0.51100000000E-03 0.  1.
        -12    1    4    4    0    0 -0.17256276972E+02 -0.17870731594E+02 -0.13926192742E+01  0.24881349061E+02  0.00000000000E+00 0.  1.
</event>
<event>
 8    1  0.2490104E-006  0.9118800E+02  0.7816164E-02  0.1184000E+00
        -11   -1    0    0    0    0  0.00000000000E+00  0.00000000000E+00  0.45593999997E+02  0.45594000000E+02  0.51100000000E-03 0.  1.
         11   -1    0    0    0    0 -0.00000000000E+00 -0.00000000000E+00 -0.45593999997E+02  0.45594000000E+02  0.51100000000E-03 0. -1.
         23    2    1    2    0    0 -0.88817841970E-15  0.00000000000E+00 -0.35527136788E-14  0.91188000000E+02  0.91188000000E+02 0.  0.
    9900012    2    3    3    0    0 -0.62211630674E+01  0.20481291158E+02  0.29959837370E+02  0.54367109019E+02  0.40000056630E+02 0.  0.
         12    1    3    3    0    0  0.62211630674E+01 -0.20481291158E+02 -0.29959837370E+02  0.36820890981E+02  0.00000000000E+00 0. -1.
         11    1    4    4    0    0  0.99522177242E+01 -0.64307878507E+00  0.76577738174E+00  0.10002329889E+02  0.51100000000E-03 0. -1.
        -11    1    4    4    0    0 -0.75941361998E+01  0.14734526597E+02  0.29303247833E+02  0.33666860746E+02  0.51100000000E-03 0.  1.
        -12    1    4    4    0    0 -0.85792445919E+01  0.63898433463E+01 -0.10918784446E+00  0.10697918384E+02  0.00000000000E+00 0.  1.
</event>
<event>
 8    1  0.2490104E-006  0.9118800E+02  0.7816164E-02  0.1184000E+00
        -11   -1    0    0    0    0  0.00000000000E+00  0.00000000000E+00  0.45593999997E+02  0.45594000000E+02  0.51100000000E-03 0.  1.
         11   -1    0    0    0    0 -0.00000000000E+00 -0.00000000000E+00 -0.45593999997E+02  0.45594000000E+02  0.51100000000E-03 0. -1.
         23    2    1    2    0    0  0.00000000000E+00 -0.88817841970E-15 -0.35527136788E-14  0.91188000000E+02  0.91188000000E+02 0.  0.
    9900012    2    3    3    0    0  0.22957457469E+02  0.78073768512E+01  0.27708833239E+02  0.54367089824E+02  0.40000012871E+02 0.  0.
         12    1    3    3    0    0 -0.22957457469E+02 -0.78073768512E+01 -0.27708833239E+02  0.36820910176E+02  0.00000000000E+00 0. -1.
         11    1    4    4    0    0  0.26380828032E+02  0.13133787585E+01  0.12706506232E+02  0.29310891360E+02  0.51100000000E-03 0. -1.
        -11    1    4    4    0    0  0.36437162863E+01 -0.35768857359E+01  0.10985239949E+02  0.12113887771E+02  0.51100000000E-03 0.  1.
        -12    1    4    4    0    0 -0.70670868495E+01  0.10070883829E+02  0.40170870584E+01  0.12942310693E+02  0.00000000000E+00 0.  1.
</event>
<event>
 8    1  0.2490104E-006  0.9118800E+02  0.7816164E-02  0.1184000E+00
        -11   -1    0    0    0    0  0.00000000000E+00  0.00000000000E+00  0.45593999997E+02  0.45594000000E+02  0.51100000000E-03 0.  1.
         11   -1    0    0    0    0 -0.00000000000E+00 -0.00000000000E+00 -0.45593999997E+02  0.45594000000E+02  0.51100000000E-03 0. -1.
         23    2    1    2    0    0  0.00000000000E+00  0.35527136788E-14  0.88817841970E-15  0.91188000000E+02  0.91188000000E+02 0.  0.
    9900012    2    3    3    0    0 -0.18961624534E+02 -0.30663318273E+02 -0.74832297702E+01  0.54367068178E+02  0.39999963525E+02 0.  0.
         12    1    3    3    0    0  0.18961624534E+02  0.30663318273E+02  0.74832297702E+01  0.36820931822E+02  0.00000000000E+00 0. -1.
         11    1    4    4    0    0 -0.14918372020E+02  0.41079521915E+01 -0.61072218446E+01  0.16635241322E+02  0.51100000000E-03 0. -1.
        -11    1    4    4    0    0 -0.47544754845E+01 -0.66009251388E+01  0.39666579391E+01  0.90505041455E+01  0.51100000000E-03 0.  1.
         12    1    4    4    0    0  0.71122297031E+00 -0.28170345325E+02 -0.53426658646E+01  0.28681322710E+02  0.00000000000E+00 0. -1.
</event>
<event>
 8    1  0.2490104E-006  0.9118800E+02  0.7816164E-02  0.1184000E+00
        -11   -1    0    0    0    0  0.00000000000E+00  0.00000000000E+00  0.45593999997E+02  0.45594000000E+02  0.51100000000E-03 0. -1.
         11   -1    0    0    0    0 -0.00000000000E+00 -0.00000000000E+00 -0.45593999997E+02  0.45594000000E+02  0.51100000000E-03 0.  1.
         23    2    1    2    0    0  0.26645352591E-14  0.00000000000E+00 -0.35527136788E-14  0.91188000000E+02  0.91188000000E+02 0.  0.
    9900012    2    3    3    0    0 -0.70266885647E+01  0.29673239361E+02  0.20637432471E+02  0.54367094181E+02  0.40000022804E+02 0.  0.
        -12    1    3    3    0    0  0.70266885647E+01 -0.29673239361E+02 -0.20637432471E+02  0.36820905819E+02  0.00000000000E+00 0.  1.
         11    1    4    4    0    0 -0.76064829719E+00  0.17631528096E+02  0.24861863961E+01  0.17822190996E+02  0.51100000000E-03 0. -1.
        -11    1    4    4    0    0  0.50269821242E+01  0.27272342684E+01 -0.60091753514E+01  0.82956943469E+01  0.51100000000E-03 0.  1.
         12    1    4    4    0    0 -0.11293022392E+02  0.93144769959E+01  0.24160421427E+02  0.28249208838E+02  0.00000000000E+00 0. -1.
</event>
<event>
 8    1  0.2490104E-006  0.9118800E+02  0.7816164E-02  0.1184000E+00
        -11   -1    0    0    0    0  0.00000000000E+00  0.00000000000E+00  0.45593999997E+02  0.45594000000E+02  0.51100000000E-03 0. -1.
         11   -1    0    0    0    0 -0.00000000000E+00 -0.00000000000E+00 -0.45593999997E+02  0.45594000000E+02  0.51100000000E-03 0.  1.
         23    2    1    2    0    0  0.00000000000E+00  0.11102230246E-14  0.00000000000E+00  0.91188000000E+02  0.91188000000E+02 0.  0.
    9900012    2    3    3    0    0 -0.16776907898E+02  0.84818815750E+00  0.32765878304E+02  0.54366989112E+02  0.39999783279E+02 0.  0.
        -12    1    3    3    0    0  0.16776907898E+02 -0.84818815750E+00 -0.32765878304E+02  0.36821010888E+02  0.00000000000E+00 0.  1.
         11    1    4    4    0    0  0.21313225973E+01 -0.81522170728E+01  0.94016158339E+01  0.12625037020E+02  0.51100000000E-03 0. -1.
        -11    1    4    4    0    0 -0.18966787532E+02  0.12776901318E+02  0.55514268770E+01  0.23533095360E+02  0.51100000000E-03 0.  1.
        -12    1    4    4    0    0  0.58557037078E-01 -0.37764960876E+01  0.17812835593E+02  0.18208856732E+02  0.00000000000E+00 0.  1.
</event>
<event>
 8    1  0.2490104E-006  0.9118800E+02  0.7816164E-02  0.1184000E+00
        -11   -1    0    0    0    0  0.00000000000E+00  0.00000000000E+00  0.45593999997E+02  0.45594000000E+02  0.51100000000E-03 0.  1.
         11   -1    0    0    0    0 -0.00000000000E+00 -0.00000000000E+00 -0.45593999997E+02  0.45594000000E+02  0.51100000000E-03 0. -1.
         23    2    1    2    0    0  0.00000000000E+00 -0.17763568394E-14 -0.35527136788E-14  0.91188000000E+02  0.91188000000E+02 0.  0.
    9900012    2    3    3    0    0 -0.24062106161E+02 -0.13638029636E+02  0.24306360849E+02  0.54367082263E+02  0.39999995635E+02 0.  0.
         12    1    3    3    0    0  0.24062106161E+02  0.13638029636E+02 -0.24306360849E+02  0.36820917737E+02  0.00000000000E+00 0. -1.
         11    1    4    4    0    0  0.17404396616E+01  0.13507056263E+01 -0.76561039757E+01  0.79667725116E+01  0.51100000000E-03 0. -1.
        -11    1    4    4    0    0 -0.27683967517E+02 -0.13415501356E+02  0.27289743248E+02  0.41123081365E+02  0.51100000000E-03 0.  1.
         12    1    4    4    0    0  0.18814216939E+01 -0.15732339057E+01  0.46727215763E+01  0.52772283864E+01  0.00000000000E+00 0. -1.
</event>
<event>
 8    1  0.2490104E-006  0.9118800E+02  0.7816164E-02  0.1184000E+00
        -11   -1    0    0    0    0  0.00000000000E+00  0.00000000000E+00  0.45593999997E+02  0.45594000000E+02  0.51100000000E-03 0.  1.
         11   -1    0    0    0    0 -0.00000000000E+00 -0.00000000000E+00 -0.45593999997E+02  0.45594000000E+02  0.51100000000E-03 0. -1.
         23    2    1    2    0    0  0.00000000000E+00  0.00000000000E+00  0.35527136788E-14  0.91188000000E+02  0.91188000000E+02 0.  0.
    9900012    2    3    3    0    0 -0.12449127053E+02  0.16393162665E+02 -0.30529719221E+02  0.54367077927E+02  0.39999985751E+02 0.  0.
        -12    1    3    3    0    0  0.12449127053E+02 -0.16393162665E+02  0.30529719221E+02  0.36820922073E+02  0.00000000000E+00 0.  1.
         11    1    4    4    0    0 -0.39681655493E+01  0.70309563125E+01 -0.15706255176E+02  0.17659760372E+02  0.51100000000E-03 0. -1.
        -11    1    4    4    0    0 -0.12362987655E+02  0.15674663020E+01 -0.22092006842E+02  0.25364486609E+02  0.51100000000E-03 0.  1.
        -12    1    4    4    0    0  0.38820261516E+01  0.77947400509E+01  0.72685427962E+01  0.11342830947E+02  0.00000000000E+00 0.  1.
</event>
<event>
 8    1  0.2490104E-006  0.9118800E+02  0.7816164E-02  0.1184000E+00
        -11   -1    0    0    0    0  0.00000000000E+00  0.00000000000E+00  0.45593999997E+02  0.45594000000E+02  0.51100000000E-03 0.  1.
         11   -1    0    0    0    0 -0.00000000000E+00 -0.00000000000E+00 -0.45593999997E+02  0.45594000000E+02  0.51100000000E-03 0. -1.
         23    2    1    2    0    0  0.35527136788E-14  0.00000000000E+00  0.35527136788E-14  0.91188000000E+02  0.91188000000E+02 0.  0.
    9900012    2    3    3    0    0 -0.15079476991E+02 -0.19395895028E+02 -0.27426126393E+02  0.54367030714E+02  0.39999878118E+02 0.  0.
        -12    1    3    3    0    0  0.15079476991E+02  0.19395895028E+02  0.27426126393E+02  0.36820969286E+02  0.00000000000E+00 0.  1.
         11    1    4    4    0    0 -0.10930660625E+02 -0.11732788330E+02 -0.17870523986E+02  0.24010274707E+02  0.51100000000E-03 0. -1.
        -11    1    4    4    0    0  0.28557601754E+01 -0.16941366784E+02 -0.60453119327E+01  0.18212936922E+02  0.51100000000E-03 0.  1.
        -12    1    4    4    0    0 -0.70045765418E+01  0.92782600865E+01 -0.35102904745E+01  0.12143819085E+02  0.00000000000E+00 0.  1.
</event>
<event>
 8    1  0.2490104E-006  0.9118800E+02  0.7816164E-02  0.1184000E+00
        -11   -1    0    0    0    0  0.00000000000E+00  0.00000000000E+00  0.45593999997E+02  0.45594000000E+02  0.51100000000E-03 0.  1.
         11   -1    0    0    0    0 -0.00000000000E+00 -0.00000000000E+00 -0.45593999997E+02  0.45594000000E+02  0.51100000000E-03 0. -1.
         23    2    1    2    0    0  0.00000000000E+00  0.35527136788E-14 -0.22204460493E-15  0.91188000000E+02  0.91188000000E+02 0.  0.
    9900012    2    3    3    0    0 -0.18240457743E+02  0.31945031457E+02 -0.16072474431E+01  0.54367047027E+02  0.39999915308E+02 0.  0.
         12    1    3    3    0    0  0.18240457743E+02 -0.31945031457E+02  0.16072474431E+01  0.36820952973E+02  0.00000000000E+00 0. -1.
         11    1    4    4    0    0  0.10716411342E+02  0.73958088384E+01 -0.26644716674E+00  0.13023457865E+02  0.51100000000E-03 0. -1.
        -11    1    4    4    0    0  0.15756802959E+01  0.54909871072E+00 -0.18669158915E+01  0.25039275141E+01  0.51100000000E-03 0.  1.
        -12    1    4    4    0    0 -0.30532549381E+02  0.24000123908E+02  0.52611561511E+00  0.38839661648E+02  0.00000000000E+00 0.  1.
</event>
<event>
 8    1  0.2490104E-006  0.9118800E+02  0.7816164E-02  0.1184000E+00
        -11   -1    0    0    0    0  0.00000000000E+00  0.00000000000E+00  0.45593999997E+02  0.45594000000E+02  0.51100000000E-03 0.  1.
         11   -1    0    0    0    0 -0.00000000000E+00 -0.00000000000E+00 -0.45593999997E+02  0.45594000000E+02  0.51100000000E-03 0. -1.
         23    2    1    2    0    0  0.00000000000E+00  0.00000000000E+00  0.88817841970E-15  0.91188000000E+02  0.91188000000E+02 0.  0.
    9900012    2    3    3    0    0  0.14599958366E+02 -0.33268624116E+02 -0.59849479625E+01  0.54367085604E+02  0.40000003251E+02 0.  0.
         12    1    3    3    0    0 -0.14599958366E+02  0.33268624116E+02  0.59849479625E+01  0.36820914396E+02  0.00000000000E+00 0. -1.
         11    1    4    4    0    0 -0.30104313959E+01  0.31378082035E+01 -0.27416344161E+01  0.51405347041E+01  0.51100000000E-03 0. -1.
        -11    1    4    4    0    0 -0.60463721496E+01 -0.17933595974E+02  0.79026315655E+00  0.18941937516E+02  0.51100000000E-03 0.  1.
         12    1    4    4    0    0  0.23656761912E+02 -0.18472836345E+02 -0.40335767029E+01  0.30284613384E+02  0.00000000000E+00 0. -1.
</event>
<event>
 8    1  0.2490104E-006  0.9118800E+02  0.7816164E-02  0.1184000E+00
        -11   -1    0    0    0    0  0.00000000000E+00  0.00000000000E+00  0.45593999997E+02  0.45594000000E+02  0.51100000000E-03 0.  1.
         11   -1    0    0    0    0 -0.00000000000E+00 -0.00000000000E+00 -0.45593999997E+02  0.45594000000E+02  0.51100000000E-03 0. -1.
         23    2    1    2    0    0  0.00000000000E+00  0.17763568394E-14  0.00000000000E+00  0.91188000000E+02  0.91188000000E+02 0.  0.
    9900012    2    3    3    0    0  0.30726938677E+02  0.72981979565E+01  0.18930703666E+02  0.54367082098E+02  0.39999995259E+02 0.  0.
         12    1    3    3    0    0 -0.30726938677E+02 -0.72981979565E+01 -0.18930703666E+02  0.36820917902E+02  0.00000000000E+00 0. -1.
         11    1    4    4    0    0  0.20836926858E+02 -0.12159309755E+02  0.88295698354E+01  0.25690224568E+02  0.51100000000E-03 0. -1.
        -11    1    4    4    0    0  0.10928553777E+02  0.20715422419E+02  0.11881028422E+02  0.26262537012E+02  0.51100000000E-03 0.  1.
         12    1    4    4    0    0 -0.10385419579E+01 -0.12579147075E+01 -0.17798945916E+01  0.24143205187E+01  0.00000000000E+00 0. -1.
</event>
<event>
 8    1  0.2490104E-006  0.9118800E+02  0.7816164E-02  0.1184000E+00
        -11   -1    0    0    0    0  0.00000000000E+00  0.00000000000E+00  0.45593999997E+02  0.45594000000E+02  0.51100000000E-03 0.  1.
         11   -1    0    0    0    0 -0.00000000000E+00 -0.00000000000E+00 -0.45593999997E+02  0.45594000000E+02  0.51100000000E-03 0. -1.
         23    2    1    2    0    0  0.00000000000E+00 -0.35527136788E-14  0.00000000000E+00  0.91188000000E+02  0.91188000000E+02 0.  0.
    9900012    2    3    3    0    0  0.16372301888E+02  0.27592752383E+02 -0.18065683474E+02  0.54367066110E+02  0.39999958811E+02 0.  0.
        -12    1    3    3    0    0 -0.16372301888E+02 -0.27592752383E+02  0.18065683474E+02  0.36820933890E+02  0.00000000000E+00 0.  1.
         11    1    4    4    0    0  0.15506365701E+02  0.32138480426E+01 -0.10178726523E+00  0.15836241896E+02  0.51100000000E-03 0. -1.
        -11    1    4    4    0    0  0.66175014431E+00 -0.45289389785E+01 -0.16040638591E+00  0.45798397346E+01  0.51100000000E-03 0.  1.
         12    1    4    4    0    0  0.20418604279E+00  0.28907843318E+02 -0.17803489823E+02  0.33950984480E+02  0.00000000000E+00 0. -1.
</event>
<event>
 8    1  0.2490104E-006  0.9118800E+02  0.7816164E-02  0.1184000E+00
        -11   -1    0    0    0    0  0.00000000000E+00  0.00000000000E+00  0.45593999997E+02  0.45594000000E+02  0.51100000000E-03 0.  1.
         11   -1    0    0    0    0 -0.00000000000E+00 -0.00000000000E+00 -0.45593999997E+02  0.45594000000E+02  0.51100000000E-03 0. -1.
         23    2    1    2    0    0  0.88817841970E-15  0.00000000000E+00  0.00000000000E+00  0.91188000000E+02  0.91188000000E+02 0.  0.
    9900012    2    3    3    0    0  0.76289329041E+01  0.30360852070E+02  0.19385506635E+02  0.54367084434E+02  0.40000000583E+02 0.  0.
         12    1    3    3    0    0 -0.76289329041E+01 -0.30360852070E+02 -0.19385506635E+02  0.36820915566E+02  0.00000000000E+00 0. -1.
         11    1    4    4    0    0 -0.37018510976E+01  0.87455121609E+01  0.13174626473E+01  0.95876687778E+01  0.51100000000E-03 0. -1.
        -11    1    4    4    0    0  0.98087906780E+00 -0.14281031826E+01  0.19405782055E+02  0.19482966403E+02  0.51100000000E-03 0.  1.
        -12    1    4    4    0    0  0.10349904934E+02  0.23043443091E+02 -0.13377380670E+01  0.25296449253E+02  0.00000000000E+00 0.  1.
</event>
<event>
 8    1  0.2490104E-006  0.9118800E+02  0.7816164E-02  0.1184000E+00
        -11   -1    0    0    0    0  0.00000000000E+00  0.00000000000E+00  0.45593999997E+02  0.45594000000E+02  0.51100000000E-03 0.  1.
         11   -1    0    0    0    0 -0.00000000000E+00 -0.00000000000E+00 -0.45593999997E+02  0.45594000000E+02  0.51100000000E-03 0. -1.
         23    2    1    2    0    0 -0.88817841970E-15  0.00000000000E+00  0.35527136788E-14  0.91188000000E+02  0.91188000000E+02 0.  0.
    9900012    2    3    3    0    0 -0.29028223240E+01  0.32050571040E+02 -0.17891736805E+02  0.54367085735E+02  0.40000003549E+02 0.  0.
        -12    1    3    3    0    0  0.29028223240E+01 -0.32050571040E+02  0.17891736805E+02  0.36820914265E+02  0.00000000000E+00 0.  1.
         11    1    4    4    0    0 -0.41960927509E+01  0.20052126958E+02  0.10602677906E+01  0.20513877204E+02  0.51100000000E-03 0. -1.
        -11    1    4    4    0    0 -0.11731056259E+02  0.86702631379E+01 -0.92104301610E+01  0.17251758398E+02  0.51100000000E-03 0.  1.
         12    1    4    4    0    0  0.13024326685E+02  0.33281809441E+01 -0.97415744351E+01  0.16601450132E+02  0.00000000000E+00 0. -1.
</event>
<event>
 8    1  0.2490104E-006  0.9118800E+02  0.7816164E-02  0.1184000E+00
        -11   -1    0    0    0    0  0.00000000000E+00  0.00000000000E+00  0.45593999997E+02  0.45594000000E+02  0.51100000000E-03 0.  1.
         11   -1    0    0    0    0 -0.00000000000E+00 -0.00000000000E+00 -0.45593999997E+02  0.45594000000E+02  0.51100000000E-03 0. -1.
         23    2    1    2    0    0  0.00000000000E+00 -0.71054273576E-14  0.00000000000E+00  0.91188000000E+02  0.91188000000E+02 0.  0.
    9900012    2    3    3    0    0  0.29292503243E+01 -0.32468474894E+02 -0.17117175576E+02  0.54367081093E+02  0.39999992968E+02 0.  0.
        -12    1    3    3    0    0 -0.29292503243E+01  0.32468474894E+02  0.17117175576E+02  0.36820918907E+02  0.00000000000E+00 0.  1.
         11    1    4    4    0    0  0.23135624915E+01 -0.54334842953E+01 -0.25101296247E+02  0.25786632128E+02  0.51100000000E-03 0. -1.
        -11    1    4    4    0    0 -0.41399590320E+00 -0.40539554785E+01  0.29532862490E+01  0.50326779709E+01  0.51100000000E-03 0.  1.
         12    1    4    4    0    0  0.10296837360E+01 -0.22981035121E+02  0.50308344214E+01  0.23547770994E+02  0.00000000000E+00 0. -1.
</event>
<event>
 8    1  0.2490104E-006  0.9118800E+02  0.7816164E-02  0.1184000E+00
        -11   -1    0    0    0    0  0.00000000000E+00  0.00000000000E+00  0.45593999997E+02  0.45594000000E+02  0.51100000000E-03 0.  1.
         11   -1    0    0    0    0 -0.00000000000E+00 -0.00000000000E+00 -0.45593999997E+02  0.45594000000E+02  0.51100000000E-03 0. -1.
         23    2    1    2    0    0  0.00000000000E+00  0.35527136788E-14  0.00000000000E+00  0.91188000000E+02  0.91188000000E+02 0.  0.
    9900012    2    3    3    0    0 -0.21059644442E+02  0.27672517241E+02 -0.12103765477E+02  0.54367109554E+02  0.40000057851E+02 0.  0.
        -12    1    3    3    0    0  0.21059644442E+02 -0.27672517241E+02  0.12103765477E+02  0.36820890446E+02  0.00000000000E+00 0.  1.
         11    1    4    4    0    0 -0.29752320129E+01  0.15916442107E+02  0.69867653842E+01  0.17635192816E+02  0.51100000000E-03 0. -1.
        -11    1    4    4    0    0 -0.11351367350E+02  0.96784765110E+01  0.14775697818E+01  0.14990318910E+02  0.51100000000E-03 0.  1.
        -12    1    4    4    0    0 -0.67330450789E+01  0.20775986232E+01 -0.20568100643E+02  0.21741597828E+02  0.00000000000E+00 0.  1.
</event>
<event>
 8    1  0.2490104E-006  0.9118800E+02  0.7816164E-02  0.1184000E+00
        -11   -1    0    0    0    0  0.00000000000E+00  0.00000000000E+00  0.45593999997E+02  0.45594000000E+02  0.51100000000E-03 0.  1.
         11   -1    0    0    0    0 -0.00000000000E+00 -0.00000000000E+00 -0.45593999997E+02  0.45594000000E+02  0.51100000000E-03 0. -1.
         23    2    1    2    0    0  0.17763568394E-14  0.00000000000E+00  0.00000000000E+00  0.91188000000E+02  0.91188000000E+02 0.  0.
    9900012    2    3    3    0    0  0.61536673214E+01  0.10190948139E+02 -0.34843307911E+02  0.54367093552E+02  0.40000021371E+02 0.  0.
        -12    1    3    3    0    0 -0.61536673214E+01 -0.10190948139E+02  0.34843307911E+02  0.36820906448E+02  0.00000000000E+00 0.  1.
         11    1    4    4    0    0  0.79941834398E+01 -0.52396206345E+01 -0.13234665953E+02  0.16325347666E+02  0.51100000000E-03 0. -1.
        -11    1    4    4    0    0 -0.69227290499E+01 -0.29693298355E+01 -0.16717517709E+02  0.18336207235E+02  0.51100000000E-03 0.  1.
        -12    1    4    4    0    0  0.50822129315E+01  0.18399898609E+02 -0.48911242488E+01  0.19705538651E+02  0.00000000000E+00 0.  1.
</event>
<event>
 8    1  0.2490104E-006  0.9118800E+02  0.7816164E-02  0.1184000E+00
        -11   -1    0    0    0    0  0.00000000000E+00  0.00000000000E+00  0.45593999997E+02  0.45594000000E+02  0.51100000000E-03 0. -1.
         11   -1    0    0    0    0 -0.00000000000E+00 -0.00000000000E+00 -0.45593999997E+02  0.45594000000E+02  0.51100000000E-03 0.  1.
         23    2    1    2    0    0  0.88817841970E-15  0.71054273576E-14 -0.44408920985E-15  0.91188000000E+02  0.91188000000E+02 0.  0.
    9900012    2    3    3    0    0  0.47945876096E+01  0.36401458717E+02 -0.27796485630E+01  0.54367072347E+02  0.39999973030E+02 0.  0.
         12    1    3    3    0    0 -0.47945876096E+01 -0.36401458717E+02  0.27796485630E+01  0.36820927653E+02  0.00000000000E+00 0. -1.
         11    1    4    4    0    0 -0.33149872135E+00 -0.43359767972E+01  0.68119150581E+01  0.80816318407E+01  0.51100000000E-03 0. -1.
        -11    1    4    4    0    0 -0.25381078571E+01  0.11067882234E+02 -0.10727233743E+02  0.15620933156E+02  0.51100000000E-03 0.  1.
        -12    1    4    4    0    0  0.76641941880E+01  0.29669553280E+02  0.11356701217E+01  0.30664507350E+02  0.00000000000E+00 0.  1.
</event>
<event>
 8    1  0.2490104E-006  0.9118800E+02  0.7816164E-02  0.1184000E+00
        -11   -1    0    0    0    0  0.00000000000E+00  0.00000000000E+00  0.45593999997E+02  0.45594000000E+02  0.51100000000E-03 0.  1.
         11   -1    0    0    0    0 -0.00000000000E+00 -0.00000000000E+00 -0.45593999997E+02  0.45594000000E+02  0.51100000000E-03 0. -1.
         23    2    1    2    0    0 -0.44408920985E-15  0.00000000000E+00  0.35527136788E-14  0.91188000000E+02  0.91188000000E+02 0.  0.
    9900012    2    3    3    0    0  0.19350673197E+01 -0.19735952443E+02  0.31024577268E+02  0.54367126857E+02  0.40000097296E+02 0.  0.
         12    1    3    3    0    0 -0.19350673197E+01  0.19735952443E+02 -0.31024577268E+02  0.36820873143E+02  0.00000000000E+00 0. -1.
         11    1    4    4    0    0  0.80605860860E+01 -0.23871968298E+01  0.22268190830E+01  0.86965786516E+01  0.51100000000E-03 0. -1.
        -11    1    4    4    0    0 -0.45735429375E+01  0.54123007687E+00  0.27261498562E+02  0.27647776205E+02  0.51100000000E-03 0.  1.
         12    1    4    4    0    0 -0.15519758287E+01 -0.17889985690E+02  0.15362596230E+01  0.18022772000E+02  0.00000000000E+00 0. -1.
</event>
<event>
 8    1  0.2490104E-006  0.9118800E+02  0.7816164E-02  0.1184000E+00
        -11   -1    0    0    0    0  0.00000000000E+00  0.00000000000E+00  0.45593999997E+02  0.45594000000E+02  0.51100000000E-03 0. -1.
         11   -1    0    0    0    0 -0.00000000000E+00 -0.00000000000E+00 -0.45593999997E+02  0.45594000000E+02  0.51100000000E-03 0.  1.
         23    2    1    2    0    0 -0.35527136788E-14  0.00000000000E+00  0.44408920985E-15  0.91188000000E+02  0.91188000000E+02 0.  0.
    9900012    2    3    3    0    0  0.18717715438E+02  0.31601604253E+02 -0.26015409598E+01  0.54367051099E+02  0.39999924590E+02 0.  0.
         12    1    3    3    0    0 -0.18717715438E+02 -0.31601604253E+02  0.26015409598E+01  0.36820948901E+02  0.00000000000E+00 0. -1.
         11    1    4    4    0    0  0.18724881381E+02  0.28055634134E+01 -0.50005142418E+01  0.19583092497E+02  0.51100000000E-03 0. -1.
        -11    1    4    4    0    0  0.65985056708E+01  0.35825750249E+01 -0.31383559106E+01  0.81378374878E+01  0.51100000000E-03 0.  1.
         12    1    4    4    0    0 -0.66056716134E+01  0.25213465815E+02  0.55373291926E+01  0.26646121115E+02  0.00000000000E+00 0. -1.
</event>
<event>
 8    1  0.2490104E-006  0.9118800E+02  0.7816164E-02  0.1184000E+00
        -11   -1    0    0    0    0  0.00000000000E+00  0.00000000000E+00  0.45593999997E+02  0.45594000000E+02  0.51100000000E-03 0.  1.
         11   -1    0    0    0    0 -0.00000000000E+00 -0.00000000000E+00 -0.45593999997E+02  0.45594000000E+02  0.51100000000E-03 0. -1.
         23    2    1    2    0    0  0.00000000000E+00 -0.35527136788E-14  0.35527136788E-14  0.91188000000E+02  0.91188000000E+02 0.  0.
    9900012    2    3    3    0    0  0.24691312129E+02 -0.18559861534E+02  0.20041218187E+02  0.54367085003E+02  0.40000001881E+02 0.  0.
         12    1    3    3    0    0 -0.24691312129E+02  0.18559861534E+02 -0.20041218187E+02  0.36820914997E+02  0.00000000000E+00 0. -1.
         11    1    4    4    0    0 -0.90458528859E+01 -0.63111109080E+01 -0.27988600115E+01  0.11379419711E+02  0.51100000000E-03 0. -1.
        -11    1    4    4    0    0  0.26155808790E+02 -0.74152977199E+01  0.19223526440E+02  0.33296500459E+02  0.51100000000E-03 0.  1.
         12    1    4    4    0    0  0.75813562249E+01 -0.48334529059E+01  0.36165517587E+01  0.96911648333E+01  0.00000000000E+00 0. -1.
</event>
<event>
 8    1  0.2490104E-006  0.9118800E+02  0.7816164E-02  0.1184000E+00
        -11   -1    0    0    0    0  0.00000000000E+00  0.00000000000E+00  0.45593999997E+02  0.45594000000E+02  0.51100000000E-03 0.  1.
         11   -1    0    0    0    0 -0.00000000000E+00 -0.00000000000E+00 -0.45593999997E+02  0.45594000000E+02  0.51100000000E-03 0. -1.
         23    2    1    2    0    0  0.35527136788E-14  0.35527136788E-14  0.00000000000E+00  0.91188000000E+02  0.91188000000E+02 0.  0.
    9900012    2    3    3    0    0 -0.18539449165E+02 -0.27653664074E+02  0.15727125424E+02  0.54367098515E+02  0.40000032684E+02 0.  0.
         12    1    3    3    0    0  0.18539449165E+02  0.27653664074E+02 -0.15727125424E+02  0.36820901485E+02  0.00000000000E+00 0. -1.
         11    1    4    4    0    0  0.64283674454E+01 -0.10507469635E+01  0.38163479684E+01  0.75493370087E+01  0.51100000000E-03 0. -1.
        -11    1    4    4    0    0  0.28534607008E+01 -0.12651311128E+01  0.84745055244E+01  0.90310596747E+01  0.51100000000E-03 0.  1.
        -12    1    4    4    0    0 -0.27821277311E+02 -0.25337785998E+02  0.34362719316E+01  0.37786701831E+02  0.00000000000E+00 0.  1.
</event>
<event>
 8    1  0.2490104E-006  0.9118800E+02  0.7816164E-02  0.1184000E+00
        -11   -1    0    0    0    0  0.00000000000E+00  0.00000000000E+00  0.45593999997E+02  0.45594000000E+02  0.51100000000E-03 0.  1.
         11   -1    0    0    0    0 -0.00000000000E+00 -0.00000000000E+00 -0.45593999997E+02  0.45594000000E+02  0.51100000000E-03 0. -1.
         23    2    1    2    0    0 -0.35527136788E-14  0.00000000000E+00 -0.35527136788E-14  0.91188000000E+02  0.91188000000E+02 0.  0.
    9900012    2    3    3    0    0  0.29847877290E+02 -0.84156200168E+01  0.19850996621E+02  0.54367075163E+02  0.39999979449E+02 0.  0.
         12    1    3    3    0    0 -0.29847877290E+02  0.84156200168E+01 -0.19850996621E+02  0.36820924837E+02  0.00000000000E+00 0. -1.
         11    1    4    4    0    0  0.33092439712E+01 -0.13846314958E+02 -0.25304141504E+01  0.14459409726E+02  0.51100000000E-03 0. -1.
        -11    1    4    4    0    0  0.19274855175E+02  0.44673081893E+01  0.40912288383E+01  0.20204332163E+02  0.51100000000E-03 0.  1.
        -12    1    4    4    0    0  0.72637781441E+01  0.96338675219E+00  0.18290181933E+02  0.19703333274E+02  0.00000000000E+00 0.  1.
</event>
<event>
 8    1  0.2490104E-006  0.9118800E+02  0.7816164E-02  0.1184000E+00
        -11   -1    0    0    0    0  0.00000000000E+00  0.00000000000E+00  0.45593999997E+02  0.45594000000E+02  0.51100000000E-03 0.  1.
         11   -1    0    0    0    0 -0.00000000000E+00 -0.00000000000E+00 -0.45593999997E+02  0.45594000000E+02  0.51100000000E-03 0. -1.
         23    2    1    2    0    0  0.00000000000E+00  0.00000000000E+00  0.35527136788E-14  0.91188000000E+02  0.91188000000E+02 0.  0.
    9900012    2    3    3    0    0  0.24299935512E+02 -0.12311979605E+02 -0.24773093019E+02  0.54367111289E+02  0.40000061806E+02 0.  0.
        -12    1    3    3    0    0 -0.24299935512E+02  0.12311979605E+02  0.24773093019E+02  0.36820888711E+02  0.00000000000E+00 0.  1.
         11    1    4    4    0    0  0.22079315168E+02 -0.15134545326E+02 -0.22849621014E+02  0.35194542208E+02  0.51100000000E-03 0. -1.
        -11    1    4    4    0    0  0.48502110601E+01 -0.51179545550E+01  0.47247773031E+01  0.84877280223E+01  0.51100000000E-03 0.  1.
        -12    1    4    4    0    0 -0.26295907158E+01  0.79405202755E+01 -0.66482493088E+01  0.10684841059E+02  0.00000000000E+00 0.  1.
</event>
<event>
 8    1  0.2490104E-006  0.9118800E+02  0.7816164E-02  0.1184000E+00
        -11   -1    0    0    0    0  0.00000000000E+00  0.00000000000E+00  0.45593999997E+02  0.45594000000E+02  0.51100000000E-03 0.  1.
         11   -1    0    0    0    0 -0.00000000000E+00 -0.00000000000E+00 -0.45593999997E+02  0.45594000000E+02  0.51100000000E-03 0. -1.
         23    2    1    2    0    0 -0.35527136788E-14  0.17763568394E-14  0.00000000000E+00  0.91188000000E+02  0.91188000000E+02 0.  0.
    9900012    2    3    3    0    0 -0.31183183885E+02  0.90669852691E+01  0.17354520479E+02  0.54367074426E+02  0.39999977768E+02 0.  0.
         12    1    3    3    0    0  0.31183183885E+02 -0.90669852691E+01 -0.17354520479E+02  0.36820925574E+02  0.00000000000E+00 0. -1.
         11    1    4    4    0    0  0.11175342306E+01  0.33173512585E+01  0.65230437126E+00  0.35607869050E+01  0.51100000000E-03 0. -1.
        -11    1    4    4    0    0 -0.37156080399E+02  0.77166608364E+01  0.53767834125E+01  0.38327939746E+02  0.51100000000E-03 0.  1.
        -12    1    4    4    0    0  0.48553622831E+01 -0.19670268258E+01  0.11325432696E+02  0.12478347774E+02  0.00000000000E+00 0.  1.
</event>
<event>
 8    1  0.2490104E-006  0.9118800E+02  0.7816164E-02  0.1184000E+00
        -11   -1    0    0    0    0  0.00000000000E+00  0.00000000000E+00  0.45593999997E+02  0.45594000000E+02  0.51100000000E-03 0.  1.
         11   -1    0    0    0    0 -0.00000000000E+00 -0.00000000000E+00 -0.45593999997E+02  0.45594000000E+02  0.51100000000E-03 0. -1.
         23    2    1    2    0    0  0.35527136788E-14  0.00000000000E+00  0.00000000000E+00  0.91188000000E+02  0.91188000000E+02 0.  0.
    9900012    2    3    3    0    0 -0.19105496361E+02 -0.23707552581E+02 -0.20705358767E+02  0.54367083088E+02  0.39999997516E+02 0.  0.
        -12    1    3    3    0    0  0.19105496361E+02  0.23707552581E+02  0.20705358767E+02  0.36820916912E+02  0.00000000000E+00 0.  1.
         11    1    4    4    0    0 -0.96856959999E+01 -0.91826879652E+00  0.52618761619E+01  0.11060889005E+02  0.51100000000E-03 0.  1.
        -11    1    4    4    0    0 -0.11942269264E+01  0.13422059160E+00  0.42955921550E+01  0.44605274735E+01  0.51100000000E-03 0. -1.
         12    1    4    4    0    0 -0.82255734342E+01 -0.22923504376E+02 -0.30262827084E+02  0.38845666609E+02  0.00000000000E+00 0. -1.
</event>
<event>
 8    1  0.2490104E-006  0.9118800E+02  0.7816164E-02  0.1184000E+00
        -11   -1    0    0    0    0  0.00000000000E+00  0.00000000000E+00  0.45593999997E+02  0.45594000000E+02  0.51100000000E-03 0. -1.
         11   -1    0    0    0    0 -0.00000000000E+00 -0.00000000000E+00 -0.45593999997E+02  0.45594000000E+02  0.51100000000E-03 0.  1.
         23    2    1    2    0    0 -0.44408920985E-15  0.00000000000E+00  0.00000000000E+00  0.91188000000E+02  0.91188000000E+02 0.  0.
    9900012    2    3    3    0    0 -0.12183825659E+01 -0.36265622342E+02  0.62528964587E+01  0.54367101939E+02  0.40000040490E+02 0.  0.
        -12    1    3    3    0    0  0.12183825659E+01  0.36265622342E+02 -0.62528964587E+01  0.36820898061E+02  0.00000000000E+00 0.  1.
         11    1    4    4    0    0  0.80609193206E+01 -0.14659049677E+02  0.16399392142E+02  0.23426613511E+02  0.51100000000E-03 0. -1.
        -11    1    4    4    0    0 -0.36101323448E+01 -0.11577909830E+02  0.39321518242E+01  0.12749230165E+02  0.51100000000E-03 0.  1.
         12    1    4    4    0    0 -0.56691695417E+01 -0.10028662836E+02 -0.14078647507E+02  0.18191258263E+02  0.00000000000E+00 0. -1.
</event>
<event>
 8    1  0.2490104E-006  0.9118800E+02  0.7816164E-02  0.1184000E+00
        -11   -1    0    0    0    0  0.00000000000E+00  0.00000000000E+00  0.45593999997E+02  0.45594000000E+02  0.51100000000E-03 0. -1.
         11   -1    0    0    0    0 -0.00000000000E+00 -0.00000000000E+00 -0.45593999997E+02  0.45594000000E+02  0.51100000000E-03 0.  1.
         23    2    1    2    0    0  0.00000000000E+00  0.11102230246E-14  0.00000000000E+00  0.91188000000E+02  0.91188000000E+02 0.  0.
    9900012    2    3    3    0    0  0.10826985260E+02 -0.13283676437E+01  0.35168122255E+02  0.54367014226E+02  0.39999840531E+02 0.  0.
        -12    1    3    3    0    0 -0.10826985260E+02  0.13283676437E+01 -0.35168122255E+02  0.36820985774E+02  0.00000000000E+00 0.  1.
         11    1    4    4    0    0  0.40414594649E+01 -0.69017961279E+00  0.15234807222E+02  0.15776853104E+02  0.51100000000E-03 0. -1.
        -11    1    4    4    0    0 -0.60607004792E+01 -0.12747307964E+02  0.14217655171E+02  0.20034162559E+02  0.51100000000E-03 0.  1.
        -12    1    4    4    0    0  0.12846226274E+02  0.12109119933E+02  0.57156598616E+01  0.18555998563E+02  0.00000000000E+00 0.  1.
</event>
<event>
 8    1  0.2490104E-006  0.9118800E+02  0.7816164E-02  0.1184000E+00
        -11   -1    0    0    0    0  0.00000000000E+00  0.00000000000E+00  0.45593999997E+02  0.45594000000E+02  0.51100000000E-03 0.  1.
         11   -1    0    0    0    0 -0.00000000000E+00 -0.00000000000E+00 -0.45593999997E+02  0.45594000000E+02  0.51100000000E-03 0. -1.
         23    2    1    2    0    0 -0.88817841970E-15  0.00000000000E+00  0.00000000000E+00  0.91188000000E+02  0.91188000000E+02 0.  0.
    9900012    2    3    3    0    0  0.57231850658E+01  0.28028612827E+02 -0.23182362089E+02  0.54367083440E+02  0.39999998317E+02 0.  0.
        -12    1    3    3    0    0 -0.57231850658E+01 -0.28028612827E+02  0.23182362089E+02  0.36820916560E+02  0.00000000000E+00 0.  1.
         11    1    4    4    0    0 -0.16825191744E+01  0.33667460429E+00  0.37406577594E+01  0.41154272313E+01  0.51100000000E-03 0. -1.
        -11    1    4    4    0    0  0.13014992743E+02  0.22652907143E+02 -0.43916927204E+01  0.26492096997E+02  0.51100000000E-03 0.  1.
         12    1    4    4    0    0 -0.56092885026E+01  0.50390310802E+01 -0.22531327128E+02  0.23759559211E+02  0.00000000000E+00 0. -1.
</event>
<event>
 8    1  0.2490104E-006  0.9118800E+02  0.7816164E-02  0.1184000E+00
        -11   -1    0    0    0    0  0.00000000000E+00  0.00000000000E+00  0.45593999997E+02  0.45594000000E+02  0.51100000000E-03 0. -1.
         11   -1    0    0    0    0 -0.00000000000E+00 -0.00000000000E+00 -0.45593999997E+02  0.45594000000E+02  0.51100000000E-03 0.  1.
         23    2    1    2    0    0 -0.35527136788E-14 -0.17763568394E-14  0.00000000000E+00  0.91188000000E+02  0.91188000000E+02 0.  0.
    9900012    2    3    3    0    0 -0.29616854094E+02 -0.61630243305E+01 -0.20991431450E+02  0.54367066964E+02  0.39999960757E+02 0.  0.
         12    1    3    3    0    0  0.29616854094E+02  0.61630243305E+01  0.20991431450E+02  0.36820933036E+02  0.00000000000E+00 0. -1.
         11    1    4    4    0    0 -0.13625536012E+02  0.66836789743E+01 -0.21683878732E+02  0.26467289121E+02  0.51100000000E-03 0. -1.
        -11    1    4    4    0    0 -0.15674853306E+02 -0.49040659396E+01 -0.60232353571E+01  0.17493720397E+02  0.51100000000E-03 0.  1.
         12    1    4    4    0    0 -0.31646477630E+00 -0.79426373653E+01  0.67156826392E+01  0.10406057447E+02  0.00000000000E+00 0. -1.
</event>
<event>
 8    1  0.2490104E-006  0.9118800E+02  0.7816164E-02  0.1184000E+00
        -11   -1    0    0    0    0  0.00000000000E+00  0.00000000000E+00  0.45593999997E+02  0.45594000000E+02  0.51100000000E-03 0.  1.
         11   -1    0    0    0    0 -0.00000000000E+00 -0.00000000000E+00 -0.45593999997E+02  0.45594000000E+02  0.51100000000E-03 0. -1.
         23    2    1    2    0    0  0.00000000000E+00  0.35527136788E-14  0.17763568394E-14  0.91188000000E+02  0.91188000000E+02 0.  0.
    9900012    2    3    3    0    0  0.10034225111E+02 -0.31986144504E+02 -0.15230881305E+02  0.54367097524E+02  0.40000030426E+02 0.  0.
         12    1    3    3    0    0 -0.10034225111E+02  0.31986144504E+02  0.15230881305E+02  0.36820902476E+02  0.00000000000E+00 0. -1.
         11    1    4    4    0    0 -0.14918733958E+01 -0.15383481306E+02 -0.10137232009E+02  0.18483523917E+02  0.51100000000E-03 0. -1.
        -11    1    4    4    0    0  0.12060869663E+02 -0.22014669337E+02 -0.11388709789E+02  0.27564704859E+02  0.51100000000E-03 0.  1.
         12    1    4    4    0    0 -0.53477115595E+00  0.54120061387E+01  0.62950604933E+01  0.83188687482E+01  0.00000000000E+00 0. -1.
</event>
<event>
 8    1  0.2490104E-006  0.9118800E+02  0.7816164E-02  0.1184000E+00
        -11   -1    0    0    0    0  0.00000000000E+00  0.00000000000E+00  0.45593999997E+02  0.45594000000E+02  0.51100000000E-03 0.  1.
         11   -1    0    0    0    0 -0.00000000000E+00 -0.00000000000E+00 -0.45593999997E+02  0.45594000000E+02  0.51100000000E-03 0. -1.
         23    2    1    2    0    0  0.00000000000E+00  0.00000000000E+00 -0.13322676296E-14  0.91188000000E+02  0.91188000000E+02 0.  0.
    9900012    2    3    3    0    0  0.84970925568E+01  0.35739152255E+02 -0.25061479084E+01  0.54367240052E+02  0.40000355345E+02 0.  0.
        -12    1    3    3    0    0 -0.84970925568E+01 -0.35739152255E+02  0.25061479084E+01  0.36820759948E+02  0.00000000000E+00 0.  1.
         11    1    4    4    0    0  0.15276711636E+01  0.30758301146E+02 -0.68505745910E+01  0.31548965768E+02  0.51100000000E-03 0. -1.
        -11    1    4    4    0    0  0.84931070966E+01  0.19117276436E+01  0.11770321191E+02  0.14639946446E+02  0.51100000000E-03 0.  1.
         12    1    4    4    0    0 -0.15236857034E+01  0.30691234654E+01 -0.74258945086E+01  0.81783278377E+01  0.00000000000E+00 0. -1.
</event>
<event>
 8    1  0.2490104E-006  0.9118800E+02  0.7816164E-02  0.1184000E+00
        -11   -1    0    0    0    0  0.00000000000E+00  0.00000000000E+00  0.45593999997E+02  0.45594000000E+02  0.51100000000E-03 0. -1.
         11   -1    0    0    0    0 -0.00000000000E+00 -0.00000000000E+00 -0.45593999997E+02  0.45594000000E+02  0.51100000000E-03 0.  1.
         23    2    1    2    0    0  0.00000000000E+00 -0.17763568394E-14  0.00000000000E+00  0.91188000000E+02  0.91188000000E+02 0.  0.
    9900012    2    3    3    0    0  0.19726737717E+02 -0.98770834103E+01  0.29480135370E+02  0.54367091006E+02  0.40000015567E+02 0.  0.
        -12    1    3    3    0    0 -0.19726737717E+02  0.98770834103E+01 -0.29480135370E+02  0.36820908994E+02  0.00000000000E+00 0.  1.
         11    1    4    4    0    0  0.55946530394E+01 -0.18314694072E+01 -0.66055578421E+01  0.88480403190E+01  0.51100000000E-03 0. -1.
        -11    1    4    4    0    0 -0.19322176932E+01 -0.10774222154E+02  0.18869210690E+02  0.21814317330E+02  0.51100000000E-03 0.  1.
         12    1    4    4    0    0  0.16064302371E+02  0.27286081511E+01  0.17216482523E+02  0.23704733358E+02  0.00000000000E+00 0. -1.
</event>
<event>
 8    1  0.2490104E-006  0.9118800E+02  0.7816164E-02  0.1184000E+00
        -11   -1    0    0    0    0  0.00000000000E+00  0.00000000000E+00  0.45593999997E+02  0.45594000000E+02  0.51100000000E-03 0. -1.
         11   -1    0    0    0    0 -0.00000000000E+00 -0.00000000000E+00 -0.45593999997E+02  0.45594000000E+02  0.51100000000E-03 0.  1.
         23    2    1    2    0    0  0.00000000000E+00  0.00000000000E+00  0.88817841970E-15  0.91188000000E+02  0.91188000000E+02 0.  0.
    9900012    2    3    3    0    0 -0.91625941492E+01 -0.34788380376E+02  0.78481981496E+01  0.54367098940E+02  0.40000033653E+02 0.  0.
        -12    1    3    3    0    0  0.91625941492E+01  0.34788380376E+02 -0.78481981496E+01  0.36820901060E+02  0.00000000000E+00 0.  1.
         11    1    4    4    0    0 -0.29623432494E+01 -0.29572418989E+02  0.18943371099E+02  0.35244215855E+02  0.51100000000E-03 0. -1.
        -11    1    4    4    0    0  0.19772106520E+01 -0.61415934870E+01 -0.81215043593E+01  0.10372432976E+02  0.51100000000E-03 0.  1.
        -12    1    4    4    0    0 -0.81774615518E+01  0.92563210021E+00 -0.29736685904E+01  0.87504501086E+01  0.00000000000E+00 0.  1.
</event>
<event>
 8    1  0.2490104E-006  0.9118800E+02  0.7816164E-02  0.1184000E+00
        -11   -1    0    0    0    0  0.00000000000E+00  0.00000000000E+00  0.45593999997E+02  0.45594000000E+02  0.51100000000E-03 0.  1.
         11   -1    0    0    0    0 -0.00000000000E+00 -0.00000000000E+00 -0.45593999997E+02  0.45594000000E+02  0.51100000000E-03 0. -1.
         23    2    1    2    0    0 -0.35527136788E-14  0.00000000000E+00 -0.35527136788E-14  0.91188000000E+02  0.91188000000E+02 0.  0.
    9900012    2    3    3    0    0  0.25136101555E+02  0.16138710103E+02 -0.21528992929E+02  0.54367094230E+02  0.40000022917E+02 0.  0.
        -12    1    3    3    0    0 -0.25136101555E+02 -0.16138710103E+02  0.21528992929E+02  0.36820905770E+02  0.00000000000E+00 0.  1.
         11    1    4    4    0    0  0.16241998441E+02  0.13130329617E+02 -0.45560727518E+01  0.21376760007E+02  0.51100000000E-03 0. -1.
        -11    1    4    4    0    0 -0.76305855351E+01  0.55501266594E+01 -0.39227494409E+00  0.94437080343E+01  0.51100000000E-03 0.  1.
        -12    1    4    4    0    0  0.16524688649E+02 -0.25417461737E+01 -0.16580645233E+02  0.23546626190E+02  0.00000000000E+00 0.  1.
</event>
<event>
 8    1  0.2490104E-006  0.9118800E+02  0.7816164E-02  0.1184000E+00
        -11   -1    0    0    0    0  0.00000000000E+00  0.00000000000E+00  0.45593999997E+02  0.45594000000E+02  0.51100000000E-03 0. -1.
         11   -1    0    0    0    0 -0.00000000000E+00 -0.00000000000E+00 -0.45593999997E+02  0.45594000000E+02  0.51100000000E-03 0.  1.
         23    2    1    2    0    0  0.35527136788E-14  0.00000000000E+00  0.00000000000E+00  0.91188000000E+02  0.91188000000E+02 0.  0.
    9900012    2    3    3    0    0  0.14134943689E+02  0.11321891049E+02 -0.32059310584E+02  0.54367065124E+02  0.39999956563E+02 0.  0.
         12    1    3    3    0    0 -0.14134943689E+02 -0.11321891049E+02  0.32059310584E+02  0.36820934876E+02  0.00000000000E+00 0. -1.
         11    1    4    4    0    0  0.61615361024E+00 -0.95772827423E+01 -0.13653853838E+02  0.16689269454E+02  0.51100000000E-03 0. -1.
        -11    1    4    4    0    0 -0.41933085297E+01  0.48994004626E+01  0.14736634659E+01  0.66151073755E+01  0.51100000000E-03 0.  1.
        -12    1    4    4    0    0  0.17712098609E+02  0.15999773328E+02 -0.19879120212E+02  0.31062688294E+02  0.00000000000E+00 0.  1.
</event>
<event>
 8    1  0.2490104E-006  0.9118800E+02  0.7816164E-02  0.1184000E+00
        -11   -1    0    0    0    0  0.00000000000E+00  0.00000000000E+00  0.45593999997E+02  0.45594000000E+02  0.51100000000E-03 0.  1.
         11   -1    0    0    0    0 -0.00000000000E+00 -0.00000000000E+00 -0.45593999997E+02  0.45594000000E+02  0.51100000000E-03 0. -1.
         23    2    1    2    0    0  0.00000000000E+00 -0.35527136788E-14  0.00000000000E+00  0.91188000000E+02  0.91188000000E+02 0.  0.
    9900012    2    3    3    0    0 -0.29363650636E+02  0.14892130681E+02  0.16485941000E+02  0.54367003469E+02  0.39999816007E+02 0.  0.
         12    1    3    3    0    0  0.29363650636E+02 -0.14892130681E+02 -0.16485941000E+02  0.36820996531E+02  0.00000000000E+00 0. -1.
         11    1    4    4    0    0 -0.18781024173E+02  0.24759171234E+01 -0.37066923534E+01  0.19302761540E+02  0.51100000000E-03 0. -1.
        -11    1    4    4    0    0 -0.10510609503E+02 -0.33052231610E+01  0.14784381035E+02  0.18438420082E+02  0.51100000000E-03 0.  1.
        -12    1    4    4    0    0 -0.72016959656E-01  0.15721436719E+02  0.54082523182E+01  0.16625821847E+02  0.00000000000E+00 0.  1.
</event>
<event>
 8    1  0.2490104E-006  0.9118800E+02  0.7816164E-02  0.1184000E+00
        -11   -1    0    0    0    0  0.00000000000E+00  0.00000000000E+00  0.45593999997E+02  0.45594000000E+02  0.51100000000E-03 0.  1.
         11   -1    0    0    0    0 -0.00000000000E+00 -0.00000000000E+00 -0.45593999997E+02  0.45594000000E+02  0.51100000000E-03 0. -1.
         23    2    1    2    0    0  0.71054273576E-14 -0.35527136788E-14 -0.17763568394E-14  0.91188000000E+02  0.91188000000E+02 0.  0.
    9900012    2    3    3    0    0 -0.33679144008E+02  0.10191188601E+02  0.10846058199E+02  0.54367054267E+02  0.39999931812E+02 0.  0.
         12    1    3    3    0    0  0.33679144008E+02 -0.10191188601E+02 -0.10846058199E+02  0.36820945733E+02  0.00000000000E+00 0. -1.
         11    1    4    4    0    0 -0.16821209894E+01 -0.40737715555E+01 -0.57970019385E+01  0.72821959219E+01  0.51100000000E-03 0. -1.
        -11    1    4    4    0    0 -0.23083962724E+02  0.21565705807E+02  0.16324676310E+02  0.35559022187E+02  0.51100000000E-03 0.  1.
        -12    1    4    4    0    0 -0.89130602951E+01 -0.73007456507E+01  0.31838382815E+00  0.11525836158E+02  0.00000000000E+00 0.  1.
</event>
<event>
 8    1  0.2490104E-006  0.9118800E+02  0.7816164E-02  0.1184000E+00
        -11   -1    0    0    0    0  0.00000000000E+00  0.00000000000E+00  0.45593999997E+02  0.45594000000E+02  0.51100000000E-03 0.  1.
         11   -1    0    0    0    0 -0.00000000000E+00 -0.00000000000E+00 -0.45593999997E+02  0.45594000000E+02  0.51100000000E-03 0. -1.
         23    2    1    2    0    0 -0.88817841970E-15  0.00000000000E+00 -0.88817841970E-15  0.91188000000E+02  0.91188000000E+02 0.  0.
    9900012    2    3    3    0    0 -0.54555227095E+01  0.36031914159E+02 -0.52647704765E+01  0.54367090530E+02  0.40000014482E+02 0.  0.
        -12    1    3    3    0    0  0.54555227095E+01 -0.36031914159E+02  0.52647704765E+01  0.36820909470E+02  0.00000000000E+00 0.  1.
         11    1    4    4    0    0  0.81185366776E+01  0.47725209665E+01 -0.10840254103E+02  0.14359620588E+02  0.51100000000E-03 0.  1.
        -11    1    4    4    0    0 -0.14343453430E+02  0.28980217491E+02 -0.16644567822E+01  0.32378358185E+02  0.51100000000E-03 0. -1.
         12    1    4    4    0    0  0.76939404302E+00  0.22791757013E+01  0.72399404088E+01  0.76291117566E+01  0.00000000000E+00 0. -1.
</event>
<event>
 8    1  0.2490104E-006  0.9118800E+02  0.7816164E-02  0.1184000E+00
        -11   -1    0    0    0    0  0.00000000000E+00  0.00000000000E+00  0.45593999997E+02  0.45594000000E+02  0.51100000000E-03 0. -1.
         11   -1    0    0    0    0 -0.00000000000E+00 -0.00000000000E+00 -0.45593999997E+02  0.45594000000E+02  0.51100000000E-03 0.  1.
         23    2    1    2    0    0  0.88817841970E-15  0.00000000000E+00  0.00000000000E+00  0.91188000000E+02  0.91188000000E+02 0.  0.
    9900012    2    3    3    0    0  0.50185126255E+01  0.25436245111E+02  0.26145600957E+02  0.54367075464E+02  0.39999980136E+02 0.  0.
        -12    1    3    3    0    0 -0.50185126255E+01 -0.25436245111E+02 -0.26145600957E+02  0.36820924536E+02  0.00000000000E+00 0.  1.
         11    1    4    4    0    0  0.11964812786E+02  0.27159427131E+02  0.21017703346E+02  0.36366675423E+02  0.51100000000E-03 0. -1.
        -11    1    4    4    0    0 -0.86352301735E+00 -0.77720328028E+01  0.52541973790E+01  0.94210804182E+01  0.51100000000E-03 0.  1.
         12    1    4    4    0    0 -0.60827771436E+01  0.60488507825E+01 -0.12629976835E+00  0.85793196233E+01  0.00000000000E+00 0. -1.
</event>
<event>
 8    1  0.2490104E-006  0.9118800E+02  0.7816164E-02  0.1184000E+00
        -11   -1    0    0    0    0  0.00000000000E+00  0.00000000000E+00  0.45593999997E+02  0.45594000000E+02  0.51100000000E-03 0.  1.
         11   -1    0    0    0    0 -0.00000000000E+00 -0.00000000000E+00 -0.45593999997E+02  0.45594000000E+02  0.51100000000E-03 0. -1.
         23    2    1    2    0    0  0.00000000000E+00  0.35527136788E-14  0.88817841970E-15  0.91188000000E+02  0.91188000000E+02 0.  0.
    9900012    2    3    3    0    0  0.34617302278E+02 -0.11103509085E+02 -0.58417205374E+01  0.54367201124E+02  0.40000266603E+02 0.  0.
        -12    1    3    3    0    0 -0.34617302278E+02  0.11103509085E+02  0.58417205374E+01  0.36820798876E+02  0.00000000000E+00 0.  1.
         11    1    4    4    0    0  0.10519257860E+02  0.11679630677E+02 -0.93473300270E+01  0.18287731887E+02  0.51100000000E-03 0.  1.
        -11    1    4    4    0    0  0.15495789891E+02 -0.21127303008E+02  0.61807187801E+01  0.26919950254E+02  0.51100000000E-03 0. -1.
        -12    1    4    4    0    0  0.86022545269E+01 -0.16558367541E+01 -0.26751092904E+01  0.91595189840E+01  0.00000000000E+00 0.  1.
</event>
<event>
 8    1  0.2490104E-006  0.9118800E+02  0.7816164E-02  0.1184000E+00
        -11   -1    0    0    0    0  0.00000000000E+00  0.00000000000E+00  0.45593999997E+02  0.45594000000E+02  0.51100000000E-03 0.  1.
         11   -1    0    0    0    0 -0.00000000000E+00 -0.00000000000E+00 -0.45593999997E+02  0.45594000000E+02  0.51100000000E-03 0. -1.
         23    2    1    2    0    0 -0.35527136788E-14  0.00000000000E+00  0.00000000000E+00  0.91188000000E+02  0.91188000000E+02 0.  0.
    9900012    2    3    3    0    0  0.28660404235E+02 -0.15121978584E+01 -0.23066729973E+02  0.54367088212E+02  0.40000009196E+02 0.  0.
        -12    1    3    3    0    0 -0.28660404235E+02  0.15121978584E+01  0.23066729973E+02  0.36820911788E+02  0.00000000000E+00 0.  1.
         11    1    4    4    0    0  0.11997187599E+02 -0.53312243732E+01 -0.15958607794E+02  0.20664743564E+02  0.51100000000E-03 0. -1.
        -11    1    4    4    0    0 -0.22593541355E+01 -0.44311778600E+01  0.70808711257E+01  0.86532510940E+01  0.51100000000E-03 0.  1.
        -12    1    4    4    0    0  0.18922570771E+02  0.82502043748E+01 -0.14188993305E+02  0.25049093553E+02  0.00000000000E+00 0.  1.
</event>
<event>
 8    1  0.2490104E-006  0.9118800E+02  0.7816164E-02  0.1184000E+00
        -11   -1    0    0    0    0  0.00000000000E+00  0.00000000000E+00  0.45593999997E+02  0.45594000000E+02  0.51100000000E-03 0.  1.
         11   -1    0    0    0    0 -0.00000000000E+00 -0.00000000000E+00 -0.45593999997E+02  0.45594000000E+02  0.51100000000E-03 0. -1.
         23    2    1    2    0    0  0.53290705182E-14  0.33306690739E-15  0.00000000000E+00  0.91188000000E+02  0.91188000000E+02 0.  0.
    9900012    2    3    3    0    0  0.14708083219E+02 -0.71048069921E+00 -0.33748280180E+02  0.54367096834E+02  0.40000028853E+02 0.  0.
        -12    1    3    3    0    0 -0.14708083219E+02  0.71048069921E+00  0.33748280180E+02  0.36820903166E+02  0.00000000000E+00 0.  1.
         11    1    4    4    0    0  0.16740956674E+02 -0.97504612618E+01 -0.16489392745E+02  0.25440738954E+02  0.51100000000E-03 0. -1.
        -11    1    4    4    0    0 -0.57164434734E+01 -0.23264508176E+01  0.18026073965E+01  0.64295795413E+01  0.51100000000E-03 0.  1.
        -12    1    4    4    0    0  0.36835700190E+01  0.11366431380E+02 -0.19061494832E+02  0.22496778339E+02  0.00000000000E+00 0.  1.
</event>
<event>
 8    1  0.2490104E-006  0.9118800E+02  0.7816164E-02  0.1184000E+00
        -11   -1    0    0    0    0  0.00000000000E+00  0.00000000000E+00  0.45593999997E+02  0.45594000000E+02  0.51100000000E-03 0. -1.
         11   -1    0    0    0    0 -0.00000000000E+00 -0.00000000000E+00 -0.45593999997E+02  0.45594000000E+02  0.51100000000E-03 0.  1.
         23    2    1    2    0    0  0.00000000000E+00  0.35527136788E-14 -0.88817841970E-15  0.91188000000E+02  0.91188000000E+02 0.  0.
    9900012    2    3    3    0    0 -0.16497745685E+02  0.31989536547E+02 -0.77636395833E+01  0.54367079849E+02  0.39999990132E+02 0.  0.
         12    1    3    3    0    0  0.16497745685E+02 -0.31989536547E+02  0.77636395833E+01  0.36820920151E+02  0.00000000000E+00 0. -1.
         11    1    4    4    0    0  0.74601624694E+01  0.78665735577E+01 -0.23650852125E+00  0.10844027856E+02  0.51100000000E-03 0. -1.
        -11    1    4    4    0    0 -0.15001220999E+01 -0.50949416089E+01 -0.37007679991E+01  0.64733670031E+01  0.51100000000E-03 0.  1.
        -12    1    4    4    0    0 -0.22457786054E+02  0.29217904598E+02 -0.38263630630E+01  0.37049684990E+02  0.00000000000E+00 0.  1.
</event>
<event>
 8    1  0.2490104E-006  0.9118800E+02  0.7816164E-02  0.1184000E+00
        -11   -1    0    0    0    0  0.00000000000E+00  0.00000000000E+00  0.45593999997E+02  0.45594000000E+02  0.51100000000E-03 0.  1.
         11   -1    0    0    0    0 -0.00000000000E+00 -0.00000000000E+00 -0.45593999997E+02  0.45594000000E+02  0.51100000000E-03 0. -1.
         23    2    1    2    0    0 -0.53290705182E-14  0.00000000000E+00  0.00000000000E+00  0.91188000000E+02  0.91188000000E+02 0.  0.
    9900012    2    3    3    0    0 -0.12436914099E+02 -0.23274853039E+02  0.25678486705E+02  0.54367078016E+02  0.39999985953E+02 0.  0.
         12    1    3    3    0    0  0.12436914099E+02  0.23274853039E+02 -0.25678486705E+02  0.36820921984E+02  0.00000000000E+00 0. -1.
         11    1    4    4    0    0  0.99616585824E+01 -0.10639385889E+02  0.12757274282E+02  0.19369543649E+02  0.51100000000E-03 0. -1.
        -11    1    4    4    0    0 -0.10998198611E+02 -0.16879237447E+02  0.99787664165E+01  0.22482099745E+02  0.51100000000E-03 0.  1.
         12    1    4    4    0    0 -0.11400374070E+02  0.42437702967E+01  0.29424460065E+01  0.12515434622E+02  0.00000000000E+00 0. -1.
</event>
<event>
 8    1  0.2490104E-006  0.9118800E+02  0.7816164E-02  0.1184000E+00
        -11   -1    0    0    0    0  0.00000000000E+00  0.00000000000E+00  0.45593999997E+02  0.45594000000E+02  0.51100000000E-03 0.  1.
         11   -1    0    0    0    0 -0.00000000000E+00 -0.00000000000E+00 -0.45593999997E+02  0.45594000000E+02  0.51100000000E-03 0. -1.
         23    2    1    2    0    0  0.17763568394E-14  0.71054273576E-14 -0.22204460493E-15  0.91188000000E+02  0.91188000000E+02 0.  0.
    9900012    2    3    3    0    0  0.11153120315E+02  0.35071967549E+02  0.11596589533E+01  0.54367084620E+02  0.40000001008E+02 0.  0.
        -12    1    3    3    0    0 -0.11153120315E+02 -0.35071967549E+02 -0.11596589533E+01  0.36820915380E+02  0.00000000000E+00 0.  1.
         11    1    4    4    0    0 -0.43458419761E+01  0.12890555530E+02 -0.36774829229E+01  0.14091722580E+02  0.51100000000E-03 0. -1.
        -11    1    4    4    0    0  0.14273580767E+02  0.15750005299E+02  0.16494861414E+02  0.26904985191E+02  0.51100000000E-03 0.  1.
        -12    1    4    4    0    0  0.12253815244E+01  0.64314067208E+01 -0.11657719537E+02  0.13370376850E+02  0.00000000000E+00 0.  1.
</event>
<event>
 8    1  0.2490104E-006  0.9118800E+02  0.7816164E-02  0.1184000E+00
        -11   -1    0    0    0    0  0.00000000000E+00  0.00000000000E+00  0.45593999997E+02  0.45594000000E+02  0.51100000000E-03 0.  1.
         11   -1    0    0    0    0 -0.00000000000E+00 -0.00000000000E+00 -0.45593999997E+02  0.45594000000E+02  0.51100000000E-03 0. -1.
         23    2    1    2    0    0  0.71054273576E-14  0.00000000000E+00 -0.17763568394E-14  0.91188000000E+02  0.91188000000E+02 0.  0.
    9900012    2    3    3    0    0 -0.35928543035E+02 -0.38611377764E+01  0.70719385965E+01  0.54367069742E+02  0.39999967090E+02 0.  0.
         12    1    3    3    0    0  0.35928543035E+02  0.38611377764E+01 -0.70719385965E+01  0.36820930258E+02  0.00000000000E+00 0. -1.
         11    1    4    4    0    0 -0.29664568328E+01 -0.52513491173E+01  0.67855002364E+01  0.90785212129E+01  0.51100000000E-03 0. -1.
        -11    1    4    4    0    0 -0.24288288840E+02 -0.13645840998E+02  0.14008785662E+01  0.27894307884E+02  0.51100000000E-03 0.  1.
         12    1    4    4    0    0 -0.86737973630E+01  0.15036052339E+02 -0.11144402062E+01  0.17394240645E+02  0.00000000000E+00 0. -1.
</event>
<event>
 8    1  0.2490104E-006  0.9118800E+02  0.7816164E-02  0.1184000E+00
        -11   -1    0    0    0    0  0.00000000000E+00  0.00000000000E+00  0.45593999997E+02  0.45594000000E+02  0.51100000000E-03 0. -1.
         11   -1    0    0    0    0 -0.00000000000E+00 -0.00000000000E+00 -0.45593999997E+02  0.45594000000E+02  0.51100000000E-03 0.  1.
         23    2    1    2    0    0 -0.17763568394E-14  0.35527136788E-14  0.00000000000E+00  0.91188000000E+02  0.91188000000E+02 0.  0.
    9900012    2    3    3    0    0  0.83105187858E+01 -0.28262358160E+02 -0.22089660397E+02  0.54367099580E+02  0.40000035113E+02 0.  0.
         12    1    3    3    0    0 -0.83105187858E+01  0.28262358160E+02  0.22089660397E+02  0.36820900420E+02  0.00000000000E+00 0. -1.
         11    1    4    4    0    0  0.10354015651E+02 -0.13448103161E+02  0.54683620157E+01  0.17831435784E+02  0.51100000000E-03 0.  1.
        -11    1    4    4    0    0  0.36788525420E+01  0.21013500480E+01 -0.12428743094E+02  0.13131004653E+02  0.51100000000E-03 0. -1.
         12    1    4    4    0    0 -0.57223494077E+01 -0.16915605048E+02 -0.15129279319E+02  0.23404659143E+02  0.00000000000E+00 0. -1.
</event>
<event>
 8    1  0.2490104E-006  0.9118800E+02  0.7816164E-02  0.1184000E+00
        -11   -1    0    0    0    0  0.00000000000E+00  0.00000000000E+00  0.45593999997E+02  0.45594000000E+02  0.51100000000E-03 0. -1.
         11   -1    0    0    0    0 -0.00000000000E+00 -0.00000000000E+00 -0.45593999997E+02  0.45594000000E+02  0.51100000000E-03 0.  1.
         23    2    1    2    0    0  0.00000000000E+00  0.00000000000E+00  0.71054273576E-14  0.91188000000E+02  0.91188000000E+02 0.  0.
    9900012    2    3    3    0    0 -0.22085841166E+01  0.84203531575E+01 -0.35777079640E+02  0.54367087210E+02  0.40000006913E+02 0.  0.
         12    1    3    3    0    0  0.22085841166E+01 -0.84203531575E+01  0.35777079640E+02  0.36820912790E+02  0.00000000000E+00 0. -1.
         11    1    4    4    0    0 -0.12983384780E+01  0.17212794995E+02 -0.33891972719E+02  0.38034613307E+02  0.51100000000E-03 0.  1.
        -11    1    4    4    0    0  0.35614543372E+01  0.20262973485E+01 -0.21410926202E+01  0.46232148782E+01  0.51100000000E-03 0. -1.
        -12    1    4    4    0    0 -0.44716999758E+01 -0.10818739186E+02  0.25598569902E+00  0.11709259025E+02  0.00000000000E+00 0.  1.
</event>
<event>
 8    1  0.2490104E-006  0.9118800E+02  0.7816164E-02  0.1184000E+00
        -11   -1    0    0    0    0  0.00000000000E+00  0.00000000000E+00  0.45593999997E+02  0.45594000000E+02  0.51100000000E-03 0.  1.
         11   -1    0    0    0    0 -0.00000000000E+00 -0.00000000000E+00 -0.45593999997E+02  0.45594000000E+02  0.51100000000E-03 0. -1.
         23    2    1    2    0    0  0.00000000000E+00  0.00000000000E+00  0.00000000000E+00  0.91188000000E+02  0.91188000000E+02 0.  0.
    9900012    2    3    3    0    0 -0.56109161707E+01 -0.30122987729E+02  0.20418191222E+02  0.54367091500E+02  0.40000016692E+02 0.  0.
         12    1    3    3    0    0  0.56109161707E+01  0.30122987729E+02 -0.20418191222E+02  0.36820908500E+02  0.00000000000E+00 0. -1.
         11    1    4    4    0    0  0.68665246267E+01  0.30124981521E+01 -0.41207190124E+00  0.75096011264E+01  0.51100000000E-03 0. -1.
        -11    1    4    4    0    0 -0.43312369924E+01 -0.25212752227E+02  0.30598556704E+01  0.25764417434E+02  0.51100000000E-03 0.  1.
         12    1    4    4    0    0 -0.81462038049E+01 -0.79227336548E+01  0.17770407452E+02  0.21093072939E+02  0.00000000000E+00 0. -1.
</event>
<event>
 8    1  0.2490104E-006  0.9118800E+02  0.7816164E-02  0.1184000E+00
        -11   -1    0    0    0    0  0.00000000000E+00  0.00000000000E+00  0.45593999997E+02  0.45594000000E+02  0.51100000000E-03 0.  1.
         11   -1    0    0    0    0 -0.00000000000E+00 -0.00000000000E+00 -0.45593999997E+02  0.45594000000E+02  0.51100000000E-03 0. -1.
         23    2    1    2    0    0  0.17763568394E-14 -0.71054273576E-14  0.00000000000E+00  0.91188000000E+02  0.91188000000E+02 0.  0.
    9900012    2    3    3    0    0 -0.13288393378E+02  0.32818806205E+02 -0.10105663168E+02  0.54367083834E+02  0.39999999215E+02 0.  0.
        -12    1    3    3    0    0  0.13288393378E+02 -0.32818806205E+02  0.10105663168E+02  0.36820916166E+02  0.00000000000E+00 0.  1.
         11    1    4    4    0    0 -0.14077093899E+02  0.39996839094E+02 -0.25341230034E+01  0.42477446837E+02  0.51100000000E-03 0. -1.
        -11    1    4    4    0    0 -0.12706335733E+01 -0.21268637753E+01 -0.55400712953E+01  0.60688095550E+01  0.51100000000E-03 0.  1.
         12    1    4    4    0    0  0.20593340942E+01 -0.50511691143E+01 -0.20314688694E+01  0.58208274412E+01  0.00000000000E+00 0. -1.
</event>
<event>
 8    1  0.2490104E-006  0.9118800E+02  0.7816164E-02  0.1184000E+00
        -11   -1    0    0    0    0  0.00000000000E+00  0.00000000000E+00  0.45593999997E+02  0.45594000000E+02  0.51100000000E-03 0. -1.
         11   -1    0    0    0    0 -0.00000000000E+00 -0.00000000000E+00 -0.45593999997E+02  0.45594000000E+02  0.51100000000E-03 0.  1.
         23    2    1    2    0    0  0.00000000000E+00  0.00000000000E+00  0.00000000000E+00  0.91188000000E+02  0.91188000000E+02 0.  0.
    9900012    2    3    3    0    0  0.38417894015E+01  0.11830334156E+02 -0.34656376975E+02  0.54367073652E+02  0.39999976005E+02 0.  0.
         12    1    3    3    0    0 -0.38417894015E+01 -0.11830334156E+02  0.34656376975E+02  0.36820926348E+02  0.00000000000E+00 0. -1.
         11    1    4    4    0    0 -0.11537682649E+01  0.85438865484E+01 -0.20062166373E-01  0.86214605092E+01  0.51100000000E-03 0.  1.
        -11    1    4    4    0    0 -0.10676208410E+02  0.80636883572E+01 -0.13547350739E+02  0.19040357356E+02  0.51100000000E-03 0. -1.
         12    1    4    4    0    0  0.15671766076E+02 -0.47772407492E+01 -0.21088964070E+02  0.26705255787E+02  0.00000000000E+00 0. -1.
</event>
<event>
 8    1  0.2490104E-006  0.9118800E+02  0.7816164E-02  0.1184000E+00
        -11   -1    0    0    0    0  0.00000000000E+00  0.00000000000E+00  0.45593999997E+02  0.45594000000E+02  0.51100000000E-03 0. -1.
         11   -1    0    0    0    0 -0.00000000000E+00 -0.00000000000E+00 -0.45593999997E+02  0.45594000000E+02  0.51100000000E-03 0.  1.
         23    2    1    2    0    0  0.35527136788E-14  0.35527136788E-14  0.00000000000E+00  0.91188000000E+02  0.91188000000E+02 0.  0.
    9900012    2    3    3    0    0  0.26806340002E+02  0.24588985501E+02 -0.57079173003E+01  0.54367103865E+02  0.40000044881E+02 0.  0.
         12    1    3    3    0    0 -0.26806340002E+02 -0.24588985501E+02  0.57079173003E+01  0.36820896135E+02  0.00000000000E+00 0. -1.
         11    1    4    4    0    0 -0.18579389379E+01 -0.36017415454E+01  0.49343308281E+01  0.63853034571E+01  0.51100000000E-03 0. -1.
        -11    1    4    4    0    0  0.55443955029E+01 -0.37283559204E+01 -0.45925378704E+01  0.81075497972E+01  0.51100000000E-03 0.  1.
        -12    1    4    4    0    0  0.23119883436E+02  0.31919082967E+02 -0.60497102580E+01  0.39874250611E+02  0.00000000000E+00 0.  1.
</event>
<event>
 8    1  0.2490104E-006  0.9118800E+02  0.7816164E-02  0.1184000E+00
        -11   -1    0    0    0    0  0.00000000000E+00  0.00000000000E+00  0.45593999997E+02  0.45594000000E+02  0.51100000000E-03 0. -1.
         11   -1    0    0    0    0 -0.00000000000E+00 -0.00000000000E+00 -0.45593999997E+02  0.45594000000E+02  0.51100000000E-03 0.  1.
         23    2    1    2    0    0  0.00000000000E+00 -0.44408920985E-15  0.00000000000E+00  0.91188000000E+02  0.91188000000E+02 0.  0.
    9900012    2    3    3    0    0 -0.36545940431E+02  0.32925356597E+01 -0.30550641048E+01  0.54367082443E+02  0.39999996044E+02 0.  0.
        -12    1    3    3    0    0  0.36545940431E+02 -0.32925356597E+01  0.30550641048E+01  0.36820917557E+02  0.00000000000E+00 0.  1.
         11    1    4    4    0    0 -0.40465855114E+01 -0.17360828013E+01 -0.86616838871E+01  0.97166663941E+01  0.51100000000E-03 0.  1.
        -11    1    4    4    0    0 -0.34578556951E+02 -0.40216340805E+01  0.26823066872E+01  0.34914823656E+02  0.51100000000E-03 0. -1.
        -12    1    4    4    0    0  0.20792020314E+01  0.90502525415E+01  0.29243130950E+01  0.97355923923E+01  0.00000000000E+00 0.  1.
</event>
<event>
 8    1  0.2490104E-006  0.9118800E+02  0.7816164E-02  0.1184000E+00
        -11   -1    0    0    0    0  0.00000000000E+00  0.00000000000E+00  0.45593999997E+02  0.45594000000E+02  0.51100000000E-03 0.  1.
         11   -1    0    0    0    0 -0.00000000000E+00 -0.00000000000E+00 -0.45593999997E+02  0.45594000000E+02  0.51100000000E-03 0. -1.
         23    2    1    2    0    0  0.35527136788E-14  0.35527136788E-14  0.00000000000E+00  0.91188000000E+02  0.91188000000E+02 0.  0.
    9900012    2    3    3    0    0  0.25432384123E+02  0.26199960515E+02 -0.47454275649E+01  0.54367310491E+02  0.40000515923E+02 0.  0.
         12    1    3    3    0    0 -0.25432384123E+02 -0.26199960515E+02  0.47454275649E+01  0.36820689509E+02  0.00000000000E+00 0. -1.
         11    1    4    4    0    0  0.20484125298E+01  0.21895307346E+02 -0.10141595690E+02  0.24216780154E+02  0.51100000000E-03 0. -1.
        -11    1    4    4    0    0  0.77597320676E+01  0.89541003947E+01 -0.23866397221E+01  0.12086579544E+02  0.51100000000E-03 0.  1.
         12    1    4    4    0    0  0.15624239526E+02 -0.46494472256E+01  0.77828078469E+01  0.18063950793E+02  0.00000000000E+00 0. -1.
</event>
<event>
 8    1  0.2490104E-006  0.9118800E+02  0.7816164E-02  0.1184000E+00
        -11   -1    0    0    0    0  0.00000000000E+00  0.00000000000E+00  0.45593999997E+02  0.45594000000E+02  0.51100000000E-03 0.  1.
         11   -1    0    0    0    0 -0.00000000000E+00 -0.00000000000E+00 -0.45593999997E+02  0.45594000000E+02  0.51100000000E-03 0. -1.
         23    2    1    2    0    0  0.44408920985E-15  0.88817841970E-15  0.00000000000E+00  0.91188000000E+02  0.91188000000E+02 0.  0.
    9900012    2    3    3    0    0 -0.21798010669E+01  0.43745443843E+01  0.36495087811E+02  0.54367087388E+02  0.40000007319E+02 0.  0.
         12    1    3    3    0    0  0.21798010669E+01 -0.43745443843E+01 -0.36495087811E+02  0.36820912612E+02  0.00000000000E+00 0. -1.
         11    1    4    4    0    0 -0.11019507175E+02  0.10990447577E+02  0.24266451256E+02  0.28828460472E+02  0.51100000000E-03 0. -1.
        -11    1    4    4    0    0 -0.21975040862E+01  0.20237686393E+01  0.11079331304E+02  0.11475027064E+02  0.51100000000E-03 0.  1.
         12    1    4    4    0    0  0.11037210194E+02 -0.86396718326E+01  0.11493052502E+01  0.14063599852E+02  0.00000000000E+00 0. -1.
</event>
<event>
 8    1  0.2490104E-006  0.9118800E+02  0.7816164E-02  0.1184000E+00
        -11   -1    0    0    0    0  0.00000000000E+00  0.00000000000E+00  0.45593999997E+02  0.45594000000E+02  0.51100000000E-03 0.  1.
         11   -1    0    0    0    0 -0.00000000000E+00 -0.00000000000E+00 -0.45593999997E+02  0.45594000000E+02  0.51100000000E-03 0. -1.
         23    2    1    2    0    0  0.00000000000E+00  0.35527136788E-14 -0.35527136788E-14  0.91188000000E+02  0.91188000000E+02 0.  0.
    9900012    2    3    3    0    0  0.10550556805E+02  0.28112264700E+02 -0.21311106346E+02  0.54367123732E+02  0.40000090171E+02 0.  0.
        -12    1    3    3    0    0 -0.10550556805E+02 -0.28112264700E+02  0.21311106346E+02  0.36820876268E+02  0.00000000000E+00 0.  1.
         11    1    4    4    0    0  0.10956601827E+01  0.16922940296E+02 -0.14838125463E+02  0.22533449514E+02  0.51100000000E-03 0. -1.
        -11    1    4    4    0    0  0.96513107597E+01  0.10278727710E+02 -0.16534042896E+02  0.21729579321E+02  0.51100000000E-03 0.  1.
        -12    1    4    4    0    0 -0.19641413760E+00  0.91059669487E+00  0.10061062013E+02  0.10104094897E+02  0.00000000000E+00 0.  1.
</event>
<event>
 8    1  0.2490104E-006  0.9118800E+02  0.7816164E-02  0.1184000E+00
        -11   -1    0    0    0    0  0.00000000000E+00  0.00000000000E+00  0.45593999997E+02  0.45594000000E+02  0.51100000000E-03 0.  1.
         11   -1    0    0    0    0 -0.00000000000E+00 -0.00000000000E+00 -0.45593999997E+02  0.45594000000E+02  0.51100000000E-03 0. -1.
         23    2    1    2    0    0  0.00000000000E+00 -0.17763568394E-14  0.00000000000E+00  0.91188000000E+02  0.91188000000E+02 0.  0.
    9900012    2    3    3    0    0 -0.21507121407E+02 -0.12764016021E+02  0.27024127879E+02  0.54367083881E+02  0.39999999324E+02 0.  0.
         12    1    3    3    0    0  0.21507121407E+02  0.12764016021E+02 -0.27024127879E+02  0.36820916119E+02  0.00000000000E+00 0. -1.
         11    1    4    4    0    0  0.88567634727E+00 -0.58089617192E+01  0.10661570423E+02  0.12173641320E+02  0.51100000000E-03 0. -1.
        -11    1    4    4    0    0 -0.11882187254E+02  0.38203921616E+01  0.22665183380E+02  0.25874549428E+02  0.51100000000E-03 0.  1.
         12    1    4    4    0    0 -0.10510610500E+02 -0.10775446464E+02 -0.63026259231E+01  0.16318893134E+02  0.00000000000E+00 0. -1.
</event>
<event>
 8    1  0.2490104E-006  0.9118800E+02  0.7816164E-02  0.1184000E+00
        -11   -1    0    0    0    0  0.00000000000E+00  0.00000000000E+00  0.45593999997E+02  0.45594000000E+02  0.51100000000E-03 0.  1.
         11   -1    0    0    0    0 -0.00000000000E+00 -0.00000000000E+00 -0.45593999997E+02  0.45594000000E+02  0.51100000000E-03 0. -1.
         23    2    1    2    0    0 -0.88817841970E-15  0.71054273576E-14  0.13322676296E-14  0.91188000000E+02  0.91188000000E+02 0.  0.
    9900012    2    3    3    0    0 -0.58971018122E+01 -0.36332453200E+02  0.97797747399E+00  0.54367090108E+02  0.40000013520E+02 0.  0.
        -12    1    3    3    0    0  0.58971018122E+01  0.36332453200E+02 -0.97797747399E+00  0.36820909892E+02  0.00000000000E+00 0.  1.
         11    1    4    4    0    0  0.86684931579E+01 -0.84454536639E+01 -0.16006821303E+01  0.12207810810E+02  0.51100000000E-03 0. -1.
        -11    1    4    4    0    0 -0.14175952838E+00 -0.36023340549E+01  0.11885526470E+02  0.12420251452E+02  0.51100000000E-03 0.  1.
         12    1    4    4    0    0 -0.14423835442E+02 -0.24284665481E+02 -0.93068668659E+01  0.29739027846E+02  0.00000000000E+00 0. -1.
</event>
<event>
 8    1  0.2490104E-006  0.9118800E+02  0.7816164E-02  0.1184000E+00
        -11   -1    0    0    0    0  0.00000000000E+00  0.00000000000E+00  0.45593999997E+02  0.45594000000E+02  0.51100000000E-03 0. -1.
         11   -1    0    0    0    0 -0.00000000000E+00 -0.00000000000E+00 -0.45593999997E+02  0.45594000000E+02  0.51100000000E-03 0.  1.
         23    2    1    2    0    0  0.00000000000E+00  0.00000000000E+00  0.00000000000E+00  0.91188000000E+02  0.91188000000E+02 0.  0.
    9900012    2    3    3    0    0 -0.56631139404E+01  0.26047780832E+02  0.25401350664E+02  0.54366995650E+02  0.39999798182E+02 0.  0.
        -12    1    3    3    0    0  0.56631139404E+01 -0.26047780832E+02 -0.25401350664E+02  0.36821004350E+02  0.00000000000E+00 0.  1.
         11    1    4    4    0    0  0.31832581600E+01  0.87707530168E+00  0.37746388234E+01  0.50150066905E+01  0.51100000000E-03 0. -1.
        -11    1    4    4    0    0 -0.39982430992E+01  0.24485341964E+02 -0.23125043016E+01  0.24917174707E+02  0.51100000000E-03 0.  1.
         12    1    4    4    0    0 -0.48481290012E+01  0.68536356701E+00  0.23939216143E+02  0.24434814253E+02  0.00000000000E+00 0. -1.
</event>
<event>
 8    1  0.2490104E-006  0.9118800E+02  0.7816164E-02  0.1184000E+00
        -11   -1    0    0    0    0  0.00000000000E+00  0.00000000000E+00  0.45593999997E+02  0.45594000000E+02  0.51100000000E-03 0. -1.
         11   -1    0    0    0    0 -0.00000000000E+00 -0.00000000000E+00 -0.45593999997E+02  0.45594000000E+02  0.51100000000E-03 0.  1.
         23    2    1    2    0    0  0.38857805862E-15  0.00000000000E+00  0.00000000000E+00  0.91188000000E+02  0.91188000000E+02 0.  0.
    9900012    2    3    3    0    0 -0.21912518478E+00 -0.10552712248E+02  0.35275655930E+02  0.54367086745E+02  0.40000005853E+02 0.  0.
        -12    1    3    3    0    0  0.21912518478E+00  0.10552712248E+02 -0.35275655930E+02  0.36820913255E+02  0.00000000000E+00 0.  1.
         11    1    4    4    0    0  0.13811056868E+02 -0.75099055797E+01  0.16544644627E+02  0.22822559885E+02  0.51100000000E-03 0. -1.
        -11    1    4    4    0    0 -0.82157052445E+01  0.36276774770E+01 -0.18252293368E+01  0.91645686715E+01  0.51100000000E-03 0.  1.
         12    1    4    4    0    0 -0.58144768079E+01 -0.66704841455E+01  0.20556240639E+02  0.22379958188E+02  0.00000000000E+00 0. -1.
</event>
<event>
 8    1  0.2490104E-006  0.9118800E+02  0.7816164E-02  0.1184000E+00
        -11   -1    0    0    0    0  0.00000000000E+00  0.00000000000E+00  0.45593999997E+02  0.45594000000E+02  0.51100000000E-03 0.  1.
         11   -1    0    0    0    0 -0.00000000000E+00 -0.00000000000E+00 -0.45593999997E+02  0.45594000000E+02  0.51100000000E-03 0. -1.
         23    2    1    2    0    0  0.00000000000E+00  0.00000000000E+00 -0.35527136788E-14  0.91188000000E+02  0.91188000000E+02 0.  0.
    9900012    2    3    3    0    0 -0.23919745427E+02  0.16785753146E+02  0.22402301226E+02  0.54367097917E+02  0.40000031322E+02 0.  0.
         12    1    3    3    0    0  0.23919745427E+02 -0.16785753146E+02 -0.22402301226E+02  0.36820902083E+02  0.00000000000E+00 0. -1.
         11    1    4    4    0    0 -0.21483661824E+02  0.10296328859E+02  0.17381324684E+02  0.29490211281E+02  0.51100000000E-03 0. -1.
        -11    1    4    4    0    0 -0.69224060912E+01  0.10344004581E+02  0.10894589853E+02  0.16541167588E+02  0.51100000000E-03 0.  1.
        -12    1    4    4    0    0  0.44863224889E+01 -0.38545802939E+01 -0.58736133110E+01  0.83357190478E+01  0.00000000000E+00 0.  1.
</event>
<event>
 8    1  0.2490104E-006  0.9118800E+02  0.7816164E-02  0.1184000E+00
        -11   -1    0    0    0    0  0.00000000000E+00  0.00000000000E+00  0.45593999997E+02  0.45594000000E+02  0.51100000000E-03 0. -1.
         11   -1    0    0    0    0 -0.00000000000E+00 -0.00000000000E+00 -0.45593999997E+02  0.45594000000E+02  0.51100000000E-03 0.  1.
         23    2    1    2    0    0  0.00000000000E+00  0.00000000000E+00  0.00000000000E+00  0.91188000000E+02  0.91188000000E+02 0.  0.
    9900012    2    3    3    0    0  0.20875631550E+02  0.41593036102E+01  0.30044771612E+02  0.54367080669E+02  0.39999992001E+02 0.  0.
        -12    1    3    3    0    0 -0.20875631550E+02 -0.41593036102E+01 -0.30044771612E+02  0.36820919331E+02  0.00000000000E+00 0.  1.
         11    1    4    4    0    0  0.81545182476E+00 -0.74288997789E+01  0.60854137619E+01  0.96377266261E+01  0.51100000000E-03 0. -1.
        -11    1    4    4    0    0 -0.27988456488E+01  0.12198872326E+02  0.13775162485E+01  0.12591408749E+02  0.51100000000E-03 0.  1.
        -12    1    4    4    0    0  0.22859025374E+02 -0.61066893735E+00  0.22581841602E+02  0.32137945294E+02  0.00000000000E+00 0.  1.
</event>
<event>
 8    1  0.2490104E-006  0.9118800E+02  0.7816164E-02  0.1184000E+00
        -11   -1    0    0    0    0  0.00000000000E+00  0.00000000000E+00  0.45593999997E+02  0.45594000000E+02  0.51100000000E-03 0. -1.
         11   -1    0    0    0    0 -0.00000000000E+00 -0.00000000000E+00 -0.45593999997E+02  0.45594000000E+02  0.51100000000E-03 0.  1.
         23    2    1    2    0    0 -0.44408920985E-15  0.35527136788E-14  0.00000000000E+00  0.91188000000E+02  0.91188000000E+02 0.  0.
    9900012    2    3    3    0    0 -0.37264315226E+01  0.23044721049E+02 -0.28475081824E+02  0.54367139812E+02  0.40000126830E+02 0.  0.
         12    1    3    3    0    0  0.37264315226E+01 -0.23044721049E+02  0.28475081824E+02  0.36820860188E+02  0.00000000000E+00 0. -1.
         11    1    4    4    0    0 -0.15395609314E+02  0.44899157300E+01 -0.19447113119E+02  0.25206632824E+02  0.51100000000E-03 0. -1.
        -11    1    4    4    0    0 -0.59020533043E+00  0.59876821952E+01 -0.98973346329E+01  0.11582655719E+02  0.51100000000E-03 0.  1.
        -12    1    4    4    0    0  0.12259383122E+02  0.12567123124E+02  0.86936592876E+00  0.17577851269E+02  0.00000000000E+00 0.  1.
</event>
<event>
 8    1  0.2490104E-006  0.9118800E+02  0.7816164E-02  0.1184000E+00
        -11   -1    0    0    0    0  0.00000000000E+00  0.00000000000E+00  0.45593999997E+02  0.45594000000E+02  0.51100000000E-03 0.  1.
         11   -1    0    0    0    0 -0.00000000000E+00 -0.00000000000E+00 -0.45593999997E+02  0.45594000000E+02  0.51100000000E-03 0. -1.
         23    2    1    2    0    0  0.00000000000E+00  0.00000000000E+00  0.00000000000E+00  0.91188000000E+02  0.91188000000E+02 0.  0.
    9900012    2    3    3    0    0 -0.16630145606E+02  0.78931734126E+01 -0.31889102489E+02  0.54367098504E+02  0.40000032660E+02 0.  0.
        -12    1    3    3    0    0  0.16630145606E+02 -0.78931734126E+01  0.31889102489E+02  0.36820901496E+02  0.00000000000E+00 0.  1.
         11    1    4    4    0    0 -0.15992668472E+02  0.17550257628E+02 -0.21364734791E+02  0.31941021909E+02  0.51100000000E-03 0. -1.
        -11    1    4    4    0    0  0.71716782844E+01 -0.88500779903E+01 -0.87844692891E+01  0.14384844483E+02  0.51100000000E-03 0.  1.
        -12    1    4    4    0    0 -0.78091554190E+01 -0.80700622478E+00 -0.17398984090E+01  0.80412321120E+01  0.00000000000E+00 0.  1.
</event>
<event>
 8    1  0.2490104E-006  0.9118800E+02  0.7816164E-02  0.1184000E+00
        -11   -1    0    0    0    0  0.00000000000E+00  0.00000000000E+00  0.45593999997E+02  0.45594000000E+02  0.51100000000E-03 0.  1.
         11   -1    0    0    0    0 -0.00000000000E+00 -0.00000000000E+00 -0.45593999997E+02  0.45594000000E+02  0.51100000000E-03 0. -1.
         23    2    1    2    0    0  0.17763568394E-14  0.00000000000E+00  0.00000000000E+00  0.91188000000E+02  0.91188000000E+02 0.  0.
    9900012    2    3    3    0    0  0.15582400044E+02  0.32249842303E+02  0.85391027977E+01  0.54367084798E+02  0.40000001414E+02 0.  0.
        -12    1    3    3    0    0 -0.15582400044E+02 -0.32249842303E+02 -0.85391027977E+01  0.36820915202E+02  0.00000000000E+00 0.  1.
         11    1    4    4    0    0  0.49713219909E+01  0.22138192484E+02  0.11253328363E+01  0.22717393844E+02  0.51100000000E-03 0. -1.
        -11    1    4    4    0    0  0.15223179692E+02  0.99120555790E+01  0.14465246563E+02  0.23221485829E+02  0.51100000000E-03 0.  1.
         12    1    4    4    0    0 -0.46121016384E+01  0.19959424029E+00 -0.70514766012E+01  0.84282051257E+01  0.00000000000E+00 0. -1.
</event>
<event>
 8    1  0.2490104E-006  0.9118800E+02  0.7816164E-02  0.1184000E+00
        -11   -1    0    0    0    0  0.00000000000E+00  0.00000000000E+00  0.45593999997E+02  0.45594000000E+02  0.51100000000E-03 0.  1.
         11   -1    0    0    0    0 -0.00000000000E+00 -0.00000000000E+00 -0.45593999997E+02  0.45594000000E+02  0.51100000000E-03 0. -1.
         23    2    1    2    0    0  0.00000000000E+00  0.53290705182E-14  0.00000000000E+00  0.91188000000E+02  0.91188000000E+02 0.  0.
    9900012    2    3    3    0    0 -0.15927897136E+02 -0.10658146733E+02  0.31440147303E+02  0.54367124652E+02  0.40000092269E+02 0.  0.
         12    1    3    3    0    0  0.15927897136E+02  0.10658146733E+02 -0.31440147303E+02  0.36820875348E+02  0.00000000000E+00 0. -1.
         11    1    4    4    0    0 -0.28532223279E+00 -0.10996567425E+02  0.23740486775E+02  0.26165179466E+02  0.51100000000E-03 0.  1.
        -11    1    4    4    0    0 -0.20247846677E+02  0.46441831424E+01  0.51589132907E+01  0.21404628442E+02  0.51100000000E-03 0. -1.
        -12    1    4    4    0    0  0.46052717739E+01 -0.43057624510E+01  0.25407472369E+01  0.67973167439E+01  0.00000000000E+00 0.  1.
</event>
<event>
 8    1  0.2490104E-006  0.9118800E+02  0.7816164E-02  0.1184000E+00
        -11   -1    0    0    0    0  0.00000000000E+00  0.00000000000E+00  0.45593999997E+02  0.45594000000E+02  0.51100000000E-03 0. -1.
         11   -1    0    0    0    0 -0.00000000000E+00 -0.00000000000E+00 -0.45593999997E+02  0.45594000000E+02  0.51100000000E-03 0.  1.
         23    2    1    2    0    0 -0.35527136788E-14 -0.17763568394E-14  0.00000000000E+00  0.91188000000E+02  0.91188000000E+02 0.  0.
    9900012    2    3    3    0    0 -0.31745471384E+02  0.15639373627E+02  0.10169164492E+02  0.54367124572E+02  0.40000092087E+02 0.  0.
        -12    1    3    3    0    0  0.31745471384E+02 -0.15639373627E+02 -0.10169164492E+02  0.36820875428E+02  0.00000000000E+00 0.  1.
         11    1    4    4    0    0 -0.19060691927E+02  0.97997385226E+01  0.62986956145E+01  0.22338720164E+02  0.51100000000E-03 0. -1.
        -11    1    4    4    0    0  0.51049299289E+01  0.68640974861E+01  0.10022847292E+02  0.13177010737E+02  0.51100000000E-03 0.  1.
         12    1    4    4    0    0 -0.17789709385E+02 -0.10244623819E+01 -0.61523784140E+01  0.18851393671E+02  0.00000000000E+00 0. -1.
</event>
<event>
 8    1  0.2490104E-006  0.9118800E+02  0.7816164E-02  0.1184000E+00
        -11   -1    0    0    0    0  0.00000000000E+00  0.00000000000E+00  0.45593999997E+02  0.45594000000E+02  0.51100000000E-03 0.  1.
         11   -1    0    0    0    0 -0.00000000000E+00 -0.00000000000E+00 -0.45593999997E+02  0.45594000000E+02  0.51100000000E-03 0. -1.
         23    2    1    2    0    0 -0.88817841970E-15 -0.35527136788E-14 -0.35527136788E-14  0.91188000000E+02  0.91188000000E+02 0.  0.
    9900012    2    3    3    0    0 -0.58081939082E+01 -0.24697659693E+02 -0.26684631918E+02  0.54367094370E+02  0.40000023236E+02 0.  0.
        -12    1    3    3    0    0  0.58081939082E+01  0.24697659693E+02  0.26684631918E+02  0.36820905630E+02  0.00000000000E+00 0.  1.
         11    1    4    4    0    0  0.10932721419E+01 -0.22169041311E+02 -0.14308058453E+02  0.26407994501E+02  0.51100000000E-03 0. -1.
        -11    1    4    4    0    0 -0.13498542345E+02 -0.20805230214E+00 -0.15277800893E+02  0.20387867264E+02  0.51100000000E-03 0.  1.
        -12    1    4    4    0    0  0.65970762947E+01 -0.23205660797E+01  0.29012274276E+01  0.75712326048E+01  0.00000000000E+00 0.  1.
</event>
<event>
 8    1  0.2490104E-006  0.9118800E+02  0.7816164E-02  0.1184000E+00
        -11   -1    0    0    0    0  0.00000000000E+00  0.00000000000E+00  0.45593999997E+02  0.45594000000E+02  0.51100000000E-03 0.  1.
         11   -1    0    0    0    0 -0.00000000000E+00 -0.00000000000E+00 -0.45593999997E+02  0.45594000000E+02  0.51100000000E-03 0. -1.
         23    2    1    2    0    0  0.71054273576E-14  0.00000000000E+00  0.00000000000E+00  0.91188000000E+02  0.91188000000E+02 0.  0.
    9900012    2    3    3    0    0  0.26130031253E+02 -0.22697001674E+01 -0.25842785190E+02  0.54367087213E+02  0.40000006919E+02 0.  0.
        -12    1    3    3    0    0 -0.26130031253E+02  0.22697001674E+01  0.25842785190E+02  0.36820912787E+02  0.00000000000E+00 0.  1.
         11    1    4    4    0    0 -0.65088540865E+01 -0.17564254484E+01 -0.16425360215E+01  0.69388858413E+01  0.51100000000E-03 0. -1.
        -11    1    4    4    0    0  0.20531473314E+01 -0.87010638327E+01 -0.72727338787E+01  0.11524607764E+02  0.51100000000E-03 0.  1.
         12    1    4    4    0    0  0.30585738008E+02  0.81877891138E+01 -0.16927515289E+02  0.35903593608E+02  0.00000000000E+00 0. -1.
</event>
<event>
 8    1  0.2490104E-006  0.9118800E+02  0.7816164E-02  0.1184000E+00
        -11   -1    0    0    0    0  0.00000000000E+00  0.00000000000E+00  0.45593999997E+02  0.45594000000E+02  0.51100000000E-03 0.  1.
         11   -1    0    0    0    0 -0.00000000000E+00 -0.00000000000E+00 -0.45593999997E+02  0.45594000000E+02  0.51100000000E-03 0. -1.
         23    2    1    2    0    0  0.00000000000E+00  0.17763568394E-14  0.10658141036E-13  0.91188000000E+02  0.91188000000E+02 0.  0.
    9900012    2    3    3    0    0  0.24001693836E+02  0.89600093651E+01 -0.26446555797E+02  0.54367036021E+02  0.39999890217E+02 0.  0.
        -12    1    3    3    0    0 -0.24001693836E+02 -0.89600093651E+01  0.26446555797E+02  0.36820963979E+02  0.00000000000E+00 0.  1.
         11    1    4    4    0    0  0.31693535600E+01 -0.32782423449E+01  0.84690989505E+01  0.96185920048E+01  0.51100000000E-03 0. -1.
        -11    1    4    4    0    0  0.36805956860E+01 -0.25108178782E+01 -0.21877059574E+01  0.49635721651E+01  0.51100000000E-03 0.  1.
         12    1    4    4    0    0  0.17151744590E+02  0.14749069588E+02 -0.32727948790E+02  0.39784871851E+02  0.00000000000E+00 0. -1.
</event>
<event>
 8    1  0.2490104E-006  0.9118800E+02  0.7816164E-02  0.1184000E+00
        -11   -1    0    0    0    0  0.00000000000E+00  0.00000000000E+00  0.45593999997E+02  0.45594000000E+02  0.51100000000E-03 0.  1.
         11   -1    0    0    0    0 -0.00000000000E+00 -0.00000000000E+00 -0.45593999997E+02  0.45594000000E+02  0.51100000000E-03 0. -1.
         23    2    1    2    0    0  0.00000000000E+00 -0.66613381478E-15  0.00000000000E+00  0.91188000000E+02  0.91188000000E+02 0.  0.
    9900012    2    3    3    0    0  0.16352837862E+02  0.10675162641E+01 -0.32973099254E+02  0.54367079702E+02  0.39999989797E+02 0.  0.
        -12    1    3    3    0    0 -0.16352837862E+02 -0.10675162641E+01  0.32973099254E+02  0.36820920298E+02  0.00000000000E+00 0.  1.
         11    1    4    4    0    0 -0.17849267972E+00  0.10667682156E+02 -0.16923207452E+02  0.20005655525E+02  0.51100000000E-03 0. -1.
        -11    1    4    4    0    0 -0.45375412907E+01 -0.80332537454E+01 -0.41886765405E+01  0.10132495158E+02  0.51100000000E-03 0.  1.
        -12    1    4    4    0    0  0.21068871833E+02 -0.15669121470E+01 -0.11861215261E+02  0.24228929020E+02  0.00000000000E+00 0.  1.
</event>
<event>
 8    1  0.2490104E-006  0.9118800E+02  0.7816164E-02  0.1184000E+00
        -11   -1    0    0    0    0  0.00000000000E+00  0.00000000000E+00  0.45593999997E+02  0.45594000000E+02  0.51100000000E-03 0. -1.
         11   -1    0    0    0    0 -0.00000000000E+00 -0.00000000000E+00 -0.45593999997E+02  0.45594000000E+02  0.51100000000E-03 0.  1.
         23    2    1    2    0    0  0.00000000000E+00  0.00000000000E+00  0.00000000000E+00  0.91188000000E+02  0.91188000000E+02 0.  0.
    9900012    2    3    3    0    0  0.10459631340E+02 -0.13711030387E+02  0.32532807063E+02  0.54367085054E+02  0.40000001998E+02 0.  0.
        -12    1    3    3    0    0 -0.10459631340E+02  0.13711030387E+02 -0.32532807063E+02  0.36820914946E+02  0.00000000000E+00 0.  1.
         11    1    4    4    0    0  0.90641084945E+01  0.21560511141E+00  0.28694390050E+02  0.30092732826E+02  0.51100000000E-03 0. -1.
        -11    1    4    4    0    0  0.42001130071E+00 -0.10115762668E+01 -0.71840962631E+01  0.72671132793E+01  0.51100000000E-03 0.  1.
         12    1    4    4    0    0  0.97551154450E+00 -0.12915059231E+02  0.11022513277E+02  0.17007238949E+02  0.00000000000E+00 0. -1.
</event>
<event>
 8    1  0.2490104E-006  0.9118800E+02  0.7816164E-02  0.1184000E+00
        -11   -1    0    0    0    0  0.00000000000E+00  0.00000000000E+00  0.45593999997E+02  0.45594000000E+02  0.51100000000E-03 0. -1.
         11   -1    0    0    0    0 -0.00000000000E+00 -0.00000000000E+00 -0.45593999997E+02  0.45594000000E+02  0.51100000000E-03 0.  1.
         23    2    1    2    0    0 -0.35527136788E-14  0.00000000000E+00  0.35527136788E-14  0.91188000000E+02  0.91188000000E+02 0.  0.
    9900012    2    3    3    0    0  0.19092036963E+02  0.13935989300E+02 -0.28232253067E+02  0.54367112091E+02  0.40000063634E+02 0.  0.
         12    1    3    3    0    0 -0.19092036963E+02 -0.13935989300E+02  0.28232253067E+02  0.36820887909E+02  0.00000000000E+00 0. -1.
         11    1    4    4    0    0 -0.53265162052E+01 -0.30676887084E+01 -0.11059447773E+02  0.12652820800E+02  0.51100000000E-03 0. -1.
        -11    1    4    4    0    0  0.28797570031E+02  0.13940897660E+02 -0.17293451458E+02  0.36369109569E+02  0.51100000000E-03 0.  1.
        -12    1    4    4    0    0 -0.43790168629E+01  0.30627803482E+01  0.12064616322E+00  0.53451817222E+01  0.00000000000E+00 0.  1.
</event>
<event>
 8    1  0.2490104E-006  0.9118800E+02  0.7816164E-02  0.1184000E+00
        -11   -1    0    0    0    0  0.00000000000E+00  0.00000000000E+00  0.45593999997E+02  0.45594000000E+02  0.51100000000E-03 0.  1.
         11   -1    0    0    0    0 -0.00000000000E+00 -0.00000000000E+00 -0.45593999997E+02  0.45594000000E+02  0.51100000000E-03 0. -1.
         23    2    1    2    0    0  0.00000000000E+00  0.00000000000E+00  0.00000000000E+00  0.91188000000E+02  0.91188000000E+02 0.  0.
    9900012    2    3    3    0    0 -0.15352454901E+02 -0.96621661396E+01 -0.32042527974E+02  0.54367096630E+02  0.40000028388E+02 0.  0.
        -12    1    3    3    0    0  0.15352454901E+02  0.96621661396E+01  0.32042527974E+02  0.36820903370E+02  0.00000000000E+00 0.  1.
         11    1    4    4    0    0 -0.87297464141E+01 -0.73154509386E+01 -0.25485693109E+02  0.27914957431E+02  0.51100000000E-03 0. -1.
        -11    1    4    4    0    0 -0.14988204987E+02 -0.16834174265E+00 -0.89815337320E+01  0.17474054369E+02  0.51100000000E-03 0.  1.
        -12    1    4    4    0    0  0.83654965000E+01 -0.21783734583E+01  0.24246988665E+01  0.89780848297E+01  0.00000000000E+00 0.  1.
</event>
<event>
 8    1  0.2490104E-006  0.9118800E+02  0.7816164E-02  0.1184000E+00
        -11   -1    0    0    0    0  0.00000000000E+00  0.00000000000E+00  0.45593999997E+02  0.45594000000E+02  0.51100000000E-03 0.  1.
         11   -1    0    0    0    0 -0.00000000000E+00 -0.00000000000E+00 -0.45593999997E+02  0.45594000000E+02  0.51100000000E-03 0. -1.
         23    2    1    2    0    0  0.71054273576E-14  0.16653345369E-15 -0.35527136788E-14  0.91188000000E+02  0.91188000000E+02 0.  0.
    9900012    2    3    3    0    0  0.26133591106E+02 -0.15015591840E+00  0.25938244618E+02  0.54367086584E+02  0.40000005486E+02 0.  0.
         12    1    3    3    0    0 -0.26133591106E+02  0.15015591840E+00 -0.25938244618E+02  0.36820913416E+02  0.00000000000E+00 0. -1.
         11    1    4    4    0    0 -0.31689376416E+01  0.21449520521E+00 -0.43998305043E+01  0.54264797702E+01  0.51100000000E-03 0. -1.
        -11    1    4    4    0    0  0.24959239991E+02  0.10193214710E+02  0.22130281656E+02  0.34880003634E+02  0.51100000000E-03 0.  1.
         12    1    4    4    0    0  0.43432887568E+01 -0.10557865834E+02  0.82077934665E+01  0.14060603180E+02  0.00000000000E+00 0. -1.
</event>
<event>
 8    1  0.2490104E-006  0.9118800E+02  0.7816164E-02  0.1184000E+00
        -11   -1    0    0    0    0  0.00000000000E+00  0.00000000000E+00  0.45593999997E+02  0.45594000000E+02  0.51100000000E-03 0.  1.
         11   -1    0    0    0    0 -0.00000000000E+00 -0.00000000000E+00 -0.45593999997E+02  0.45594000000E+02  0.51100000000E-03 0. -1.
         23    2    1    2    0    0  0.00000000000E+00  0.00000000000E+00  0.35527136788E-14  0.91188000000E+02  0.91188000000E+02 0.  0.
    9900012    2    3    3    0    0 -0.55380583686E+01 -0.18284318711E+02  0.31476889841E+02  0.54367068517E+02  0.39999964298E+02 0.  0.
         12    1    3    3    0    0  0.55380583686E+01  0.18284318711E+02 -0.31476889841E+02  0.36820931483E+02  0.00000000000E+00 0. -1.
         11    1    4    4    0    0  0.41737429598E+01 -0.84918142169E+01 -0.22613433695E+01  0.97285514381E+01  0.51100000000E-03 0. -1.
        -11    1    4    4    0    0  0.32350261643E+01 -0.36758627861E+01  0.29214364905E+02  0.29621891880E+02  0.51100000000E-03 0.  1.
        -12    1    4    4    0    0 -0.12946827493E+02 -0.61166417076E+01  0.45238683063E+01  0.15016625199E+02  0.00000000000E+00 0.  1.
</event>
<event>
 8    1  0.2490104E-006  0.9118800E+02  0.7816164E-02  0.1184000E+00
        -11   -1    0    0    0    0  0.00000000000E+00  0.00000000000E+00  0.45593999997E+02  0.45594000000E+02  0.51100000000E-03 0. -1.
         11   -1    0    0    0    0 -0.00000000000E+00 -0.00000000000E+00 -0.45593999997E+02  0.45594000000E+02  0.51100000000E-03 0.  1.
         23    2    1    2    0    0 -0.88817841970E-15  0.71054273576E-14 -0.17763568394E-14  0.91188000000E+02  0.91188000000E+02 0.  0.
    9900012    2    3    3    0    0  0.70723709158E+01  0.34344695300E+02  0.11234015851E+02  0.54367086951E+02  0.40000006321E+02 0.  0.
        -12    1    3    3    0    0 -0.70723709158E+01 -0.34344695300E+02 -0.11234015851E+02  0.36820913049E+02  0.00000000000E+00 0.  1.
         11    1    4    4    0    0  0.64155000231E+01  0.13335992644E+01  0.12290431974E+01  0.66669089529E+01  0.51100000000E-03 0. -1.
        -11    1    4    4    0    0  0.24212960164E+01  0.42772160525E+01 -0.11010373082E+02  0.12057593758E+02  0.51100000000E-03 0.  1.
         12    1    4    4    0    0 -0.17644251237E+01  0.28733879984E+02  0.21015345735E+02  0.35642584240E+02  0.00000000000E+00 0. -1.
</event>
<event>
 8    1  0.2490104E-006  0.9118800E+02  0.7816164E-02  0.1184000E+00
        -11   -1    0    0    0    0  0.00000000000E+00  0.00000000000E+00  0.45593999997E+02  0.45594000000E+02  0.51100000000E-03 0.  1.
         11   -1    0    0    0    0 -0.00000000000E+00 -0.00000000000E+00 -0.45593999997E+02  0.45594000000E+02  0.51100000000E-03 0. -1.
         23    2    1    2    0    0  0.00000000000E+00  0.00000000000E+00 -0.17763568394E-14  0.91188000000E+02  0.91188000000E+02 0.  0.
    9900012    2    3    3    0    0  0.60729003131E+01  0.33218009183E+02 -0.14678674468E+02  0.54367085611E+02  0.40000003268E+02 0.  0.
        -12    1    3    3    0    0 -0.60729003131E+01 -0.33218009183E+02  0.14678674468E+02  0.36820914389E+02  0.00000000000E+00 0.  1.
         11    1    4    4    0    0  0.10700647279E+02  0.23293835543E+02 -0.64197490027E+01  0.26425741314E+02  0.51100000000E-03 0. -1.
        -11    1    4    4    0    0  0.38446161277E+01  0.14660785119E+02  0.61677890101E-01  0.15156632142E+02  0.51100000000E-03 0.  1.
         12    1    4    4    0    0 -0.84723630939E+01 -0.47366114783E+01 -0.83206033549E+01  0.12784712155E+02  0.00000000000E+00 0. -1.
</event>
<event>
 8    1  0.2490104E-006  0.9118800E+02  0.7816164E-02  0.1184000E+00
        -11   -1    0    0    0    0  0.00000000000E+00  0.00000000000E+00  0.45593999997E+02  0.45594000000E+02  0.51100000000E-03 0.  1.
         11   -1    0    0    0    0 -0.00000000000E+00 -0.00000000000E+00 -0.45593999997E+02  0.45594000000E+02  0.51100000000E-03 0. -1.
         23    2    1    2    0    0  0.17763568394E-14  0.00000000000E+00  0.00000000000E+00  0.91188000000E+02  0.91188000000E+02 0.  0.
    9900012    2    3    3    0    0  0.12444443141E+02  0.31563315827E+02  0.14306405978E+02  0.54367077645E+02  0.39999985106E+02 0.  0.
         12    1    3    3    0    0 -0.12444443141E+02 -0.31563315827E+02 -0.14306405978E+02  0.36820922355E+02  0.00000000000E+00 0. -1.
         11    1    4    4    0    0  0.14804033948E+02  0.27162313222E+02  0.10235773549E+02  0.32584071893E+02  0.51100000000E-03 0. -1.
        -11    1    4    4    0    0 -0.28630336361E+01  0.12733528163E+02  0.24447011392E+01  0.13278413497E+02  0.51100000000E-03 0.  1.
         12    1    4    4    0    0  0.50344282928E+00 -0.83325255579E+01  0.16259312896E+01  0.85045922545E+01  0.00000000000E+00 0. -1.
</event>
<event>
 8    1  0.2490104E-006  0.9118800E+02  0.7816164E-02  0.1184000E+00
        -11   -1    0    0    0    0  0.00000000000E+00  0.00000000000E+00  0.45593999997E+02  0.45594000000E+02  0.51100000000E-03 0. -1.
         11   -1    0    0    0    0 -0.00000000000E+00 -0.00000000000E+00 -0.45593999997E+02  0.45594000000E+02  0.51100000000E-03 0.  1.
         23    2    1    2    0    0  0.88817841970E-15  0.00000000000E+00  0.00000000000E+00  0.91188000000E+02  0.91188000000E+02 0.  0.
    9900012    2    3    3    0    0 -0.55427311031E+01 -0.28556463005E+02  0.22574036503E+02  0.54367074272E+02  0.39999977419E+02 0.  0.
        -12    1    3    3    0    0  0.55427311031E+01  0.28556463005E+02 -0.22574036503E+02  0.36820925728E+02  0.00000000000E+00 0.  1.
         11    1    4    4    0    0 -0.59232135582E+01 -0.11965752956E+02  0.28769451772E+02  0.31716636931E+02  0.51100000000E-03 0. -1.
        -11    1    4    4    0    0  0.28436350200E+00  0.22635693597E+01 -0.25949904842E+01  0.34552257121E+01  0.51100000000E-03 0.  1.
         12    1    4    4    0    0  0.96118953073E-01 -0.18854279408E+02 -0.36004247855E+01  0.19195211629E+02  0.00000000000E+00 0. -1.
</event>
<event>
 8    1  0.2490104E-006  0.9118800E+02  0.7816164E-02  0.1184000E+00
        -11   -1    0    0    0    0  0.00000000000E+00  0.00000000000E+00  0.45593999997E+02  0.45594000000E+02  0.51100000000E-03 0.  1.
         11   -1    0    0    0    0 -0.00000000000E+00 -0.00000000000E+00 -0.45593999997E+02  0.45594000000E+02  0.51100000000E-03 0. -1.
         23    2    1    2    0    0 -0.88817841970E-15 -0.35527136788E-14  0.00000000000E+00  0.91188000000E+02  0.91188000000E+02 0.  0.
    9900012    2    3    3    0    0  0.63351672235E+01  0.30748614475E+02 -0.19239775276E+02  0.54367074040E+02  0.39999976888E+02 0.  0.
        -12    1    3    3    0    0 -0.63351672235E+01 -0.30748614475E+02  0.19239775276E+02  0.36820925960E+02  0.00000000000E+00 0.  1.
         11    1    4    4    0    0  0.96383932812E+01  0.75420557441E+01 -0.10495414780E+02  0.16122498614E+02  0.51100000000E-03 0. -1.
        -11    1    4    4    0    0 -0.14139098103E+02  0.32916967339E+01 -0.25263152652E+01  0.14735387055E+02  0.51100000000E-03 0.  1.
        -12    1    4    4    0    0  0.10835872046E+02  0.19914861997E+02 -0.62180452308E+01  0.23509188371E+02  0.00000000000E+00 0.  1.
</event>
<event>
 8    1  0.2490104E-006  0.9118800E+02  0.7816164E-02  0.1184000E+00
        -11   -1    0    0    0    0  0.00000000000E+00  0.00000000000E+00  0.45593999997E+02  0.45594000000E+02  0.51100000000E-03 0.  1.
         11   -1    0    0    0    0 -0.00000000000E+00 -0.00000000000E+00 -0.45593999997E+02  0.45594000000E+02  0.51100000000E-03 0. -1.
         23    2    1    2    0    0  0.00000000000E+00  0.00000000000E+00 -0.17763568394E-14  0.91188000000E+02  0.91188000000E+02 0.  0.
    9900012    2    3    3    0    0  0.13414032904E+02  0.33550301687E+02  0.70866679232E+01  0.54367083604E+02  0.39999998691E+02 0.  0.
         12    1    3    3    0    0 -0.13414032904E+02 -0.33550301687E+02 -0.70866679232E+01  0.36820916396E+02  0.00000000000E+00 0. -1.
         11    1    4    4    0    0  0.70770602047E+01  0.17881089048E+02 -0.16113984273E+02  0.25089412430E+02  0.51100000000E-03 0. -1.
        -11    1    4    4    0    0  0.32867947993E+01  0.14000796848E+02  0.18669809954E+02  0.23566653059E+02  0.51100000000E-03 0.  1.
         12    1    4    4    0    0  0.30501779001E+01  0.16684157910E+01  0.45308422427E+01  0.57110181143E+01  0.00000000000E+00 0. -1.
</event>
<event>
 8    1  0.2490104E-006  0.9118800E+02  0.7816164E-02  0.1184000E+00
        -11   -1    0    0    0    0  0.00000000000E+00  0.00000000000E+00  0.45593999997E+02  0.45594000000E+02  0.51100000000E-03 0.  1.
         11   -1    0    0    0    0 -0.00000000000E+00 -0.00000000000E+00 -0.45593999997E+02  0.45594000000E+02  0.51100000000E-03 0. -1.
         23    2    1    2    0    0 -0.88817841970E-15 -0.35527136788E-14  0.00000000000E+00  0.91188000000E+02  0.91188000000E+02 0.  0.
    9900012    2    3    3    0    0 -0.57797859857E+01 -0.30756822328E+02  0.19400817812E+02  0.54367085053E+02  0.40000001995E+02 0.  0.
         12    1    3    3    0    0  0.57797859857E+01  0.30756822328E+02 -0.19400817812E+02  0.36820914947E+02  0.00000000000E+00 0. -1.
         11    1    4    4    0    0  0.21101890064E+01  0.10529487960E+01  0.27271598950E+01  0.36054126205E+01  0.51100000000E-03 0. -1.
        -11    1    4    4    0    0  0.79275599689E+01 -0.13727219269E+02  0.21040494389E+02  0.26343598090E+02  0.51100000000E-03 0.  1.
        -12    1    4    4    0    0 -0.15817534961E+02 -0.18082551855E+02 -0.43668364719E+01  0.24418074342E+02  0.00000000000E+00 0.  1.
</event>
<event>
 8    1  0.2490104E-006  0.9118800E+02  0.7816164E-02  0.1184000E+00
        -11   -1    0    0    0    0  0.00000000000E+00  0.00000000000E+00  0.45593999997E+02  0.45594000000E+02  0.51100000000E-03 0.  1.
         11   -1    0    0    0    0 -0.00000000000E+00 -0.00000000000E+00 -0.45593999997E+02  0.45594000000E+02  0.51100000000E-03 0. -1.
         23    2    1    2    0    0  0.88817841970E-15  0.00000000000E+00  0.00000000000E+00  0.91188000000E+02  0.91188000000E+02 0.  0.
    9900012    2    3    3    0    0  0.55930117433E+01 -0.28887102519E+02 -0.22136708049E+02  0.54367077747E+02  0.39999985340E+02 0.  0.
        -12    1    3    3    0    0 -0.55930117433E+01  0.28887102519E+02  0.22136708049E+02  0.36820922253E+02  0.00000000000E+00 0.  1.
         11    1    4    4    0    0  0.16322732887E+01 -0.11015698442E+02 -0.15950714059E+00  0.11137116819E+02  0.51100000000E-03 0. -1.
        -11    1    4    4    0    0  0.56598825453E+00  0.95646879333E+01 -0.56811792974E+01  0.11139093160E+02  0.51100000000E-03 0.  1.
        -12    1    4    4    0    0  0.33947502001E+01 -0.27436092011E+02 -0.16296021611E+02  0.32090867768E+02  0.00000000000E+00 0.  1.
</event>
<event>
 8    1  0.2490104E-006  0.9118800E+02  0.7816164E-02  0.1184000E+00
        -11   -1    0    0    0    0  0.00000000000E+00  0.00000000000E+00  0.45593999997E+02  0.45594000000E+02  0.51100000000E-03 0.  1.
         11   -1    0    0    0    0 -0.00000000000E+00 -0.00000000000E+00 -0.45593999997E+02  0.45594000000E+02  0.51100000000E-03 0. -1.
         23    2    1    2    0    0 -0.35527136788E-14 -0.88817841970E-15 -0.35527136788E-14  0.91188000000E+02  0.91188000000E+02 0.  0.
    9900012    2    3    3    0    0 -0.26579431196E+02 -0.43369236226E+01 -0.25109895875E+02  0.54367055687E+02  0.39999935050E+02 0.  0.
        -12    1    3    3    0    0  0.26579431196E+02  0.43369236226E+01  0.25109895875E+02  0.36820944313E+02  0.00000000000E+00 0.  1.
         11    1    4    4    0    0 -0.13156340939E+02  0.10156402491E+02 -0.15518723281E+02  0.22739230220E+02  0.51100000000E-03 0. -1.
        -11    1    4    4    0    0  0.50461949994E+01  0.19411004312E+01 -0.20241793047E+01  0.57731496581E+01  0.51100000000E-03 0.  1.
        -12    1    4    4    0    0 -0.18469285257E+02 -0.16434426545E+02 -0.75669932898E+01  0.25854675809E+02  0.00000000000E+00 0.  1.
</event>
<event>
 8    1  0.2490104E-006  0.9118800E+02  0.7816164E-02  0.1184000E+00
        -11   -1    0    0    0    0  0.00000000000E+00  0.00000000000E+00  0.45593999997E+02  0.45594000000E+02  0.51100000000E-03 0. -1.
         11   -1    0    0    0    0 -0.00000000000E+00 -0.00000000000E+00 -0.45593999997E+02  0.45594000000E+02  0.51100000000E-03 0.  1.
         23    2    1    2    0    0 -0.11102230246E-14 -0.35527136788E-14 -0.35527136788E-14  0.91188000000E+02  0.91188000000E+02 0.  0.
    9900012    2    3    3    0    0 -0.11216770590E+01 -0.21052866950E+02 -0.30187732545E+02  0.54367074395E+02  0.39999977698E+02 0.  0.
         12    1    3    3    0    0  0.11216770590E+01  0.21052866950E+02  0.30187732545E+02  0.36820925605E+02  0.00000000000E+00 0. -1.
         11    1    4    4    0    0  0.14379271164E+02 -0.80752580618E+01 -0.92099453059E+01  0.18889053040E+02  0.51100000000E-03 0. -1.
        -11    1    4    4    0    0 -0.68382459966E+01 -0.17507798128E+02 -0.14680603813E+02  0.23849627506E+02  0.51100000000E-03 0.  1.
         12    1    4    4    0    0 -0.86627022261E+01  0.45301892399E+01 -0.62971834262E+01  0.11628393849E+02  0.00000000000E+00 0. -1.
</event>
<event>
 8    1  0.2490104E-006  0.9118800E+02  0.7816164E-02  0.1184000E+00
        -11   -1    0    0    0    0  0.00000000000E+00  0.00000000000E+00  0.45593999997E+02  0.45594000000E+02  0.51100000000E-03 0. -1.
         11   -1    0    0    0    0 -0.00000000000E+00 -0.00000000000E+00 -0.45593999997E+02  0.45594000000E+02  0.51100000000E-03 0.  1.
         23    2    1    2    0    0  0.00000000000E+00 -0.44408920985E-15  0.00000000000E+00  0.91188000000E+02  0.91188000000E+02 0.  0.
    9900012    2    3    3    0    0  0.35683969097E+02 -0.38148334486E+01  0.82391097013E+01  0.54367061209E+02  0.39999947639E+02 0.  0.
        -12    1    3    3    0    0 -0.35683969097E+02  0.38148334486E+01 -0.82391097013E+01  0.36820938791E+02  0.00000000000E+00 0.  1.
         11    1    4    4    0    0  0.73060868902E+01 -0.18960259181E+01  0.34951884791E+01  0.83180624363E+01  0.51100000000E-03 0. -1.
        -11    1    4    4    0    0  0.15312603564E+02  0.34471648337E+01  0.19891306363E+02  0.25338169673E+02  0.51100000000E-03 0.  1.
         12    1    4    4    0    0  0.13065278643E+02 -0.53659723641E+01 -0.15147385140E+02  0.20710829100E+02  0.00000000000E+00 0. -1.
</event>
<event>
 8    1  0.2490104E-006  0.9118800E+02  0.7816164E-02  0.1184000E+00
        -11   -1    0    0    0    0  0.00000000000E+00  0.00000000000E+00  0.45593999997E+02  0.45594000000E+02  0.51100000000E-03 0.  1.
         11   -1    0    0    0    0 -0.00000000000E+00 -0.00000000000E+00 -0.45593999997E+02  0.45594000000E+02  0.51100000000E-03 0. -1.
         23    2    1    2    0    0 -0.17763568394E-14  0.35527136788E-14  0.35527136788E-14  0.91188000000E+02  0.91188000000E+02 0.  0.
    9900012    2    3    3    0    0 -0.95490968184E+01 -0.22718222675E+02 -0.27358308362E+02  0.54367083010E+02  0.39999997337E+02 0.  0.
        -12    1    3    3    0    0  0.95490968184E+01  0.22718222675E+02  0.27358308362E+02  0.36820916990E+02  0.00000000000E+00 0.  1.
         11    1    4    4    0    0 -0.14151704125E+02 -0.18647863410E+02 -0.19030309351E+02  0.30168961097E+02  0.51100000000E-03 0. -1.
        -11    1    4    4    0    0  0.11306121121E+02 -0.76272254577E+01 -0.10421540681E+01  0.13678049142E+02  0.51100000000E-03 0.  1.
         12    1    4    4    0    0 -0.67035138140E+01  0.35568661923E+01 -0.72858449427E+01  0.10520072770E+02  0.00000000000E+00 0. -1.
</event>
<event>
 8    1  0.2490104E-006  0.9118800E+02  0.7816164E-02  0.1184000E+00
        -11   -1    0    0    0    0  0.00000000000E+00  0.00000000000E+00  0.45593999997E+02  0.45594000000E+02  0.51100000000E-03 0. -1.
         11   -1    0    0    0    0 -0.00000000000E+00 -0.00000000000E+00 -0.45593999997E+02  0.45594000000E+02  0.51100000000E-03 0.  1.
         23    2    1    2    0    0  0.13322676296E-14 -0.17763568394E-14  0.71054273576E-14  0.91188000000E+02  0.91188000000E+02 0.  0.
    9900012    2    3    3    0    0 -0.33440620887E+01  0.12291675915E+02 -0.34547218788E+02  0.54367104111E+02  0.40000045442E+02 0.  0.
         12    1    3    3    0    0  0.33440620887E+01 -0.12291675915E+02  0.34547218788E+02  0.36820895889E+02  0.00000000000E+00 0. -1.
         11    1    4    4    0    0  0.10065598255E+02  0.10598651059E+02 -0.17457691327E+02  0.22768808911E+02  0.51100000000E-03 0. -1.
        -11    1    4    4    0    0 -0.16246436995E+02  0.26233872485E+01 -0.24269506453E+01  0.16634871967E+02  0.51100000000E-03 0.  1.
        -12    1    4    4    0    0  0.28367766508E+01 -0.93036239219E+00 -0.14662576816E+02  0.14963423233E+02  0.00000000000E+00 0.  1.
</event>
<event>
 8    1  0.2490104E-006  0.9118800E+02  0.7816164E-02  0.1184000E+00
        -11   -1    0    0    0    0  0.00000000000E+00  0.00000000000E+00  0.45593999997E+02  0.45594000000E+02  0.51100000000E-03 0.  1.
         11   -1    0    0    0    0 -0.00000000000E+00 -0.00000000000E+00 -0.45593999997E+02  0.45594000000E+02  0.51100000000E-03 0. -1.
         23    2    1    2    0    0  0.00000000000E+00 -0.17763568394E-14  0.00000000000E+00  0.91188000000E+02  0.91188000000E+02 0.  0.
    9900012    2    3    3    0    0  0.24608993914E+02  0.15330239032E+02  0.22697146615E+02  0.54367091881E+02  0.40000017560E+02 0.  0.
         12    1    3    3    0    0 -0.24608993914E+02 -0.15330239032E+02 -0.22697146615E+02  0.36820908119E+02  0.00000000000E+00 0. -1.
         11    1    4    4    0    0 -0.40418035999E+01 -0.58312227860E+01  0.21675459908E+01  0.74187324661E+01  0.51100000000E-03 0. -1.
        -11    1    4    4    0    0  0.52046197392E+01 -0.44787798789E+01  0.65749380260E+01  0.95067000658E+01  0.51100000000E-03 0.  1.
        -12    1    4    4    0    0  0.23446177775E+02  0.25640241697E+02  0.13954662599E+02  0.37441659349E+02  0.00000000000E+00 0.  1.
</event>
<event>
 8    1  0.2490104E-006  0.9118800E+02  0.7816164E-02  0.1184000E+00
        -11   -1    0    0    0    0  0.00000000000E+00  0.00000000000E+00  0.45593999997E+02  0.45594000000E+02  0.51100000000E-03 0. -1.
         11   -1    0    0    0    0 -0.00000000000E+00 -0.00000000000E+00 -0.45593999997E+02  0.45594000000E+02  0.51100000000E-03 0.  1.
         23    2    1    2    0    0  0.00000000000E+00 -0.35527136788E-14  0.00000000000E+00  0.91188000000E+02  0.91188000000E+02 0.  0.
    9900012    2    3    3    0    0  0.95564271295E+01  0.17879525577E+02 -0.30737232598E+02  0.54367079288E+02  0.39999988852E+02 0.  0.
         12    1    3    3    0    0 -0.95564271295E+01 -0.17879525577E+02  0.30737232598E+02  0.36820920712E+02  0.00000000000E+00 0. -1.
         11    1    4    4    0    0 -0.36671546901E+00  0.13090660369E+02 -0.97136761027E+01  0.16305071997E+02  0.51100000000E-03 0. -1.
        -11    1    4    4    0    0  0.60877602635E+01 -0.11000158240E+02 -0.14996475858E+01  0.12661486859E+02  0.51100000000E-03 0.  1.
        -12    1    4    4    0    0  0.38353823350E+01  0.15789023449E+02 -0.19523908909E+02  0.25400520432E+02  0.00000000000E+00 0.  1.
</event>
<event>
 8    1  0.2490104E-006  0.9118800E+02  0.7816164E-02  0.1184000E+00
        -11   -1    0    0    0    0  0.00000000000E+00  0.00000000000E+00  0.45593999997E+02  0.45594000000E+02  0.51100000000E-03 0.  1.
         11   -1    0    0    0    0 -0.00000000000E+00 -0.00000000000E+00 -0.45593999997E+02  0.45594000000E+02  0.51100000000E-03 0. -1.
         23    2    1    2    0    0 -0.17763568394E-14 -0.35527136788E-14  0.00000000000E+00  0.91188000000E+02  0.91188000000E+02 0.  0.
    9900012    2    3    3    0    0  0.10645834546E+02  0.11563468394E+02  0.33297623030E+02  0.54367091620E+02  0.40000016965E+02 0.  0.
         12    1    3    3    0    0 -0.10645834546E+02 -0.11563468394E+02 -0.33297623030E+02  0.36820908380E+02  0.00000000000E+00 0. -1.
         11    1    4    4    0    0 -0.28708386221E+01 -0.47846496037E+01  0.42479729649E+01  0.70128354320E+01  0.51100000000E-03 0. -1.
        -11    1    4    4    0    0 -0.75960533854E+01  0.14350963594E+01 -0.91136592806E+00  0.77839653591E+01  0.51100000000E-03 0.  1.
        -12    1    4    4    0    0  0.21112726553E+02  0.14913021639E+02  0.29961015993E+02  0.39570290829E+02  0.00000000000E+00 0.  1.
</event>
<event>
 8    1  0.2490104E-006  0.9118800E+02  0.7816164E-02  0.1184000E+00
        -11   -1    0    0    0    0  0.00000000000E+00  0.00000000000E+00  0.45593999997E+02  0.45594000000E+02  0.51100000000E-03 0. -1.
         11   -1    0    0    0    0 -0.00000000000E+00 -0.00000000000E+00 -0.45593999997E+02  0.45594000000E+02  0.51100000000E-03 0.  1.
         23    2    1    2    0    0 -0.17763568394E-14  0.00000000000E+00  0.00000000000E+00  0.91188000000E+02  0.91188000000E+02 0.  0.
    9900012    2    3    3    0    0 -0.84622917027E+01  0.35596809170E+02 -0.41275280175E+01  0.54367086222E+02  0.40000004659E+02 0.  0.
        -12    1    3    3    0    0  0.84622917027E+01 -0.35596809170E+02  0.41275280175E+01  0.36820913778E+02  0.00000000000E+00 0.  1.
         11    1    4    4    0    0 -0.23069418796E+02  0.23142063330E+02 -0.83630376339E+01  0.33729713570E+02  0.51100000000E-03 0. -1.
        -11    1    4    4    0    0  0.34490444437E+01  0.37270580309E+01 -0.15887411025E+01  0.53208051732E+01  0.51100000000E-03 0.  1.
         12    1    4    4    0    0  0.11158082649E+02  0.87276878087E+01  0.58242507189E+01  0.15316567479E+02  0.00000000000E+00 0. -1.
</event>
<event>
 8    1  0.2490104E-006  0.9118800E+02  0.7816164E-02  0.1184000E+00
        -11   -1    0    0    0    0  0.00000000000E+00  0.00000000000E+00  0.45593999997E+02  0.45594000000E+02  0.51100000000E-03 0. -1.
         11   -1    0    0    0    0 -0.00000000000E+00 -0.00000000000E+00 -0.45593999997E+02  0.45594000000E+02  0.51100000000E-03 0.  1.
         23    2    1    2    0    0  0.00000000000E+00  0.00000000000E+00  0.00000000000E+00  0.91188000000E+02  0.91188000000E+02 0.  0.
    9900012    2    3    3    0    0 -0.21922483947E+02 -0.25382977946E+02 -0.15195038153E+02  0.54367081268E+02  0.39999993367E+02 0.  0.
         12    1    3    3    0    0  0.21922483947E+02  0.25382977946E+02  0.15195038153E+02  0.36820918732E+02  0.00000000000E+00 0. -1.
         11    1    4    4    0    0 -0.91411486639E+01 -0.65259589886E+01  0.32866459383E+01  0.11702597208E+02  0.51100000000E-03 0. -1.
        -11    1    4    4    0    0  0.98631402236E+01 -0.53835775607E+01 -0.15484808304E+01  0.11342937696E+02  0.51100000000E-03 0.  1.
        -12    1    4    4    0    0 -0.22644475506E+02 -0.13473441397E+02 -0.16933203260E+02  0.31321546365E+02  0.00000000000E+00 0.  1.
</event>
<event>
 8    1  0.2490104E-006  0.9118800E+02  0.7816164E-02  0.1184000E+00
        -11   -1    0    0    0    0  0.00000000000E+00  0.00000000000E+00  0.45593999997E+02  0.45594000000E+02  0.51100000000E-03 0.  1.
         11   -1    0    0    0    0 -0.00000000000E+00 -0.00000000000E+00 -0.45593999997E+02  0.45594000000E+02  0.51100000000E-03 0. -1.
         23    2    1    2    0    0  0.00000000000E+00  0.17763568394E-14  0.00000000000E+00  0.91188000000E+02  0.91188000000E+02 0.  0.
    9900012    2    3    3    0    0  0.25627584004E+02 -0.94279980064E+01  0.24700761501E+02  0.54366975747E+02  0.39999752811E+02 0.  0.
         12    1    3    3    0    0 -0.25627584004E+02  0.94279980064E+01 -0.24700761501E+02  0.36821024253E+02  0.00000000000E+00 0. -1.
         11    1    4    4    0    0  0.76753374960E+01  0.12897830855E+02  0.55992173740E+01  0.16019240990E+02  0.51100000000E-03 0. -1.
        -11    1    4    4    0    0  0.42920434668E+01 -0.13389508716E+02  0.11854898383E+01  0.14110491388E+02  0.51100000000E-03 0.  1.
        -12    1    4    4    0    0  0.13660203041E+02 -0.89363201452E+01  0.17916054288E+02  0.24237243369E+02  0.00000000000E+00 0.  1.
</event>
<event>
 8    1  0.2490104E-006  0.9118800E+02  0.7816164E-02  0.1184000E+00
        -11   -1    0    0    0    0  0.00000000000E+00  0.00000000000E+00  0.45593999997E+02  0.45594000000E+02  0.51100000000E-03 0. -1.
         11   -1    0    0    0    0 -0.00000000000E+00 -0.00000000000E+00 -0.45593999997E+02  0.45594000000E+02  0.51100000000E-03 0.  1.
         23    2    1    2    0    0  0.71054273576E-14  0.17763568394E-14  0.00000000000E+00  0.91188000000E+02  0.91188000000E+02 0.  0.
    9900012    2    3    3    0    0  0.31622530925E+02  0.11335375908E+02  0.15076667721E+02  0.54367066842E+02  0.39999960480E+02 0.  0.
        -12    1    3    3    0    0 -0.31622530925E+02 -0.11335375908E+02 -0.15076667721E+02  0.36820933158E+02  0.00000000000E+00 0.  1.
         11    1    4    4    0    0  0.20341722848E+02  0.13202165968E+02  0.13360033097E+02  0.27687061225E+02  0.51100000000E-03 0. -1.
        -11    1    4    4    0    0  0.96874026497E+01  0.89652297069E+01  0.65227062135E+01  0.14723002765E+02  0.51100000000E-03 0.  1.
        -12    1    4    4    0    0  0.15934054266E+01 -0.10832019767E+02 -0.48060715891E+01  0.11957002852E+02  0.00000000000E+00 0.  1.
</event>
<event>
 8    1  0.2490104E-006  0.9118800E+02  0.7816164E-02  0.1184000E+00
        -11   -1    0    0    0    0  0.00000000000E+00  0.00000000000E+00  0.45593999997E+02  0.45594000000E+02  0.51100000000E-03 0.  1.
         11   -1    0    0    0    0 -0.00000000000E+00 -0.00000000000E+00 -0.45593999997E+02  0.45594000000E+02  0.51100000000E-03 0. -1.
         23    2    1    2    0    0  0.00000000000E+00  0.00000000000E+00  0.35527136788E-14  0.91188000000E+02  0.91188000000E+02 0.  0.
    9900012    2    3    3    0    0  0.21648475563E+02  0.19253605906E+02  0.22724930485E+02  0.54367077957E+02  0.39999985818E+02 0.  0.
         12    1    3    3    0    0 -0.21648475563E+02 -0.19253605906E+02 -0.22724930485E+02  0.36820922043E+02  0.00000000000E+00 0. -1.
         11    1    4    4    0    0  0.15667027463E+02  0.14325217501E+02  0.83625484411E+01  0.22816656693E+02  0.51100000000E-03 0. -1.
        -11    1    4    4    0    0  0.10934333876E+02  0.10242001062E+02  0.18006025705E+02  0.23423817046E+02  0.51100000000E-03 0.  1.
         12    1    4    4    0    0 -0.49528857763E+01 -0.53136126561E+01 -0.36436436614E+01  0.81266042172E+01  0.00000000000E+00 0. -1.
</event>
<event>
 8    1  0.2490104E-006  0.9118800E+02  0.7816164E-02  0.1184000E+00
        -11   -1    0    0    0    0  0.00000000000E+00  0.00000000000E+00  0.45593999997E+02  0.45594000000E+02  0.51100000000E-03 0.  1.
         11   -1    0    0    0    0 -0.00000000000E+00 -0.00000000000E+00 -0.45593999997E+02  0.45594000000E+02  0.51100000000E-03 0. -1.
         23    2    1    2    0    0  0.00000000000E+00 -0.88817841970E-15  0.00000000000E+00  0.91188000000E+02  0.91188000000E+02 0.  0.
    9900012    2    3    3    0    0 -0.19788860905E+02  0.42356238457E+01  0.30761012158E+02  0.54367090257E+02  0.40000013859E+02 0.  0.
         12    1    3    3    0    0  0.19788860905E+02 -0.42356238457E+01 -0.30761012158E+02  0.36820909743E+02  0.00000000000E+00 0. -1.
         11    1    4    4    0    0  0.95377209931E+01 -0.12580161065E+01  0.28948696529E+01  0.10046441999E+02  0.51100000000E-03 0. -1.
        -11    1    4    4    0    0 -0.21706334198E+02 -0.23615527892E+01  0.24615868768E+02  0.32904146720E+02  0.51100000000E-03 0.  1.
        -12    1    4    4    0    0 -0.76202477001E+01  0.78551927414E+01  0.32502737373E+01  0.11416501539E+02  0.00000000000E+00 0.  1.
</event>
<event>
 8    1  0.2490104E-006  0.9118800E+02  0.7816164E-02  0.1184000E+00
        -11   -1    0    0    0    0  0.00000000000E+00  0.00000000000E+00  0.45593999997E+02  0.45594000000E+02  0.51100000000E-03 0. -1.
         11   -1    0    0    0    0 -0.00000000000E+00 -0.00000000000E+00 -0.45593999997E+02  0.45594000000E+02  0.51100000000E-03 0.  1.
         23    2    1    2    0    0 -0.35527136788E-14 -0.26645352591E-14  0.35527136788E-14  0.91188000000E+02  0.91188000000E+02 0.  0.
    9900012    2    3    3    0    0  0.29512083642E+02 -0.65934123316E+01 -0.21008180219E+02  0.54367084705E+02  0.40000001201E+02 0.  0.
         12    1    3    3    0    0 -0.29512083642E+02  0.65934123316E+01  0.21008180219E+02  0.36820915295E+02  0.00000000000E+00 0. -1.
         11    1    4    4    0    0  0.68936193969E+01 -0.14197134933E+01  0.42971374566E+01  0.82463910516E+01  0.51100000000E-03 0. -1.
        -11    1    4    4    0    0  0.20413407802E+02 -0.16974791747E+02 -0.17738127666E+02  0.31929483965E+02  0.51100000000E-03 0.  1.
         12    1    4    4    0    0  0.22050564434E+01  0.11801092909E+02 -0.75671900099E+01  0.14191209688E+02  0.00000000000E+00 0. -1.
</event>
<event>
 8    1  0.2490104E-006  0.9118800E+02  0.7816164E-02  0.1184000E+00
        -11   -1    0    0    0    0  0.00000000000E+00  0.00000000000E+00  0.45593999997E+02  0.45594000000E+02  0.51100000000E-03 0.  1.
         11   -1    0    0    0    0 -0.00000000000E+00 -0.00000000000E+00 -0.45593999997E+02  0.45594000000E+02  0.51100000000E-03 0. -1.
         23    2    1    2    0    0 -0.35527136788E-14 -0.35527136788E-14  0.35527136788E-14  0.91188000000E+02  0.91188000000E+02 0.  0.
    9900012    2    3    3    0    0  0.26589866919E+02 -0.17690124191E+02  0.18325345936E+02  0.54367084471E+02  0.40000000670E+02 0.  0.
         12    1    3    3    0    0 -0.26589866919E+02  0.17690124191E+02 -0.18325345936E+02  0.36820915529E+02  0.00000000000E+00 0. -1.
         11    1    4    4    0    0  0.14920667315E+01  0.71858683298E+01  0.25309547757E+01  0.77632917711E+01  0.51100000000E-03 0. -1.
        -11    1    4    4    0    0  0.25063524357E+02 -0.13197597889E+02  0.19456760955E+02  0.34364551363E+02  0.51100000000E-03 0.  1.
         12    1    4    4    0    0  0.34275830369E-01 -0.11678394632E+02 -0.36623697942E+01  0.12239241338E+02  0.00000000000E+00 0. -1.
</event>
<event>
 8    1  0.2490104E-006  0.9118800E+02  0.7816164E-02  0.1184000E+00
        -11   -1    0    0    0    0  0.00000000000E+00  0.00000000000E+00  0.45593999997E+02  0.45594000000E+02  0.51100000000E-03 0. -1.
         11   -1    0    0    0    0 -0.00000000000E+00 -0.00000000000E+00 -0.45593999997E+02  0.45594000000E+02  0.51100000000E-03 0.  1.
         23    2    1    2    0    0 -0.88817841970E-15  0.71054273576E-14 -0.11102230246E-14  0.91188000000E+02  0.91188000000E+02 0.  0.
    9900012    2    3    3    0    0  0.25007910479E+01  0.36711649468E+02 -0.13343217901E+01  0.54367087774E+02  0.40000008197E+02 0.  0.
         12    1    3    3    0    0 -0.25007910479E+01 -0.36711649468E+02  0.13343217901E+01  0.36820912226E+02  0.00000000000E+00 0. -1.
         11    1    4    4    0    0 -0.80599067439E+01  0.10535272973E+02  0.12185892653E+02  0.18012497143E+02  0.51100000000E-03 0. -1.
        -11    1    4    4    0    0  0.24568031616E+00  0.17895261523E+01  0.41468039900E+01  0.45231345613E+01  0.51100000000E-03 0.  1.
        -12    1    4    4    0    0  0.10315017476E+02  0.24386850343E+02 -0.17667018433E+02  0.31831456069E+02  0.00000000000E+00 0.  1.
</event>
<event>
 8    1  0.2490104E-006  0.9118800E+02  0.7816164E-02  0.1184000E+00
        -11   -1    0    0    0    0  0.00000000000E+00  0.00000000000E+00  0.45593999997E+02  0.45594000000E+02  0.51100000000E-03 0.  1.
         11   -1    0    0    0    0 -0.00000000000E+00 -0.00000000000E+00 -0.45593999997E+02  0.45594000000E+02  0.51100000000E-03 0. -1.
         23    2    1    2    0    0 -0.17763568394E-14  0.00000000000E+00  0.00000000000E+00  0.91188000000E+02  0.91188000000E+02 0.  0.
    9900012    2    3    3    0    0  0.83140946625E+01  0.33111041022E+02 -0.13795481691E+02  0.54367074934E+02  0.39999978928E+02 0.  0.
        -12    1    3    3    0    0 -0.83140946625E+01 -0.33111041022E+02  0.13795481691E+02  0.36820925066E+02  0.00000000000E+00 0.  1.
         11    1    4    4    0    0 -0.43623184460E+01  0.23447472526E+02 -0.28463464587E+01  0.24019064897E+02  0.51100000000E-03 0. -1.
        -11    1    4    4    0    0 -0.49949458168E+01 -0.11042176031E+01  0.24738042579E+01  0.56822960144E+01  0.51100000000E-03 0.  1.
        -12    1    4    4    0    0  0.17671358925E+02  0.10767786099E+02 -0.13422939490E+02  0.24665714023E+02  0.00000000000E+00 0.  1.
</event>
<event>
 8    1  0.2490104E-006  0.9118800E+02  0.7816164E-02  0.1184000E+00
        -11   -1    0    0    0    0  0.00000000000E+00  0.00000000000E+00  0.45593999997E+02  0.45594000000E+02  0.51100000000E-03 0. -1.
         11   -1    0    0    0    0 -0.00000000000E+00 -0.00000000000E+00 -0.45593999997E+02  0.45594000000E+02  0.51100000000E-03 0.  1.
         23    2    1    2    0    0  0.00000000000E+00  0.17763568394E-14  0.71054273576E-14  0.91188000000E+02  0.91188000000E+02 0.  0.
    9900012    2    3    3    0    0  0.15140597933E+02 -0.93714626741E+01 -0.32229142763E+02  0.54367086626E+02  0.40000005581E+02 0.  0.
         12    1    3    3    0    0 -0.15140597933E+02  0.93714626741E+01  0.32229142763E+02  0.36820913374E+02  0.00000000000E+00 0. -1.
         11    1    4    4    0    0 -0.18514618721E+01 -0.18072795926E+02 -0.84708978562E+01  0.20045198288E+02  0.51100000000E-03 0. -1.
        -11    1    4    4    0    0  0.14279563402E+02  0.44854988439E+01 -0.25017514153E+02  0.29153072659E+02  0.51100000000E-03 0.  1.
        -12    1    4    4    0    0  0.27124964030E+01  0.42158344078E+01  0.12592692456E+01  0.51688156790E+01  0.00000000000E+00 0.  1.
</event>
<event>
 8    1  0.2490104E-006  0.9118800E+02  0.7816164E-02  0.1184000E+00
        -11   -1    0    0    0    0  0.00000000000E+00  0.00000000000E+00  0.45593999997E+02  0.45594000000E+02  0.51100000000E-03 0.  1.
         11   -1    0    0    0    0 -0.00000000000E+00 -0.00000000000E+00 -0.45593999997E+02  0.45594000000E+02  0.51100000000E-03 0. -1.
         23    2    1    2    0    0 -0.35527136788E-14  0.35527136788E-14  0.35527136788E-14  0.91188000000E+02  0.91188000000E+02 0.  0.
    9900012    2    3    3    0    0  0.21102901963E+02  0.22289901669E+02 -0.20337379315E+02  0.54367065940E+02  0.39999958424E+02 0.  0.
        -12    1    3    3    0    0 -0.21102901963E+02 -0.22289901669E+02  0.20337379315E+02  0.36820934060E+02  0.00000000000E+00 0.  1.
         11    1    4    4    0    0  0.14967026160E+02  0.54141530647E+01 -0.27735764175E+02  0.31978079056E+02  0.51100000000E-03 0. -1.
        -11    1    4    4    0    0  0.31991355167E+01  0.16475858226E+02  0.89742742019E+01  0.19032235025E+02  0.51100000000E-03 0.  1.
        -12    1    4    4    0    0  0.29367402867E+01  0.39989037768E+00 -0.15758893416E+01  0.33567518589E+01  0.00000000000E+00 0.  1.
</event>
<event>
 8    1  0.2490104E-006  0.9118800E+02  0.7816164E-02  0.1184000E+00
        -11   -1    0    0    0    0  0.00000000000E+00  0.00000000000E+00  0.45593999997E+02  0.45594000000E+02  0.51100000000E-03 0. -1.
         11   -1    0    0    0    0 -0.00000000000E+00 -0.00000000000E+00 -0.45593999997E+02  0.45594000000E+02  0.51100000000E-03 0.  1.
         23    2    1    2    0    0  0.00000000000E+00 -0.44408920985E-15  0.00000000000E+00  0.91188000000E+02  0.91188000000E+02 0.  0.
    9900012    2    3    3    0    0 -0.36275377784E+02  0.32650212088E+01  0.54052264076E+01  0.54367083806E+02  0.39999999152E+02 0.  0.
        -12    1    3    3    0    0  0.36275377784E+02 -0.32650212088E+01 -0.54052264076E+01  0.36820916194E+02  0.00000000000E+00 0.  1.
         11    1    4    4    0    0 -0.22464292123E+02  0.17719409131E+02  0.14721378849E+02  0.32176713257E+02  0.51100000000E-03 0. -1.
        -11    1    4    4    0    0 -0.67081817878E+01 -0.86526845799E+01 -0.45714461260E+01  0.11864517406E+02  0.51100000000E-03 0.  1.
         12    1    4    4    0    0 -0.71029038735E+01 -0.58017033426E+01 -0.47447063152E+01  0.10325853143E+02  0.00000000000E+00 0. -1.
</event>
<event>
 8    1  0.2490104E-006  0.9118800E+02  0.7816164E-02  0.1184000E+00
        -11   -1    0    0    0    0  0.00000000000E+00  0.00000000000E+00  0.45593999997E+02  0.45594000000E+02  0.51100000000E-03 0. -1.
         11   -1    0    0    0    0 -0.00000000000E+00 -0.00000000000E+00 -0.45593999997E+02  0.45594000000E+02  0.51100000000E-03 0.  1.
         23    2    1    2    0    0 -0.17763568394E-14  0.00000000000E+00  0.00000000000E+00  0.91188000000E+02  0.91188000000E+02 0.  0.
    9900012    2    3    3    0    0  0.10988995582E+02 -0.34091866385E+02 -0.85302495678E+01  0.54367101923E+02  0.40000040454E+02 0.  0.
         12    1    3    3    0    0 -0.10988995582E+02  0.34091866385E+02  0.85302495678E+01  0.36820898077E+02  0.00000000000E+00 0. -1.
         11    1    4    4    0    0  0.12277958785E+02 -0.49413626436E+01  0.93881306819E-01  0.13235337195E+02  0.51100000000E-03 0. -1.
        -11    1    4    4    0    0  0.24757124832E+01 -0.32445438056E+02 -0.16931294943E+01  0.32583773426E+02  0.51100000000E-03 0.  1.
        -12    1    4    4    0    0 -0.37646756869E+01  0.32949343146E+01 -0.69310013804E+01  0.85479913020E+01  0.00000000000E+00 0.  1.
</event>
<event>
 8    1  0.2490104E-006  0.9118800E+02  0.7816164E-02  0.1184000E+00
        -11   -1    0    0    0    0  0.00000000000E+00  0.00000000000E+00  0.45593999997E+02  0.45594000000E+02  0.51100000000E-03 0. -1.
         11   -1    0    0    0    0 -0.00000000000E+00 -0.00000000000E+00 -0.45593999997E+02  0.45594000000E+02  0.51100000000E-03 0.  1.
         23    2    1    2    0    0  0.00000000000E+00  0.00000000000E+00  0.00000000000E+00  0.91188000000E+02  0.91188000000E+02 0.  0.
    9900012    2    3    3    0    0  0.16300705052E+02 -0.32379531223E+02  0.64521207763E+01  0.54367124265E+02  0.40000091387E+02 0.  0.
        -12    1    3    3    0    0 -0.16300705052E+02  0.32379531223E+02 -0.64521207763E+01  0.36820875735E+02  0.00000000000E+00 0.  1.
         11    1    4    4    0    0  0.42847462185E+01  0.58790165122E+01  0.52040905736E+01  0.89445203486E+01  0.51100000000E-03 0. -1.
        -11    1    4    4    0    0 -0.42308744482E+00 -0.10459208977E+02  0.92110418661E+01  0.13943362146E+02  0.51100000000E-03 0.  1.
        -12    1    4    4    0    0  0.12439046278E+02 -0.27799338758E+02 -0.79630116635E+01  0.31479241770E+02  0.00000000000E+00 0.  1.
</event>
<event>
 8    1  0.2490104E-006  0.9118800E+02  0.7816164E-02  0.1184000E+00
        -11   -1    0    0    0    0  0.00000000000E+00  0.00000000000E+00  0.45593999997E+02  0.45594000000E+02  0.51100000000E-03 0. -1.
         11   -1    0    0    0    0 -0.00000000000E+00 -0.00000000000E+00 -0.45593999997E+02  0.45594000000E+02  0.51100000000E-03 0.  1.
         23    2    1    2    0    0  0.00000000000E+00  0.35527136788E-14  0.66613381478E-15  0.91188000000E+02  0.91188000000E+02 0.  0.
    9900012    2    3    3    0    0 -0.34091888502E+02 -0.13901523088E+02 -0.52085524728E+00  0.54367075297E+02  0.39999979754E+02 0.  0.
         12    1    3    3    0    0  0.34091888502E+02  0.13901523088E+02  0.52085524728E+00  0.36820924703E+02  0.00000000000E+00 0. -1.
         11    1    4    4    0    0 -0.13124908941E+02  0.45948643474E+01  0.79106512342E+01  0.15998575446E+02  0.51100000000E-03 0. -1.
        -11    1    4    4    0    0 -0.16637988939E+02  0.17470730924E+01 -0.37606583130E+01  0.17146938256E+02  0.51100000000E-03 0.  1.
         12    1    4    4    0    0 -0.43289906213E+01 -0.20243460528E+02 -0.46708481685E+01  0.21221561595E+02  0.00000000000E+00 0. -1.
</event>
<event>
 8    1  0.2490104E-006  0.9118800E+02  0.7816164E-02  0.1184000E+00
        -11   -1    0    0    0    0  0.00000000000E+00  0.00000000000E+00  0.45593999997E+02  0.45594000000E+02  0.51100000000E-03 0.  1.
         11   -1    0    0    0    0 -0.00000000000E+00 -0.00000000000E+00 -0.45593999997E+02  0.45594000000E+02  0.51100000000E-03 0. -1.
         23    2    1    2    0    0 -0.17763568394E-14  0.17763568394E-14  0.35527136788E-14  0.91188000000E+02  0.91188000000E+02 0.  0.
    9900012    2    3    3    0    0  0.13671012802E+02 -0.13037809295E+02 -0.31605397574E+02  0.54367051912E+02  0.39999926445E+02 0.  0.
        -12    1    3    3    0    0 -0.13671012802E+02  0.13037809295E+02  0.31605397574E+02  0.36820948088E+02  0.00000000000E+00 0.  1.
         11    1    4    4    0    0  0.84531828273E+01 -0.14344596777E+02 -0.51157122538E+01  0.17418216577E+02  0.51100000000E-03 0. -1.
        -11    1    4    4    0    0  0.13371005114E+02  0.75787206956E+01 -0.14231563494E+02  0.20946555442E+02  0.51100000000E-03 0.  1.
         12    1    4    4    0    0 -0.81531751387E+01 -0.62719332140E+01 -0.12258121826E+02  0.16002279893E+02  0.00000000000E+00 0. -1.
</event>
<event>
 8    1  0.2490104E-006  0.9118800E+02  0.7816164E-02  0.1184000E+00
        -11   -1    0    0    0    0  0.00000000000E+00  0.00000000000E+00  0.45593999997E+02  0.45594000000E+02  0.51100000000E-03 0.  1.
         11   -1    0    0    0    0 -0.00000000000E+00 -0.00000000000E+00 -0.45593999997E+02  0.45594000000E+02  0.51100000000E-03 0. -1.
         23    2    1    2    0    0  0.00000000000E+00  0.17763568394E-14  0.00000000000E+00  0.91188000000E+02  0.91188000000E+02 0.  0.
    9900012    2    3    3    0    0 -0.23105550206E+02 -0.15024345284E+02  0.24416844237E+02  0.54367086323E+02  0.40000004890E+02 0.  0.
         12    1    3    3    0    0  0.23105550206E+02  0.15024345284E+02 -0.24416844237E+02  0.36820913677E+02  0.00000000000E+00 0. -1.
         11    1    4    4    0    0 -0.11715507440E+02 -0.10590574826E+02  0.91500837259E+01  0.18252052546E+02  0.51100000000E-03 0. -1.
        -11    1    4    4    0    0 -0.19815509370E+01 -0.30331462931E+01  0.23351727902E+02  0.23631117553E+02  0.51100000000E-03 0.  1.
         12    1    4    4    0    0 -0.94084918292E+01 -0.14006241654E+01 -0.80849673909E+01  0.12483916223E+02  0.00000000000E+00 0. -1.
</event>
<event>
 8    1  0.2490104E-006  0.9118800E+02  0.7816164E-02  0.1184000E+00
        -11   -1    0    0    0    0  0.00000000000E+00  0.00000000000E+00  0.45593999997E+02  0.45594000000E+02  0.51100000000E-03 0.  1.
         11   -1    0    0    0    0 -0.00000000000E+00 -0.00000000000E+00 -0.45593999997E+02  0.45594000000E+02  0.51100000000E-03 0. -1.
         23    2    1    2    0    0  0.00000000000E+00  0.00000000000E+00  0.00000000000E+00  0.91188000000E+02  0.91188000000E+02 0.  0.
    9900012    2    3    3    0    0  0.19121282569E+02  0.26357257171E+02 -0.17188715554E+02  0.54367076668E+02  0.39999982879E+02 0.  0.
        -12    1    3    3    0    0 -0.19121282569E+02 -0.26357257171E+02  0.17188715554E+02  0.36820923332E+02  0.00000000000E+00 0.  1.
         11    1    4    4    0    0  0.10130955835E+02  0.48201316803E+01  0.90946836172E+01  0.14442409976E+02  0.51100000000E-03 0. -1.
        -11    1    4    4    0    0  0.88454712332E+01  0.17777829822E+01 -0.32810912097E+01  0.96004392325E+01  0.51100000000E-03 0.  1.
         12    1    4    4    0    0  0.14485550077E+00  0.19759342508E+02 -0.23002307961E+02  0.30324227459E+02  0.00000000000E+00 0. -1.
</event>
<event>
 8    1  0.2490104E-006  0.9118800E+02  0.7816164E-02  0.1184000E+00
        -11   -1    0    0    0    0  0.00000000000E+00  0.00000000000E+00  0.45593999997E+02  0.45594000000E+02  0.51100000000E-03 0.  1.
         11   -1    0    0    0    0 -0.00000000000E+00 -0.00000000000E+00 -0.45593999997E+02  0.45594000000E+02  0.51100000000E-03 0. -1.
         23    2    1    2    0    0  0.00000000000E+00  0.35527136788E-14 -0.17763568394E-14  0.91188000000E+02  0.91188000000E+02 0.  0.
    9900012    2    3    3    0    0  0.27180816971E+02  0.23567966238E+02 -0.78444122703E+01  0.54367073237E+02  0.39999975059E+02 0.  0.
        -12    1    3    3    0    0 -0.27180816971E+02 -0.23567966238E+02  0.78444122703E+01  0.36820926763E+02  0.00000000000E+00 0.  1.
         11    1    4    4    0    0 -0.11281106408E+01  0.16944081914E+02  0.35282779685E+01  0.17344258163E+02  0.51100000000E-03 0. -1.
        -11    1    4    4    0    0  0.11075492693E+02  0.41260557518E+01  0.52649869501E+01  0.12938738822E+02  0.51100000000E-03 0.  1.
         12    1    4    4    0    0  0.17233434919E+02  0.24978285722E+01 -0.16637677189E+02  0.24084076252E+02  0.00000000000E+00 0. -1.
</event>
<event>
 8    1  0.2490104E-006  0.9118800E+02  0.7816164E-02  0.1184000E+00
        -11   -1    0    0    0    0  0.00000000000E+00  0.00000000000E+00  0.45593999997E+02  0.45594000000E+02  0.51100000000E-03 0.  1.
         11   -1    0    0    0    0 -0.00000000000E+00 -0.00000000000E+00 -0.45593999997E+02  0.45594000000E+02  0.51100000000E-03 0. -1.
         23    2    1    2    0    0  0.00000000000E+00  0.00000000000E+00  0.00000000000E+00  0.91188000000E+02  0.91188000000E+02 0.  0.
    9900012    2    3    3    0    0  0.10494641285E+02 -0.18048704609E+02  0.30329679244E+02  0.54367045683E+02  0.39999912243E+02 0.  0.
         12    1    3    3    0    0 -0.10494641285E+02  0.18048704609E+02 -0.30329679244E+02  0.36820954317E+02  0.00000000000E+00 0. -1.
         11    1    4    4    0    0  0.10001804253E+02 -0.90752204060E+01 -0.12294501646E+00  0.13505955334E+02  0.51100000000E-03 0. -1.
        -11    1    4    4    0    0  0.82953290852E+01 -0.15161065453E+02  0.19669178657E+02  0.26182952080E+02  0.51100000000E-03 0.  1.
        -12    1    4    4    0    0 -0.78024920535E+01  0.61875812498E+01  0.10783445604E+02  0.14678138269E+02  0.00000000000E+00 0.  1.
</event>
<event>
 8    1  0.2490104E-006  0.9118800E+02  0.7816164E-02  0.1184000E+00
        -11   -1    0    0    0    0  0.00000000000E+00  0.00000000000E+00  0.45593999997E+02  0.45594000000E+02  0.51100000000E-03 0. -1.
         11   -1    0    0    0    0 -0.00000000000E+00 -0.00000000000E+00 -0.45593999997E+02  0.45594000000E+02  0.51100000000E-03 0.  1.
         23    2    1    2    0    0 -0.88817841970E-15  0.00000000000E+00  0.00000000000E+00  0.91188000000E+02  0.91188000000E+02 0.  0.
    9900012    2    3    3    0    0  0.64396646968E+01 -0.33115657856E+02 -0.14753456478E+02  0.54367074500E+02  0.39999977937E+02 0.  0.
         12    1    3    3    0    0 -0.64396646968E+01  0.33115657856E+02  0.14753456478E+02  0.36820925500E+02  0.00000000000E+00 0. -1.
         11    1    4    4    0    0  0.67980047607E+01 -0.63812846410E+01 -0.35418395833E+01  0.99738804028E+01  0.51100000000E-03 0. -1.
        -11    1    4    4    0    0  0.16095667596E+02 -0.16764500716E+02 -0.28453691234E+01  0.23413994220E+02  0.51100000000E-03 0.  1.
        -12    1    4    4    0    0 -0.16454007660E+02 -0.99698724995E+01 -0.83662477712E+01  0.20979199877E+02  0.00000000000E+00 0.  1.
</event>
<event>
 8    1  0.2490104E-006  0.9118800E+02  0.7816164E-02  0.1184000E+00
        -11   -1    0    0    0    0  0.00000000000E+00  0.00000000000E+00  0.45593999997E+02  0.45594000000E+02  0.51100000000E-03 0. -1.
         11   -1    0    0    0    0 -0.00000000000E+00 -0.00000000000E+00 -0.45593999997E+02  0.45594000000E+02  0.51100000000E-03 0.  1.
         23    2    1    2    0    0  0.17763568394E-14  0.00000000000E+00 -0.35527136788E-14  0.91188000000E+02  0.91188000000E+02 0.  0.
    9900012    2    3    3    0    0  0.12624524938E+02  0.16454413217E+02 -0.30424564594E+02  0.54367075582E+02  0.39999980405E+02 0.  0.
         12    1    3    3    0    0 -0.12624524938E+02 -0.16454413217E+02  0.30424564594E+02  0.36820924418E+02  0.00000000000E+00 0. -1.
         11    1    4    4    0    0  0.81469283533E+01  0.15404932354E+02  0.48999656109E+01  0.18102321555E+02  0.51100000000E-03 0. -1.
        -11    1    4    4    0    0 -0.12758697652E+01 -0.14364940317E+01 -0.92650021903E+01  0.94621152291E+01  0.51100000000E-03 0.  1.
         12    1    4    4    0    0  0.57534663501E+01  0.24859748952E+01 -0.26059528015E+02  0.26802638799E+02  0.00000000000E+00 0. -1.
</event>
<event>
 8    1  0.2490104E-006  0.9118800E+02  0.7816164E-02  0.1184000E+00
        -11   -1    0    0    0    0  0.00000000000E+00  0.00000000000E+00  0.45593999997E+02  0.45594000000E+02  0.51100000000E-03 0.  1.
         11   -1    0    0    0    0 -0.00000000000E+00 -0.00000000000E+00 -0.45593999997E+02  0.45594000000E+02  0.51100000000E-03 0. -1.
         23    2    1    2    0    0  0.00000000000E+00  0.35527136788E-14  0.35527136788E-14  0.91188000000E+02  0.91188000000E+02 0.  0.
    9900012    2    3    3    0    0  0.99389170191E+01 -0.21269870425E+02  0.28365295057E+02  0.54367089866E+02  0.40000012968E+02 0.  0.
         12    1    3    3    0    0 -0.99389170191E+01  0.21269870425E+02 -0.28365295057E+02  0.36820910134E+02  0.00000000000E+00 0. -1.
         11    1    4    4    0    0 -0.11239979548E+02 -0.10642608478E+02  0.95989739451E+01  0.18213801265E+02  0.51100000000E-03 0. -1.
        -11    1    4    4    0    0  0.20696508995E+02 -0.78000686750E+01  0.22429907454E+02  0.31500592130E+02  0.51100000000E-03 0.  1.
         12    1    4    4    0    0  0.48238757197E+00 -0.28271932718E+01 -0.36635863421E+01  0.46526964710E+01  0.00000000000E+00 0. -1.
</event>
<event>
 8    1  0.2490104E-006  0.9118800E+02  0.7816164E-02  0.1184000E+00
        -11   -1    0    0    0    0  0.00000000000E+00  0.00000000000E+00  0.45593999997E+02  0.45594000000E+02  0.51100000000E-03 0. -1.
         11   -1    0    0    0    0 -0.00000000000E+00 -0.00000000000E+00 -0.45593999997E+02  0.45594000000E+02  0.51100000000E-03 0.  1.
         23    2    1    2    0    0 -0.17763568394E-14 -0.35527136788E-14  0.35527136788E-14  0.91188000000E+02  0.91188000000E+02 0.  0.
    9900012    2    3    3    0    0  0.78858378347E+01 -0.26180267127E+02  0.24661436373E+02  0.54367091956E+02  0.40000017732E+02 0.  0.
        -12    1    3    3    0    0 -0.78858378347E+01  0.26180267127E+02 -0.24661436373E+02  0.36820908044E+02  0.00000000000E+00 0.  1.
         11    1    4    4    0    0 -0.84329664870E+01 -0.15994513752E+02  0.15208645834E+02  0.23627151802E+02  0.51100000000E-03 0. -1.
        -11    1    4    4    0    0  0.20824931787E+02 -0.11142853289E+02  0.46255265796E+01  0.24067331795E+02  0.51100000000E-03 0.  1.
        -12    1    4    4    0    0 -0.45061274650E+01  0.95709991336E+00  0.48272639597E+01  0.66726083589E+01  0.00000000000E+00 0.  1.
</event>
<event>
 8    1  0.2490104E-006  0.9118800E+02  0.7816164E-02  0.1184000E+00
        -11   -1    0    0    0    0  0.00000000000E+00  0.00000000000E+00  0.45593999997E+02  0.45594000000E+02  0.51100000000E-03 0.  1.
         11   -1    0    0    0    0 -0.00000000000E+00 -0.00000000000E+00 -0.45593999997E+02  0.45594000000E+02  0.51100000000E-03 0. -1.
         23    2    1    2    0    0  0.35527136788E-14 -0.35527136788E-14  0.35527136788E-14  0.91188000000E+02  0.91188000000E+02 0.  0.
    9900012    2    3    3    0    0 -0.17146494158E+02 -0.26026673340E+02 -0.19605800681E+02  0.54367117237E+02  0.40000075366E+02 0.  0.
        -12    1    3    3    0    0  0.17146494158E+02  0.26026673340E+02  0.19605800681E+02  0.36820882763E+02  0.00000000000E+00 0.  1.
         11    1    4    4    0    0 -0.92809684101E+01 -0.73233426165E+01 -0.43827660033E+01  0.12608582783E+02  0.51100000000E-03 0. -1.
        -11    1    4    4    0    0 -0.64538575617E+01  0.36059747214E+01  0.70406060081E+01  0.10209087341E+02  0.51100000000E-03 0.  1.
         12    1    4    4    0    0 -0.14116681865E+01 -0.22309305445E+02 -0.22263640686E+02  0.31549447113E+02  0.00000000000E+00 0. -1.
</event>
<event>
 8    1  0.2490104E-006  0.9118800E+02  0.7816164E-02  0.1184000E+00
        -11   -1    0    0    0    0  0.00000000000E+00  0.00000000000E+00  0.45593999997E+02  0.45594000000E+02  0.51100000000E-03 0.  1.
         11   -1    0    0    0    0 -0.00000000000E+00 -0.00000000000E+00 -0.45593999997E+02  0.45594000000E+02  0.51100000000E-03 0. -1.
         23    2    1    2    0    0  0.00000000000E+00 -0.17763568394E-14  0.00000000000E+00  0.91188000000E+02  0.91188000000E+02 0.  0.
    9900012    2    3    3    0    0  0.32538639123E+02 -0.13926811960E+02 -0.10152009159E+02  0.54367049207E+02  0.39999920278E+02 0.  0.
        -12    1    3    3    0    0 -0.32538639123E+02  0.13926811960E+02  0.10152009159E+02  0.36820950793E+02  0.00000000000E+00 0.  1.
         11    1    4    4    0    0  0.31565116471E+02 -0.21601281638E+01 -0.14322214461E+02  0.34729649564E+02  0.51100000000E-03 0. -1.
        -11    1    4    4    0    0 -0.63358750937E+01 -0.33764498858E+01 -0.12045733130E+01  0.72797475342E+01  0.51100000000E-03 0.  1.
        -12    1    4    4    0    0  0.73093977452E+01 -0.83902339106E+01  0.53747786157E+01  0.12357652109E+02  0.00000000000E+00 0.  1.
</event>
<event>
 8    1  0.2490104E-006  0.9118800E+02  0.7816164E-02  0.1184000E+00
        -11   -1    0    0    0    0  0.00000000000E+00  0.00000000000E+00  0.45593999997E+02  0.45594000000E+02  0.51100000000E-03 0.  1.
         11   -1    0    0    0    0 -0.00000000000E+00 -0.00000000000E+00 -0.45593999997E+02  0.45594000000E+02  0.51100000000E-03 0. -1.
         23    2    1    2    0    0 -0.11102230246E-14  0.00000000000E+00  0.00000000000E+00  0.91188000000E+02  0.91188000000E+02 0.  0.
    9900012    2    3    3    0    0 -0.11909873350E+01 -0.20531433456E+02 -0.30542130028E+02  0.54367083156E+02  0.39999997670E+02 0.  0.
        -12    1    3    3    0    0  0.11909873350E+01  0.20531433456E+02  0.30542130028E+02  0.36820916844E+02  0.00000000000E+00 0.  1.
         11    1    4    4    0    0 -0.91256915280E+01 -0.18875543450E+02 -0.16712498739E+02  0.26811788466E+02  0.51100000000E-03 0. -1.
        -11    1    4    4    0    0  0.37263682706E+01  0.49258182506E+01  0.44922896685E+01  0.76374192403E+01  0.51100000000E-03 0.  1.
         12    1    4    4    0    0  0.42083359224E+01 -0.65817082568E+01 -0.18321920958E+02  0.19917875449E+02  0.00000000000E+00 0. -1.
</event>
<event>
 8    1  0.2490104E-006  0.9118800E+02  0.7816164E-02  0.1184000E+00
        -11   -1    0    0    0    0  0.00000000000E+00  0.00000000000E+00  0.45593999997E+02  0.45594000000E+02  0.51100000000E-03 0.  1.
         11   -1    0    0    0    0 -0.00000000000E+00 -0.00000000000E+00 -0.45593999997E+02  0.45594000000E+02  0.51100000000E-03 0. -1.
         23    2    1    2    0    0 -0.35527136788E-14 -0.44408920985E-15  0.00000000000E+00  0.91188000000E+02  0.91188000000E+02 0.  0.
    9900012    2    3    3    0    0 -0.27046160991E+02 -0.18766612865E+01  0.24915138085E+02  0.54367071335E+02  0.39999970722E+02 0.  0.
        -12    1    3    3    0    0  0.27046160991E+02  0.18766612865E+01 -0.24915138085E+02  0.36820928665E+02  0.00000000000E+00 0.  1.
         11    1    4    4    0    0 -0.11044861786E+02  0.28793611048E+01 -0.33907614595E+00  0.11419048346E+02  0.51100000000E-03 0. -1.
        -11    1    4    4    0    0 -0.19013421922E+01  0.90792547422E+01 -0.18002223167E+01  0.94492734883E+01  0.51100000000E-03 0.  1.
         12    1    4    4    0    0 -0.14099957013E+02 -0.13835277133E+02  0.27054436548E+02  0.33498749500E+02  0.00000000000E+00 0. -1.
</event>
<event>
 8    1  0.2490104E-006  0.9118800E+02  0.7816164E-02  0.1184000E+00
        -11   -1    0    0    0    0  0.00000000000E+00  0.00000000000E+00  0.45593999997E+02  0.45594000000E+02  0.51100000000E-03 0.  1.
         11   -1    0    0    0    0 -0.00000000000E+00 -0.00000000000E+00 -0.45593999997E+02  0.45594000000E+02  0.51100000000E-03 0. -1.
         23    2    1    2    0    0 -0.88817841970E-15  0.17763568394E-14 -0.71054273576E-14  0.91188000000E+02  0.91188000000E+02 0.  0.
    9900012    2    3    3    0    0  0.43117511872E+01  0.14990456482E+02 -0.33353780769E+02  0.54367086440E+02  0.40000005157E+02 0.  0.
        -12    1    3    3    0    0 -0.43117511872E+01 -0.14990456482E+02  0.33353780769E+02  0.36820913560E+02  0.00000000000E+00 0.  1.
         11    1    4    4    0    0 -0.87052186721E+01  0.13063647197E+02 -0.72953849225E+01  0.17310758263E+02  0.51100000000E-03 0. -1.
        -11    1    4    4    0    0  0.94615137136E+00  0.95014420986E+01 -0.31080315052E+01  0.10041536958E+02  0.51100000000E-03 0.  1.
        -12    1    4    4    0    0  0.12070818488E+02 -0.75746328139E+01 -0.22950364341E+02  0.27014791219E+02  0.00000000000E+00 0.  1.
</event>
<event>
 8    1  0.2490104E-006  0.9118800E+02  0.7816164E-02  0.1184000E+00
        -11   -1    0    0    0    0  0.00000000000E+00  0.00000000000E+00  0.45593999997E+02  0.45594000000E+02  0.51100000000E-03 0.  1.
         11   -1    0    0    0    0 -0.00000000000E+00 -0.00000000000E+00 -0.45593999997E+02  0.45594000000E+02  0.51100000000E-03 0. -1.
         23    2    1    2    0    0  0.00000000000E+00 -0.88817841970E-15  0.00000000000E+00  0.91188000000E+02  0.91188000000E+02 0.  0.
    9900012    2    3    3    0    0 -0.72289565516E+01  0.54813992244E+01  0.35685798287E+02  0.54367085431E+02  0.40000002858E+02 0.  0.
         12    1    3    3    0    0  0.72289565516E+01 -0.54813992244E+01 -0.35685798287E+02  0.36820914569E+02  0.00000000000E+00 0. -1.
         11    1    4    4    0    0 -0.10079275925E+02 -0.92461318436E+01  0.16991644315E+02  0.21812811236E+02  0.51100000000E-03 0. -1.
        -11    1    4    4    0    0  0.67890002304E+01  0.57452781372E+01 -0.24679788835E+01  0.92298247564E+01  0.51100000000E-03 0.  1.
        -12    1    4    4    0    0 -0.39386808571E+01  0.89822529308E+01  0.21162132856E+02  0.23324449439E+02  0.00000000000E+00 0.  1.
</event>
<event>
 8    1  0.2490104E-006  0.9118800E+02  0.7816164E-02  0.1184000E+00
        -11   -1    0    0    0    0  0.00000000000E+00  0.00000000000E+00  0.45593999997E+02  0.45594000000E+02  0.51100000000E-03 0.  1.
         11   -1    0    0    0    0 -0.00000000000E+00 -0.00000000000E+00 -0.45593999997E+02  0.45594000000E+02  0.51100000000E-03 0. -1.
         23    2    1    2    0    0 -0.17763568394E-14  0.00000000000E+00  0.17763568394E-14  0.91188000000E+02  0.91188000000E+02 0.  0.
    9900012    2    3    3    0    0  0.13821439061E+02 -0.33779793849E+02 -0.48654299757E+01  0.54367094809E+02  0.40000024237E+02 0.  0.
         12    1    3    3    0    0 -0.13821439061E+02  0.33779793849E+02  0.48654299757E+01  0.36820905191E+02  0.00000000000E+00 0. -1.
         11    1    4    4    0    0  0.15793032796E+02 -0.97640261703E+01 -0.51049704828E+01  0.19256604473E+02  0.51100000000E-03 0. -1.
        -11    1    4    4    0    0 -0.54362203090E+00 -0.13812085023E+02 -0.12561755273E+02  0.18677979371E+02  0.51100000000E-03 0.  1.
         12    1    4    4    0    0 -0.14279717046E+01 -0.10203682656E+02  0.12801295780E+02  0.16432510964E+02  0.00000000000E+00 0. -1.
</event>
<event>
 8    1  0.2490104E-006  0.9118800E+02  0.7816164E-02  0.1184000E+00
        -11   -1    0    0    0    0  0.00000000000E+00  0.00000000000E+00  0.45593999997E+02  0.45594000000E+02  0.51100000000E-03 0. -1.
         11   -1    0    0    0    0 -0.00000000000E+00 -0.00000000000E+00 -0.45593999997E+02  0.45594000000E+02  0.51100000000E-03 0.  1.
         23    2    1    2    0    0 -0.35527136788E-14  0.00000000000E+00 -0.17763568394E-14  0.91188000000E+02  0.91188000000E+02 0.  0.
    9900012    2    3    3    0    0 -0.27749654598E+02  0.23010770491E+02 -0.74994182114E+01  0.54367079827E+02  0.39999990082E+02 0.  0.
         12    1    3    3    0    0  0.27749654598E+02 -0.23010770491E+02  0.74994182114E+01  0.36820920173E+02  0.00000000000E+00 0. -1.
         11    1    4    4    0    0 -0.65684050254E+01  0.48295695396E+01  0.59367404056E+01  0.10085314741E+02  0.51100000000E-03 0. -1.
        -11    1    4    4    0    0 -0.18941776637E+02 -0.42599352620E+01 -0.85065694988E+01  0.21196690202E+02  0.51100000000E-03 0.  1.
         12    1    4    4    0    0 -0.22394729350E+01  0.22441136213E+02 -0.49295891182E+01  0.23085074885E+02  0.00000000000E+00 0. -1.
</event>
<event>
 8    1  0.2490104E-006  0.9118800E+02  0.7816164E-02  0.1184000E+00
        -11   -1    0    0    0    0  0.00000000000E+00  0.00000000000E+00  0.45593999997E+02  0.45594000000E+02  0.51100000000E-03 0. -1.
         11   -1    0    0    0    0 -0.00000000000E+00 -0.00000000000E+00 -0.45593999997E+02  0.45594000000E+02  0.51100000000E-03 0.  1.
         23    2    1    2    0    0 -0.17763568394E-14 -0.35527136788E-14 -0.35527136788E-14  0.91188000000E+02  0.91188000000E+02 0.  0.
    9900012    2    3    3    0    0 -0.98697715795E+01 -0.20813228165E+02 -0.28725893767E+02  0.54367084335E+02  0.40000000359E+02 0.  0.
         12    1    3    3    0    0  0.98697715795E+01  0.20813228165E+02  0.28725893767E+02  0.36820915665E+02  0.00000000000E+00 0. -1.
         11    1    4    4    0    0  0.22833365066E+01  0.32730926670E+01  0.19307223782E+01  0.44333340019E+01  0.51100000000E-03 0. -1.
        -11    1    4    4    0    0 -0.16590971290E+02 -0.22824938714E+02 -0.34038198062E+02  0.44213539592E+02  0.51100000000E-03 0.  1.
        -12    1    4    4    0    0  0.44378632038E+01 -0.12613821187E+01  0.33815819174E+01  0.57202107417E+01  0.00000000000E+00 0.  1.
</event>
<event>
 8    1  0.2490104E-006  0.9118800E+02  0.7816164E-02  0.1184000E+00
        -11   -1    0    0    0    0  0.00000000000E+00  0.00000000000E+00  0.45593999997E+02  0.45594000000E+02  0.51100000000E-03 0. -1.
         11   -1    0    0    0    0 -0.00000000000E+00 -0.00000000000E+00 -0.45593999997E+02  0.45594000000E+02  0.51100000000E-03 0.  1.
         23    2    1    2    0    0  0.00000000000E+00  0.00000000000E+00  0.71054273576E-14  0.91188000000E+02  0.91188000000E+02 0.  0.
    9900012    2    3    3    0    0 -0.14917176027E+02 -0.18890420103E+02  0.27864021461E+02  0.54367166165E+02  0.40000186907E+02 0.  0.
        -12    1    3    3    0    0  0.14917176027E+02  0.18890420103E+02 -0.27864021461E+02  0.36820833835E+02  0.00000000000E+00 0.  1.
         11    1    4    4    0    0 -0.15082393812E+02 -0.45080400496E+01  0.92897453474E+01  0.18278413418E+02  0.51100000000E-03 0. -1.
        -11    1    4    4    0    0 -0.97351789727E+01 -0.15113040920E+02  0.39380465089E+01  0.18403421586E+02  0.51100000000E-03 0.  1.
        -12    1    4    4    0    0  0.99003967579E+01  0.73066086701E+00  0.14636229605E+02  0.17685331162E+02  0.00000000000E+00 0.  1.
</event>
<event>
 8    1  0.2490104E-006  0.9118800E+02  0.7816164E-02  0.1184000E+00
        -11   -1    0    0    0    0  0.00000000000E+00  0.00000000000E+00  0.45593999997E+02  0.45594000000E+02  0.51100000000E-03 0.  1.
         11   -1    0    0    0    0 -0.00000000000E+00 -0.00000000000E+00 -0.45593999997E+02  0.45594000000E+02  0.51100000000E-03 0. -1.
         23    2    1    2    0    0 -0.35527136788E-14 -0.17763568394E-14 -0.35527136788E-14  0.91188000000E+02  0.91188000000E+02 0.  0.
    9900012    2    3    3    0    0 -0.17012883421E+02  0.93991968159E+01  0.31272946391E+02  0.54367078243E+02  0.39999986471E+02 0.  0.
         12    1    3    3    0    0  0.17012883421E+02 -0.93991968159E+01 -0.31272946391E+02  0.36820921757E+02  0.00000000000E+00 0. -1.
         11    1    4    4    0    0  0.62017612588E+01 -0.53276634114E+01  0.44187307661E+01  0.92936011309E+01  0.51100000000E-03 0. -1.
        -11    1    4    4    0    0  0.25175697528E+01  0.81659440123E+01  0.21677987365E+01  0.88159032830E+01  0.51100000000E-03 0.  1.
         12    1    4    4    0    0 -0.25732214433E+02  0.65609162150E+01  0.24686416888E+02  0.36257573829E+02  0.00000000000E+00 0. -1.
</event>
<event>
 8    1  0.2490104E-006  0.9118800E+02  0.7816164E-02  0.1184000E+00
        -11   -1    0    0    0    0  0.00000000000E+00  0.00000000000E+00  0.45593999997E+02  0.45594000000E+02  0.51100000000E-03 0.  1.
         11   -1    0    0    0    0 -0.00000000000E+00 -0.00000000000E+00 -0.45593999997E+02  0.45594000000E+02  0.51100000000E-03 0. -1.
         23    2    1    2    0    0 -0.88817841970E-15  0.00000000000E+00  0.71054273576E-14  0.91188000000E+02  0.91188000000E+02 0.  0.
    9900012    2    3    3    0    0  0.67316066831E+01 -0.10662092319E+02  0.34594573433E+02  0.54367092187E+02  0.40000018259E+02 0.  0.
         12    1    3    3    0    0 -0.67316066831E+01  0.10662092319E+02 -0.34594573433E+02  0.36820907813E+02  0.00000000000E+00 0. -1.
         11    1    4    4    0    0 -0.93993683902E+01 -0.65902838929E+01  0.18139457015E+01  0.11621977766E+02  0.51100000000E-03 0. -1.
        -11    1    4    4    0    0  0.11367260862E+02  0.51257352165E+01  0.29258234220E+02  0.31804591664E+02  0.51100000000E-03 0.  1.
        -12    1    4    4    0    0  0.47637142113E+01 -0.91975436427E+01  0.35223935114E+01  0.10940522757E+02  0.00000000000E+00 0.  1.
</event>
<event>
 8    1  0.2490104E-006  0.9118800E+02  0.7816164E-02  0.1184000E+00
        -11   -1    0    0    0    0  0.00000000000E+00  0.00000000000E+00  0.45593999997E+02  0.45594000000E+02  0.51100000000E-03 0.  1.
         11   -1    0    0    0    0 -0.00000000000E+00 -0.00000000000E+00 -0.45593999997E+02  0.45594000000E+02  0.51100000000E-03 0. -1.
         23    2    1    2    0    0  0.00000000000E+00  0.00000000000E+00  0.00000000000E+00  0.91188000000E+02  0.91188000000E+02 0.  0.
    9900012    2    3    3    0    0 -0.26335138116E+02 -0.23862634903E+02 -0.96340893396E+01  0.54367074950E+02  0.39999978964E+02 0.  0.
        -12    1    3    3    0    0  0.26335138116E+02  0.23862634903E+02  0.96340893396E+01  0.36820925050E+02  0.00000000000E+00 0.  1.
         11    1    4    4    0    0 -0.10284429816E+02 -0.23851724017E+01 -0.11938479324E+02  0.15936932982E+02  0.51100000000E-03 0. -1.
        -11    1    4    4    0    0 -0.58074794778E+01 -0.44402308445E+01 -0.11921860473E+02  0.13984749738E+02  0.51100000000E-03 0.  1.
        -12    1    4    4    0    0 -0.10243228822E+02 -0.17037231656E+02  0.14226250458E+02  0.24445392230E+02  0.00000000000E+00 0.  1.
</event>
<event>
 8    1  0.2490104E-006  0.9118800E+02  0.7816164E-02  0.1184000E+00
        -11   -1    0    0    0    0  0.00000000000E+00  0.00000000000E+00  0.45593999997E+02  0.45594000000E+02  0.51100000000E-03 0. -1.
         11   -1    0    0    0    0 -0.00000000000E+00 -0.00000000000E+00 -0.45593999997E+02  0.45594000000E+02  0.51100000000E-03 0.  1.
         23    2    1    2    0    0  0.88817841970E-15  0.00000000000E+00  0.00000000000E+00  0.91188000000E+02  0.91188000000E+02 0.  0.
    9900012    2    3    3    0    0 -0.25941263757E+01 -0.26771547116E+02 -0.25146338998E+02  0.54367033261E+02  0.39999883925E+02 0.  0.
         12    1    3    3    0    0  0.25941263757E+01  0.26771547116E+02  0.25146338998E+02  0.36820966739E+02  0.00000000000E+00 0. -1.
         11    1    4    4    0    0 -0.45168535689E+01 -0.11210849869E+01 -0.25128655772E+02  0.25555980491E+02  0.51100000000E-03 0. -1.
        -11    1    4    4    0    0  0.47138529730E+01 -0.65557010038E+01 -0.41460150901E+01  0.90767321703E+01  0.51100000000E-03 0.  1.
        -12    1    4    4    0    0 -0.27911257798E+01 -0.19094761125E+02  0.41283318644E+01  0.19734320599E+02  0.00000000000E+00 0.  1.
</event>
<event>
 8    1  0.2490104E-006  0.9118800E+02  0.7816164E-02  0.1184000E+00
        -11   -1    0    0    0    0  0.00000000000E+00  0.00000000000E+00  0.45593999997E+02  0.45594000000E+02  0.51100000000E-03 0.  1.
         11   -1    0    0    0    0 -0.00000000000E+00 -0.00000000000E+00 -0.45593999997E+02  0.45594000000E+02  0.51100000000E-03 0. -1.
         23    2    1    2    0    0  0.00000000000E+00  0.00000000000E+00  0.00000000000E+00  0.91188000000E+02  0.91188000000E+02 0.  0.
    9900012    2    3    3    0    0 -0.14885361189E+02  0.25962116651E+02  0.21451680091E+02  0.54367081252E+02  0.39999993330E+02 0.  0.
         12    1    3    3    0    0  0.14885361189E+02 -0.25962116651E+02 -0.21451680091E+02  0.36820918748E+02  0.00000000000E+00 0. -1.
         11    1    4    4    0    0 -0.71022135162E+01 -0.18888855773E+01 -0.27722220334E+01  0.78545872468E+01  0.51100000000E-03 0. -1.
        -11    1    4    4    0    0 -0.34975712739E+01 -0.49768433751E+01  0.67176514003E+01  0.90624949872E+01  0.51100000000E-03 0.  1.
         12    1    4    4    0    0 -0.42855763991E+01  0.32827845603E+02  0.17506250724E+02  0.37449999018E+02  0.00000000000E+00 0. -1.
</event>
<event>
 8    1  0.2490104E-006  0.9118800E+02  0.7816164E-02  0.1184000E+00
        -11   -1    0    0    0    0  0.00000000000E+00  0.00000000000E+00  0.45593999997E+02  0.45594000000E+02  0.51100000000E-03 0. -1.
         11   -1    0    0    0    0 -0.00000000000E+00 -0.00000000000E+00 -0.45593999997E+02  0.45594000000E+02  0.51100000000E-03 0.  1.
         23    2    1    2    0    0 -0.17763568394E-14  0.00000000000E+00  0.13322676296E-14  0.91188000000E+02  0.91188000000E+02 0.  0.
    9900012    2    3    3    0    0 -0.11004680329E+02  0.35082167255E+02  0.19793899713E+01  0.54367089730E+02  0.40000012657E+02 0.  0.
        -12    1    3    3    0    0  0.11004680329E+02 -0.35082167255E+02 -0.19793899713E+01  0.36820910270E+02  0.00000000000E+00 0.  1.
         11    1    4    4    0    0  0.17100498953E+01  0.11066384006E+02  0.13284760501E+02  0.17374521215E+02  0.51100000000E-03 0. -1.
        -11    1    4    4    0    0  0.63296718828E+01  0.48585598077E+01 -0.43960291078E+01  0.91101823103E+01  0.51100000000E-03 0.  1.
         12    1    4    4    0    0 -0.19044402107E+02  0.19157223442E+02 -0.69093414218E+01  0.27882386205E+02  0.00000000000E+00 0. -1.
</event>
<event>
 8    1  0.2490104E-006  0.9118800E+02  0.7816164E-02  0.1184000E+00
        -11   -1    0    0    0    0  0.00000000000E+00  0.00000000000E+00  0.45593999997E+02  0.45594000000E+02  0.51100000000E-03 0.  1.
         11   -1    0    0    0    0 -0.00000000000E+00 -0.00000000000E+00 -0.45593999997E+02  0.45594000000E+02  0.51100000000E-03 0. -1.
         23    2    1    2    0    0  0.35527136788E-14  0.88817841970E-15  0.71054273576E-14  0.91188000000E+02  0.91188000000E+02 0.  0.
    9900012    2    3    3    0    0 -0.24120979090E+02 -0.51649228919E+01 -0.27336476807E+02  0.54367068114E+02  0.39999963379E+02 0.  0.
        -12    1    3    3    0    0  0.24120979090E+02  0.51649228919E+01  0.27336476807E+02  0.36820931886E+02  0.00000000000E+00 0.  1.
         11    1    4    4    0    0 -0.60980348977E+01 -0.25475947803E+01 -0.13410836311E+02  0.14950812673E+02  0.51100000000E-03 0. -1.
        -11    1    4    4    0    0  0.24447730815E+01 -0.12784683194E+02 -0.95580238186E+01  0.16148710765E+02  0.51100000000E-03 0.  1.
        -12    1    4    4    0    0 -0.20467717273E+02  0.10167355083E+02 -0.43676166779E+01  0.23267544675E+02  0.00000000000E+00 0.  1.
</event>
<event>
 8    1  0.2490104E-006  0.9118800E+02  0.7816164E-02  0.1184000E+00
        -11   -1    0    0    0    0  0.00000000000E+00  0.00000000000E+00  0.45593999997E+02  0.45594000000E+02  0.51100000000E-03 0. -1.
         11   -1    0    0    0    0 -0.00000000000E+00 -0.00000000000E+00 -0.45593999997E+02  0.45594000000E+02  0.51100000000E-03 0.  1.
         23    2    1    2    0    0  0.00000000000E+00  0.80491169285E-15 -0.35527136788E-14  0.91188000000E+02  0.91188000000E+02 0.  0.
    9900012    2    3    3    0    0 -0.21589832881E+02  0.50760406877E-01  0.29827120018E+02  0.54367074577E+02  0.39999978113E+02 0.  0.
        -12    1    3    3    0    0  0.21589832881E+02 -0.50760406877E-01 -0.29827120018E+02  0.36820925423E+02  0.00000000000E+00 0.  1.
         11    1    4    4    0    0  0.35601365802E+01 -0.20516618101E+01  0.42003211338E+01  0.58759328231E+01  0.51100000000E-03 0.  1.
        -11    1    4    4    0    0 -0.50335052310E+01  0.93699347966E+01  0.24914914759E+02  0.27090308797E+02  0.51100000000E-03 0. -1.
         12    1    4    4    0    0 -0.20116464231E+02 -0.72675125796E+01  0.71188412478E+00  0.21400832957E+02  0.00000000000E+00 0. -1.
</event>
<event>
 8    1  0.2490104E-006  0.9118800E+02  0.7816164E-02  0.1184000E+00
        -11   -1    0    0    0    0  0.00000000000E+00  0.00000000000E+00  0.45593999997E+02  0.45594000000E+02  0.51100000000E-03 0.  1.
         11   -1    0    0    0    0 -0.00000000000E+00 -0.00000000000E+00 -0.45593999997E+02  0.45594000000E+02  0.51100000000E-03 0. -1.
         23    2    1    2    0    0 -0.88817841970E-15  0.00000000000E+00  0.00000000000E+00  0.91188000000E+02  0.91188000000E+02 0.  0.
    9900012    2    3    3    0    0 -0.77221326257E+01  0.88261919585E+01 -0.34903378568E+02  0.54367097889E+02  0.40000031258E+02 0.  0.
        -12    1    3    3    0    0  0.77221326257E+01 -0.88261919585E+01  0.34903378568E+02  0.36820902111E+02  0.00000000000E+00 0.  1.
         11    1    4    4    0    0 -0.91418936961E+01  0.14148177621E+02 -0.11175092299E+02  0.20214545221E+02  0.51100000000E-03 0. -1.
        -11    1    4    4    0    0  0.58807497316E+01  0.20791810622E+01  0.23609529989E+01  0.66693560873E+01  0.51100000000E-03 0.  1.
         12    1    4    4    0    0 -0.44609886613E+01 -0.74011667243E+01 -0.26089239268E+02  0.27483196581E+02  0.00000000000E+00 0. -1.
</event>
<event>
 8    1  0.2490104E-006  0.9118800E+02  0.7816164E-02  0.1184000E+00
        -11   -1    0    0    0    0  0.00000000000E+00  0.00000000000E+00  0.45593999997E+02  0.45594000000E+02  0.51100000000E-03 0.  1.
         11   -1    0    0    0    0 -0.00000000000E+00 -0.00000000000E+00 -0.45593999997E+02  0.45594000000E+02  0.51100000000E-03 0. -1.
         23    2    1    2    0    0 -0.35527136788E-14 -0.35527136788E-14 -0.35527136788E-14  0.91188000000E+02  0.91188000000E+02 0.  0.
    9900012    2    3    3    0    0  0.20229175632E+02  0.29083654609E+02  0.10035004944E+02  0.54367084254E+02  0.40000000173E+02 0.  0.
        -12    1    3    3    0    0 -0.20229175632E+02 -0.29083654609E+02 -0.10035004944E+02  0.36820915746E+02  0.00000000000E+00 0.  1.
         11    1    4    4    0    0  0.13079268464E+02  0.20635905836E+02  0.70806643949E+01  0.25437053322E+02  0.51100000000E-03 0. -1.
        -11    1    4    4    0    0  0.55034024744E+01  0.96858980286E+01 -0.10506126602E+02  0.15312829779E+02  0.51100000000E-03 0.  1.
        -12    1    4    4    0    0  0.16465046938E+01 -0.12381492552E+01  0.13460467151E+02  0.13617201152E+02  0.00000000000E+00 0.  1.
</event>
<event>
 8    1  0.2490104E-006  0.9118800E+02  0.7816164E-02  0.1184000E+00
        -11   -1    0    0    0    0  0.00000000000E+00  0.00000000000E+00  0.45593999997E+02  0.45594000000E+02  0.51100000000E-03 0.  1.
         11   -1    0    0    0    0 -0.00000000000E+00 -0.00000000000E+00 -0.45593999997E+02  0.45594000000E+02  0.51100000000E-03 0. -1.
         23    2    1    2    0    0  0.00000000000E+00  0.17763568394E-14  0.35527136788E-14  0.91188000000E+02  0.91188000000E+02 0.  0.
    9900012    2    3    3    0    0 -0.18221131121E+02  0.10909316331E+02  0.30079181127E+02  0.54367082855E+02  0.39999996984E+02 0.  0.
         12    1    3    3    0    0  0.18221131121E+02 -0.10909316331E+02 -0.30079181127E+02  0.36820917145E+02  0.00000000000E+00 0. -1.
         11    1    4    4    0    0 -0.10806242971E+01  0.81000386912E+01 -0.11956964811E+01  0.82588174702E+01  0.51100000000E-03 0. -1.
        -11    1    4    4    0    0 -0.11962172850E+02 -0.11207673762E+02  0.74979583338E+01  0.18025673632E+02  0.51100000000E-03 0.  1.
        -12    1    4    4    0    0 -0.51783339746E+01  0.14016951402E+02  0.23776919274E+02  0.28082591753E+02  0.00000000000E+00 0.  1.
</event>
<event>
 8    1  0.2490104E-006  0.9118800E+02  0.7816164E-02  0.1184000E+00
        -11   -1    0    0    0    0  0.00000000000E+00  0.00000000000E+00  0.45593999997E+02  0.45594000000E+02  0.51100000000E-03 0.  1.
         11   -1    0    0    0    0 -0.00000000000E+00 -0.00000000000E+00 -0.45593999997E+02  0.45594000000E+02  0.51100000000E-03 0. -1.
         23    2    1    2    0    0 -0.17763568394E-14  0.00000000000E+00  0.00000000000E+00  0.91188000000E+02  0.91188000000E+02 0.  0.
    9900012    2    3    3    0    0  0.11648697659E+02 -0.41828278868E+01  0.34678411559E+02  0.54367076132E+02  0.39999981658E+02 0.  0.
         12    1    3    3    0    0 -0.11648697659E+02  0.41828278868E+01 -0.34678411559E+02  0.36820923868E+02  0.00000000000E+00 0. -1.
         11    1    4    4    0    0  0.56407819521E+01 -0.12350699343E+02  0.14339728802E+02  0.19748063643E+02  0.51100000000E-03 0. -1.
        -11    1    4    4    0    0  0.93705406521E+01  0.71729122231E+01  0.25661529674E+02  0.28244854528E+02  0.51100000000E-03 0.  1.
         12    1    4    4    0    0 -0.33626249449E+01  0.99495923268E+00 -0.53228469172E+01  0.63741579600E+01  0.00000000000E+00 0. -1.
</event>
<event>
 8    1  0.2490104E-006  0.9118800E+02  0.7816164E-02  0.1184000E+00
        -11   -1    0    0    0    0  0.00000000000E+00  0.00000000000E+00  0.45593999997E+02  0.45594000000E+02  0.51100000000E-03 0.  1.
         11   -1    0    0    0    0 -0.00000000000E+00 -0.00000000000E+00 -0.45593999997E+02  0.45594000000E+02  0.51100000000E-03 0. -1.
         23    2    1    2    0    0 -0.17763568394E-14  0.00000000000E+00  0.00000000000E+00  0.91188000000E+02  0.91188000000E+02 0.  0.
    9900012    2    3    3    0    0 -0.84888460419E+01  0.35644450477E+02 -0.36320335707E+01  0.54367095275E+02  0.40000025298E+02 0.  0.
        -12    1    3    3    0    0  0.84888460419E+01 -0.35644450477E+02  0.36320335707E+01  0.36820904725E+02  0.00000000000E+00 0.  1.
         11    1    4    4    0    0  0.18366774087E+01  0.73203916087E+01 -0.39046478306E+01  0.84975168226E+01  0.51100000000E-03 0. -1.
        -11    1    4    4    0    0  0.44772782920E+01 -0.65632296972E+01 -0.53738411613E+00  0.79630890307E+01  0.51100000000E-03 0.  1.
         12    1    4    4    0    0 -0.14802801743E+02  0.34887288566E+02  0.80999837597E+00  0.37906489421E+02  0.00000000000E+00 0. -1.
</event>
<event>
 8    1  0.2490104E-006  0.9118800E+02  0.7816164E-02  0.1184000E+00
        -11   -1    0    0    0    0  0.00000000000E+00  0.00000000000E+00  0.45593999997E+02  0.45594000000E+02  0.51100000000E-03 0. -1.
         11   -1    0    0    0    0 -0.00000000000E+00 -0.00000000000E+00 -0.45593999997E+02  0.45594000000E+02  0.51100000000E-03 0.  1.
         23    2    1    2    0    0  0.00000000000E+00  0.00000000000E+00  0.35527136788E-14  0.91188000000E+02  0.91188000000E+02 0.  0.
    9900012    2    3    3    0    0  0.67179837442E+01  0.29086104000E+02 -0.21555682384E+02  0.54367079391E+02  0.39999989087E+02 0.  0.
        -12    1    3    3    0    0 -0.67179837442E+01 -0.29086104000E+02  0.21555682384E+02  0.36820920609E+02  0.00000000000E+00 0.  1.
         11    1    4    4    0    0  0.33071934083E+01  0.79308543977E+01  0.38665652501E+01  0.94226486091E+01  0.51100000000E-03 0. -1.
        -11    1    4    4    0    0 -0.26144706570E+01  0.19660767587E+01  0.64641253233E+01  0.72447105597E+01  0.51100000000E-03 0.  1.
         12    1    4    4    0    0  0.60252609929E+01  0.19189172844E+02 -0.31886372957E+02  0.37699720222E+02  0.00000000000E+00 0. -1.
</event>
<event>
 8    1  0.2490104E-006  0.9118800E+02  0.7816164E-02  0.1184000E+00
        -11   -1    0    0    0    0  0.00000000000E+00  0.00000000000E+00  0.45593999997E+02  0.45594000000E+02  0.51100000000E-03 0.  1.
         11   -1    0    0    0    0 -0.00000000000E+00 -0.00000000000E+00 -0.45593999997E+02  0.45594000000E+02  0.51100000000E-03 0. -1.
         23    2    1    2    0    0 -0.88817841970E-15  0.35527136788E-14 -0.71054273576E-14  0.91188000000E+02  0.91188000000E+02 0.  0.
    9900012    2    3    3    0    0  0.33169217611E+01 -0.13386217999E+02  0.34140687672E+02  0.54367090763E+02  0.40000015013E+02 0.  0.
         12    1    3    3    0    0 -0.33169217611E+01  0.13386217999E+02 -0.34140687672E+02  0.36820909237E+02  0.00000000000E+00 0. -1.
         11    1    4    4    0    0 -0.47312843630E+01 -0.99734774397E+00 -0.38148403158E+01  0.61589577967E+01  0.51100000000E-03 0. -1.
        -11    1    4    4    0    0  0.70416651044E+00  0.79716864683E+01  0.11807499015E+02  0.14263963996E+02  0.51100000000E-03 0.  1.
         12    1    4    4    0    0  0.73440396137E+01 -0.20360556723E+02  0.26148028973E+02  0.33944168971E+02  0.00000000000E+00 0. -1.
</event>
<event>
 8    1  0.2490104E-006  0.9118800E+02  0.7816164E-02  0.1184000E+00
        -11   -1    0    0    0    0  0.00000000000E+00  0.00000000000E+00  0.45593999997E+02  0.45594000000E+02  0.51100000000E-03 0.  1.
         11   -1    0    0    0    0 -0.00000000000E+00 -0.00000000000E+00 -0.45593999997E+02  0.45594000000E+02  0.51100000000E-03 0. -1.
         23    2    1    2    0    0  0.00000000000E+00 -0.35527136788E-14  0.00000000000E+00  0.91188000000E+02  0.91188000000E+02 0.  0.
    9900012    2    3    3    0    0  0.21427901904E+02  0.20892422158E+02 -0.21450735370E+02  0.54367050372E+02  0.39999922932E+02 0.  0.
        -12    1    3    3    0    0 -0.21427901904E+02 -0.20892422158E+02  0.21450735370E+02  0.36820949628E+02  0.00000000000E+00 0.  1.
         11    1    4    4    0    0  0.51200884717E+01 -0.38376292300E+01 -0.83788431897E+01  0.10542661786E+02  0.51100000000E-03 0. -1.
        -11    1    4    4    0    0  0.19787168327E+02  0.26354198320E+02 -0.18020498216E+02  0.37560806110E+02  0.51100000000E-03 0.  1.
        -12    1    4    4    0    0 -0.34793548945E+01 -0.16241469317E+01  0.49486060352E+01  0.62635824757E+01  0.00000000000E+00 0.  1.
</event>
<event>
 8    1  0.2490104E-006  0.9118800E+02  0.7816164E-02  0.1184000E+00
        -11   -1    0    0    0    0  0.00000000000E+00  0.00000000000E+00  0.45593999997E+02  0.45594000000E+02  0.51100000000E-03 0.  1.
         11   -1    0    0    0    0 -0.00000000000E+00 -0.00000000000E+00 -0.45593999997E+02  0.45594000000E+02  0.51100000000E-03 0. -1.
         23    2    1    2    0    0  0.00000000000E+00 -0.35527136788E-14 -0.35527136788E-14  0.91188000000E+02  0.91188000000E+02 0.  0.
    9900012    2    3    3    0    0 -0.92150305245E+01  0.24442215422E+02  0.25950755542E+02  0.54367076662E+02  0.39999982866E+02 0.  0.
         12    1    3    3    0    0  0.92150305245E+01 -0.24442215422E+02 -0.25950755542E+02  0.36820923338E+02  0.00000000000E+00 0. -1.
         11    1    4    4    0    0 -0.50326658937E+01 -0.50069798611E+01 -0.37231865202E+01  0.80162142844E+01  0.51100000000E-03 0. -1.
        -11    1    4    4    0    0  0.62068170214E+01  0.79368067888E+01  0.29350179528E+01  0.10494370404E+02  0.51100000000E-03 0.  1.
        -12    1    4    4    0    0 -0.10389181652E+02  0.21512388494E+02  0.26738924109E+02  0.35856491973E+02  0.00000000000E+00 0.  1.
</event>
<event>
 8    1  0.2490104E-006  0.9118800E+02  0.7816164E-02  0.1184000E+00
        -11   -1    0    0    0    0  0.00000000000E+00  0.00000000000E+00  0.45593999997E+02  0.45594000000E+02  0.51100000000E-03 0.  1.
         11   -1    0    0    0    0 -0.00000000000E+00 -0.00000000000E+00 -0.45593999997E+02  0.45594000000E+02  0.51100000000E-03 0. -1.
         23    2    1    2    0    0 -0.35527136788E-14 -0.35527136788E-14  0.00000000000E+00  0.91188000000E+02  0.91188000000E+02 0.  0.
    9900012    2    3    3    0    0  0.24576160997E+02 -0.26561126692E+02 -0.68043583760E+01  0.54367076147E+02  0.39999981691E+02 0.  0.
        -12    1    3    3    0    0 -0.24576160997E+02  0.26561126692E+02  0.68043583760E+01  0.36820923853E+02  0.00000000000E+00 0.  1.
         11    1    4    4    0    0  0.79574615755E+01  0.21582826439E+01 -0.10660242512E+02  0.13476652009E+02  0.51100000000E-03 0. -1.
        -11    1    4    4    0    0  0.38431775928E+01 -0.68012438019E+01 -0.94356303419E+01  0.12249818426E+02  0.51100000000E-03 0.  1.
        -12    1    4    4    0    0  0.12775521829E+02 -0.21918165534E+02  0.13291514478E+02  0.28640605711E+02  0.00000000000E+00 0.  1.
</event>
<event>
 8    1  0.2490104E-006  0.9118800E+02  0.7816164E-02  0.1184000E+00
        -11   -1    0    0    0    0  0.00000000000E+00  0.00000000000E+00  0.45593999997E+02  0.45594000000E+02  0.51100000000E-03 0.  1.
         11   -1    0    0    0    0 -0.00000000000E+00 -0.00000000000E+00 -0.45593999997E+02  0.45594000000E+02  0.51100000000E-03 0. -1.
         23    2    1    2    0    0  0.48849813084E-14  0.00000000000E+00  0.00000000000E+00  0.91188000000E+02  0.91188000000E+02 0.  0.
    9900012    2    3    3    0    0 -0.91604282645E+00  0.34390500027E+02  0.13123783550E+02  0.54367091249E+02  0.40000016120E+02 0.  0.
         12    1    3    3    0    0  0.91604282645E+00 -0.34390500027E+02 -0.13123783550E+02  0.36820908751E+02  0.00000000000E+00 0. -1.
         11    1    4    4    0    0  0.18710192252E+02  0.14686801224E+02  0.15525413052E+01  0.23836606492E+02  0.51100000000E-03 0. -1.
        -11    1    4    4    0    0 -0.11555783373E+02  0.12174171934E+02  0.43472494209E+01  0.17339122510E+02  0.51100000000E-03 0.  1.
         12    1    4    4    0    0 -0.80704517054E+01  0.75295268693E+01  0.72239928239E+01  0.13191362247E+02  0.00000000000E+00 0. -1.
</event>
<event>
 8    1  0.2490104E-006  0.9118800E+02  0.7816164E-02  0.1184000E+00
        -11   -1    0    0    0    0  0.00000000000E+00  0.00000000000E+00  0.45593999997E+02  0.45594000000E+02  0.51100000000E-03 0.  1.
         11   -1    0    0    0    0 -0.00000000000E+00 -0.00000000000E+00 -0.45593999997E+02  0.45594000000E+02  0.51100000000E-03 0. -1.
         23    2    1    2    0    0  0.00000000000E+00  0.00000000000E+00 -0.35527136788E-14  0.91188000000E+02  0.91188000000E+02 0.  0.
    9900012    2    3    3    0    0  0.23973623669E+02  0.20490125579E+02  0.19005319849E+02  0.54367054050E+02  0.39999931318E+02 0.  0.
         12    1    3    3    0    0 -0.23973623669E+02 -0.20490125579E+02 -0.19005319849E+02  0.36820945950E+02  0.00000000000E+00 0. -1.
         11    1    4    4    0    0  0.14094377423E+02  0.16206531195E+02  0.12250040384E+02  0.24725828965E+02  0.51100000000E-03 0. -1.
        -11    1    4    4    0    0  0.14584598162E+02  0.11066674916E+02  0.98927232234E+01  0.20809799861E+02  0.51100000000E-03 0.  1.
         12    1    4    4    0    0 -0.47053519152E+01 -0.67830805316E+01 -0.31374437590E+01  0.88314252239E+01  0.00000000000E+00 0. -1.
</event>
<event>
 8    1  0.2490104E-006  0.9118800E+02  0.7816164E-02  0.1184000E+00
        -11   -1    0    0    0    0  0.00000000000E+00  0.00000000000E+00  0.45593999997E+02  0.45594000000E+02  0.51100000000E-03 0. -1.
         11   -1    0    0    0    0 -0.00000000000E+00 -0.00000000000E+00 -0.45593999997E+02  0.45594000000E+02  0.51100000000E-03 0.  1.
         23    2    1    2    0    0  0.17763568394E-14  0.00000000000E+00 -0.28865798640E-14  0.91188000000E+02  0.91188000000E+02 0.  0.
    9900012    2    3    3    0    0  0.11896926816E+02  0.34828382752E+02 -0.11066457206E+01  0.54367112212E+02  0.40000063909E+02 0.  0.
         12    1    3    3    0    0 -0.11896926816E+02 -0.34828382752E+02  0.11066457206E+01  0.36820887788E+02  0.00000000000E+00 0. -1.
         11    1    4    4    0    0 -0.50379325480E+01  0.12364448287E+02  0.97868805269E+01  0.16554255541E+02  0.51100000000E-03 0. -1.
        -11    1    4    4    0    0  0.11671939155E+02  0.18030104896E+02 -0.17924109115E+02  0.27974855389E+02  0.51100000000E-03 0.  1.
        -12    1    4    4    0    0  0.52629202086E+01  0.44338295691E+01  0.70305828675E+01  0.98380012821E+01  0.00000000000E+00 0.  1.
</event>
<event>
 8    1  0.2490104E-006  0.9118800E+02  0.7816164E-02  0.1184000E+00
        -11   -1    0    0    0    0  0.00000000000E+00  0.00000000000E+00  0.45593999997E+02  0.45594000000E+02  0.51100000000E-03 0. -1.
         11   -1    0    0    0    0 -0.00000000000E+00 -0.00000000000E+00 -0.45593999997E+02  0.45594000000E+02  0.51100000000E-03 0.  1.
         23    2    1    2    0    0  0.88817841970E-15 -0.22204460493E-14  0.00000000000E+00  0.91188000000E+02  0.91188000000E+02 0.  0.
    9900012    2    3    3    0    0  0.66960815139E+01 -0.28454347783E+01 -0.36095000249E+02  0.54367040619E+02  0.39999900700E+02 0.  0.
         12    1    3    3    0    0 -0.66960815139E+01  0.28454347783E+01  0.36095000249E+02  0.36820959381E+02  0.00000000000E+00 0. -1.
         11    1    4    4    0    0 -0.65276612530E+01  0.81229140154E+01 -0.77470994521E+00  0.10449510481E+02  0.51100000000E-03 0. -1.
        -11    1    4    4    0    0  0.11263522427E+02  0.23265308699E+01 -0.99506649443E+01  0.15208399536E+02  0.51100000000E-03 0.  1.
        -12    1    4    4    0    0  0.19602203400E+01 -0.13294879664E+02 -0.25369625360E+02  0.28709130602E+02  0.00000000000E+00 0.  1.
</event>
<event>
 8    1  0.2490104E-006  0.9118800E+02  0.7816164E-02  0.1184000E+00
        -11   -1    0    0    0    0  0.00000000000E+00  0.00000000000E+00  0.45593999997E+02  0.45594000000E+02  0.51100000000E-03 0.  1.
         11   -1    0    0    0    0 -0.00000000000E+00 -0.00000000000E+00 -0.45593999997E+02  0.45594000000E+02  0.51100000000E-03 0. -1.
         23    2    1    2    0    0  0.00000000000E+00  0.35527136788E-14 -0.88817841970E-15  0.91188000000E+02  0.91188000000E+02 0.  0.
    9900012    2    3    3    0    0 -0.28709524925E+02 -0.21640124929E+02  0.79529111915E+01  0.54367073549E+02  0.39999975769E+02 0.  0.
         12    1    3    3    0    0  0.28709524925E+02  0.21640124929E+02 -0.79529111915E+01  0.36820926451E+02  0.00000000000E+00 0. -1.
         11    1    4    4    0    0 -0.16884756431E+02 -0.15860451603E+02 -0.36797050158E+01  0.23456111230E+02  0.51100000000E-03 0. -1.
        -11    1    4    4    0    0  0.72274137969E+00  0.87286241420E+01  0.59090580835E+00  0.87784055756E+01  0.51100000000E-03 0.  1.
        -12    1    4    4    0    0 -0.12547509873E+02 -0.14508297468E+02  0.11041710399E+02  0.22132556743E+02  0.00000000000E+00 0.  1.
</event>
<event>
 8    1  0.2490104E-006  0.9118800E+02  0.7816164E-02  0.1184000E+00
        -11   -1    0    0    0    0  0.00000000000E+00  0.00000000000E+00  0.45593999997E+02  0.45594000000E+02  0.51100000000E-03 0. -1.
         11   -1    0    0    0    0 -0.00000000000E+00 -0.00000000000E+00 -0.45593999997E+02  0.45594000000E+02  0.51100000000E-03 0.  1.
         23    2    1    2    0    0  0.00000000000E+00  0.00000000000E+00  0.00000000000E+00  0.91188000000E+02  0.91188000000E+02 0.  0.
    9900012    2    3    3    0    0  0.35054093997E+02  0.97691366361E+01  0.56173404924E+01  0.54367081343E+02  0.39999993537E+02 0.  0.
        -12    1    3    3    0    0 -0.35054093997E+02 -0.97691366361E+01 -0.56173404924E+01  0.36820918657E+02  0.00000000000E+00 0.  1.
         11    1    4    4    0    0  0.66417440528E+01  0.86815491369E+01  0.14104963258E+02  0.17844664420E+02  0.51100000000E-03 0. -1.
        -11    1    4    4    0    0  0.12888279911E+02  0.11101619125E+02 -0.32211547612E+01  0.17312698938E+02  0.51100000000E-03 0.  1.
        -12    1    4    4    0    0  0.15524070033E+02 -0.10014031626E+02 -0.52664680046E+01  0.19209717985E+02  0.00000000000E+00 0.  1.
</event>
<event>
 8    1  0.2490104E-006  0.9118800E+02  0.7816164E-02  0.1184000E+00
        -11   -1    0    0    0    0  0.00000000000E+00  0.00000000000E+00  0.45593999997E+02  0.45594000000E+02  0.51100000000E-03 0. -1.
         11   -1    0    0    0    0 -0.00000000000E+00 -0.00000000000E+00 -0.45593999997E+02  0.45594000000E+02  0.51100000000E-03 0.  1.
         23    2    1    2    0    0  0.00000000000E+00  0.88817841970E-15  0.35527136788E-14  0.91188000000E+02  0.91188000000E+02 0.  0.
    9900012    2    3    3    0    0  0.32947030474E+02  0.58604661687E+01 -0.15359963645E+02  0.54367077090E+02  0.39999983841E+02 0.  0.
         12    1    3    3    0    0 -0.32947030474E+02 -0.58604661687E+01  0.15359963645E+02  0.36820922910E+02  0.00000000000E+00 0. -1.
         11    1    4    4    0    0  0.12825646983E+02  0.60003266156E+01 -0.38560412006E+01  0.14675496381E+02  0.51100000000E-03 0. -1.
        -11    1    4    4    0    0  0.26131140989E+01  0.23388883002E+01 -0.19836277950E+02  0.20143899497E+02  0.51100000000E-03 0.  1.
        -12    1    4    4    0    0  0.17508269393E+02 -0.24787487470E+01  0.83323555061E+01  0.19547681212E+02  0.00000000000E+00 0.  1.
</event>
<event>
 8    1  0.2490104E-006  0.9118800E+02  0.7816164E-02  0.1184000E+00
        -11   -1    0    0    0    0  0.00000000000E+00  0.00000000000E+00  0.45593999997E+02  0.45594000000E+02  0.51100000000E-03 0.  1.
         11   -1    0    0    0    0 -0.00000000000E+00 -0.00000000000E+00 -0.45593999997E+02  0.45594000000E+02  0.51100000000E-03 0. -1.
         23    2    1    2    0    0 -0.88817841970E-15  0.00000000000E+00  0.00000000000E+00  0.91188000000E+02  0.91188000000E+02 0.  0.
    9900012    2    3    3    0    0 -0.44919886478E+01 -0.19371918592E+02  0.30989185410E+02  0.54367098269E+02  0.40000032123E+02 0.  0.
         12    1    3    3    0    0  0.44919886478E+01  0.19371918592E+02 -0.30989185410E+02  0.36820901731E+02  0.00000000000E+00 0. -1.
         11    1    4    4    0    0  0.74609820032E+01 -0.91832424209E+01 -0.21434315173E+01  0.12024661856E+02  0.51100000000E-03 0. -1.
        -11    1    4    4    0    0 -0.47583713027E+01 -0.15383025063E+02  0.14347539787E+02  0.21566906495E+02  0.51100000000E-03 0.  1.
        -12    1    4    4    0    0 -0.71945993483E+01  0.51943488928E+01  0.18785077141E+02  0.20775529918E+02  0.00000000000E+00 0.  1.
</event>
<event>
 8    1  0.2490104E-006  0.9118800E+02  0.7816164E-02  0.1184000E+00
        -11   -1    0    0    0    0  0.00000000000E+00  0.00000000000E+00  0.45593999997E+02  0.45594000000E+02  0.51100000000E-03 0.  1.
         11   -1    0    0    0    0 -0.00000000000E+00 -0.00000000000E+00 -0.45593999997E+02  0.45594000000E+02  0.51100000000E-03 0. -1.
         23    2    1    2    0    0  0.00000000000E+00 -0.13322676296E-14  0.00000000000E+00  0.91188000000E+02  0.91188000000E+02 0.  0.
    9900012    2    3    3    0    0  0.99639923598E+01  0.24755764244E+01  0.35360558143E+02  0.54367099759E+02  0.40000035521E+02 0.  0.
         12    1    3    3    0    0 -0.99639923598E+01 -0.24755764244E+01 -0.35360558143E+02  0.36820900241E+02  0.00000000000E+00 0. -1.
         11    1    4    4    0    0 -0.39103825746E+01  0.11244404331E+02  0.53883594869E+01  0.13067598818E+02  0.51100000000E-03 0. -1.
        -11    1    4    4    0    0  0.71685556819E+01 -0.16490413134E+02  0.21429513916E+02  0.27974023358E+02  0.51100000000E-03 0.  1.
         12    1    4    4    0    0  0.67058192525E+01  0.77215852269E+01  0.85426847399E+01  0.13325477583E+02  0.00000000000E+00 0. -1.
</event>
<event>
 8    1  0.2490104E-006  0.9118800E+02  0.7816164E-02  0.1184000E+00
        -11   -1    0    0    0    0  0.00000000000E+00  0.00000000000E+00  0.45593999997E+02  0.45594000000E+02  0.51100000000E-03 0.  1.
         11   -1    0    0    0    0 -0.00000000000E+00 -0.00000000000E+00 -0.45593999997E+02  0.45594000000E+02  0.51100000000E-03 0. -1.
         23    2    1    2    0    0 -0.88817841970E-15  0.00000000000E+00  0.00000000000E+00  0.91188000000E+02  0.91188000000E+02 0.  0.
    9900012    2    3    3    0    0 -0.64115856132E+01 -0.18738798843E+02 -0.31040761498E+02  0.54367083573E+02  0.39999998621E+02 0.  0.
        -12    1    3    3    0    0  0.64115856132E+01  0.18738798843E+02  0.31040761498E+02  0.36820916427E+02  0.00000000000E+00 0.  1.
         11    1    4    4    0    0  0.55986838420E+01  0.75026000139E+01  0.29730612876E-01  0.93613648525E+01  0.51100000000E-03 0. -1.
        -11    1    4    4    0    0  0.16528140974E+01 -0.33928707404E+01  0.38855572083E+00  0.37939876266E+01  0.51100000000E-03 0.  1.
         12    1    4    4    0    0 -0.13663083553E+02 -0.22848528116E+02 -0.31459047832E+02  0.41211731094E+02  0.00000000000E+00 0. -1.
</event>
<event>
 8    1  0.2490104E-006  0.9118800E+02  0.7816164E-02  0.1184000E+00
        -11   -1    0    0    0    0  0.00000000000E+00  0.00000000000E+00  0.45593999997E+02  0.45594000000E+02  0.51100000000E-03 0. -1.
         11   -1    0    0    0    0 -0.00000000000E+00 -0.00000000000E+00 -0.45593999997E+02  0.45594000000E+02  0.51100000000E-03 0.  1.
         23    2    1    2    0    0  0.00000000000E+00 -0.44408920985E-15 -0.35527136788E-14  0.91188000000E+02  0.91188000000E+02 0.  0.
    9900012    2    3    3    0    0 -0.20139863578E+02 -0.37092088541E+01 -0.30600779744E+02  0.54367081269E+02  0.39999993370E+02 0.  0.
         12    1    3    3    0    0  0.20139863578E+02  0.37092088541E+01  0.30600779744E+02  0.36820918731E+02  0.00000000000E+00 0. -1.
         11    1    4    4    0    0  0.58874618674E+01  0.80747741410E+01 -0.90814990484E+00  0.10034386936E+02  0.51100000000E-03 0. -1.
        -11    1    4    4    0    0 -0.10447624766E+01  0.19452172022E+00 -0.10675271957E+02  0.10728037982E+02  0.51100000000E-03 0.  1.
        -12    1    4    4    0    0 -0.24982562968E+02 -0.11978504715E+02 -0.19017357882E+02  0.33604656351E+02  0.00000000000E+00 0.  1.
</event>
<event>
 8    1  0.2490104E-006  0.9118800E+02  0.7816164E-02  0.1184000E+00
        -11   -1    0    0    0    0  0.00000000000E+00  0.00000000000E+00  0.45593999997E+02  0.45594000000E+02  0.51100000000E-03 0.  1.
         11   -1    0    0    0    0 -0.00000000000E+00 -0.00000000000E+00 -0.45593999997E+02  0.45594000000E+02  0.51100000000E-03 0. -1.
         23    2    1    2    0    0 -0.17763568394E-14 -0.88817841970E-15  0.00000000000E+00  0.91188000000E+02  0.91188000000E+02 0.  0.
    9900012    2    3    3    0    0 -0.76891238984E+01 -0.73233624436E+01  0.35256561672E+02  0.54367090115E+02  0.40000013535E+02 0.  0.
         12    1    3    3    0    0  0.76891238984E+01  0.73233624436E+01 -0.35256561672E+02  0.36820909885E+02  0.00000000000E+00 0. -1.
         11    1    4    4    0    0 -0.12904938467E+01 -0.17827325874E+01  0.81024394856E+01  0.83960130851E+01  0.51100000000E-03 0. -1.
        -11    1    4    4    0    0 -0.17551099561E+02  0.40338479415E+01  0.25445547393E+02  0.31173528953E+02  0.51100000000E-03 0.  1.
         12    1    4    4    0    0  0.11152469509E+02 -0.95744777978E+01  0.17085747933E+01  0.14797548077E+02  0.00000000000E+00 0. -1.
</event>
<event>
 8    1  0.2490104E-006  0.9118800E+02  0.7816164E-02  0.1184000E+00
        -11   -1    0    0    0    0  0.00000000000E+00  0.00000000000E+00  0.45593999997E+02  0.45594000000E+02  0.51100000000E-03 0.  1.
         11   -1    0    0    0    0 -0.00000000000E+00 -0.00000000000E+00 -0.45593999997E+02  0.45594000000E+02  0.51100000000E-03 0. -1.
         23    2    1    2    0    0 -0.35527136788E-14  0.17763568394E-14  0.00000000000E+00  0.91188000000E+02  0.91188000000E+02 0.  0.
    9900012    2    3    3    0    0  0.16920129003E+02  0.11710991195E+02 -0.30534251404E+02  0.54367101191E+02  0.40000038786E+02 0.  0.
        -12    1    3    3    0    0 -0.16920129003E+02 -0.11710991195E+02  0.30534251404E+02  0.36820898809E+02  0.00000000000E+00 0.  1.
         11    1    4    4    0    0  0.33120597180E+01 -0.39330283964E+01 -0.27487608642E+01  0.58304492531E+01  0.51100000000E-03 0. -1.
        -11    1    4    4    0    0 -0.16232945928E+01 -0.91213405240E+01 -0.15862265841E+01  0.93994709068E+01  0.51100000000E-03 0.  1.
         12    1    4    4    0    0  0.15231363878E+02  0.24765360116E+02 -0.26199263956E+02  0.39137181031E+02  0.00000000000E+00 0. -1.
</event>
<event>
 8    1  0.2490104E-006  0.9118800E+02  0.7816164E-02  0.1184000E+00
        -11   -1    0    0    0    0  0.00000000000E+00  0.00000000000E+00  0.45593999997E+02  0.45594000000E+02  0.51100000000E-03 0. -1.
         11   -1    0    0    0    0 -0.00000000000E+00 -0.00000000000E+00 -0.45593999997E+02  0.45594000000E+02  0.51100000000E-03 0.  1.
         23    2    1    2    0    0  0.17763568394E-14 -0.88817841970E-15 -0.71054273576E-14  0.91188000000E+02  0.91188000000E+02 0.  0.
    9900012    2    3    3    0    0  0.66543323273E+01  0.47542579825E+01  0.35901205697E+02  0.54367086402E+02  0.40000005070E+02 0.  0.
        -12    1    3    3    0    0 -0.66543323273E+01 -0.47542579825E+01 -0.35901205697E+02  0.36820913598E+02  0.00000000000E+00 0.  1.
         11    1    4    4    0    0 -0.32927654634E+01  0.17539990377E+02  0.15187587902E+02  0.23434086143E+02  0.51100000000E-03 0. -1.
        -11    1    4    4    0    0  0.24810727532E+01  0.33462964527E+01  0.80401526766E+00  0.42426245141E+01  0.51100000000E-03 0.  1.
        -12    1    4    4    0    0  0.74660250376E+01 -0.16132028847E+02  0.19909602528E+02  0.26690375745E+02  0.00000000000E+00 0.  1.
</event>
<event>
 8    1  0.2490104E-006  0.9118800E+02  0.7816164E-02  0.1184000E+00
        -11   -1    0    0    0    0  0.00000000000E+00  0.00000000000E+00  0.45593999997E+02  0.45594000000E+02  0.51100000000E-03 0. -1.
         11   -1    0    0    0    0 -0.00000000000E+00 -0.00000000000E+00 -0.45593999997E+02  0.45594000000E+02  0.51100000000E-03 0.  1.
         23    2    1    2    0    0  0.00000000000E+00  0.35527136788E-14 -0.35527136788E-14  0.91188000000E+02  0.91188000000E+02 0.  0.
    9900012    2    3    3    0    0  0.40988767870E+01 -0.28122232443E+02  0.23411966155E+02  0.54367069705E+02  0.39999967007E+02 0.  0.
        -12    1    3    3    0    0 -0.40988767870E+01  0.28122232443E+02 -0.23411966155E+02  0.36820930295E+02  0.00000000000E+00 0.  1.
         11    1    4    4    0    0 -0.22796460168E+01 -0.17860919374E+02 -0.62135244369E+01  0.19047758741E+02  0.51100000000E-03 0. -1.
        -11    1    4    4    0    0  0.10003520624E+02 -0.99256416413E+01  0.16502531606E+02  0.21700745068E+02  0.51100000000E-03 0.  1.
         12    1    4    4    0    0 -0.36249978203E+01 -0.33567142776E+00  0.13122958987E+02  0.13618565896E+02  0.00000000000E+00 0. -1.
</event>
<event>
 8    1  0.2490104E-006  0.9118800E+02  0.7816164E-02  0.1184000E+00
        -11   -1    0    0    0    0  0.00000000000E+00  0.00000000000E+00  0.45593999997E+02  0.45594000000E+02  0.51100000000E-03 0. -1.
         11   -1    0    0    0    0 -0.00000000000E+00 -0.00000000000E+00 -0.45593999997E+02  0.45594000000E+02  0.51100000000E-03 0.  1.
         23    2    1    2    0    0  0.88817841970E-15  0.71054273576E-14  0.88817841970E-15  0.91188000000E+02  0.91188000000E+02 0.  0.
    9900012    2    3    3    0    0  0.46845662295E+01  0.36340635065E+02  0.36321375282E+01  0.54367090984E+02  0.40000015517E+02 0.  0.
         12    1    3    3    0    0 -0.46845662295E+01 -0.36340635065E+02 -0.36321375282E+01  0.36820909016E+02  0.00000000000E+00 0. -1.
         11    1    4    4    0    0 -0.22688921190E+01 -0.44987043437E+01 -0.27922157345E+01  0.57604410585E+01  0.51100000000E-03 0. -1.
        -11    1    4    4    0    0  0.35434177981E+01 -0.31366103777E+00 -0.46488460496E+01  0.58537135899E+01  0.51100000000E-03 0.  1.
         12    1    4    4    0    0  0.34100405504E+01  0.41153000447E+02  0.11073199312E+02  0.42752936336E+02  0.00000000000E+00 0. -1.
</event>
<event>
 8    1  0.2490104E-006  0.9118800E+02  0.7816164E-02  0.1184000E+00
        -11   -1    0    0    0    0  0.00000000000E+00  0.00000000000E+00  0.45593999997E+02  0.45594000000E+02  0.51100000000E-03 0.  1.
         11   -1    0    0    0    0 -0.00000000000E+00 -0.00000000000E+00 -0.45593999997E+02  0.45594000000E+02  0.51100000000E-03 0. -1.
         23    2    1    2    0    0  0.00000000000E+00  0.00000000000E+00  0.17763568394E-14  0.91188000000E+02  0.91188000000E+02 0.  0.
    9900012    2    3    3    0    0 -0.32185370778E+02 -0.12694680257E+02 -0.12598758271E+02  0.54367058827E+02  0.39999942207E+02 0.  0.
        -12    1    3    3    0    0  0.32185370778E+02  0.12694680257E+02  0.12598758271E+02  0.36820941173E+02  0.00000000000E+00 0.  1.
         11    1    4    4    0    0 -0.16681387685E+02  0.39168500563E+01  0.10346543118E+02  0.20016527276E+02  0.51100000000E-03 0. -1.
        -11    1    4    4    0    0 -0.77403488638E+01 -0.12688243887E+02 -0.75567411216E+01  0.16673597995E+02  0.51100000000E-03 0.  1.
        -12    1    4    4    0    0 -0.77636342288E+01 -0.39232864264E+01 -0.15388560267E+02  0.17676933555E+02  0.00000000000E+00 0.  1.
</event>
<event>
 8    1  0.2490104E-006  0.9118800E+02  0.7816164E-02  0.1184000E+00
        -11   -1    0    0    0    0  0.00000000000E+00  0.00000000000E+00  0.45593999997E+02  0.45594000000E+02  0.51100000000E-03 0. -1.
         11   -1    0    0    0    0 -0.00000000000E+00 -0.00000000000E+00 -0.45593999997E+02  0.45594000000E+02  0.51100000000E-03 0.  1.
         23    2    1    2    0    0  0.71054273576E-14 -0.17763568394E-14  0.88817841970E-15  0.91188000000E+02  0.91188000000E+02 0.  0.
    9900012    2    3    3    0    0  0.32938203749E+02 -0.14527988861E+02 -0.77327473789E+01  0.54367039820E+02  0.39999898877E+02 0.  0.
        -12    1    3    3    0    0 -0.32938203749E+02  0.14527988861E+02  0.77327473789E+01  0.36820960180E+02  0.00000000000E+00 0.  1.
         11    1    4    4    0    0  0.57236316639E+01 -0.81487747148E+01 -0.17496482353E+02  0.20131800311E+02  0.51100000000E-03 0. -1.
        -11    1    4    4    0    0  0.15464966546E+02  0.52003373183E+01  0.47294678329E+01  0.16987541457E+02  0.51100000000E-03 0.  1.
         12    1    4    4    0    0  0.11749605539E+02 -0.11579551465E+02  0.50342671415E+01  0.17247698052E+02  0.00000000000E+00 0. -1.
</event>
<event>
 8    1  0.2490104E-006  0.9118800E+02  0.7816164E-02  0.1184000E+00
        -11   -1    0    0    0    0  0.00000000000E+00  0.00000000000E+00  0.45593999997E+02  0.45594000000E+02  0.51100000000E-03 0.  1.
         11   -1    0    0    0    0 -0.00000000000E+00 -0.00000000000E+00 -0.45593999997E+02  0.45594000000E+02  0.51100000000E-03 0. -1.
         23    2    1    2    0    0  0.00000000000E+00  0.00000000000E+00  0.71054273576E-14  0.91188000000E+02  0.91188000000E+02 0.  0.
    9900012    2    3    3    0    0 -0.14566195912E+02  0.47481356150E+01  0.33482241466E+02  0.54367090875E+02  0.40000015269E+02 0.  0.
         12    1    3    3    0    0  0.14566195912E+02 -0.47481356150E+01 -0.33482241466E+02  0.36820909125E+02  0.00000000000E+00 0. -1.
         11    1    4    4    0    0  0.94818719582E+01 -0.58324320198E+01  0.13383687895E+02  0.17408223948E+02  0.51100000000E-03 0. -1.
        -11    1    4    4    0    0 -0.11814336297E+01 -0.29952686151E+01 -0.58072065332E+00  0.32717970958E+01  0.51100000000E-03 0.  1.
        -12    1    4    4    0    0 -0.22866634240E+02  0.13575836250E+02  0.20679274224E+02  0.33687069831E+02  0.00000000000E+00 0.  1.
</event>
<event>
 8    1  0.2490104E-006  0.9118800E+02  0.7816164E-02  0.1184000E+00
        -11   -1    0    0    0    0  0.00000000000E+00  0.00000000000E+00  0.45593999997E+02  0.45594000000E+02  0.51100000000E-03 0.  1.
         11   -1    0    0    0    0 -0.00000000000E+00 -0.00000000000E+00 -0.45593999997E+02  0.45594000000E+02  0.51100000000E-03 0. -1.
         23    2    1    2    0    0  0.44408920985E-15  0.71054273576E-14 -0.17763568394E-14  0.91188000000E+02  0.91188000000E+02 0.  0.
    9900012    2    3    3    0    0  0.22557839498E+01  0.35176395387E+02 -0.10644835893E+02  0.54367083596E+02  0.39999998673E+02 0.  0.
         12    1    3    3    0    0 -0.22557839498E+01 -0.35176395387E+02  0.10644835893E+02  0.36820916404E+02  0.00000000000E+00 0. -1.
         11    1    4    4    0    0  0.42714370942E+01  0.11574802325E+02 -0.19280145405E+02  0.22889849952E+02  0.51100000000E-03 0. -1.
        -11    1    4    4    0    0 -0.62195694202E+01  0.24137226930E+02  0.40833904658E+01  0.25257926392E+02  0.51100000000E-03 0.  1.
         12    1    4    4    0    0  0.42039162758E+01 -0.53563386811E+00  0.45519190459E+01  0.62193072520E+01  0.00000000000E+00 0. -1.
</event>
<event>
 8    1  0.2490104E-006  0.9118800E+02  0.7816164E-02  0.1184000E+00
        -11   -1    0    0    0    0  0.00000000000E+00  0.00000000000E+00  0.45593999997E+02  0.45594000000E+02  0.51100000000E-03 0.  1.
         11   -1    0    0    0    0 -0.00000000000E+00 -0.00000000000E+00 -0.45593999997E+02  0.45594000000E+02  0.51100000000E-03 0. -1.
         23    2    1    2    0    0  0.00000000000E+00  0.00000000000E+00  0.88817841970E-15  0.91188000000E+02  0.91188000000E+02 0.  0.
    9900012    2    3    3    0    0 -0.31209735340E+02  0.17845685105E+02 -0.79538575019E+01  0.54367083309E+02  0.39999998019E+02 0.  0.
         12    1    3    3    0    0  0.31209735340E+02 -0.17845685105E+02  0.79538575019E+01  0.36820916691E+02  0.00000000000E+00 0. -1.
         11    1    4    4    0    0  0.46666551460E+00 -0.87286244687E+01  0.15260351949E+01  0.88732995833E+01  0.51100000000E-03 0. -1.
        -11    1    4    4    0    0 -0.15585735278E+02  0.22584618138E+02 -0.91050836961E+01  0.28911635546E+02  0.51100000000E-03 0.  1.
         12    1    4    4    0    0 -0.16090665577E+02  0.39896914356E+01 -0.37480900059E+00  0.16582148179E+02  0.00000000000E+00 0. -1.
</event>
<event>
 8    1  0.2490104E-006  0.9118800E+02  0.7816164E-02  0.1184000E+00
        -11   -1    0    0    0    0  0.00000000000E+00  0.00000000000E+00  0.45593999997E+02  0.45594000000E+02  0.51100000000E-03 0.  1.
         11   -1    0    0    0    0 -0.00000000000E+00 -0.00000000000E+00 -0.45593999997E+02  0.45594000000E+02  0.51100000000E-03 0. -1.
         23    2    1    2    0    0  0.17763568394E-14  0.00000000000E+00  0.17763568394E-14  0.91188000000E+02  0.91188000000E+02 0.  0.
    9900012    2    3    3    0    0  0.72740158738E+01 -0.34992399261E+02  0.88544381830E+01  0.54367076756E+02  0.39999983081E+02 0.  0.
         12    1    3    3    0    0 -0.72740158738E+01  0.34992399261E+02 -0.88544381830E+01  0.36820923244E+02  0.00000000000E+00 0. -1.
         11    1    4    4    0    0  0.13327877066E+02 -0.22079863950E+02 -0.60896141495E+01  0.26499737733E+02  0.51100000000E-03 0. -1.
        -11    1    4    4    0    0  0.63580939437E+01 -0.25240546465E+01  0.19562708052E+01  0.71149986774E+01  0.51100000000E-03 0.  1.
        -12    1    4    4    0    0 -0.12411955136E+02 -0.10388480664E+02  0.12987781527E+02  0.20752340346E+02  0.00000000000E+00 0.  1.
</event>
<event>
 8    1  0.2490104E-006  0.9118800E+02  0.7816164E-02  0.1184000E+00
        -11   -1    0    0    0    0  0.00000000000E+00  0.00000000000E+00  0.45593999997E+02  0.45594000000E+02  0.51100000000E-03 0.  1.
         11   -1    0    0    0    0 -0.00000000000E+00 -0.00000000000E+00 -0.45593999997E+02  0.45594000000E+02  0.51100000000E-03 0. -1.
         23    2    1    2    0    0  0.00000000000E+00  0.00000000000E+00  0.00000000000E+00  0.91188000000E+02  0.91188000000E+02 0.  0.
    9900012    2    3    3    0    0  0.10539194657E+02 -0.11523862057E+02 -0.33345279105E+02  0.54367059500E+02  0.39999943742E+02 0.  0.
        -12    1    3    3    0    0 -0.10539194657E+02  0.11523862057E+02  0.33345279105E+02  0.36820940500E+02  0.00000000000E+00 0.  1.
         11    1    4    4    0    0  0.82392134221E+01 -0.48453707844E+01 -0.30511259823E+02  0.31973414458E+02  0.51100000000E-03 0. -1.
        -11    1    4    4    0    0  0.11598951576E+02 -0.19028903865E+01 -0.12399191425E+01  0.11819224562E+02  0.51100000000E-03 0.  1.
         12    1    4    4    0    0 -0.92989703417E+01 -0.47756008865E+01 -0.15941001395E+01  0.10574420480E+02  0.00000000000E+00 0. -1.
</event>
<event>
 8    1  0.2490104E-006  0.9118800E+02  0.7816164E-02  0.1184000E+00
        -11   -1    0    0    0    0  0.00000000000E+00  0.00000000000E+00  0.45593999997E+02  0.45594000000E+02  0.51100000000E-03 0.  1.
         11   -1    0    0    0    0 -0.00000000000E+00 -0.00000000000E+00 -0.45593999997E+02  0.45594000000E+02  0.51100000000E-03 0. -1.
         23    2    1    2    0    0 -0.24424906542E-14  0.00000000000E+00  0.00000000000E+00  0.91188000000E+02  0.91188000000E+02 0.  0.
    9900012    2    3    3    0    0  0.14482725147E+01 -0.35134820503E+02 -0.10919111670E+02  0.54367080610E+02  0.39999991866E+02 0.  0.
        -12    1    3    3    0    0 -0.14482725147E+01  0.35134820503E+02  0.10919111670E+02  0.36820919390E+02  0.00000000000E+00 0.  1.
         11    1    4    4    0    0 -0.73318564963E+01 -0.14761361222E+01 -0.46942337953E+00  0.74936944229E+01  0.51100000000E-03 0. -1.
        -11    1    4    4    0    0  0.18297063286E+02 -0.22874003651E+02 -0.34202907964E+00  0.29293677681E+02  0.51100000000E-03 0.  1.
        -12    1    4    4    0    0 -0.95169342750E+01 -0.10784680730E+02 -0.10107659211E+02  0.17579708506E+02  0.00000000000E+00 0.  1.
</event>
<event>
 8    1  0.2490104E-006  0.9118800E+02  0.7816164E-02  0.1184000E+00
        -11   -1    0    0    0    0  0.00000000000E+00  0.00000000000E+00  0.45593999997E+02  0.45594000000E+02  0.51100000000E-03 0.  1.
         11   -1    0    0    0    0 -0.00000000000E+00 -0.00000000000E+00 -0.45593999997E+02  0.45594000000E+02  0.51100000000E-03 0. -1.
         23    2    1    2    0    0  0.35527136788E-14  0.00000000000E+00  0.00000000000E+00  0.91188000000E+02  0.91188000000E+02 0.  0.
    9900012    2    3    3    0    0  0.29839045594E+02 -0.19924940515E+02  0.82708751058E+01  0.54367091925E+02  0.40000017660E+02 0.  0.
         12    1    3    3    0    0 -0.29839045594E+02  0.19924940515E+02 -0.82708751058E+01  0.36820908075E+02  0.00000000000E+00 0. -1.
         11    1    4    4    0    0  0.97610246581E+01 -0.16834729934E+01  0.13194962946E+02  0.16499052430E+02  0.51100000000E-03 0. -1.
        -11    1    4    4    0    0 -0.62534719838E+01 -0.49139412021E+01 -0.32707311787E-01  0.79532257618E+01  0.51100000000E-03 0.  1.
        -12    1    4    4    0    0  0.26331492920E+02 -0.13327526319E+02 -0.48913805281E+01  0.29914813732E+02  0.00000000000E+00 0.  1.
</event>
<event>
 8    1  0.2490104E-006  0.9118800E+02  0.7816164E-02  0.1184000E+00
        -11   -1    0    0    0    0  0.00000000000E+00  0.00000000000E+00  0.45593999997E+02  0.45594000000E+02  0.51100000000E-03 0.  1.
         11   -1    0    0    0    0 -0.00000000000E+00 -0.00000000000E+00 -0.45593999997E+02  0.45594000000E+02  0.51100000000E-03 0. -1.
         23    2    1    2    0    0  0.44408920985E-15  0.00000000000E+00  0.35527136788E-14  0.91188000000E+02  0.91188000000E+02 0.  0.
    9900012    2    3    3    0    0 -0.18006308896E+01 -0.29031902630E+02  0.22576228931E+02  0.54367085364E+02  0.40000002704E+02 0.  0.
         12    1    3    3    0    0  0.18006308896E+01  0.29031902630E+02 -0.22576228931E+02  0.36820914636E+02  0.00000000000E+00 0. -1.
         11    1    4    4    0    0  0.10717558585E+01  0.65968061509E+00 -0.83772034255E+01  0.84712086875E+01  0.51100000000E-03 0. -1.
        -11    1    4    4    0    0 -0.51606392735E+01 -0.33002880479E+01  0.15487163407E+01  0.63184350496E+01  0.51100000000E-03 0.  1.
        -12    1    4    4    0    0  0.22882525254E+01 -0.26391295197E+02  0.29404716015E+02  0.39577441627E+02  0.00000000000E+00 0.  1.
</event>
<event>
 8    1  0.2490104E-006  0.9118800E+02  0.7816164E-02  0.1184000E+00
        -11   -1    0    0    0    0  0.00000000000E+00  0.00000000000E+00  0.45593999997E+02  0.45594000000E+02  0.51100000000E-03 0. -1.
         11   -1    0    0    0    0 -0.00000000000E+00 -0.00000000000E+00 -0.45593999997E+02  0.45594000000E+02  0.51100000000E-03 0.  1.
         23    2    1    2    0    0 -0.17763568394E-14  0.00000000000E+00  0.00000000000E+00  0.91188000000E+02  0.91188000000E+02 0.  0.
    9900012    2    3    3    0    0  0.14291696669E+02  0.17507903149E+02  0.29068897009E+02  0.54367081493E+02  0.39999993880E+02 0.  0.
        -12    1    3    3    0    0 -0.14291696669E+02 -0.17507903149E+02 -0.29068897009E+02  0.36820918507E+02  0.00000000000E+00 0.  1.
         11    1    4    4    0    0  0.13380228837E+02  0.13322634792E+02  0.32415101929E+02  0.37513490305E+02  0.51100000000E-03 0. -1.
        -11    1    4    4    0    0 -0.73750406331E+01  0.15398765166E+01 -0.12289971455E-02  0.75340855980E+01  0.51100000000E-03 0.  1.
        -12    1    4    4    0    0  0.82865084646E+01  0.26453918402E+01 -0.33449759224E+01  0.93195055901E+01  0.00000000000E+00 0.  1.
</event>
<event>
 8    1  0.2490104E-006  0.9118800E+02  0.7816164E-02  0.1184000E+00
        -11   -1    0    0    0    0  0.00000000000E+00  0.00000000000E+00  0.45593999997E+02  0.45594000000E+02  0.51100000000E-03 0. -1.
         11   -1    0    0    0    0 -0.00000000000E+00 -0.00000000000E+00 -0.45593999997E+02  0.45594000000E+02  0.51100000000E-03 0.  1.
         23    2    1    2    0    0 -0.35527136788E-14  0.15543122345E-14  0.00000000000E+00  0.91188000000E+02  0.91188000000E+02 0.  0.
    9900012    2    3    3    0    0  0.26806576369E+02 -0.75334236677E+00  0.25231330596E+02  0.54367080606E+02  0.39999991858E+02 0.  0.
         12    1    3    3    0    0 -0.26806576369E+02  0.75334236677E+00 -0.25231330596E+02  0.36820919394E+02  0.00000000000E+00 0. -1.
         11    1    4    4    0    0 -0.51887280805E+01 -0.91697310020E+00  0.97634707943E+00  0.53588238112E+01  0.51100000000E-03 0. -1.
        -11    1    4    4    0    0  0.67534693581E+01  0.67510758917E+01  0.20548603844E+02  0.22659026773E+02  0.51100000000E-03 0.  1.
        -12    1    4    4    0    0  0.25241835091E+02 -0.65874451583E+01  0.37063796724E+01  0.26349230022E+02  0.00000000000E+00 0.  1.
</event>
<event>
 8    1  0.2490104E-006  0.9118800E+02  0.7816164E-02  0.1184000E+00
        -11   -1    0    0    0    0  0.00000000000E+00  0.00000000000E+00  0.45593999997E+02  0.45594000000E+02  0.51100000000E-03 0. -1.
         11   -1    0    0    0    0 -0.00000000000E+00 -0.00000000000E+00 -0.45593999997E+02  0.45594000000E+02  0.51100000000E-03 0.  1.
         23    2    1    2    0    0  0.00000000000E+00  0.00000000000E+00  0.00000000000E+00  0.91188000000E+02  0.91188000000E+02 0.  0.
    9900012    2    3    3    0    0  0.24523404311E+02 -0.19487707879E+02  0.19354869287E+02  0.54367094491E+02  0.40000023512E+02 0.  0.
        -12    1    3    3    0    0 -0.24523404311E+02  0.19487707879E+02 -0.19354869287E+02  0.36820905509E+02  0.00000000000E+00 0.  1.
         11    1    4    4    0    0  0.46876181251E+01 -0.12787232703E+02  0.16281327166E+02  0.21226603554E+02  0.51100000000E-03 0. -1.
        -11    1    4    4    0    0  0.25445412056E+02 -0.17839200902E+01  0.17798789572E+01  0.25569891179E+02  0.51100000000E-03 0.  1.
        -12    1    4    4    0    0 -0.56096258697E+01 -0.49165550864E+01  0.12936631632E+01  0.75705997580E+01  0.00000000000E+00 0.  1.
</event>
<event>
 8    1  0.2490104E-006  0.9118800E+02  0.7816164E-02  0.1184000E+00
        -11   -1    0    0    0    0  0.00000000000E+00  0.00000000000E+00  0.45593999997E+02  0.45594000000E+02  0.51100000000E-03 0. -1.
         11   -1    0    0    0    0 -0.00000000000E+00 -0.00000000000E+00 -0.45593999997E+02  0.45594000000E+02  0.51100000000E-03 0.  1.
         23    2    1    2    0    0 -0.35527136788E-14 -0.88817841970E-15 -0.35527136788E-14  0.91188000000E+02  0.91188000000E+02 0.  0.
    9900012    2    3    3    0    0  0.23188098864E+02  0.54878388352E+01 -0.28070909760E+02  0.54367078247E+02  0.39999986479E+02 0.  0.
         12    1    3    3    0    0 -0.23188098864E+02 -0.54878388352E+01  0.28070909760E+02  0.36820921753E+02  0.00000000000E+00 0. -1.
         11    1    4    4    0    0 -0.64539499530E+01  0.43785384154E+01  0.41872815763E+01  0.88520277853E+01  0.51100000000E-03 0. -1.
        -11    1    4    4    0    0  0.21598784133E+02 -0.25199482961E+00 -0.14623176391E+02  0.26084636579E+02  0.51100000000E-03 0.  1.
         12    1    4    4    0    0  0.80432646839E+01  0.13612952494E+01 -0.17635014945E+02  0.19430413883E+02  0.00000000000E+00 0. -1.
</event>
<event>
 8    1  0.2490104E-006  0.9118800E+02  0.7816164E-02  0.1184000E+00
        -11   -1    0    0    0    0  0.00000000000E+00  0.00000000000E+00  0.45593999997E+02  0.45594000000E+02  0.51100000000E-03 0.  1.
         11   -1    0    0    0    0 -0.00000000000E+00 -0.00000000000E+00 -0.45593999997E+02  0.45594000000E+02  0.51100000000E-03 0. -1.
         23    2    1    2    0    0 -0.17763568394E-14  0.35527136788E-14  0.35527136788E-14  0.91188000000E+02  0.91188000000E+02 0.  0.
    9900012    2    3    3    0    0  0.10160533625E+02  0.22149136529E+02 -0.27603617128E+02  0.54367076993E+02  0.39999983622E+02 0.  0.
        -12    1    3    3    0    0 -0.10160533625E+02 -0.22149136529E+02  0.27603617128E+02  0.36820923007E+02  0.00000000000E+00 0.  1.
         11    1    4    4    0    0  0.68081768977E+01  0.15081462691E+02 -0.10685065499E+02  0.19697015372E+02  0.51100000000E-03 0. -1.
        -11    1    4    4    0    0  0.12928884157E+02 -0.48656341937E+01 -0.33380528620E+01  0.14211721881E+02  0.51100000000E-03 0.  1.
        -12    1    4    4    0    0 -0.95765274299E+01  0.11933308032E+02 -0.13580498767E+02  0.20458339741E+02  0.00000000000E+00 0.  1.
</event>
<event>
 8    1  0.2490104E-006  0.9118800E+02  0.7816164E-02  0.1184000E+00
        -11   -1    0    0    0    0  0.00000000000E+00  0.00000000000E+00  0.45593999997E+02  0.45594000000E+02  0.51100000000E-03 0. -1.
         11   -1    0    0    0    0 -0.00000000000E+00 -0.00000000000E+00 -0.45593999997E+02  0.45594000000E+02  0.51100000000E-03 0.  1.
         23    2    1    2    0    0  0.35527136788E-14  0.00000000000E+00  0.00000000000E+00  0.91188000000E+02  0.91188000000E+02 0.  0.
    9900012    2    3    3    0    0  0.17133625776E+02 -0.10958788947E+01  0.32573286023E+02  0.54367067840E+02  0.39999962755E+02 0.  0.
        -12    1    3    3    0    0 -0.17133625776E+02  0.10958788947E+01 -0.32573286023E+02  0.36820932160E+02  0.00000000000E+00 0.  1.
         11    1    4    4    0    0  0.17690589375E+02  0.54225524256E+01  0.26538225848E+02  0.32351792202E+02  0.51100000000E-03 0. -1.
        -11    1    4    4    0    0 -0.10389698923E+01  0.21647040789E+01 -0.64030530564E+01  0.68384567624E+01  0.51100000000E-03 0.  1.
         12    1    4    4    0    0  0.48200629296E+00 -0.86831353992E+01  0.12438113231E+02  0.15176818876E+02  0.00000000000E+00 0. -1.
</event>
<event>
 8    1  0.2490104E-006  0.9118800E+02  0.7816164E-02  0.1184000E+00
        -11   -1    0    0    0    0  0.00000000000E+00  0.00000000000E+00  0.45593999997E+02  0.45594000000E+02  0.51100000000E-03 0.  1.
         11   -1    0    0    0    0 -0.00000000000E+00 -0.00000000000E+00 -0.45593999997E+02  0.45594000000E+02  0.51100000000E-03 0. -1.
         23    2    1    2    0    0  0.00000000000E+00 -0.35527136788E-14 -0.88817841970E-15  0.91188000000E+02  0.91188000000E+02 0.  0.
    9900012    2    3    3    0    0  0.26224087478E+02  0.25527257741E+02  0.40538405832E+01  0.54367119032E+02  0.40000079457E+02 0.  0.
         12    1    3    3    0    0 -0.26224087478E+02 -0.25527257741E+02 -0.40538405832E+01  0.36820880968E+02  0.00000000000E+00 0. -1.
         11    1    4    4    0    0 -0.20531413739E+01 -0.42112148392E+01  0.28667620724E+01  0.54925444891E+01  0.51100000000E-03 0. -1.
        -11    1    4    4    0    0  0.29018950103E+02  0.12706947639E+02  0.24924058060E+01  0.31777005371E+02  0.51100000000E-03 0.  1.
         12    1    4    4    0    0 -0.74172125144E+00  0.17031524941E+02 -0.13053272952E+01  0.17097569172E+02  0.00000000000E+00 0. -1.
</event>
<event>
 8    1  0.2490104E-006  0.9118800E+02  0.7816164E-02  0.1184000E+00
        -11   -1    0    0    0    0  0.00000000000E+00  0.00000000000E+00  0.45593999997E+02  0.45594000000E+02  0.51100000000E-03 0. -1.
         11   -1    0    0    0    0 -0.00000000000E+00 -0.00000000000E+00 -0.45593999997E+02  0.45594000000E+02  0.51100000000E-03 0.  1.
         23    2    1    2    0    0 -0.35527136788E-14  0.00000000000E+00  0.88817841970E-15  0.91188000000E+02  0.91188000000E+02 0.  0.
    9900012    2    3    3    0    0 -0.26441750158E+02 -0.25378665214E+02 -0.35407784154E+01  0.54367083237E+02  0.39999997856E+02 0.  0.
        -12    1    3    3    0    0  0.26441750158E+02  0.25378665214E+02  0.35407784154E+01  0.36820916763E+02  0.00000000000E+00 0.  1.
         11    1    4    4    0    0  0.33490883356E+01 -0.61199394860E+01  0.54004370313E+01  0.88224017355E+01  0.51100000000E-03 0. -1.
        -11    1    4    4    0    0  0.43595375139E+01 -0.59657260317E+01  0.12816276577E+01  0.74992015664E+01  0.51100000000E-03 0.  1.
        -12    1    4    4    0    0 -0.34150376007E+02 -0.13292999696E+02 -0.10222843104E+02  0.38045479935E+02  0.00000000000E+00 0.  1.
</event>
<event>
 8    1  0.2490104E-006  0.9118800E+02  0.7816164E-02  0.1184000E+00
        -11   -1    0    0    0    0  0.00000000000E+00  0.00000000000E+00  0.45593999997E+02  0.45594000000E+02  0.51100000000E-03 0.  1.
         11   -1    0    0    0    0 -0.00000000000E+00 -0.00000000000E+00 -0.45593999997E+02  0.45594000000E+02  0.51100000000E-03 0. -1.
         23    2    1    2    0    0  0.00000000000E+00  0.35527136788E-14  0.00000000000E+00  0.91188000000E+02  0.91188000000E+02 0.  0.
    9900012    2    3    3    0    0 -0.24712612690E+02  0.25907562544E+02 -0.85947055952E+01  0.54367027889E+02  0.39999871679E+02 0.  0.
        -12    1    3    3    0    0  0.24712612690E+02 -0.25907562544E+02  0.85947055952E+01  0.36820972111E+02  0.00000000000E+00 0.  1.
         11    1    4    4    0    0 -0.28293832243E+01 -0.10788090026E+01 -0.44370172643E+01  0.53718116831E+01  0.51100000000E-03 0. -1.
        -11    1    4    4    0    0 -0.16162011053E+02 -0.95299078116E+00  0.79207528268E+01  0.18023793116E+02  0.51100000000E-03 0.  1.
         12    1    4    4    0    0 -0.57212184130E+01  0.27939362327E+02 -0.12078441158E+02  0.30971423090E+02  0.00000000000E+00 0. -1.
</event>
<event>
 8    1  0.2490104E-006  0.9118800E+02  0.7816164E-02  0.1184000E+00
        -11   -1    0    0    0    0  0.00000000000E+00  0.00000000000E+00  0.45593999997E+02  0.45594000000E+02  0.51100000000E-03 0. -1.
         11   -1    0    0    0    0 -0.00000000000E+00 -0.00000000000E+00 -0.45593999997E+02  0.45594000000E+02  0.51100000000E-03 0.  1.
         23    2    1    2    0    0  0.10658141036E-13 -0.35527136788E-14  0.17763568394E-14  0.91188000000E+02  0.91188000000E+02 0.  0.
    9900012    2    3    3    0    0  0.28998505745E+02 -0.20623440167E+02  0.94625523510E+01  0.54367088594E+02  0.40000010067E+02 0.  0.
        -12    1    3    3    0    0 -0.28998505745E+02  0.20623440167E+02 -0.94625523510E+01  0.36820911406E+02  0.00000000000E+00 0.  1.
         11    1    4    4    0    0 -0.29600065909E+00 -0.69251190398E+01 -0.39748216511E+01  0.79902501541E+01  0.51100000000E-03 0. -1.
        -11    1    4    4    0    0 -0.30245570537E+01 -0.11559565732E+02  0.26609638747E+01  0.12241414718E+02  0.51100000000E-03 0.  1.
         12    1    4    4    0    0  0.32319063458E+02 -0.21387553952E+01  0.10776410127E+02  0.34135423722E+02  0.00000000000E+00 0. -1.
</event>
<event>
 8    1  0.2490104E-006  0.9118800E+02  0.7816164E-02  0.1184000E+00
        -11   -1    0    0    0    0  0.00000000000E+00  0.00000000000E+00  0.45593999997E+02  0.45594000000E+02  0.51100000000E-03 0. -1.
         11   -1    0    0    0    0 -0.00000000000E+00 -0.00000000000E+00 -0.45593999997E+02  0.45594000000E+02  0.51100000000E-03 0.  1.
         23    2    1    2    0    0  0.00000000000E+00  0.00000000000E+00  0.00000000000E+00  0.91188000000E+02  0.91188000000E+02 0.  0.
    9900012    2    3    3    0    0  0.18421563199E+02 -0.25866769048E+02 -0.18636872907E+02  0.54367125982E+02  0.40000095302E+02 0.  0.
         12    1    3    3    0    0 -0.18421563199E+02  0.25866769048E+02  0.18636872907E+02  0.36820874018E+02  0.00000000000E+00 0. -1.
         11    1    4    4    0    0  0.83436217990E+01 -0.99088326954E+00  0.18862327665E+01  0.86113732174E+01  0.51100000000E-03 0. -1.
        -11    1    4    4    0    0  0.14939326735E+02  0.44433629052E+00 -0.95405949520E+01  0.17731437345E+02  0.51100000000E-03 0.  1.
         12    1    4    4    0    0 -0.48613853348E+01 -0.25320222069E+02 -0.10982510721E+02  0.28024315420E+02  0.00000000000E+00 0. -1.
</event>
<event>
 8    1  0.2490104E-006  0.9118800E+02  0.7816164E-02  0.1184000E+00
        -11   -1    0    0    0    0  0.00000000000E+00  0.00000000000E+00  0.45593999997E+02  0.45594000000E+02  0.51100000000E-03 0.  1.
         11   -1    0    0    0    0 -0.00000000000E+00 -0.00000000000E+00 -0.45593999997E+02  0.45594000000E+02  0.51100000000E-03 0. -1.
         23    2    1    2    0    0  0.13322676296E-14  0.00000000000E+00  0.00000000000E+00  0.91188000000E+02  0.91188000000E+02 0.  0.
    9900012    2    3    3    0    0  0.32275496033E+01 -0.85515800666E+01  0.35668383517E+02  0.54367079577E+02  0.39999989513E+02 0.  0.
         12    1    3    3    0    0 -0.32275496033E+01  0.85515800666E+01 -0.35668383517E+02  0.36820920423E+02  0.00000000000E+00 0. -1.
         11    1    4    4    0    0  0.14054899583E+02 -0.68419531843E+01 -0.25970650173E-01  0.15631800933E+02  0.51100000000E-03 0. -1.
        -11    1    4    4    0    0 -0.40335835991E+01 -0.47269986648E+01  0.84119087186E+01  0.10458227459E+02  0.51100000000E-03 0.  1.
         12    1    4    4    0    0 -0.67937663810E+01  0.30173717824E+01  0.27282445448E+02  0.28277051186E+02  0.00000000000E+00 0. -1.
</event>
<event>
 8    1  0.2490104E-006  0.9118800E+02  0.7816164E-02  0.1184000E+00
        -11   -1    0    0    0    0  0.00000000000E+00  0.00000000000E+00  0.45593999997E+02  0.45594000000E+02  0.51100000000E-03 0. -1.
         11   -1    0    0    0    0 -0.00000000000E+00 -0.00000000000E+00 -0.45593999997E+02  0.45594000000E+02  0.51100000000E-03 0.  1.
         23    2    1    2    0    0  0.00000000000E+00 -0.35527136788E-14  0.00000000000E+00  0.91188000000E+02  0.91188000000E+02 0.  0.
    9900012    2    3    3    0    0  0.75253056311E+00  0.19943707529E+02 -0.30942877513E+02  0.54367089623E+02  0.40000012414E+02 0.  0.
         12    1    3    3    0    0 -0.75253056311E+00 -0.19943707529E+02  0.30942877513E+02  0.36820910377E+02  0.00000000000E+00 0. -1.
         11    1    4    4    0    0  0.65363873159E+01  0.21134275338E+01  0.67481234416E+01  0.96295433603E+01  0.51100000000E-03 0. -1.
        -11    1    4    4    0    0  0.11800781705E+01 -0.22192753361E+00 -0.14435368824E+02  0.14485223839E+02  0.51100000000E-03 0.  1.
        -12    1    4    4    0    0 -0.69639349232E+01  0.18052207528E+02 -0.23255632130E+02  0.30252322424E+02  0.00000000000E+00 0.  1.
</event>
<event>
 8    1  0.2490104E-006  0.9118800E+02  0.7816164E-02  0.1184000E+00
        -11   -1    0    0    0    0  0.00000000000E+00  0.00000000000E+00  0.45593999997E+02  0.45594000000E+02  0.51100000000E-03 0.  1.
         11   -1    0    0    0    0 -0.00000000000E+00 -0.00000000000E+00 -0.45593999997E+02  0.45594000000E+02  0.51100000000E-03 0. -1.
         23    2    1    2    0    0  0.88817841970E-15  0.00000000000E+00  0.00000000000E+00  0.91188000000E+02  0.91188000000E+02 0.  0.
    9900012    2    3    3    0    0  0.54020983451E+01 -0.10871627344E+02  0.34762138532E+02  0.54367065425E+02  0.39999957250E+02 0.  0.
         12    1    3    3    0    0 -0.54020983451E+01  0.10871627344E+02 -0.34762138532E+02  0.36820934575E+02  0.00000000000E+00 0. -1.
         11    1    4    4    0    0  0.15227543385E+02  0.42179754134E+01  0.29370860977E+02  0.33351414796E+02  0.51100000000E-03 0.  1.
        -11    1    4    4    0    0 -0.27362686637E+01 -0.98662795271E+01  0.65193072020E+01  0.12138039568E+02  0.51100000000E-03 0. -1.
         12    1    4    4    0    0 -0.70891763761E+01 -0.52233232306E+01 -0.11280296465E+01  0.88776110608E+01  0.00000000000E+00 0. -1.
</event>
<event>
 8    1  0.2490104E-006  0.9118800E+02  0.7816164E-02  0.1184000E+00
        -11   -1    0    0    0    0  0.00000000000E+00  0.00000000000E+00  0.45593999997E+02  0.45594000000E+02  0.51100000000E-03 0.  1.
         11   -1    0    0    0    0 -0.00000000000E+00 -0.00000000000E+00 -0.45593999997E+02  0.45594000000E+02  0.51100000000E-03 0. -1.
         23    2    1    2    0    0 -0.35527136788E-14 -0.88817841970E-15  0.71054273576E-14  0.91188000000E+02  0.91188000000E+02 0.  0.
    9900012    2    3    3    0    0 -0.14420870571E+02 -0.56654063097E+01  0.33402411895E+02  0.54367089404E+02  0.40000011915E+02 0.  0.
         12    1    3    3    0    0  0.14420870571E+02  0.56654063097E+01 -0.33402411895E+02  0.36820910596E+02  0.00000000000E+00 0. -1.
         11    1    4    4    0    0  0.17622137623E+01  0.10482948664E+02  0.91895523625E+01  0.14051529558E+02  0.51100000000E-03 0. -1.
        -11    1    4    4    0    0  0.47164590299E+01 -0.39225783170E+00  0.10887078094E+00  0.47339946235E+01  0.51100000000E-03 0.  1.
        -12    1    4    4    0    0 -0.20899543363E+02 -0.15756097142E+02  0.24103988752E+02  0.35581565223E+02  0.00000000000E+00 0.  1.
</event>
<event>
 8    1  0.2490104E-006  0.9118800E+02  0.7816164E-02  0.1184000E+00
        -11   -1    0    0    0    0  0.00000000000E+00  0.00000000000E+00  0.45593999997E+02  0.45594000000E+02  0.51100000000E-03 0. -1.
         11   -1    0    0    0    0 -0.00000000000E+00 -0.00000000000E+00 -0.45593999997E+02  0.45594000000E+02  0.51100000000E-03 0.  1.
         23    2    1    2    0    0  0.71054273576E-14  0.88817841970E-15 -0.17763568394E-14  0.91188000000E+02  0.91188000000E+02 0.  0.
    9900012    2    3    3    0    0 -0.34713682356E+02  0.96883855627E+00 -0.12239340308E+02  0.54367084177E+02  0.39999999998E+02 0.  0.
         12    1    3    3    0    0  0.34713682356E+02 -0.96883855627E+00  0.12239340308E+02  0.36820915823E+02  0.00000000000E+00 0. -1.
         11    1    4    4    0    0 -0.14374846264E+02  0.50495039276E+01  0.57300503950E+01  0.16277812286E+02  0.51100000000E-03 0. -1.
        -11    1    4    4    0    0 -0.11075016583E+02  0.76321636559E+01 -0.18819308020E+02  0.23131629190E+02  0.51100000000E-03 0.  1.
         12    1    4    4    0    0 -0.92638195085E+01 -0.11712829027E+02  0.84991731698E+00  0.14957642700E+02  0.00000000000E+00 0. -1.
</event>
<event>
 8    1  0.2490104E-006  0.9118800E+02  0.7816164E-02  0.1184000E+00
        -11   -1    0    0    0    0  0.00000000000E+00  0.00000000000E+00  0.45593999997E+02  0.45594000000E+02  0.51100000000E-03 0. -1.
         11   -1    0    0    0    0 -0.00000000000E+00 -0.00000000000E+00 -0.45593999997E+02  0.45594000000E+02  0.51100000000E-03 0.  1.
         23    2    1    2    0    0  0.00000000000E+00 -0.12559397966E-14 -0.55511151231E-15  0.91188000000E+02  0.91188000000E+02 0.  0.
    9900012    2    3    3    0    0 -0.36808881507E+02 -0.48979776382E-01  0.93688778056E+00  0.54367164655E+02  0.40000183464E+02 0.  0.
        -12    1    3    3    0    0  0.36808881507E+02  0.48979776382E-01 -0.93688778056E+00  0.36820835345E+02  0.00000000000E+00 0.  1.
         11    1    4    4    0    0 -0.15443002199E+02 -0.61548359674E+01 -0.33739909250E+01  0.16963258465E+02  0.51100000000E-03 0. -1.
        -11    1    4    4    0    0  0.49387544347E+01 -0.58596868941E+01 -0.17878083622E+01  0.78691476580E+01  0.51100000000E-03 0.  1.
         12    1    4    4    0    0 -0.26304633742E+02  0.11965543085E+02  0.60986870677E+01  0.29534758532E+02  0.00000000000E+00 0. -1.
</event>
<event>
 8    1  0.2490104E-006  0.9118800E+02  0.7816164E-02  0.1184000E+00
        -11   -1    0    0    0    0  0.00000000000E+00  0.00000000000E+00  0.45593999997E+02  0.45594000000E+02  0.51100000000E-03 0.  1.
         11   -1    0    0    0    0 -0.00000000000E+00 -0.00000000000E+00 -0.45593999997E+02  0.45594000000E+02  0.51100000000E-03 0. -1.
         23    2    1    2    0    0  0.35527136788E-14  0.00000000000E+00  0.00000000000E+00  0.91188000000E+02  0.91188000000E+02 0.  0.
    9900012    2    3    3    0    0  0.13159529333E+02 -0.20658249833E+02 -0.27492548470E+02  0.54367126574E+02  0.40000096652E+02 0.  0.
        -12    1    3    3    0    0 -0.13159529333E+02  0.20658249833E+02  0.27492548470E+02  0.36820873426E+02  0.00000000000E+00 0.  1.
         11    1    4    4    0    0 -0.46839725945E+01  0.43808423211E+01 -0.69951577748E+01  0.94901849963E+01  0.51100000000E-03 0. -1.
        -11    1    4    4    0    0  0.49178436137E+01 -0.38500929629E+01  0.59364605640E+01  0.86168419924E+01  0.51100000000E-03 0.  1.
         12    1    4    4    0    0  0.12925658313E+02 -0.21188999191E+02 -0.26433851260E+02  0.36260099586E+02  0.00000000000E+00 0. -1.
</event>
<event>
 8    1  0.2490104E-006  0.9118800E+02  0.7816164E-02  0.1184000E+00
        -11   -1    0    0    0    0  0.00000000000E+00  0.00000000000E+00  0.45593999997E+02  0.45594000000E+02  0.51100000000E-03 0.  1.
         11   -1    0    0    0    0 -0.00000000000E+00 -0.00000000000E+00 -0.45593999997E+02  0.45594000000E+02  0.51100000000E-03 0. -1.
         23    2    1    2    0    0  0.00000000000E+00  0.00000000000E+00 -0.88817841970E-15  0.91188000000E+02  0.91188000000E+02 0.  0.
    9900012    2    3    3    0    0  0.22924731498E+02  0.28044873966E+02 -0.66111335659E+01  0.54367280873E+02  0.40000448403E+02 0.  0.
        -12    1    3    3    0    0 -0.22924731498E+02 -0.28044873966E+02  0.66111335659E+01  0.36820719127E+02  0.00000000000E+00 0.  1.
         11    1    4    4    0    0  0.56266498451E+01  0.84355447332E+01 -0.14802671798E+02  0.17942594463E+02  0.51100000000E-03 0. -1.
        -11    1    4    4    0    0 -0.33296806773E+01 -0.20959156080E+01 -0.24632274972E+01  0.46418881517E+01  0.51100000000E-03 0.  1.
         12    1    4    4    0    0  0.20627762330E+02  0.21705244841E+02  0.10654765730E+02  0.31782798258E+02  0.00000000000E+00 0. -1.
</event>
<event>
 8    1  0.2490104E-006  0.9118800E+02  0.7816164E-02  0.1184000E+00
        -11   -1    0    0    0    0  0.00000000000E+00  0.00000000000E+00  0.45593999997E+02  0.45594000000E+02  0.51100000000E-03 0.  1.
         11   -1    0    0    0    0 -0.00000000000E+00 -0.00000000000E+00 -0.45593999997E+02  0.45594000000E+02  0.51100000000E-03 0. -1.
         23    2    1    2    0    0  0.71054273576E-14  0.88817841970E-15  0.00000000000E+00  0.91188000000E+02  0.91188000000E+02 0.  0.
    9900012    2    3    3    0    0 -0.34999523812E+02  0.56904265831E+01  0.99213281834E+01  0.54367076944E+02  0.39999983510E+02 0.  0.
         12    1    3    3    0    0  0.34999523812E+02 -0.56904265831E+01 -0.99213281834E+01  0.36820923056E+02  0.00000000000E+00 0. -1.
         11    1    4    4    0    0  0.68890307572E+00  0.16253287019E+00 -0.16026352588E+01  0.17519829952E+01  0.51100000000E-03 0. -1.
        -11    1    4    4    0    0 -0.19360230526E+02  0.15387561617E+02  0.19938906273E+02  0.31767208914E+02  0.51100000000E-03 0.  1.
         12    1    4    4    0    0 -0.16328196361E+02 -0.98596679045E+01 -0.84149428306E+01  0.20847885035E+02  0.00000000000E+00 0. -1.
</event>
<event>
 8    1  0.2490104E-006  0.9118800E+02  0.7816164E-02  0.1184000E+00
        -11   -1    0    0    0    0  0.00000000000E+00  0.00000000000E+00  0.45593999997E+02  0.45594000000E+02  0.51100000000E-03 0. -1.
         11   -1    0    0    0    0 -0.00000000000E+00 -0.00000000000E+00 -0.45593999997E+02  0.45594000000E+02  0.51100000000E-03 0.  1.
         23    2    1    2    0    0  0.00000000000E+00  0.00000000000E+00  0.00000000000E+00  0.91188000000E+02  0.91188000000E+02 0.  0.
    9900012    2    3    3    0    0 -0.30077457099E+02 -0.19582376344E+02  0.82253834920E+01  0.54367084444E+02  0.40000000606E+02 0.  0.
        -12    1    3    3    0    0  0.30077457099E+02  0.19582376344E+02 -0.82253834920E+01  0.36820915556E+02  0.00000000000E+00 0.  1.
         11    1    4    4    0    0  0.53543796857E+01 -0.25056992153E+01  0.72508478983E+01  0.93553570686E+01  0.51100000000E-03 0. -1.
        -11    1    4    4    0    0 -0.30781174136E+02 -0.39026077767E+01  0.44223690373E+00  0.31030736414E+02  0.51100000000E-03 0.  1.
        -12    1    4    4    0    0 -0.46506626490E+01 -0.13174069352E+02  0.53229868990E+00  0.13980990961E+02  0.00000000000E+00 0.  1.
</event>
<event>
 8    1  0.2490104E-006  0.9118800E+02  0.7816164E-02  0.1184000E+00
        -11   -1    0    0    0    0  0.00000000000E+00  0.00000000000E+00  0.45593999997E+02  0.45594000000E+02  0.51100000000E-03 0. -1.
         11   -1    0    0    0    0 -0.00000000000E+00 -0.00000000000E+00 -0.45593999997E+02  0.45594000000E+02  0.51100000000E-03 0.  1.
         23    2    1    2    0    0  0.17763568394E-14  0.35527136788E-14  0.35527136788E-14  0.91188000000E+02  0.91188000000E+02 0.  0.
    9900012    2    3    3    0    0 -0.10915991986E+02 -0.30446832789E+02 -0.17595766741E+02  0.54367088616E+02  0.40000010118E+02 0.  0.
         12    1    3    3    0    0  0.10915991986E+02  0.30446832789E+02  0.17595766741E+02  0.36820911384E+02  0.00000000000E+00 0. -1.
         11    1    4    4    0    0  0.11935708014E+02 -0.26303219351E+01 -0.87023912398E+01  0.15003710635E+02  0.51100000000E-03 0. -1.
        -11    1    4    4    0    0 -0.29460823089E+01 -0.13043710874E+01 -0.50472395826E+01  0.59879389250E+01  0.51100000000E-03 0.  1.
        -12    1    4    4    0    0 -0.19905617691E+02 -0.26512139767E+02 -0.38461359182E+01  0.33375439056E+02  0.00000000000E+00 0.  1.
</event>
<event>
 8    1  0.2490104E-006  0.9118800E+02  0.7816164E-02  0.1184000E+00
        -11   -1    0    0    0    0  0.00000000000E+00  0.00000000000E+00  0.45593999997E+02  0.45594000000E+02  0.51100000000E-03 0.  1.
         11   -1    0    0    0    0 -0.00000000000E+00 -0.00000000000E+00 -0.45593999997E+02  0.45594000000E+02  0.51100000000E-03 0. -1.
         23    2    1    2    0    0  0.00000000000E+00  0.00000000000E+00  0.00000000000E+00  0.91188000000E+02  0.91188000000E+02 0.  0.
    9900012    2    3    3    0    0  0.17218336473E+02  0.27350866807E+02 -0.17641943227E+02  0.54367093074E+02  0.40000020282E+02 0.  0.
        -12    1    3    3    0    0 -0.17218336473E+02 -0.27350866807E+02  0.17641943227E+02  0.36820906926E+02  0.00000000000E+00 0.  1.
         11    1    4    4    0    0  0.72333200250E+01  0.15765178443E+02 -0.67257790464E+01  0.18603705920E+02  0.51100000000E-03 0. -1.
        -11    1    4    4    0    0  0.55889770451E+01 -0.99275230078E+01 -0.35592194017E+00  0.11398204164E+02  0.51100000000E-03 0.  1.
        -12    1    4    4    0    0  0.43960394030E+01  0.21513211372E+02 -0.10560242240E+02  0.24365182990E+02  0.00000000000E+00 0.  1.
</event>
<event>
 8    1  0.2490104E-006  0.9118800E+02  0.7816164E-02  0.1184000E+00
        -11   -1    0    0    0    0  0.00000000000E+00  0.00000000000E+00  0.45593999997E+02  0.45594000000E+02  0.51100000000E-03 0.  1.
         11   -1    0    0    0    0 -0.00000000000E+00 -0.00000000000E+00 -0.45593999997E+02  0.45594000000E+02  0.51100000000E-03 0. -1.
         23    2    1    2    0    0  0.00000000000E+00 -0.35527136788E-14  0.00000000000E+00  0.91188000000E+02  0.91188000000E+02 0.  0.
    9900012    2    3    3    0    0  0.29599368153E+02 -0.19316349014E+02  0.10321623537E+02  0.54367084113E+02  0.39999999853E+02 0.  0.
         12    1    3    3    0    0 -0.29599368153E+02  0.19316349014E+02 -0.10321623537E+02  0.36820915887E+02  0.00000000000E+00 0. -1.
         11    1    4    4    0    0  0.21788644403E+02 -0.98427971518E+01  0.70148502843E+01  0.24916536787E+02  0.51100000000E-03 0. -1.
        -11    1    4    4    0    0 -0.17643883133E+00 -0.16952060292E+02 -0.23799496968E+01  0.17119218429E+02  0.51100000000E-03 0.  1.
        -12    1    4    4    0    0  0.79871625814E+01  0.74785084301E+01  0.56867229495E+01  0.12331328896E+02  0.00000000000E+00 0.  1.
</event>
<event>
 8    1  0.2490104E-006  0.9118800E+02  0.7816164E-02  0.1184000E+00
        -11   -1    0    0    0    0  0.00000000000E+00  0.00000000000E+00  0.45593999997E+02  0.45594000000E+02  0.51100000000E-03 0. -1.
         11   -1    0    0    0    0 -0.00000000000E+00 -0.00000000000E+00 -0.45593999997E+02  0.45594000000E+02  0.51100000000E-03 0.  1.
         23    2    1    2    0    0 -0.35527136788E-14  0.17763568394E-14  0.17763568394E-14  0.91188000000E+02  0.91188000000E+02 0.  0.
    9900012    2    3    3    0    0 -0.31177237124E+02  0.13884610950E+02  0.13819306676E+02  0.54367139432E+02  0.40000125964E+02 0.  0.
         12    1    3    3    0    0  0.31177237124E+02 -0.13884610950E+02 -0.13819306676E+02  0.36820860568E+02  0.00000000000E+00 0. -1.
         11    1    4    4    0    0 -0.15934616584E+01  0.10563385706E+02  0.10061779147E+02  0.14675272996E+02  0.51100000000E-03 0. -1.
        -11    1    4    4    0    0 -0.69719178451E+01  0.11070678166E+02  0.81143224710E+01  0.15395122049E+02  0.51100000000E-03 0.  1.
        -12    1    4    4    0    0 -0.22611857621E+02 -0.77494529224E+01 -0.43567949419E+01  0.24296744387E+02  0.00000000000E+00 0.  1.
</event>
<event>
 8    1  0.2490104E-006  0.9118800E+02  0.7816164E-02  0.1184000E+00
        -11   -1    0    0    0    0  0.00000000000E+00  0.00000000000E+00  0.45593999997E+02  0.45594000000E+02  0.51100000000E-03 0.  1.
         11   -1    0    0    0    0 -0.00000000000E+00 -0.00000000000E+00 -0.45593999997E+02  0.45594000000E+02  0.51100000000E-03 0. -1.
         23    2    1    2    0    0  0.00000000000E+00  0.00000000000E+00  0.88817841970E-15  0.91188000000E+02  0.91188000000E+02 0.  0.
    9900012    2    3    3    0    0 -0.14700915792E+02 -0.33565051677E+02  0.36125478595E+01  0.54367080386E+02  0.39999991356E+02 0.  0.
        -12    1    3    3    0    0  0.14700915792E+02  0.33565051677E+02 -0.36125478595E+01  0.36820919614E+02  0.00000000000E+00 0.  1.
         11    1    4    4    0    0 -0.21373771809E+02 -0.90327026034E+01  0.10871597881E+02  0.25624587381E+02  0.51100000000E-03 0. -1.
        -11    1    4    4    0    0  0.33194505534E+01 -0.63117832023E+01 -0.73147595450E+01  0.10215824325E+02  0.51100000000E-03 0.  1.
        -12    1    4    4    0    0  0.33534054642E+01 -0.18220565871E+02  0.55709523497E-01  0.18526668681E+02  0.00000000000E+00 0.  1.
</event>
<event>
 8    1  0.2490104E-006  0.9118800E+02  0.7816164E-02  0.1184000E+00
        -11   -1    0    0    0    0  0.00000000000E+00  0.00000000000E+00  0.45593999997E+02  0.45594000000E+02  0.51100000000E-03 0.  1.
         11   -1    0    0    0    0 -0.00000000000E+00 -0.00000000000E+00 -0.45593999997E+02  0.45594000000E+02  0.51100000000E-03 0. -1.
         23    2    1    2    0    0 -0.66613381478E-15  0.00000000000E+00  0.00000000000E+00  0.91188000000E+02  0.91188000000E+02 0.  0.
    9900012    2    3    3    0    0 -0.11287812302E+01 -0.15117803201E+02  0.33555259281E+02  0.54367115354E+02  0.40000071072E+02 0.  0.
         12    1    3    3    0    0  0.11287812302E+01  0.15117803201E+02 -0.33555259281E+02  0.36820884646E+02  0.00000000000E+00 0. -1.
         11    1    4    4    0    0 -0.36295644706E+01 -0.17384191556E+02  0.92370945414E+01  0.20017686433E+02  0.51100000000E-03 0. -1.
        -11    1    4    4    0    0 -0.60555851106E+01  0.10665264859E+02  0.11946713602E+02  0.17121388720E+02  0.51100000000E-03 0.  1.
         12    1    4    4    0    0  0.85563683510E+01 -0.83988765050E+01  0.12371451138E+02  0.17228040201E+02  0.00000000000E+00 0. -1.
</event>
<event>
 8    1  0.2490104E-006  0.9118800E+02  0.7816164E-02  0.1184000E+00
        -11   -1    0    0    0    0  0.00000000000E+00  0.00000000000E+00  0.45593999997E+02  0.45594000000E+02  0.51100000000E-03 0. -1.
         11   -1    0    0    0    0 -0.00000000000E+00 -0.00000000000E+00 -0.45593999997E+02  0.45594000000E+02  0.51100000000E-03 0.  1.
         23    2    1    2    0    0  0.00000000000E+00  0.71054273576E-14 -0.17763568394E-14  0.91188000000E+02  0.91188000000E+02 0.  0.
    9900012    2    3    3    0    0 -0.88612051327E+01  0.35244406882E+02 -0.59233589496E+01  0.54367145120E+02  0.40000138930E+02 0.  0.
         12    1    3    3    0    0  0.88612051327E+01 -0.35244406882E+02  0.59233589496E+01  0.36820854880E+02  0.00000000000E+00 0. -1.
         11    1    4    4    0    0 -0.70287375085E-01  0.20337998207E+02 -0.17545737082E+02  0.26860603147E+02  0.51100000000E-03 0. -1.
        -11    1    4    4    0    0 -0.10826556887E+02  0.11331447400E+02  0.53580006279E+00  0.15681298294E+02  0.51100000000E-03 0.  1.
        -12    1    4    4    0    0  0.20356391298E+01  0.35749612743E+01  0.11086578070E+02  0.11825243679E+02  0.00000000000E+00 0.  1.
</event>
<event>
 8    1  0.2490104E-006  0.9118800E+02  0.7816164E-02  0.1184000E+00
        -11   -1    0    0    0    0  0.00000000000E+00  0.00000000000E+00  0.45593999997E+02  0.45594000000E+02  0.51100000000E-03 0. -1.
         11   -1    0    0    0    0 -0.00000000000E+00 -0.00000000000E+00 -0.45593999997E+02  0.45594000000E+02  0.51100000000E-03 0.  1.
         23    2    1    2    0    0 -0.35527136788E-14  0.00000000000E+00  0.00000000000E+00  0.91188000000E+02  0.91188000000E+02 0.  0.
    9900012    2    3    3    0    0 -0.24168620255E+02  0.15250050825E+02 -0.23218358827E+02  0.54367103191E+02  0.40000043344E+02 0.  0.
         12    1    3    3    0    0  0.24168620255E+02 -0.15250050825E+02  0.23218358827E+02  0.36820896809E+02  0.00000000000E+00 0. -1.
         11    1    4    4    0    0 -0.16160410531E+02  0.63843286087E+01  0.17806068981E+01  0.17466799407E+02  0.51100000000E-03 0. -1.
        -11    1    4    4    0    0 -0.10946636773E+02  0.14435282758E+02 -0.10137944999E+02  0.20760158333E+02  0.51100000000E-03 0.  1.
         12    1    4    4    0    0  0.29384270497E+01 -0.55695605418E+01 -0.14861020726E+02  0.16140145451E+02  0.00000000000E+00 0. -1.
</event>
<event>
 8    1  0.2490104E-006  0.9118800E+02  0.7816164E-02  0.1184000E+00
        -11   -1    0    0    0    0  0.00000000000E+00  0.00000000000E+00  0.45593999997E+02  0.45594000000E+02  0.51100000000E-03 0.  1.
         11   -1    0    0    0    0 -0.00000000000E+00 -0.00000000000E+00 -0.45593999997E+02  0.45594000000E+02  0.51100000000E-03 0. -1.
         23    2    1    2    0    0  0.35527136788E-14 -0.35527136788E-14  0.00000000000E+00  0.91188000000E+02  0.91188000000E+02 0.  0.
    9900012    2    3    3    0    0  0.23638425422E+02  0.26137114210E+02  0.10670282304E+02  0.54367098054E+02  0.40000031634E+02 0.  0.
         12    1    3    3    0    0 -0.23638425422E+02 -0.26137114210E+02 -0.10670282304E+02  0.36820901946E+02  0.00000000000E+00 0. -1.
         11    1    4    4    0    0 -0.56961510424E+01 -0.11063270048E+01 -0.22791169972E+01  0.62341375256E+01  0.51100000000E-03 0. -1.
        -11    1    4    4    0    0  0.24417546398E+02  0.12675714167E+02  0.16861830260E+02  0.32267810922E+02  0.51100000000E-03 0.  1.
        -12    1    4    4    0    0  0.49170300670E+01  0.14567727048E+02 -0.39124309588E+01  0.15865149607E+02  0.00000000000E+00 0.  1.
</event>
<event>
 8    1  0.2490104E-006  0.9118800E+02  0.7816164E-02  0.1184000E+00
        -11   -1    0    0    0    0  0.00000000000E+00  0.00000000000E+00  0.45593999997E+02  0.45594000000E+02  0.51100000000E-03 0. -1.
         11   -1    0    0    0    0 -0.00000000000E+00 -0.00000000000E+00 -0.45593999997E+02  0.45594000000E+02  0.51100000000E-03 0.  1.
         23    2    1    2    0    0  0.35527136788E-14  0.17763568394E-14 -0.35527136788E-14  0.91188000000E+02  0.91188000000E+02 0.  0.
    9900012    2    3    3    0    0  0.27996327843E+02  0.55412977638E+01 -0.23265435942E+02  0.54367070311E+02  0.39999968388E+02 0.  0.
         12    1    3    3    0    0 -0.27996327843E+02 -0.55412977638E+01  0.23265435942E+02  0.36820929689E+02  0.00000000000E+00 0. -1.
         11    1    4    4    0    0  0.68152362728E+01  0.15276770975E+02 -0.15769653178E+02  0.22989326621E+02  0.51100000000E-03 0.  1.
        -11    1    4    4    0    0  0.49145501200E+01 -0.24952428622E+01 -0.11831520929E+02  0.13052353335E+02  0.51100000000E-03 0. -1.
        -12    1    4    4    0    0  0.16266541450E+02 -0.72402303488E+01  0.43357381648E+01  0.18325390355E+02  0.00000000000E+00 0.  1.
</event>
<event>
 8    1  0.2490104E-006  0.9118800E+02  0.7816164E-02  0.1184000E+00
        -11   -1    0    0    0    0  0.00000000000E+00  0.00000000000E+00  0.45593999997E+02  0.45594000000E+02  0.51100000000E-03 0.  1.
         11   -1    0    0    0    0 -0.00000000000E+00 -0.00000000000E+00 -0.45593999997E+02  0.45594000000E+02  0.51100000000E-03 0. -1.
         23    2    1    2    0    0  0.00000000000E+00 -0.35527136788E-14 -0.17763568394E-14  0.91188000000E+02  0.91188000000E+02 0.  0.
    9900012    2    3    3    0    0 -0.24289137951E+02  0.26384155168E+02  0.83482635269E+01  0.54367090584E+02  0.40000014603E+02 0.  0.
         12    1    3    3    0    0  0.24289137951E+02 -0.26384155168E+02 -0.83482635269E+01  0.36820909416E+02  0.00000000000E+00 0. -1.
         11    1    4    4    0    0 -0.19063449773E+02  0.14393351265E+01  0.80144414242E+01  0.20729642411E+02  0.51100000000E-03 0.  1.
        -11    1    4    4    0    0 -0.49568788568E+01  0.27073776980E+02 -0.49220043558E+01  0.27960439466E+02  0.51100000000E-03 0. -1.
         12    1    4    4    0    0 -0.26880932082E+00 -0.21289569388E+01  0.52558264585E+01  0.56770087071E+01  0.00000000000E+00 0. -1.
</event>
<event>
 8    1  0.2490104E-006  0.9118800E+02  0.7816164E-02  0.1184000E+00
        -11   -1    0    0    0    0  0.00000000000E+00  0.00000000000E+00  0.45593999997E+02  0.45594000000E+02  0.51100000000E-03 0. -1.
         11   -1    0    0    0    0 -0.00000000000E+00 -0.00000000000E+00 -0.45593999997E+02  0.45594000000E+02  0.51100000000E-03 0.  1.
         23    2    1    2    0    0  0.17763568394E-14 -0.71054273576E-14  0.35527136788E-14  0.91188000000E+02  0.91188000000E+02 0.  0.
    9900012    2    3    3    0    0 -0.10764260878E+02  0.34142177295E+02 -0.86152021649E+01  0.54367091659E+02  0.40000017056E+02 0.  0.
         12    1    3    3    0    0  0.10764260878E+02 -0.34142177295E+02  0.86152021649E+01  0.36820908341E+02  0.00000000000E+00 0. -1.
         11    1    4    4    0    0 -0.21874515007E+01  0.96820183315E+01  0.50642997078E+01  0.11143318843E+02  0.51100000000E-03 0. -1.
        -11    1    4    4    0    0  0.13024733898E+01 -0.72090327258E+01  0.36319676964E-01  0.73258384607E+01  0.51100000000E-03 0.  1.
        -12    1    4    4    0    0 -0.98792827669E+01  0.31669191689E+02 -0.13715821550E+02  0.35897934356E+02  0.00000000000E+00 0.  1.
</event>
<event>
 8    1  0.2490104E-006  0.9118800E+02  0.7816164E-02  0.1184000E+00
        -11   -1    0    0    0    0  0.00000000000E+00  0.00000000000E+00  0.45593999997E+02  0.45594000000E+02  0.51100000000E-03 0. -1.
         11   -1    0    0    0    0 -0.00000000000E+00 -0.00000000000E+00 -0.45593999997E+02  0.45594000000E+02  0.51100000000E-03 0.  1.
         23    2    1    2    0    0  0.00000000000E+00  0.00000000000E+00  0.35527136788E-14  0.91188000000E+02  0.91188000000E+02 0.  0.
    9900012    2    3    3    0    0 -0.31064875161E+02 -0.11941385633E+02  0.15753112272E+02  0.54367031709E+02  0.39999880387E+02 0.  0.
        -12    1    3    3    0    0  0.31064875161E+02  0.11941385633E+02 -0.15753112272E+02  0.36820968291E+02  0.00000000000E+00 0.  1.
         11    1    4    4    0    0 -0.12664473250E+02  0.56997646278E+01  0.12523959981E+01  0.13944342778E+02  0.51100000000E-03 0. -1.
        -11    1    4    4    0    0 -0.24909793600E+02 -0.14147834771E+02  0.61995099805E+01  0.29310287787E+02  0.51100000000E-03 0.  1.
         12    1    4    4    0    0  0.65093916882E+01 -0.34933154898E+01  0.83012062935E+01  0.11112401144E+02  0.00000000000E+00 0. -1.
</event>
<event>
 8    1  0.2490104E-006  0.9118800E+02  0.7816164E-02  0.1184000E+00
        -11   -1    0    0    0    0  0.00000000000E+00  0.00000000000E+00  0.45593999997E+02  0.45594000000E+02  0.51100000000E-03 0.  1.
         11   -1    0    0    0    0 -0.00000000000E+00 -0.00000000000E+00 -0.45593999997E+02  0.45594000000E+02  0.51100000000E-03 0. -1.
         23    2    1    2    0    0  0.00000000000E+00 -0.17763568394E-14  0.00000000000E+00  0.91188000000E+02  0.91188000000E+02 0.  0.
    9900012    2    3    3    0    0 -0.28024934769E+02 -0.75535157821E+01 -0.22656773380E+02  0.54367055560E+02  0.39999934759E+02 0.  0.
        -12    1    3    3    0    0  0.28024934769E+02  0.75535157821E+01  0.22656773380E+02  0.36820944440E+02  0.00000000000E+00 0.  1.
         11    1    4    4    0    0 -0.12954860534E+02 -0.40194514663E+01 -0.15516525042E+02  0.20609389879E+02  0.51100000000E-03 0. -1.
        -11    1    4    4    0    0 -0.22189635390E+02  0.13350861051E+01 -0.10393087604E+02  0.24539328513E+02  0.51100000000E-03 0.  1.
         12    1    4    4    0    0  0.71195611547E+01 -0.48691504209E+01  0.32528392657E+01  0.92183371681E+01  0.00000000000E+00 0. -1.
</event>
<event>
 8    1  0.2490104E-006  0.9118800E+02  0.7816164E-02  0.1184000E+00
        -11   -1    0    0    0    0  0.00000000000E+00  0.00000000000E+00  0.45593999997E+02  0.45594000000E+02  0.51100000000E-03 0.  1.
         11   -1    0    0    0    0 -0.00000000000E+00 -0.00000000000E+00 -0.45593999997E+02  0.45594000000E+02  0.51100000000E-03 0. -1.
         23    2    1    2    0    0 -0.88817841970E-15  0.35527136788E-14  0.35527136788E-14  0.91188000000E+02  0.91188000000E+02 0.  0.
    9900012    2    3    3    0    0 -0.75537576007E+01 -0.24930704775E+02 -0.26022717632E+02  0.54367066723E+02  0.39999960208E+02 0.  0.
        -12    1    3    3    0    0  0.75537576007E+01  0.24930704775E+02  0.26022717632E+02  0.36820933277E+02  0.00000000000E+00 0.  1.
         11    1    4    4    0    0 -0.11435898209E+02  0.89535654406E+00 -0.75519618614E+01  0.13733665184E+02  0.51100000000E-03 0. -1.
        -11    1    4    4    0    0  0.93791393853E+01 -0.61248721119E+01 -0.16692181270E+02  0.20102517997E+02  0.51100000000E-03 0.  1.
        -12    1    4    4    0    0 -0.54969987774E+01 -0.19701189207E+02 -0.17785745000E+01  0.20530883541E+02  0.00000000000E+00 0.  1.
</event>
<event>
 8    1  0.2490104E-006  0.9118800E+02  0.7816164E-02  0.1184000E+00
        -11   -1    0    0    0    0  0.00000000000E+00  0.00000000000E+00  0.45593999997E+02  0.45594000000E+02  0.51100000000E-03 0. -1.
         11   -1    0    0    0    0 -0.00000000000E+00 -0.00000000000E+00 -0.45593999997E+02  0.45594000000E+02  0.51100000000E-03 0.  1.
         23    2    1    2    0    0  0.00000000000E+00  0.00000000000E+00  0.00000000000E+00  0.91188000000E+02  0.91188000000E+02 0.  0.
    9900012    2    3    3    0    0 -0.21364923596E+02  0.18568212946E+02 -0.23548685053E+02  0.54367094797E+02  0.40000024208E+02 0.  0.
         12    1    3    3    0    0  0.21364923596E+02 -0.18568212946E+02  0.23548685053E+02  0.36820905203E+02  0.00000000000E+00 0. -1.
         11    1    4    4    0    0 -0.13348383170E+02 -0.70718887061E+01 -0.11145649834E+02  0.18772758284E+02  0.51100000000E-03 0. -1.
        -11    1    4    4    0    0 -0.81835102236E+00  0.70065030918E+01 -0.13874313621E+02  0.15564618938E+02  0.51100000000E-03 0.  1.
        -12    1    4    4    0    0 -0.71981894040E+01  0.18633598560E+02  0.14712784018E+01  0.20029717575E+02  0.00000000000E+00 0.  1.
</event>
<event>
 8    1  0.2490104E-006  0.9118800E+02  0.7816164E-02  0.1184000E+00
        -11   -1    0    0    0    0  0.00000000000E+00  0.00000000000E+00  0.45593999997E+02  0.45594000000E+02  0.51100000000E-03 0.  1.
         11   -1    0    0    0    0 -0.00000000000E+00 -0.00000000000E+00 -0.45593999997E+02  0.45594000000E+02  0.51100000000E-03 0. -1.
         23    2    1    2    0    0  0.00000000000E+00  0.35527136788E-14  0.00000000000E+00  0.91188000000E+02  0.91188000000E+02 0.  0.
    9900012    2    3    3    0    0 -0.85730560490E+01  0.29336426499E+02  0.20534303762E+02  0.54367070615E+02  0.39999969082E+02 0.  0.
         12    1    3    3    0    0  0.85730560490E+01 -0.29336426499E+02 -0.20534303762E+02  0.36820929385E+02  0.00000000000E+00 0. -1.
         11    1    4    4    0    0 -0.34960343499E+01  0.15103568068E+02 -0.10211122588E+02  0.18563594731E+02  0.51100000000E-03 0. -1.
        -11    1    4    4    0    0 -0.44925916949E+01  0.10215085359E+02  0.11088714714E+02  0.15731844879E+02  0.51100000000E-03 0.  1.
        -12    1    4    4    0    0 -0.58443000414E+00  0.40177730724E+01  0.19656711635E+02  0.20071631005E+02  0.00000000000E+00 0.  1.
</event>
<event>
 8    1  0.2490104E-006  0.9118800E+02  0.7816164E-02  0.1184000E+00
        -11   -1    0    0    0    0  0.00000000000E+00  0.00000000000E+00  0.45593999997E+02  0.45594000000E+02  0.51100000000E-03 0. -1.
         11   -1    0    0    0    0 -0.00000000000E+00 -0.00000000000E+00 -0.45593999997E+02  0.45594000000E+02  0.51100000000E-03 0.  1.
         23    2    1    2    0    0 -0.35527136788E-14 -0.17763568394E-14  0.35527136788E-14  0.91188000000E+02  0.91188000000E+02 0.  0.
    9900012    2    3    3    0    0  0.25906813721E+02  0.13166022904E+02 -0.22611327733E+02  0.54367091563E+02  0.40000016837E+02 0.  0.
         12    1    3    3    0    0 -0.25906813721E+02 -0.13166022904E+02  0.22611327733E+02  0.36820908437E+02  0.00000000000E+00 0. -1.
         11    1    4    4    0    0  0.15865648413E+02  0.17912693412E+02 -0.14104257930E+02  0.27776131424E+02  0.51100000000E-03 0. -1.
        -11    1    4    4    0    0  0.13182266115E+02  0.22118132943E+01  0.20912418521E+01  0.13529137102E+02  0.51100000000E-03 0.  1.
        -12    1    4    4    0    0 -0.31411008078E+01 -0.69584838029E+01 -0.10598311655E+02  0.13061823038E+02  0.00000000000E+00 0.  1.
</event>
<event>
 8    1  0.2490104E-006  0.9118800E+02  0.7816164E-02  0.1184000E+00
        -11   -1    0    0    0    0  0.00000000000E+00  0.00000000000E+00  0.45593999997E+02  0.45594000000E+02  0.51100000000E-03 0.  1.
         11   -1    0    0    0    0 -0.00000000000E+00 -0.00000000000E+00 -0.45593999997E+02  0.45594000000E+02  0.51100000000E-03 0. -1.
         23    2    1    2    0    0  0.44408920985E-15  0.00000000000E+00  0.00000000000E+00  0.91188000000E+02  0.91188000000E+02 0.  0.
    9900012    2    3    3    0    0 -0.38383982903E+01  0.32517740593E+02  0.16841420074E+02  0.54367215316E+02  0.40000298954E+02 0.  0.
         12    1    3    3    0    0  0.38383982903E+01 -0.32517740593E+02 -0.16841420074E+02  0.36820784684E+02  0.00000000000E+00 0. -1.
         11    1    4    4    0    0  0.78996302598E+01  0.62930964676E+00  0.51475650914E+01  0.94497415575E+01  0.51100000000E-03 0. -1.
        -11    1    4    4    0    0  0.80698110538E+01  0.10607297241E+02  0.81672575018E+01  0.15631401107E+02  0.51100000000E-03 0.  1.
         12    1    4    4    0    0 -0.19807839604E+02  0.21281133705E+02  0.35265974804E+01  0.29286072651E+02  0.00000000000E+00 0. -1.
</event>
<event>
 8    1  0.2490104E-006  0.9118800E+02  0.7816164E-02  0.1184000E+00
        -11   -1    0    0    0    0  0.00000000000E+00  0.00000000000E+00  0.45593999997E+02  0.45594000000E+02  0.51100000000E-03 0. -1.
         11   -1    0    0    0    0 -0.00000000000E+00 -0.00000000000E+00 -0.45593999997E+02  0.45594000000E+02  0.51100000000E-03 0.  1.
         23    2    1    2    0    0 -0.44408920985E-15 -0.71054273576E-14  0.17763568394E-14  0.91188000000E+02  0.91188000000E+02 0.  0.
    9900012    2    3    3    0    0 -0.33348828529E+01 -0.34691392717E+02  0.11881337142E+02  0.54367077353E+02  0.39999984442E+02 0.  0.
         12    1    3    3    0    0  0.33348828529E+01  0.34691392717E+02 -0.11881337142E+02  0.36820922647E+02  0.00000000000E+00 0. -1.
         11    1    4    4    0    0  0.44728782842E+01 -0.33737203321E+02  0.10040449725E+02  0.35482617703E+02  0.51100000000E-03 0. -1.
        -11    1    4    4    0    0 -0.67081344220E+00  0.27411692282E+01  0.81770134579E+01  0.86502918311E+01  0.51100000000E-03 0.  1.
        -12    1    4    4    0    0 -0.71369476949E+01 -0.36953586235E+01 -0.63361260405E+01  0.10234167820E+02  0.00000000000E+00 0.  1.
</event>
<event>
 8    1  0.2490104E-006  0.9118800E+02  0.7816164E-02  0.1184000E+00
        -11   -1    0    0    0    0  0.00000000000E+00  0.00000000000E+00  0.45593999997E+02  0.45594000000E+02  0.51100000000E-03 0.  1.
         11   -1    0    0    0    0 -0.00000000000E+00 -0.00000000000E+00 -0.45593999997E+02  0.45594000000E+02  0.51100000000E-03 0. -1.
         23    2    1    2    0    0  0.88817841970E-15  0.00000000000E+00  0.00000000000E+00  0.91188000000E+02  0.91188000000E+02 0.  0.
    9900012    2    3    3    0    0  0.42725209562E+01  0.22238084329E+01  0.36504525777E+02  0.54367079839E+02  0.39999990110E+02 0.  0.
         12    1    3    3    0    0 -0.42725209562E+01 -0.22238084329E+01 -0.36504525777E+02  0.36820920161E+02  0.00000000000E+00 0. -1.
         11    1    4    4    0    0 -0.43522133799E+01  0.45576360427E+01 -0.87756348941E+00  0.63626979766E+01  0.51100000000E-03 0. -1.
        -11    1    4    4    0    0 -0.64976446756E+01 -0.10729769702E+02  0.18968864917E+02  0.22741266031E+02  0.51100000000E-03 0.  1.
        -12    1    4    4    0    0  0.15122379012E+02  0.83959420921E+01  0.18413224350E+02  0.25263115832E+02  0.00000000000E+00 0.  1.
</event>
<event>
 8    1  0.2490104E-006  0.9118800E+02  0.7816164E-02  0.1184000E+00
        -11   -1    0    0    0    0  0.00000000000E+00  0.00000000000E+00  0.45593999997E+02  0.45594000000E+02  0.51100000000E-03 0. -1.
         11   -1    0    0    0    0 -0.00000000000E+00 -0.00000000000E+00 -0.45593999997E+02  0.45594000000E+02  0.51100000000E-03 0.  1.
         23    2    1    2    0    0  0.71054273576E-14  0.00000000000E+00  0.00000000000E+00  0.91188000000E+02  0.91188000000E+02 0.  0.
    9900012    2    3    3    0    0  0.32919936932E+02 -0.13460002910E+02 -0.95334622463E+01  0.54367070783E+02  0.39999969465E+02 0.  0.
         12    1    3    3    0    0 -0.32919936932E+02  0.13460002910E+02  0.95334622463E+01  0.36820929217E+02  0.00000000000E+00 0. -1.
         11    1    4    4    0    0  0.32201110725E-01 -0.17907248695E+01 -0.55709551533E+01  0.58517752905E+01  0.51100000000E-03 0. -1.
        -11    1    4    4    0    0  0.90416233493E+01 -0.53498025417E+01 -0.17473391858E+02  0.20388495857E+02  0.51100000000E-03 0.  1.
         12    1    4    4    0    0  0.23846112472E+02 -0.63194754990E+01  0.13510884765E+02  0.28126799636E+02  0.00000000000E+00 0. -1.
</event>
<event>
 8    1  0.2490104E-006  0.9118800E+02  0.7816164E-02  0.1184000E+00
        -11   -1    0    0    0    0  0.00000000000E+00  0.00000000000E+00  0.45593999997E+02  0.45594000000E+02  0.51100000000E-03 0.  1.
         11   -1    0    0    0    0 -0.00000000000E+00 -0.00000000000E+00 -0.45593999997E+02  0.45594000000E+02  0.51100000000E-03 0. -1.
         23    2    1    2    0    0  0.00000000000E+00  0.00000000000E+00  0.00000000000E+00  0.91188000000E+02  0.91188000000E+02 0.  0.
    9900012    2    3    3    0    0 -0.11972183752E+02 -0.16863502082E+02 -0.30464228827E+02  0.54367080344E+02  0.39999991260E+02 0.  0.
        -12    1    3    3    0    0  0.11972183752E+02  0.16863502082E+02  0.30464228827E+02  0.36820919656E+02  0.00000000000E+00 0.  1.
         11    1    4    4    0    0 -0.16528431853E+02 -0.10142868634E+02 -0.19068798602E+02  0.27197167574E+02  0.51100000000E-03 0. -1.
        -11    1    4    4    0    0 -0.38161062163E+01  0.65510189118E+01  0.31835480904E+00  0.75881397907E+01  0.51100000000E-03 0.  1.
         12    1    4    4    0    0  0.83723543180E+01 -0.13271652360E+02 -0.11713785035E+02  0.19581772980E+02  0.00000000000E+00 0. -1.
</event>
<event>
 8    1  0.2490104E-006  0.9118800E+02  0.7816164E-02  0.1184000E+00
        -11   -1    0    0    0    0  0.00000000000E+00  0.00000000000E+00  0.45593999997E+02  0.45594000000E+02  0.51100000000E-03 0. -1.
         11   -1    0    0    0    0 -0.00000000000E+00 -0.00000000000E+00 -0.45593999997E+02  0.45594000000E+02  0.51100000000E-03 0.  1.
         23    2    1    2    0    0  0.88817841970E-15  0.00000000000E+00  0.00000000000E+00  0.91188000000E+02  0.91188000000E+02 0.  0.
    9900012    2    3    3    0    0 -0.52182650637E+01 -0.10084841031E+02 -0.35026359663E+02  0.54367079586E+02  0.39999989531E+02 0.  0.
         12    1    3    3    0    0  0.52182650637E+01  0.10084841031E+02  0.35026359663E+02  0.36820920414E+02  0.00000000000E+00 0. -1.
         11    1    4    4    0    0  0.99047319694E+00 -0.59521940835E+01  0.22887385480E+00  0.60383801689E+01  0.51100000000E-03 0. -1.
        -11    1    4    4    0    0  0.57151699586E+01  0.55503276357E+00 -0.35047494004E+02  0.35514758415E+02  0.51100000000E-03 0.  1.
        -12    1    4    4    0    0 -0.11923908219E+02 -0.46876797114E+01 -0.20773951382E+00  0.12813941002E+02  0.00000000000E+00 0.  1.
</event>
<event>
 8    1  0.2490104E-006  0.9118800E+02  0.7816164E-02  0.1184000E+00
        -11   -1    0    0    0    0  0.00000000000E+00  0.00000000000E+00  0.45593999997E+02  0.45594000000E+02  0.51100000000E-03 0.  1.
         11   -1    0    0    0    0 -0.00000000000E+00 -0.00000000000E+00 -0.45593999997E+02  0.45594000000E+02  0.51100000000E-03 0. -1.
         23    2    1    2    0    0  0.71054273576E-14  0.00000000000E+00  0.00000000000E+00  0.91188000000E+02  0.91188000000E+02 0.  0.
    9900012    2    3    3    0    0  0.32730360202E+02  0.93975607694E+01  0.14006792907E+02  0.54367070152E+02  0.39999968024E+02 0.  0.
         12    1    3    3    0    0 -0.32730360202E+02 -0.93975607694E+01 -0.14006792907E+02  0.36820929848E+02  0.00000000000E+00 0. -1.
         11    1    4    4    0    0 -0.52843504123E+01  0.80240229019E+00  0.32148925300E+01  0.62372865058E+01  0.51100000000E-03 0. -1.
        -11    1    4    4    0    0  0.56509309527E+01  0.52526573130E+01  0.13428682261E+02  0.15487186220E+02  0.51100000000E-03 0.  1.
         12    1    4    4    0    0  0.32363779661E+02  0.33425011661E+01 -0.26367818836E+01  0.32642597426E+02  0.00000000000E+00 0. -1.
</event>
<event>
 8    1  0.2490104E-006  0.9118800E+02  0.7816164E-02  0.1184000E+00
        -11   -1    0    0    0    0  0.00000000000E+00  0.00000000000E+00  0.45593999997E+02  0.45594000000E+02  0.51100000000E-03 0.  1.
         11   -1    0    0    0    0 -0.00000000000E+00 -0.00000000000E+00 -0.45593999997E+02  0.45594000000E+02  0.51100000000E-03 0. -1.
         23    2    1    2    0    0  0.00000000000E+00  0.00000000000E+00  0.35527136788E-14  0.91188000000E+02  0.91188000000E+02 0.  0.
    9900012    2    3    3    0    0  0.10169505724E+02 -0.20693879363E+02 -0.28707572727E+02  0.54367079023E+02  0.39999988248E+02 0.  0.
        -12    1    3    3    0    0 -0.10169505724E+02  0.20693879363E+02  0.28707572727E+02  0.36820920977E+02  0.00000000000E+00 0.  1.
         11    1    4    4    0    0 -0.92911615697E+01 -0.55768506908E+01 -0.80688432453E+01  0.13510484022E+02  0.51100000000E-03 0. -1.
        -11    1    4    4    0    0  0.35653800109E+01 -0.17089421669E+02 -0.43058758472E+01  0.17980568253E+02  0.51100000000E-03 0.  1.
         12    1    4    4    0    0  0.15895287282E+02  0.19723929972E+01 -0.16332853634E+02  0.22876026748E+02  0.00000000000E+00 0. -1.
</event>
<event>
 8    1  0.2490104E-006  0.9118800E+02  0.7816164E-02  0.1184000E+00
        -11   -1    0    0    0    0  0.00000000000E+00  0.00000000000E+00  0.45593999997E+02  0.45594000000E+02  0.51100000000E-03 0.  1.
         11   -1    0    0    0    0 -0.00000000000E+00 -0.00000000000E+00 -0.45593999997E+02  0.45594000000E+02  0.51100000000E-03 0. -1.
         23    2    1    2    0    0  0.17763568394E-14  0.44408920985E-15  0.00000000000E+00  0.91188000000E+02  0.91188000000E+02 0.  0.
    9900012    2    3    3    0    0  0.52199731942E+01 -0.39472667783E+01 -0.36234681450E+02  0.54367066077E+02  0.39999958737E+02 0.  0.
        -12    1    3    3    0    0 -0.52199731942E+01  0.39472667783E+01  0.36234681450E+02  0.36820933923E+02  0.00000000000E+00 0.  1.
         11    1    4    4    0    0  0.14755526834E+02  0.80204298646E+01 -0.12349564454E+02  0.20846213321E+02  0.51100000000E-03 0.  1.
        -11    1    4    4    0    0 -0.26607371065E+01 -0.15452884766E+02 -0.17630667579E+02  0.23594736893E+02  0.51100000000E-03 0. -1.
         12    1    4    4    0    0 -0.68748165329E+01  0.34851881232E+01 -0.62544494174E+01  0.99261158632E+01  0.00000000000E+00 0. -1.
</event>
<event>
 8    1  0.2490104E-006  0.9118800E+02  0.7816164E-02  0.1184000E+00
        -11   -1    0    0    0    0  0.00000000000E+00  0.00000000000E+00  0.45593999997E+02  0.45594000000E+02  0.51100000000E-03 0.  1.
         11   -1    0    0    0    0 -0.00000000000E+00 -0.00000000000E+00 -0.45593999997E+02  0.45594000000E+02  0.51100000000E-03 0. -1.
         23    2    1    2    0    0  0.00000000000E+00  0.35527136788E-14  0.00000000000E+00  0.91188000000E+02  0.91188000000E+02 0.  0.
    9900012    2    3    3    0    0  0.22149638110E+02  0.23500729157E+02 -0.17688536473E+02  0.54367149088E+02  0.40000147976E+02 0.  0.
        -12    1    3    3    0    0 -0.22149638110E+02 -0.23500729157E+02  0.17688536473E+02  0.36820850912E+02  0.00000000000E+00 0.  1.
         11    1    4    4    0    0  0.30823058275E+02  0.12149270590E+02 -0.13023038419E+02  0.35598668896E+02  0.51100000000E-03 0. -1.
        -11    1    4    4    0    0 -0.45543719785E+01  0.31740661661E+01  0.34477891624E+01  0.65348489282E+01  0.51100000000E-03 0.  1.
         12    1    4    4    0    0 -0.41190481863E+01  0.81773924008E+01 -0.81132872164E+01  0.12233631264E+02  0.00000000000E+00 0. -1.
</event>
<event>
 8    1  0.2490104E-006  0.9118800E+02  0.7816164E-02  0.1184000E+00
        -11   -1    0    0    0    0  0.00000000000E+00  0.00000000000E+00  0.45593999997E+02  0.45594000000E+02  0.51100000000E-03 0.  1.
         11   -1    0    0    0    0 -0.00000000000E+00 -0.00000000000E+00 -0.45593999997E+02  0.45594000000E+02  0.51100000000E-03 0. -1.
         23    2    1    2    0    0  0.00000000000E+00  0.17763568394E-14  0.44408920985E-15  0.91188000000E+02  0.91188000000E+02 0.  0.
    9900012    2    3    3    0    0 -0.33462255249E+02  0.15219223211E+02 -0.21053649508E+01  0.54367084164E+02  0.39999999968E+02 0.  0.
        -12    1    3    3    0    0  0.33462255249E+02 -0.15219223211E+02  0.21053649508E+01  0.36820915836E+02  0.00000000000E+00 0.  1.
         11    1    4    4    0    0  0.71532290052E+01 -0.29500336669E+00 -0.47207896866E+01  0.85756380354E+01  0.51100000000E-03 0. -1.
        -11    1    4    4    0    0 -0.46173748274E+01  0.44463802968E+01 -0.39969831739E+01  0.75542254927E+01  0.51100000000E-03 0.  1.
        -12    1    4    4    0    0 -0.35998109426E+02  0.11067846281E+02  0.66124079098E+01  0.38237220636E+02  0.00000000000E+00 0.  1.
</event>
<event>
 8    1  0.2490104E-006  0.9118800E+02  0.7816164E-02  0.1184000E+00
        -11   -1    0    0    0    0  0.00000000000E+00  0.00000000000E+00  0.45593999997E+02  0.45594000000E+02  0.51100000000E-03 0.  1.
         11   -1    0    0    0    0 -0.00000000000E+00 -0.00000000000E+00 -0.45593999997E+02  0.45594000000E+02  0.51100000000E-03 0. -1.
         23    2    1    2    0    0  0.44408920985E-15  0.00000000000E+00  0.35527136788E-14  0.91188000000E+02  0.91188000000E+02 0.  0.
    9900012    2    3    3    0    0  0.33957529126E+01  0.30305339771E+02  0.20635763576E+02  0.54367088891E+02  0.40000010745E+02 0.  0.
         12    1    3    3    0    0 -0.33957529126E+01 -0.30305339771E+02 -0.20635763576E+02  0.36820911109E+02  0.00000000000E+00 0. -1.
         11    1    4    4    0    0 -0.12303956433E+02  0.73660062336E+01 -0.50528072433E+01  0.15204481347E+02  0.51100000000E-03 0. -1.
        -11    1    4    4    0    0  0.31230591026E+00 -0.65044316749E+00  0.27368785030E+01  0.28303914035E+01  0.51100000000E-03 0.  1.
         12    1    4    4    0    0  0.15387403435E+02  0.23589776705E+02  0.22951692317E+02  0.36332216141E+02  0.00000000000E+00 0. -1.
</event>
<event>
 8    1  0.2490104E-006  0.9118800E+02  0.7816164E-02  0.1184000E+00
        -11   -1    0    0    0    0  0.00000000000E+00  0.00000000000E+00  0.45593999997E+02  0.45594000000E+02  0.51100000000E-03 0. -1.
         11   -1    0    0    0    0 -0.00000000000E+00 -0.00000000000E+00 -0.45593999997E+02  0.45594000000E+02  0.51100000000E-03 0.  1.
         23    2    1    2    0    0 -0.17763568394E-14  0.00000000000E+00  0.00000000000E+00  0.91188000000E+02  0.91188000000E+02 0.  0.
    9900012    2    3    3    0    0  0.14449085947E+02 -0.19871167141E+02 -0.27425198080E+02  0.54367070381E+02  0.39999968548E+02 0.  0.
         12    1    3    3    0    0 -0.14449085947E+02  0.19871167141E+02  0.27425198080E+02  0.36820929619E+02  0.00000000000E+00 0. -1.
         11    1    4    4    0    0  0.10614772545E+02 -0.12228332164E+02  0.49037629688E+01  0.16918995101E+02  0.51100000000E-03 0. -1.
        -11    1    4    4    0    0 -0.38541575236E+00 -0.12439423832E+02 -0.19848961186E+02  0.23427954905E+02  0.51100000000E-03 0.  1.
        -12    1    4    4    0    0  0.42197291543E+01  0.47965888555E+01 -0.12479999863E+02  0.14020120376E+02  0.00000000000E+00 0.  1.
</event>
<event>
 8    1  0.2490104E-006  0.9118800E+02  0.7816164E-02  0.1184000E+00
        -11   -1    0    0    0    0  0.00000000000E+00  0.00000000000E+00  0.45593999997E+02  0.45594000000E+02  0.51100000000E-03 0. -1.
         11   -1    0    0    0    0 -0.00000000000E+00 -0.00000000000E+00 -0.45593999997E+02  0.45594000000E+02  0.51100000000E-03 0.  1.
         23    2    1    2    0    0 -0.35527136788E-14  0.35527136788E-14  0.00000000000E+00  0.91188000000E+02  0.91188000000E+02 0.  0.
    9900012    2    3    3    0    0  0.25822060080E+02 -0.17450836900E+02  0.19607917544E+02  0.54367069462E+02  0.39999966453E+02 0.  0.
        -12    1    3    3    0    0 -0.25822060080E+02  0.17450836900E+02 -0.19607917544E+02  0.36820930538E+02  0.00000000000E+00 0.  1.
         11    1    4    4    0    0  0.27818327636E+02 -0.55741398873E+01  0.11124752447E+02  0.30474423788E+02  0.51100000000E-03 0. -1.
        -11    1    4    4    0    0  0.71932977367E+01 -0.28618940549E+01  0.78179131900E+01  0.11002442311E+02  0.51100000000E-03 0.  1.
        -12    1    4    4    0    0 -0.91895652927E+01 -0.90148029577E+01  0.66525190688E+00  0.12890203363E+02  0.00000000000E+00 0.  1.
</event>
<event>
 8    1  0.2490104E-006  0.9118800E+02  0.7816164E-02  0.1184000E+00
        -11   -1    0    0    0    0  0.00000000000E+00  0.00000000000E+00  0.45593999997E+02  0.45594000000E+02  0.51100000000E-03 0. -1.
         11   -1    0    0    0    0 -0.00000000000E+00 -0.00000000000E+00 -0.45593999997E+02  0.45594000000E+02  0.51100000000E-03 0.  1.
         23    2    1    2    0    0  0.00000000000E+00  0.00000000000E+00 -0.35527136788E-14  0.91188000000E+02  0.91188000000E+02 0.  0.
    9900012    2    3    3    0    0  0.29323032250E+02  0.18566559044E+02 -0.12297261099E+02  0.54367082499E+02  0.39999996173E+02 0.  0.
         12    1    3    3    0    0 -0.29323032250E+02 -0.18566559044E+02  0.12297261099E+02  0.36820917501E+02  0.00000000000E+00 0. -1.
         11    1    4    4    0    0  0.16419842817E+01  0.12775869508E+02  0.73540041648E+01  0.14832408152E+02  0.51100000000E-03 0. -1.
        -11    1    4    4    0    0  0.19597472253E+02  0.12503115384E+02 -0.16693081623E+02  0.28619010943E+02  0.51100000000E-03 0.  1.
         12    1    4    4    0    0  0.80835757150E+01 -0.67124258477E+01 -0.29581836413E+01  0.10915663404E+02  0.00000000000E+00 0. -1.
</event>
<event>
 8    1  0.2490104E-006  0.9118800E+02  0.7816164E-02  0.1184000E+00
        -11   -1    0    0    0    0  0.00000000000E+00  0.00000000000E+00  0.45593999997E+02  0.45594000000E+02  0.51100000000E-03 0.  1.
         11   -1    0    0    0    0 -0.00000000000E+00 -0.00000000000E+00 -0.45593999997E+02  0.45594000000E+02  0.51100000000E-03 0. -1.
         23    2    1    2    0    0  0.00000000000E+00  0.00000000000E+00  0.71054273576E-14  0.91188000000E+02  0.91188000000E+02 0.  0.
    9900012    2    3    3    0    0 -0.39455442904E+01  0.15609738981E+02 -0.33114182748E+02  0.54367077010E+02  0.39999983659E+02 0.  0.
        -12    1    3    3    0    0  0.39455442904E+01 -0.15609738981E+02  0.33114182748E+02  0.36820922990E+02  0.00000000000E+00 0.  1.
         11    1    4    4    0    0  0.37518239018E+01  0.55004166759E+00 -0.76691262120E+01  0.85553623852E+01  0.51100000000E-03 0. -1.
        -11    1    4    4    0    0 -0.12383892514E+01  0.14477466687E+02  0.44695500869E+01  0.15202221149E+02  0.51100000000E-03 0.  1.
        -12    1    4    4    0    0 -0.64589789408E+01  0.58223062660E+00 -0.29914606622E+02  0.30609493476E+02  0.00000000000E+00 0.  1.
</event>
<event>
 8    1  0.2490104E-006  0.9118800E+02  0.7816164E-02  0.1184000E+00
        -11   -1    0    0    0    0  0.00000000000E+00  0.00000000000E+00  0.45593999997E+02  0.45594000000E+02  0.51100000000E-03 0.  1.
         11   -1    0    0    0    0 -0.00000000000E+00 -0.00000000000E+00 -0.45593999997E+02  0.45594000000E+02  0.51100000000E-03 0. -1.
         23    2    1    2    0    0  0.00000000000E+00  0.00000000000E+00  0.00000000000E+00  0.91188000000E+02  0.91188000000E+02 0.  0.
    9900012    2    3    3    0    0 -0.21310017161E+02  0.56255566666E+01  0.29496019954E+02  0.54367096802E+02  0.40000028780E+02 0.  0.
         12    1    3    3    0    0  0.21310017161E+02 -0.56255566666E+01 -0.29496019954E+02  0.36820903198E+02  0.00000000000E+00 0. -1.
         11    1    4    4    0    0 -0.18266891909E+02  0.10900507948E+02  0.20848296275E+02  0.29785094785E+02  0.51100000000E-03 0. -1.
        -11    1    4    4    0    0 -0.10587966452E+02 -0.43676210909E+01  0.11718231716E+02  0.16385911705E+02  0.51100000000E-03 0.  1.
         12    1    4    4    0    0  0.75448411996E+01 -0.90733019089E+00 -0.30705080371E+01  0.81960903124E+01  0.00000000000E+00 0. -1.
</event>
<event>
 8    1  0.2490104E-006  0.9118800E+02  0.7816164E-02  0.1184000E+00
        -11   -1    0    0    0    0  0.00000000000E+00  0.00000000000E+00  0.45593999997E+02  0.45594000000E+02  0.51100000000E-03 0.  1.
         11   -1    0    0    0    0 -0.00000000000E+00 -0.00000000000E+00 -0.45593999997E+02  0.45594000000E+02  0.51100000000E-03 0. -1.
         23    2    1    2    0    0 -0.71054273576E-14  0.17763568394E-14  0.00000000000E+00  0.91188000000E+02  0.91188000000E+02 0.  0.
    9900012    2    3    3    0    0  0.18504774309E+02  0.93537780209E+01  0.30427927955E+02  0.54367100566E+02  0.40000037361E+02 0.  0.
         12    1    3    3    0    0 -0.18504774309E+02 -0.93537780209E+01 -0.30427927955E+02  0.36820899434E+02  0.00000000000E+00 0. -1.
         11    1    4    4    0    0 -0.12799139146E+01 -0.13307025314E+01 -0.30610404742E+01  0.35747612370E+01  0.51100000000E-03 0. -1.
        -11    1    4    4    0    0 -0.13194796818E+01  0.14808644399E+02  0.63491701390E+01  0.16166290152E+02  0.51100000000E-03 0.  1.
        -12    1    4    4    0    0  0.21104167905E+02 -0.41241638469E+01  0.27139798290E+02  0.34626049177E+02  0.00000000000E+00 0.  1.
</event>
<event>
 8    1  0.2490104E-006  0.9118800E+02  0.7816164E-02  0.1184000E+00
        -11   -1    0    0    0    0  0.00000000000E+00  0.00000000000E+00  0.45593999997E+02  0.45594000000E+02  0.51100000000E-03 0. -1.
         11   -1    0    0    0    0 -0.00000000000E+00 -0.00000000000E+00 -0.45593999997E+02  0.45594000000E+02  0.51100000000E-03 0.  1.
         23    2    1    2    0    0  0.00000000000E+00  0.35527136788E-14  0.00000000000E+00  0.91188000000E+02  0.91188000000E+02 0.  0.
    9900012    2    3    3    0    0  0.52607638450E+01  0.16502341146E+02 -0.32492729888E+02  0.54367076667E+02  0.39999982878E+02 0.  0.
         12    1    3    3    0    0 -0.52607638450E+01 -0.16502341146E+02  0.32492729888E+02  0.36820923333E+02  0.00000000000E+00 0. -1.
         11    1    4    4    0    0 -0.43056185528E+01  0.20186073536E+02 -0.10623529538E+02  0.23213687686E+02  0.51100000000E-03 0. -1.
        -11    1    4    4    0    0  0.68422484942E+00  0.76817411381E+01 -0.86354491849E+01  0.11577922674E+02  0.51100000000E-03 0.  1.
        -12    1    4    4    0    0  0.88821575483E+01 -0.11365473527E+02 -0.13233751165E+02  0.19575466306E+02  0.00000000000E+00 0.  1.
</event>
<event>
 8    1  0.2490104E-006  0.9118800E+02  0.7816164E-02  0.1184000E+00
        -11   -1    0    0    0    0  0.00000000000E+00  0.00000000000E+00  0.45593999997E+02  0.45594000000E+02  0.51100000000E-03 0.  1.
         11   -1    0    0    0    0 -0.00000000000E+00 -0.00000000000E+00 -0.45593999997E+02  0.45594000000E+02  0.51100000000E-03 0. -1.
         23    2    1    2    0    0  0.00000000000E+00  0.00000000000E+00  0.00000000000E+00  0.91188000000E+02  0.91188000000E+02 0.  0.
    9900012    2    3    3    0    0  0.29990001018E+02  0.19654955112E+02 -0.83703937726E+01  0.54367069628E+02  0.39999966831E+02 0.  0.
        -12    1    3    3    0    0 -0.29990001018E+02 -0.19654955112E+02  0.83703937726E+01  0.36820930372E+02  0.00000000000E+00 0.  1.
         11    1    4    4    0    0  0.90024653275E+01  0.20265780580E+01 -0.81055065499E+01  0.12282126741E+02  0.51100000000E-03 0. -1.
        -11    1    4    4    0    0  0.72782496520E+01  0.25322446305E+02 -0.72125701576E+00  0.26357530553E+02  0.51100000000E-03 0.  1.
        -12    1    4    4    0    0  0.13709286039E+02 -0.76940692511E+01  0.45636979311E+00  0.15727412334E+02  0.00000000000E+00 0.  1.
</event>
<event>
 8    1  0.2490104E-006  0.9118800E+02  0.7816164E-02  0.1184000E+00
        -11   -1    0    0    0    0  0.00000000000E+00  0.00000000000E+00  0.45593999997E+02  0.45594000000E+02  0.51100000000E-03 0. -1.
         11   -1    0    0    0    0 -0.00000000000E+00 -0.00000000000E+00 -0.45593999997E+02  0.45594000000E+02  0.51100000000E-03 0.  1.
         23    2    1    2    0    0  0.00000000000E+00  0.17763568394E-14  0.00000000000E+00  0.91188000000E+02  0.91188000000E+02 0.  0.
    9900012    2    3    3    0    0 -0.23816918588E+01  0.52256931690E+01  0.36370374967E+02  0.54367020920E+02  0.39999855790E+02 0.  0.
        -12    1    3    3    0    0  0.23816918588E+01 -0.52256931690E+01 -0.36370374967E+02  0.36820979080E+02  0.00000000000E+00 0.  1.
         11    1    4    4    0    0  0.50206069603E+01 -0.12283277903E+02  0.19137476807E+02  0.23287946004E+02  0.51100000000E-03 0. -1.
        -11    1    4    4    0    0  0.23892376318E+01  0.96566821342E+01  0.23652493463E+00  0.99506738771E+01  0.51100000000E-03 0.  1.
         12    1    4    4    0    0 -0.97915364510E+01  0.78522889374E+01  0.16996373225E+02  0.21128401038E+02  0.00000000000E+00 0. -1.
</event>
<event>
 8    1  0.2490104E-006  0.9118800E+02  0.7816164E-02  0.1184000E+00
        -11   -1    0    0    0    0  0.00000000000E+00  0.00000000000E+00  0.45593999997E+02  0.45594000000E+02  0.51100000000E-03 0.  1.
         11   -1    0    0    0    0 -0.00000000000E+00 -0.00000000000E+00 -0.45593999997E+02  0.45594000000E+02  0.51100000000E-03 0. -1.
         23    2    1    2    0    0  0.00000000000E+00 -0.44408920985E-15  0.00000000000E+00  0.91188000000E+02  0.91188000000E+02 0.  0.
    9900012    2    3    3    0    0 -0.30752629577E+02 -0.30267321708E+00  0.20247555360E+02  0.54367091062E+02  0.40000015693E+02 0.  0.
         12    1    3    3    0    0  0.30752629577E+02  0.30267321708E+00 -0.20247555360E+02  0.36820908938E+02  0.00000000000E+00 0. -1.
         11    1    4    4    0    0  0.51141019752E+01 -0.10554034291E+00 -0.34776048149E+01  0.61853789929E+01  0.51100000000E-03 0. -1.
        -11    1    4    4    0    0 -0.27415519559E+01  0.65895421600E+01  0.84994043695E+01  0.11098560623E+02  0.51100000000E-03 0.  1.
         12    1    4    4    0    0 -0.33125179596E+02 -0.67866750341E+01  0.15225755806E+02  0.37083151446E+02  0.00000000000E+00 0. -1.
</event>
<event>
 8    1  0.2490104E-006  0.9118800E+02  0.7816164E-02  0.1184000E+00
        -11   -1    0    0    0    0  0.00000000000E+00  0.00000000000E+00  0.45593999997E+02  0.45594000000E+02  0.51100000000E-03 0. -1.
         11   -1    0    0    0    0 -0.00000000000E+00 -0.00000000000E+00 -0.45593999997E+02  0.45594000000E+02  0.51100000000E-03 0.  1.
         23    2    1    2    0    0 -0.71054273576E-14 -0.53290705182E-14 -0.88817841970E-15  0.91188000000E+02  0.91188000000E+02 0.  0.
    9900012    2    3    3    0    0 -0.34867428508E+02 -0.98318407511E+01 -0.65861278780E+01  0.54367085512E+02  0.40000003041E+02 0.  0.
         12    1    3    3    0    0  0.34867428508E+02  0.98318407511E+01  0.65861278780E+01  0.36820914488E+02  0.00000000000E+00 0. -1.
         11    1    4    4    0    0 -0.17104350017E+02  0.13783331915E+02 -0.10694759958E+01  0.21992789894E+02  0.51100000000E-03 0. -1.
        -11    1    4    4    0    0 -0.44800558471E+01 -0.11085470238E+01 -0.41466514865E+01  0.62043932587E+01  0.51100000000E-03 0.  1.
         12    1    4    4    0    0 -0.13283022645E+02 -0.22506625642E+02 -0.13700003958E+01  0.26169902359E+02  0.00000000000E+00 0. -1.
</event>
<event>
 8    1  0.2490104E-006  0.9118800E+02  0.7816164E-02  0.1184000E+00
        -11   -1    0    0    0    0  0.00000000000E+00  0.00000000000E+00  0.45593999997E+02  0.45594000000E+02  0.51100000000E-03 0.  1.
         11   -1    0    0    0    0 -0.00000000000E+00 -0.00000000000E+00 -0.45593999997E+02  0.45594000000E+02  0.51100000000E-03 0. -1.
         23    2    1    2    0    0  0.00000000000E+00  0.55511151231E-16  0.35527136788E-14  0.91188000000E+02  0.91188000000E+02 0.  0.
    9900012    2    3    3    0    0 -0.29966510232E+02  0.40469107101E+00  0.21392147419E+02  0.54367089072E+02  0.40000011159E+02 0.  0.
        -12    1    3    3    0    0  0.29966510232E+02 -0.40469107101E+00 -0.21392147419E+02  0.36820910928E+02  0.00000000000E+00 0.  1.
         11    1    4    4    0    0 -0.24508518559E+02  0.34587847679E+01  0.19155373673E+02  0.31297907515E+02  0.51100000000E-03 0. -1.
        -11    1    4    4    0    0 -0.10808577695E+02  0.25306410852E+01  0.77781964258E+01  0.13554697930E+02  0.51100000000E-03 0.  1.
         12    1    4    4    0    0  0.53505860219E+01 -0.55847347821E+01 -0.55414226799E+01  0.95144836266E+01  0.00000000000E+00 0. -1.
</event>
<event>
 8    1  0.2490104E-006  0.9118800E+02  0.7816164E-02  0.1184000E+00
        -11   -1    0    0    0    0  0.00000000000E+00  0.00000000000E+00  0.45593999997E+02  0.45594000000E+02  0.51100000000E-03 0.  1.
         11   -1    0    0    0    0 -0.00000000000E+00 -0.00000000000E+00 -0.45593999997E+02  0.45594000000E+02  0.51100000000E-03 0. -1.
         23    2    1    2    0    0  0.35527136788E-14  0.35527136788E-14  0.00000000000E+00  0.91188000000E+02  0.91188000000E+02 0.  0.
    9900012    2    3    3    0    0  0.20718065047E+02  0.17241368729E+02 -0.25085254813E+02  0.54367176762E+02  0.40000211063E+02 0.  0.
        -12    1    3    3    0    0 -0.20718065047E+02 -0.17241368729E+02  0.25085254813E+02  0.36820823238E+02  0.00000000000E+00 0.  1.
         11    1    4    4    0    0  0.65833016032E+01 -0.53313822893E+01 -0.19568440277E+02  0.21323399172E+02  0.51100000000E-03 0.  1.
        -11    1    4    4    0    0  0.17718784076E+02  0.15433594136E+02 -0.29417822646E+00  0.23499737832E+02  0.51100000000E-03 0. -1.
        -12    1    4    4    0    0 -0.35840206325E+01  0.71391568822E+01 -0.52226363092E+01  0.95440397579E+01  0.00000000000E+00 0.  1.
</event>
<event>
 8    1  0.2490104E-006  0.9118800E+02  0.7816164E-02  0.1184000E+00
        -11   -1    0    0    0    0  0.00000000000E+00  0.00000000000E+00  0.45593999997E+02  0.45594000000E+02  0.51100000000E-03 0. -1.
         11   -1    0    0    0    0 -0.00000000000E+00 -0.00000000000E+00 -0.45593999997E+02  0.45594000000E+02  0.51100000000E-03 0.  1.
         23    2    1    2    0    0  0.38857805862E-15 -0.71054273576E-14  0.00000000000E+00  0.91188000000E+02  0.91188000000E+02 0.  0.
    9900012    2    3    3    0    0  0.40591923329E+00 -0.25935941873E+02  0.26133163872E+02  0.54367080603E+02  0.39999991850E+02 0.  0.
        -12    1    3    3    0    0 -0.40591923329E+00  0.25935941873E+02 -0.26133163872E+02  0.36820919397E+02  0.00000000000E+00 0.  1.
         11    1    4    4    0    0 -0.23165684883E+01 -0.12762322862E+02  0.21237742737E+02  0.24885439342E+02  0.51100000000E-03 0. -1.
        -11    1    4    4    0    0  0.57848180652E+01  0.37405900491E+01  0.94545950848E+01  0.11698098240E+02  0.51100000000E-03 0.  1.
        -12    1    4    4    0    0 -0.30623303437E+01 -0.16914209060E+02 -0.45591739494E+01  0.17783543021E+02  0.00000000000E+00 0.  1.
</event>
<event>
 8    1  0.2490104E-006  0.9118800E+02  0.7816164E-02  0.1184000E+00
        -11   -1    0    0    0    0  0.00000000000E+00  0.00000000000E+00  0.45593999997E+02  0.45594000000E+02  0.51100000000E-03 0.  1.
         11   -1    0    0    0    0 -0.00000000000E+00 -0.00000000000E+00 -0.45593999997E+02  0.45594000000E+02  0.51100000000E-03 0. -1.
         23    2    1    2    0    0 -0.35527136788E-14 -0.35527136788E-14 -0.17763568394E-14  0.91188000000E+02  0.91188000000E+02 0.  0.
    9900012    2    3    3    0    0  0.28708933783E+02  0.17403761962E+02  0.15122355221E+02  0.54367089680E+02  0.40000012543E+02 0.  0.
        -12    1    3    3    0    0 -0.28708933783E+02 -0.17403761962E+02 -0.15122355221E+02  0.36820910320E+02  0.00000000000E+00 0.  1.
         11    1    4    4    0    0  0.55152291673E+01  0.78934471643E+01  0.71142071221E+00  0.96555880502E+01  0.51100000000E-03 0. -1.
        -11    1    4    4    0    0 -0.17071657927E+01  0.31923092413E+01 -0.91582678155E+01  0.98477978745E+01  0.51100000000E-03 0.  1.
         12    1    4    4    0    0  0.24900870408E+02  0.63180055561E+01  0.23569202325E+02  0.34863703755E+02  0.00000000000E+00 0. -1.
</event>
<event>
 8    1  0.2490104E-006  0.9118800E+02  0.7816164E-02  0.1184000E+00
        -11   -1    0    0    0    0  0.00000000000E+00  0.00000000000E+00  0.45593999997E+02  0.45594000000E+02  0.51100000000E-03 0. -1.
         11   -1    0    0    0    0 -0.00000000000E+00 -0.00000000000E+00 -0.45593999997E+02  0.45594000000E+02  0.51100000000E-03 0.  1.
         23    2    1    2    0    0  0.35527136788E-14  0.35527136788E-14  0.00000000000E+00  0.91188000000E+02  0.91188000000E+02 0.  0.
    9900012    2    3    3    0    0 -0.19161465862E+02 -0.29933308231E+02 -0.96237518547E+01  0.54367064170E+02  0.39999954388E+02 0.  0.
         12    1    3    3    0    0  0.19161465862E+02  0.29933308231E+02  0.96237518547E+01  0.36820935830E+02  0.00000000000E+00 0. -1.
         11    1    4    4    0    0  0.86863378811E+01 -0.25954399548E+00  0.20010776219E+01  0.89176308951E+01  0.51100000000E-03 0. -1.
        -11    1    4    4    0    0 -0.29014764865E+02 -0.28208911959E+02 -0.78302875257E+01  0.41217868663E+02  0.51100000000E-03 0.  1.
        -12    1    4    4    0    0  0.11669611217E+01 -0.14648522758E+01 -0.37945419509E+01  0.42315646121E+01  0.00000000000E+00 0.  1.
</event>
<event>
 8    1  0.2490104E-006  0.9118800E+02  0.7816164E-02  0.1184000E+00
        -11   -1    0    0    0    0  0.00000000000E+00  0.00000000000E+00  0.45593999997E+02  0.45594000000E+02  0.51100000000E-03 0. -1.
         11   -1    0    0    0    0 -0.00000000000E+00 -0.00000000000E+00 -0.45593999997E+02  0.45594000000E+02  0.51100000000E-03 0.  1.
         23    2    1    2    0    0  0.00000000000E+00  0.00000000000E+00 -0.35527136788E-14  0.91188000000E+02  0.91188000000E+02 0.  0.
    9900012    2    3    3    0    0 -0.17446642774E+02 -0.21210016530E+02 -0.24526108522E+02  0.54367080069E+02  0.39999990634E+02 0.  0.
         12    1    3    3    0    0  0.17446642774E+02  0.21210016530E+02  0.24526108522E+02  0.36820919931E+02  0.00000000000E+00 0. -1.
         11    1    4    4    0    0 -0.12247008416E+01  0.76991336191E+01 -0.40403962483E+00  0.78063947450E+01  0.51100000000E-03 0. -1.
        -11    1    4    4    0    0 -0.14016837890E+02 -0.49051750422E+01 -0.46136753964E+01  0.15550514061E+02  0.51100000000E-03 0.  1.
        -12    1    4    4    0    0 -0.22051040422E+01 -0.24003975107E+02 -0.19508393501E+02  0.31010171263E+02  0.00000000000E+00 0.  1.
</event>
<event>
 8    1  0.2490104E-006  0.9118800E+02  0.7816164E-02  0.1184000E+00
        -11   -1    0    0    0    0  0.00000000000E+00  0.00000000000E+00  0.45593999997E+02  0.45594000000E+02  0.51100000000E-03 0.  1.
         11   -1    0    0    0    0 -0.00000000000E+00 -0.00000000000E+00 -0.45593999997E+02  0.45594000000E+02  0.51100000000E-03 0. -1.
         23    2    1    2    0    0 -0.35527136788E-14 -0.17763568394E-14  0.00000000000E+00  0.91188000000E+02  0.91188000000E+02 0.  0.
    9900012    2    3    3    0    0 -0.31506025076E+02 -0.95923837958E+01 -0.16466406581E+02  0.54367000711E+02  0.39999809720E+02 0.  0.
        -12    1    3    3    0    0  0.31506025076E+02  0.95923837958E+01  0.16466406581E+02  0.36820999289E+02  0.00000000000E+00 0.  1.
         11    1    4    4    0    0 -0.13402248139E+01  0.93343009378E+01 -0.36228587483E+01  0.10102003876E+02  0.51100000000E-03 0.  1.
        -11    1    4    4    0    0 -0.45385319458E+01 -0.11156571597E+02 -0.12675304235E+02  0.17485156554E+02  0.51100000000E-03 0. -1.
         12    1    4    4    0    0 -0.25627268316E+02 -0.77701131368E+01 -0.16824359792E+00  0.26779840280E+02  0.00000000000E+00 0. -1.
</event>
<event>
 8    1  0.2490104E-006  0.9118800E+02  0.7816164E-02  0.1184000E+00
        -11   -1    0    0    0    0  0.00000000000E+00  0.00000000000E+00  0.45593999997E+02  0.45594000000E+02  0.51100000000E-03 0. -1.
         11   -1    0    0    0    0 -0.00000000000E+00 -0.00000000000E+00 -0.45593999997E+02  0.45594000000E+02  0.51100000000E-03 0.  1.
         23    2    1    2    0    0 -0.35527136788E-14  0.17763568394E-14  0.00000000000E+00  0.91188000000E+02  0.91188000000E+02 0.  0.
    9900012    2    3    3    0    0 -0.16729877888E+02 -0.45280951605E+01 -0.32486705296E+02  0.54367102660E+02  0.40000042134E+02 0.  0.
         12    1    3    3    0    0  0.16729877888E+02  0.45280951605E+01  0.32486705296E+02  0.36820897340E+02  0.00000000000E+00 0. -1.
         11    1    4    4    0    0 -0.27155450731E+01  0.14003991255E+02 -0.14358746662E+02  0.20240048470E+02  0.51100000000E-03 0. -1.
        -11    1    4    4    0    0  0.34544015334E+01 -0.50885496612E+01 -0.73700286368E+01  0.95991431897E+01  0.51100000000E-03 0.  1.
         12    1    4    4    0    0 -0.17468734349E+02 -0.13443536754E+02 -0.10757929997E+02  0.24527911000E+02  0.00000000000E+00 0. -1.
</event>
<event>
 8    1  0.2490104E-006  0.9118800E+02  0.7816164E-02  0.1184000E+00
        -11   -1    0    0    0    0  0.00000000000E+00  0.00000000000E+00  0.45593999997E+02  0.45594000000E+02  0.51100000000E-03 0. -1.
         11   -1    0    0    0    0 -0.00000000000E+00 -0.00000000000E+00 -0.45593999997E+02  0.45594000000E+02  0.51100000000E-03 0.  1.
         23    2    1    2    0    0  0.00000000000E+00  0.00000000000E+00  0.00000000000E+00  0.91188000000E+02  0.91188000000E+02 0.  0.
    9900012    2    3    3    0    0  0.24230520700E+02 -0.17625187313E+02  0.21401367057E+02  0.54367029438E+02  0.39999875210E+02 0.  0.
        -12    1    3    3    0    0 -0.24230520700E+02  0.17625187313E+02 -0.21401367057E+02  0.36820970562E+02  0.00000000000E+00 0.  1.
         11    1    4    4    0    0  0.79758857497E+01 -0.19555626696E+02  0.15622900934E+02  0.26269989015E+02  0.51100000000E-03 0. -1.
        -11    1    4    4    0    0  0.17935055779E+02  0.86661937031E+01  0.15745840614E+01  0.19981202524E+02  0.51100000000E-03 0.  1.
        -12    1    4    4    0    0 -0.16804208287E+01 -0.67357543200E+01  0.42038820611E+01  0.81158378991E+01  0.00000000000E+00 0.  1.
</event>
<event>
 8    1  0.2490104E-006  0.9118800E+02  0.7816164E-02  0.1184000E+00
        -11   -1    0    0    0    0  0.00000000000E+00  0.00000000000E+00  0.45593999997E+02  0.45594000000E+02  0.51100000000E-03 0.  1.
         11   -1    0    0    0    0 -0.00000000000E+00 -0.00000000000E+00 -0.45593999997E+02  0.45594000000E+02  0.51100000000E-03 0. -1.
         23    2    1    2    0    0  0.88817841970E-15 -0.71054273576E-14 -0.44408920985E-15  0.91188000000E+02  0.91188000000E+02 0.  0.
    9900012    2    3    3    0    0 -0.45407468790E+01  0.36486911538E+02  0.19662729590E+01  0.54367091196E+02  0.40000015998E+02 0.  0.
        -12    1    3    3    0    0  0.45407468790E+01 -0.36486911538E+02 -0.19662729590E+01  0.36820908804E+02  0.00000000000E+00 0.  1.
         11    1    4    4    0    0  0.23003581642E+01  0.48980255699E+01  0.48766825551E+01  0.72845271069E+01  0.51100000000E-03 0. -1.
        -11    1    4    4    0    0  0.53468744654E+00  0.20281529920E+02  0.14582818329E+02  0.24985694652E+02  0.51100000000E-03 0.  1.
         12    1    4    4    0    0 -0.73757924897E+01  0.11307356048E+02 -0.17493227925E+02  0.22096869436E+02  0.00000000000E+00 0. -1.
</event>
<event>
 8    1  0.2490104E-006  0.9118800E+02  0.7816164E-02  0.1184000E+00
        -11   -1    0    0    0    0  0.00000000000E+00  0.00000000000E+00  0.45593999997E+02  0.45594000000E+02  0.51100000000E-03 0. -1.
         11   -1    0    0    0    0 -0.00000000000E+00 -0.00000000000E+00 -0.45593999997E+02  0.45594000000E+02  0.51100000000E-03 0.  1.
         23    2    1    2    0    0  0.00000000000E+00  0.00000000000E+00  0.35527136788E-14  0.91188000000E+02  0.91188000000E+02 0.  0.
    9900012    2    3    3    0    0  0.10898609970E+02  0.21996055522E+02  0.27444007350E+02  0.54367086143E+02  0.40000004480E+02 0.  0.
        -12    1    3    3    0    0 -0.10898609970E+02 -0.21996055522E+02 -0.27444007350E+02  0.36820913857E+02  0.00000000000E+00 0.  1.
         11    1    4    4    0    0 -0.34680360794E+01  0.39639727304E-01  0.34701812396E+01  0.49062209136E+01  0.51100000000E-03 0. -1.
        -11    1    4    4    0    0 -0.34716960258E+01  0.11006978706E+02 -0.59173836562E+01  0.12970030190E+02  0.51100000000E-03 0.  1.
         12    1    4    4    0    0  0.17838342075E+02  0.10949437089E+02  0.29891209767E+02  0.36490835040E+02  0.00000000000E+00 0. -1.
</event>
<event>
 8    1  0.2490104E-006  0.9118800E+02  0.7816164E-02  0.1184000E+00
        -11   -1    0    0    0    0  0.00000000000E+00  0.00000000000E+00  0.45593999997E+02  0.45594000000E+02  0.51100000000E-03 0. -1.
         11   -1    0    0    0    0 -0.00000000000E+00 -0.00000000000E+00 -0.45593999997E+02  0.45594000000E+02  0.51100000000E-03 0.  1.
         23    2    1    2    0    0  0.00000000000E+00  0.00000000000E+00  0.00000000000E+00  0.91188000000E+02  0.91188000000E+02 0.  0.
    9900012    2    3    3    0    0 -0.19705895730E+02 -0.30411091133E+02 -0.65285423126E+01  0.54367100294E+02  0.40000036740E+02 0.  0.
         12    1    3    3    0    0  0.19705895730E+02  0.30411091133E+02  0.65285423126E+01  0.36820899706E+02  0.00000000000E+00 0. -1.
         11    1    4    4    0    0 -0.56624130067E+01 -0.10402431949E+02  0.41484959788E+01  0.12549244227E+02  0.51100000000E-03 0. -1.
        -11    1    4    4    0    0 -0.22422471858E+00 -0.25543968375E+02 -0.66723983857E+01  0.26401997984E+02  0.51100000000E-03 0.  1.
         12    1    4    4    0    0 -0.13819258005E+02  0.55353091914E+01 -0.40046399057E+01  0.15415858083E+02  0.00000000000E+00 0. -1.
</event>
<event>
 8    1  0.2490104E-006  0.9118800E+02  0.7816164E-02  0.1184000E+00
        -11   -1    0    0    0    0  0.00000000000E+00  0.00000000000E+00  0.45593999997E+02  0.45594000000E+02  0.51100000000E-03 0. -1.
         11   -1    0    0    0    0 -0.00000000000E+00 -0.00000000000E+00 -0.45593999997E+02  0.45594000000E+02  0.51100000000E-03 0.  1.
         23    2    1    2    0    0  0.00000000000E+00 -0.35527136788E-14  0.00000000000E+00  0.91188000000E+02  0.91188000000E+02 0.  0.
    9900012    2    3    3    0    0  0.71744162651E+01 -0.31694884633E+02 -0.17313003685E+02  0.54367108413E+02  0.40000055250E+02 0.  0.
         12    1    3    3    0    0 -0.71744162651E+01  0.31694884633E+02  0.17313003685E+02  0.36820891587E+02  0.00000000000E+00 0. -1.
         11    1    4    4    0    0 -0.82054743152E-01 -0.15134583645E+02  0.91700956640E+01  0.17696129799E+02  0.51100000000E-03 0. -1.
        -11    1    4    4    0    0  0.17578547795E+01 -0.86940640825E+01 -0.40094586263E+00  0.88790518380E+01  0.51100000000E-03 0.  1.
         12    1    4    4    0    0  0.54986162287E+01 -0.78662369051E+01 -0.26082153486E+02  0.27791926777E+02  0.00000000000E+00 0. -1.
</event>
<event>
 8    1  0.2490104E-006  0.9118800E+02  0.7816164E-02  0.1184000E+00
        -11   -1    0    0    0    0  0.00000000000E+00  0.00000000000E+00  0.45593999997E+02  0.45594000000E+02  0.51100000000E-03 0.  1.
         11   -1    0    0    0    0 -0.00000000000E+00 -0.00000000000E+00 -0.45593999997E+02  0.45594000000E+02  0.51100000000E-03 0. -1.
         23    2    1    2    0    0  0.00000000000E+00  0.00000000000E+00  0.00000000000E+00  0.91188000000E+02  0.91188000000E+02 0.  0.
    9900012    2    3    3    0    0 -0.10407362610E+02  0.30288049606E+02  0.18168734723E+02  0.54367053966E+02  0.39999931126E+02 0.  0.
         12    1    3    3    0    0  0.10407362610E+02 -0.30288049606E+02 -0.18168734723E+02  0.36820946034E+02  0.00000000000E+00 0. -1.
         11    1    4    4    0    0 -0.14042732149E+01  0.10140762550E+01 -0.67253111244E+01  0.69447925739E+01  0.51100000000E-03 0. -1.
        -11    1    4    4    0    0 -0.71139232895E+01  0.41361648905E+01  0.20157458612E+02  0.21772434465E+02  0.51100000000E-03 0.  1.
        -12    1    4    4    0    0 -0.18891661060E+01  0.25137808460E+02  0.47365872351E+01  0.25649826927E+02  0.00000000000E+00 0.  1.
</event>
<event>
 8    1  0.2490104E-006  0.9118800E+02  0.7816164E-02  0.1184000E+00
        -11   -1    0    0    0    0  0.00000000000E+00  0.00000000000E+00  0.45593999997E+02  0.45594000000E+02  0.51100000000E-03 0. -1.
         11   -1    0    0    0    0 -0.00000000000E+00 -0.00000000000E+00 -0.45593999997E+02  0.45594000000E+02  0.51100000000E-03 0.  1.
         23    2    1    2    0    0 -0.44408920985E-15 -0.88817841970E-15  0.00000000000E+00  0.91188000000E+02  0.91188000000E+02 0.  0.
    9900012    2    3    3    0    0  0.35350971119E+01  0.30637675792E+01 -0.36522536533E+02  0.54367092105E+02  0.40000018072E+02 0.  0.
         12    1    3    3    0    0 -0.35350971119E+01 -0.30637675792E+01  0.36522536533E+02  0.36820907895E+02  0.00000000000E+00 0. -1.
         11    1    4    4    0    0  0.48119778851E+01 -0.52882203547E+01 -0.12135870269E+02  0.14085444726E+02  0.51100000000E-03 0.  1.
        -11    1    4    4    0    0  0.86302577867E+01  0.10216924278E+02 -0.26767961103E+02  0.29923078602E+02  0.51100000000E-03 0. -1.
         12    1    4    4    0    0 -0.99071385599E+01 -0.18649363437E+01  0.23812948379E+01  0.10358568777E+02  0.00000000000E+00 0. -1.
</event>
<event>
 8    1  0.2490104E-006  0.9118800E+02  0.7816164E-02  0.1184000E+00
        -11   -1    0    0    0    0  0.00000000000E+00  0.00000000000E+00  0.45593999997E+02  0.45594000000E+02  0.51100000000E-03 0. -1.
         11   -1    0    0    0    0 -0.00000000000E+00 -0.00000000000E+00 -0.45593999997E+02  0.45594000000E+02  0.51100000000E-03 0.  1.
         23    2    1    2    0    0  0.00000000000E+00  0.00000000000E+00  0.35527136788E-14  0.91188000000E+02  0.91188000000E+02 0.  0.
    9900012    2    3    3    0    0  0.24968515411E+02  0.17570849924E+01  0.27004940924E+02  0.54367069215E+02  0.39999965890E+02 0.  0.
        -12    1    3    3    0    0 -0.24968515411E+02 -0.17570849924E+01 -0.27004940924E+02  0.36820930785E+02  0.00000000000E+00 0.  1.
         11    1    4    4    0    0 -0.27794661027E+01  0.68629468320E+00 -0.54811964857E+01  0.61838456793E+01  0.51100000000E-03 0. -1.
        -11    1    4    4    0    0  0.12115725731E+02  0.31217780075E+01  0.49875217043E+00  0.12521384185E+02  0.51100000000E-03 0.  1.
         12    1    4    4    0    0  0.15632255783E+02 -0.20509876983E+01  0.31987385240E+02  0.35661839351E+02  0.00000000000E+00 0. -1.
</event>
<event>
 8    1  0.2490104E-006  0.9118800E+02  0.7816164E-02  0.1184000E+00
        -11   -1    0    0    0    0  0.00000000000E+00  0.00000000000E+00  0.45593999997E+02  0.45594000000E+02  0.51100000000E-03 0. -1.
         11   -1    0    0    0    0 -0.00000000000E+00 -0.00000000000E+00 -0.45593999997E+02  0.45594000000E+02  0.51100000000E-03 0.  1.
         23    2    1    2    0    0  0.00000000000E+00  0.00000000000E+00 -0.17763568394E-14  0.91188000000E+02  0.91188000000E+02 0.  0.
    9900012    2    3    3    0    0  0.28681093761E+02  0.19632131728E+02 -0.12155442349E+02  0.54367075050E+02  0.39999979191E+02 0.  0.
        -12    1    3    3    0    0 -0.28681093761E+02 -0.19632131728E+02  0.12155442349E+02  0.36820924950E+02  0.00000000000E+00 0.  1.
         11    1    4    4    0    0  0.15541805689E+02  0.41615138297E+01  0.40276939130E+01  0.16585784273E+02  0.51100000000E-03 0. -1.
        -11    1    4    4    0    0 -0.55987634049E+01  0.13336523959E+02 -0.30018769565E+01  0.14772281086E+02  0.51100000000E-03 0.  1.
        -12    1    4    4    0    0  0.18738051477E+02  0.21340939394E+01 -0.13181259306E+02  0.23009009691E+02  0.00000000000E+00 0.  1.
</event>
<event>
 8    1  0.2490104E-006  0.9118800E+02  0.7816164E-02  0.1184000E+00
        -11   -1    0    0    0    0  0.00000000000E+00  0.00000000000E+00  0.45593999997E+02  0.45594000000E+02  0.51100000000E-03 0.  1.
         11   -1    0    0    0    0 -0.00000000000E+00 -0.00000000000E+00 -0.45593999997E+02  0.45594000000E+02  0.51100000000E-03 0. -1.
         23    2    1    2    0    0  0.00000000000E+00  0.00000000000E+00  0.17763568394E-14  0.91188000000E+02  0.91188000000E+02 0.  0.
    9900012    2    3    3    0    0  0.86085326123E+01 -0.34307368036E+02  0.10231380177E+02  0.54367034835E+02  0.39999887514E+02 0.  0.
         12    1    3    3    0    0 -0.86085326123E+01  0.34307368036E+02 -0.10231380177E+02  0.36820965165E+02  0.00000000000E+00 0. -1.
         11    1    4    4    0    0  0.68105275730E+01 -0.68289812996E+01 -0.35882905595E+01  0.10290485937E+02  0.51100000000E-03 0. -1.
        -11    1    4    4    0    0  0.12632559637E+02 -0.10791655473E+02 -0.43048328166E+01  0.17163128405E+02  0.51100000000E-03 0.  1.
         12    1    4    4    0    0 -0.10834554597E+02 -0.16686731264E+02  0.18124503553E+02  0.26913420493E+02  0.00000000000E+00 0. -1.
</event>
<event>
 8    1  0.2490104E-006  0.9118800E+02  0.7816164E-02  0.1184000E+00
        -11   -1    0    0    0    0  0.00000000000E+00  0.00000000000E+00  0.45593999997E+02  0.45594000000E+02  0.51100000000E-03 0.  1.
         11   -1    0    0    0    0 -0.00000000000E+00 -0.00000000000E+00 -0.45593999997E+02  0.45594000000E+02  0.51100000000E-03 0. -1.
         23    2    1    2    0    0 -0.71054273576E-14  0.17763568394E-14  0.26645352591E-14  0.91188000000E+02  0.91188000000E+02 0.  0.
    9900012    2    3    3    0    0 -0.34492567450E+02  0.11184124299E+02  0.63999647879E+01  0.54367063090E+02  0.39999951927E+02 0.  0.
         12    1    3    3    0    0  0.34492567450E+02 -0.11184124299E+02 -0.63999647879E+01  0.36820936910E+02  0.00000000000E+00 0. -1.
         11    1    4    4    0    0 -0.16511574896E+01  0.80839616976E+00  0.49124423133E+00  0.19029310494E+01  0.51100000000E-03 0. -1.
        -11    1    4    4    0    0 -0.24452462450E+02  0.10178656985E+02  0.21924460604E+02  0.34383280107E+02  0.51100000000E-03 0.  1.
         12    1    4    4    0    0 -0.83889475109E+01  0.19707114468E+00 -0.16015740048E+02  0.18080851934E+02  0.00000000000E+00 0. -1.
</event>
<event>
 8    1  0.2490104E-006  0.9118800E+02  0.7816164E-02  0.1184000E+00
        -11   -1    0    0    0    0  0.00000000000E+00  0.00000000000E+00  0.45593999997E+02  0.45594000000E+02  0.51100000000E-03 0.  1.
         11   -1    0    0    0    0 -0.00000000000E+00 -0.00000000000E+00 -0.45593999997E+02  0.45594000000E+02  0.51100000000E-03 0. -1.
         23    2    1    2    0    0  0.00000000000E+00 -0.17763568394E-14  0.00000000000E+00  0.91188000000E+02  0.91188000000E+02 0.  0.
    9900012    2    3    3    0    0  0.24055752032E+02 -0.12708424564E+02 -0.24811213603E+02  0.54367087719E+02  0.40000008074E+02 0.  0.
        -12    1    3    3    0    0 -0.24055752032E+02  0.12708424564E+02  0.24811213603E+02  0.36820912281E+02  0.00000000000E+00 0.  1.
         11    1    4    4    0    0  0.11177660510E+02 -0.90871102403E+01 -0.12588818098E+02  0.19130969875E+02  0.51100000000E-03 0. -1.
        -11    1    4    4    0    0  0.40353020688E+00  0.35652161211E+01  0.89445084547E+01  0.96373146870E+01  0.51100000000E-03 0.  1.
        -12    1    4    4    0    0  0.12474561314E+02 -0.71865304451E+01 -0.21166903960E+02  0.25598803157E+02  0.00000000000E+00 0.  1.
</event>
<event>
 8    1  0.2490104E-006  0.9118800E+02  0.7816164E-02  0.1184000E+00
        -11   -1    0    0    0    0  0.00000000000E+00  0.00000000000E+00  0.45593999997E+02  0.45594000000E+02  0.51100000000E-03 0. -1.
         11   -1    0    0    0    0 -0.00000000000E+00 -0.00000000000E+00 -0.45593999997E+02  0.45594000000E+02  0.51100000000E-03 0.  1.
         23    2    1    2    0    0 -0.24424906542E-14  0.00000000000E+00  0.88817841970E-15  0.91188000000E+02  0.91188000000E+02 0.  0.
    9900012    2    3    3    0    0  0.17147736805E+01  0.35907182314E+02  0.79694974895E+01  0.54367094515E+02  0.40000023565E+02 0.  0.
        -12    1    3    3    0    0 -0.17147736805E+01 -0.35907182314E+02 -0.79694974895E+01  0.36820905485E+02  0.00000000000E+00 0.  1.
         11    1    4    4    0    0 -0.11093014858E+01  0.13345764966E+02  0.22403080289E+01  0.13577885426E+02  0.51100000000E-03 0. -1.
        -11    1    4    4    0    0  0.16450562957E+02  0.18268704918E+02 -0.17820104815E+01  0.24648370384E+02  0.51100000000E-03 0.  1.
        -12    1    4    4    0    0 -0.13626487791E+02  0.42927124303E+01  0.75111999421E+01  0.16140838705E+02  0.00000000000E+00 0.  1.
</event>
<event>
 8    1  0.2490104E-006  0.9118800E+02  0.7816164E-02  0.1184000E+00
        -11   -1    0    0    0    0  0.00000000000E+00  0.00000000000E+00  0.45593999997E+02  0.45594000000E+02  0.51100000000E-03 0.  1.
         11   -1    0    0    0    0 -0.00000000000E+00 -0.00000000000E+00 -0.45593999997E+02  0.45594000000E+02  0.51100000000E-03 0. -1.
         23    2    1    2    0    0 -0.55511151231E-16  0.00000000000E+00  0.00000000000E+00  0.91188000000E+02  0.91188000000E+02 0.  0.
    9900012    2    3    3    0    0 -0.13098534327E+00  0.18981720156E+02 -0.31550999037E+02  0.54366968001E+02  0.39999735151E+02 0.  0.
        -12    1    3    3    0    0  0.13098534327E+00 -0.18981720156E+02  0.31550999037E+02  0.36821031999E+02  0.00000000000E+00 0.  1.
         11    1    4    4    0    0  0.14465460263E+01  0.12106303244E+02 -0.35863115050E+02  0.37878992793E+02  0.51100000000E-03 0. -1.
        -11    1    4    4    0    0 -0.27832663801E+00 -0.30191773041E+01 -0.28839862094E+01  0.41845279337E+01  0.51100000000E-03 0.  1.
         12    1    4    4    0    0 -0.12992047316E+01  0.98945942160E+01  0.71961022229E+01  0.12303447274E+02  0.00000000000E+00 0. -1.
</event>
<event>
 8    1  0.2490104E-006  0.9118800E+02  0.7816164E-02  0.1184000E+00
        -11   -1    0    0    0    0  0.00000000000E+00  0.00000000000E+00  0.45593999997E+02  0.45594000000E+02  0.51100000000E-03 0. -1.
         11   -1    0    0    0    0 -0.00000000000E+00 -0.00000000000E+00 -0.45593999997E+02  0.45594000000E+02  0.51100000000E-03 0.  1.
         23    2    1    2    0    0  0.17763568394E-14  0.00000000000E+00  0.35527136788E-14  0.91188000000E+02  0.91188000000E+02 0.  0.
    9900012    2    3    3    0    0  0.11100221898E+02 -0.18542515128E+02  0.29811728802E+02  0.54367096051E+02  0.40000027068E+02 0.  0.
        -12    1    3    3    0    0 -0.11100221898E+02  0.18542515128E+02 -0.29811728802E+02  0.36820903949E+02  0.00000000000E+00 0.  1.
         11    1    4    4    0    0 -0.69349842204E+00  0.48171606429E+01  0.16170010918E+02  0.16886539908E+02  0.51100000000E-03 0. -1.
        -11    1    4    4    0    0 -0.46806884965E+01 -0.81401925932E+01 -0.26531643765E+01  0.97576053274E+01  0.51100000000E-03 0.  1.
         12    1    4    4    0    0  0.16474408816E+02 -0.15219483178E+02  0.16294882260E+02  0.27722950816E+02  0.00000000000E+00 0. -1.
</event>
<event>
 8    1  0.2490104E-006  0.9118800E+02  0.7816164E-02  0.1184000E+00
        -11   -1    0    0    0    0  0.00000000000E+00  0.00000000000E+00  0.45593999997E+02  0.45594000000E+02  0.51100000000E-03 0. -1.
         11   -1    0    0    0    0 -0.00000000000E+00 -0.00000000000E+00 -0.45593999997E+02  0.45594000000E+02  0.51100000000E-03 0.  1.
         23    2    1    2    0    0  0.35527136788E-14 -0.88817841970E-15  0.00000000000E+00  0.91188000000E+02  0.91188000000E+02 0.  0.
    9900012    2    3    3    0    0 -0.22054757871E+02 -0.60041182927E+01 -0.28867305875E+02  0.54367039533E+02  0.39999898223E+02 0.  0.
         12    1    3    3    0    0  0.22054757871E+02  0.60041182927E+01  0.28867305875E+02  0.36820960467E+02  0.00000000000E+00 0. -1.
         11    1    4    4    0    0 -0.68093916818E+01  0.11949391387E+02 -0.12697520784E+02  0.18718515003E+02  0.51100000000E-03 0. -1.
        -11    1    4    4    0    0 -0.28246578325E+01 -0.15349341949E+02 -0.67736559510E+00  0.15621773733E+02  0.51100000000E-03 0.  1.
        -12    1    4    4    0    0 -0.12420708357E+02 -0.26041677302E+01 -0.15492419496E+02  0.20026750797E+02  0.00000000000E+00 0.  1.
</event>
<event>
 8    1  0.2490104E-006  0.9118800E+02  0.7816164E-02  0.1184000E+00
        -11   -1    0    0    0    0  0.00000000000E+00  0.00000000000E+00  0.45593999997E+02  0.45594000000E+02  0.51100000000E-03 0.  1.
         11   -1    0    0    0    0 -0.00000000000E+00 -0.00000000000E+00 -0.45593999997E+02  0.45594000000E+02  0.51100000000E-03 0. -1.
         23    2    1    2    0    0  0.35527136788E-14 -0.17763568394E-14  0.00000000000E+00  0.91188000000E+02  0.91188000000E+02 0.  0.
    9900012    2    3    3    0    0 -0.27337233036E+02  0.12813762875E+02  0.21077555776E+02  0.54367079499E+02  0.39999989333E+02 0.  0.
        -12    1    3    3    0    0  0.27337233036E+02 -0.12813762875E+02 -0.21077555776E+02  0.36820920501E+02  0.00000000000E+00 0.  1.
         11    1    4    4    0    0 -0.17431563022E+02 -0.10303801099E+01  0.16269909591E+01  0.17537621629E+02  0.51100000000E-03 0. -1.
        -11    1    4    4    0    0 -0.18502000716E+02  0.60163016485E+01  0.10170373512E+02  0.21953505726E+02  0.51100000000E-03 0.  1.
        -12    1    4    4    0    0  0.85963307019E+01  0.78278413365E+01  0.92801913050E+01  0.14875952144E+02  0.00000000000E+00 0.  1.
</event>
<event>
 8    1  0.2490104E-006  0.9118800E+02  0.7816164E-02  0.1184000E+00
        -11   -1    0    0    0    0  0.00000000000E+00  0.00000000000E+00  0.45593999997E+02  0.45594000000E+02  0.51100000000E-03 0. -1.
         11   -1    0    0    0    0 -0.00000000000E+00 -0.00000000000E+00 -0.45593999997E+02  0.45594000000E+02  0.51100000000E-03 0.  1.
         23    2    1    2    0    0  0.00000000000E+00 -0.35527136788E-14  0.22204460493E-15  0.91188000000E+02  0.91188000000E+02 0.  0.
    9900012    2    3    3    0    0 -0.35308518921E+02 -0.10328128705E+02  0.15551662818E+01  0.54367078052E+02  0.39999986036E+02 0.  0.
         12    1    3    3    0    0  0.35308518921E+02  0.10328128705E+02 -0.15551662818E+01  0.36820921948E+02  0.00000000000E+00 0. -1.
         11    1    4    4    0    0 -0.22282478432E+02 -0.22092793677E+02  0.52123793752E+00  0.31382671441E+02  0.51100000000E-03 0. -1.
        -11    1    4    4    0    0  0.33118542389E+01  0.17045524279E+01 -0.38848543300E+00  0.37449697825E+01  0.51100000000E-03 0.  1.
        -12    1    4    4    0    0 -0.16337894727E+02  0.10060112544E+02  0.14224137773E+01  0.19239436828E+02  0.00000000000E+00 0.  1.
</event>
<event>
 8    1  0.2490104E-006  0.9118800E+02  0.7816164E-02  0.1184000E+00
        -11   -1    0    0    0    0  0.00000000000E+00  0.00000000000E+00  0.45593999997E+02  0.45594000000E+02  0.51100000000E-03 0.  1.
         11   -1    0    0    0    0 -0.00000000000E+00 -0.00000000000E+00 -0.45593999997E+02  0.45594000000E+02  0.51100000000E-03 0. -1.
         23    2    1    2    0    0  0.00000000000E+00  0.35527136788E-14  0.35527136788E-14  0.91188000000E+02  0.91188000000E+02 0.  0.
    9900012    2    3    3    0    0 -0.15207832334E+02 -0.25222534040E+02 -0.22097988132E+02  0.54367143585E+02  0.40000135430E+02 0.  0.
        -12    1    3    3    0    0  0.15207832334E+02  0.25222534040E+02  0.22097988132E+02  0.36820856415E+02  0.00000000000E+00 0.  1.
         11    1    4    4    0    0 -0.23699852111E+01  0.52028025330E+01  0.12315294655E+01  0.58483031030E+01  0.51100000000E-03 0. -1.
        -11    1    4    4    0    0  0.12268462623E+01  0.23246984377E+01  0.31603225720E+01  0.41105977178E+01  0.51100000000E-03 0.  1.
        -12    1    4    4    0    0 -0.14064693385E+02 -0.32750035010E+02 -0.26489840169E+02  0.44408242764E+02  0.00000000000E+00 0.  1.
</event>
<event>
 8    1  0.2490104E-006  0.9118800E+02  0.7816164E-02  0.1184000E+00
        -11   -1    0    0    0    0  0.00000000000E+00  0.00000000000E+00  0.45593999997E+02  0.45594000000E+02  0.51100000000E-03 0. -1.
         11   -1    0    0    0    0 -0.00000000000E+00 -0.00000000000E+00 -0.45593999997E+02  0.45594000000E+02  0.51100000000E-03 0.  1.
         23    2    1    2    0    0  0.00000000000E+00 -0.17763568394E-14  0.17763568394E-14  0.91188000000E+02  0.91188000000E+02 0.  0.
    9900012    2    3    3    0    0  0.34975093780E+02 -0.87157131354E+01 -0.75206071899E+01  0.54367076968E+02  0.39999983565E+02 0.  0.
        -12    1    3    3    0    0 -0.34975093780E+02  0.87157131354E+01  0.75206071899E+01  0.36820923032E+02  0.00000000000E+00 0.  1.
         11    1    4    4    0    0  0.16690918572E+02 -0.25736876368E-01 -0.12129218037E+02  0.20632628422E+02  0.51100000000E-03 0. -1.
        -11    1    4    4    0    0  0.58639450356E+01 -0.14302687594E+02  0.10705684313E+02  0.18803308237E+02  0.51100000000E-03 0.  1.
         12    1    4    4    0    0  0.12420230173E+02  0.56127113351E+01 -0.60970734658E+01  0.14931140309E+02  0.00000000000E+00 0. -1.
</event>
<event>
 8    1  0.2490104E-006  0.9118800E+02  0.7816164E-02  0.1184000E+00
        -11   -1    0    0    0    0  0.00000000000E+00  0.00000000000E+00  0.45593999997E+02  0.45594000000E+02  0.51100000000E-03 0. -1.
         11   -1    0    0    0    0 -0.00000000000E+00 -0.00000000000E+00 -0.45593999997E+02  0.45594000000E+02  0.51100000000E-03 0.  1.
         23    2    1    2    0    0  0.00000000000E+00  0.00000000000E+00  0.35527136788E-14  0.91188000000E+02  0.91188000000E+02 0.  0.
    9900012    2    3    3    0    0 -0.12802159856E+02 -0.14334963827E+02 -0.31406907295E+02  0.54367077813E+02  0.39999985489E+02 0.  0.
         12    1    3    3    0    0  0.12802159856E+02  0.14334963827E+02  0.31406907295E+02  0.36820922187E+02  0.00000000000E+00 0. -1.
         11    1    4    4    0    0 -0.18300766650E+02  0.57527330735E+00 -0.25801196962E+02  0.31637805934E+02  0.51100000000E-03 0. -1.
        -11    1    4    4    0    0 -0.48887885408E+01 -0.78380917854E+01 -0.78886699503E+00  0.92713670853E+01  0.51100000000E-03 0.  1.
         12    1    4    4    0    0  0.10387395335E+02 -0.70721453485E+01 -0.48168433380E+01  0.13457904793E+02  0.00000000000E+00 0. -1.
</event>
<event>
 8    1  0.2490104E-006  0.9118800E+02  0.7816164E-02  0.1184000E+00
        -11   -1    0    0    0    0  0.00000000000E+00  0.00000000000E+00  0.45593999997E+02  0.45594000000E+02  0.51100000000E-03 0. -1.
         11   -1    0    0    0    0 -0.00000000000E+00 -0.00000000000E+00 -0.45593999997E+02  0.45594000000E+02  0.51100000000E-03 0.  1.
         23    2    1    2    0    0  0.00000000000E+00  0.17763568394E-14 -0.35527136788E-14  0.91188000000E+02  0.91188000000E+02 0.  0.
    9900012    2    3    3    0    0  0.22004218386E+02  0.59783924022E+01  0.28911128650E+02  0.54367079828E+02  0.39999990083E+02 0.  0.
        -12    1    3    3    0    0 -0.22004218386E+02 -0.59783924022E+01 -0.28911128650E+02  0.36820920172E+02  0.00000000000E+00 0.  1.
         11    1    4    4    0    0  0.17983033370E+02  0.16048624984E+02  0.33183529124E+02  0.41013344882E+02  0.51100000000E-03 0. -1.
        -11    1    4    4    0    0  0.51698524689E+01 -0.46998916651E+01 -0.12920375485E+01  0.71053302176E+01  0.51100000000E-03 0.  1.
         12    1    4    4    0    0 -0.11486674526E+01 -0.53703409164E+01 -0.29803629251E+01  0.62484047276E+01  0.00000000000E+00 0. -1.
</event>
<event>
 8    1  0.2490104E-006  0.9118800E+02  0.7816164E-02  0.1184000E+00
        -11   -1    0    0    0    0  0.00000000000E+00  0.00000000000E+00  0.45593999997E+02  0.45594000000E+02  0.51100000000E-03 0. -1.
         11   -1    0    0    0    0 -0.00000000000E+00 -0.00000000000E+00 -0.45593999997E+02  0.45594000000E+02  0.51100000000E-03 0.  1.
         23    2    1    2    0    0  0.00000000000E+00  0.88817841970E-15  0.00000000000E+00  0.91188000000E+02  0.91188000000E+02 0.  0.
    9900012    2    3    3    0    0 -0.17742895808E+02 -0.26122912060E+01 -0.32158128650E+02  0.54367086713E+02  0.40000005780E+02 0.  0.
         12    1    3    3    0    0  0.17742895808E+02  0.26122912060E+01  0.32158128650E+02  0.36820913287E+02  0.00000000000E+00 0. -1.
         11    1    4    4    0    0  0.87173283679E+01  0.73297269757E+01 -0.13763508375E+02  0.17864794275E+02  0.51100000000E-03 0. -1.
        -11    1    4    4    0    0 -0.16473987567E+02  0.72665339882E+00 -0.67545612462E+01  0.17819775234E+02  0.51100000000E-03 0.  1.
         12    1    4    4    0    0 -0.99862366094E+01 -0.10668671581E+02 -0.11640059028E+02  0.18682517204E+02  0.00000000000E+00 0. -1.
</event>
<event>
 8    1  0.2490104E-006  0.9118800E+02  0.7816164E-02  0.1184000E+00
        -11   -1    0    0    0    0  0.00000000000E+00  0.00000000000E+00  0.45593999997E+02  0.45594000000E+02  0.51100000000E-03 0.  1.
         11   -1    0    0    0    0 -0.00000000000E+00 -0.00000000000E+00 -0.45593999997E+02  0.45594000000E+02  0.51100000000E-03 0. -1.
         23    2    1    2    0    0 -0.35527136788E-14  0.35527136788E-14  0.88817841970E-15  0.91188000000E+02  0.91188000000E+02 0.  0.
    9900012    2    3    3    0    0 -0.29075249989E+02  0.21608160820E+02 -0.65952117973E+01  0.54367087538E+02  0.40000007659E+02 0.  0.
        -12    1    3    3    0    0  0.29075249989E+02 -0.21608160820E+02  0.65952117973E+01  0.36820912462E+02  0.00000000000E+00 0.  1.
         11    1    4    4    0    0 -0.10448416014E+02  0.11753681278E+02  0.75041545088E+01  0.17425003757E+02  0.51100000000E-03 0. -1.
        -11    1    4    4    0    0 -0.12335931788E+01  0.60384433486E+01 -0.17728374632E+02  0.18769118721E+02  0.51100000000E-03 0.  1.
        -12    1    4    4    0    0 -0.17393240796E+02  0.38160361930E+01  0.36290083259E+01  0.18172965059E+02  0.00000000000E+00 0.  1.
</event>
<event>
 8    1  0.2490104E-006  0.9118800E+02  0.7816164E-02  0.1184000E+00
        -11   -1    0    0    0    0  0.00000000000E+00  0.00000000000E+00  0.45593999997E+02  0.45594000000E+02  0.51100000000E-03 0.  1.
         11   -1    0    0    0    0 -0.00000000000E+00 -0.00000000000E+00 -0.45593999997E+02  0.45594000000E+02  0.51100000000E-03 0. -1.
         23    2    1    2    0    0  0.00000000000E+00  0.35527136788E-14  0.00000000000E+00  0.91188000000E+02  0.91188000000E+02 0.  0.
    9900012    2    3    3    0    0  0.22205711184E+01  0.30031252905E+02 -0.21189007168E+02  0.54367066933E+02  0.39999960688E+02 0.  0.
        -12    1    3    3    0    0 -0.22205711184E+01 -0.30031252905E+02  0.21189007168E+02  0.36820933067E+02  0.00000000000E+00 0.  1.
         11    1    4    4    0    0  0.84801778015E+01 -0.92897078716E+00  0.82066600036E+00  0.85702914311E+01  0.51100000000E-03 0. -1.
        -11    1    4    4    0    0  0.51868662033E+01  0.12358242421E+02  0.17579977255E+01  0.13517407037E+02  0.51100000000E-03 0.  1.
         12    1    4    4    0    0 -0.11446472887E+02  0.18601981271E+02 -0.23767670894E+02  0.32279368465E+02  0.00000000000E+00 0. -1.
</event>
<event>
 8    1  0.2490104E-006  0.9118800E+02  0.7816164E-02  0.1184000E+00
        -11   -1    0    0    0    0  0.00000000000E+00  0.00000000000E+00  0.45593999997E+02  0.45594000000E+02  0.51100000000E-03 0. -1.
         11   -1    0    0    0    0 -0.00000000000E+00 -0.00000000000E+00 -0.45593999997E+02  0.45594000000E+02  0.51100000000E-03 0.  1.
         23    2    1    2    0    0  0.00000000000E+00 -0.35527136788E-14  0.00000000000E+00  0.91188000000E+02  0.91188000000E+02 0.  0.
    9900012    2    3    3    0    0 -0.16767939070E+02 -0.27854515220E+02 -0.17284159909E+02  0.54367082269E+02  0.39999995649E+02 0.  0.
         12    1    3    3    0    0  0.16767939070E+02  0.27854515220E+02  0.17284159909E+02  0.36820917731E+02  0.00000000000E+00 0. -1.
         11    1    4    4    0    0 -0.64751088921E+01  0.24433503360E+01 -0.39729174949E+01  0.79800419618E+01  0.51100000000E-03 0. -1.
        -11    1    4    4    0    0 -0.28040422033E+00 -0.43064480727E+01 -0.17674844371E+02  0.18194071709E+02  0.51100000000E-03 0.  1.
         12    1    4    4    0    0 -0.10012425957E+02 -0.25991417483E+02  0.43636019576E+01  0.28192968598E+02  0.00000000000E+00 0. -1.
</event>
<event>
 8    1  0.2490104E-006  0.9118800E+02  0.7816164E-02  0.1184000E+00
        -11   -1    0    0    0    0  0.00000000000E+00  0.00000000000E+00  0.45593999997E+02  0.45594000000E+02  0.51100000000E-03 0. -1.
         11   -1    0    0    0    0 -0.00000000000E+00 -0.00000000000E+00 -0.45593999997E+02  0.45594000000E+02  0.51100000000E-03 0.  1.
         23    2    1    2    0    0  0.00000000000E+00  0.00000000000E+00  0.88817841970E-15  0.91188000000E+02  0.91188000000E+02 0.  0.
    9900012    2    3    3    0    0  0.36414653034E+02  0.10589832699E+01  0.53504758820E+01  0.54367136440E+02  0.40000119141E+02 0.  0.
        -12    1    3    3    0    0 -0.36414653034E+02 -0.10589832699E+01 -0.53504758820E+01  0.36820863560E+02  0.00000000000E+00 0.  1.
         11    1    4    4    0    0  0.30577811598E+02  0.28313456390E+01  0.18175665121E+01  0.30762357330E+02  0.51100000000E-03 0. -1.
        -11    1    4    4    0    0  0.14038245757E+02 -0.34672583474E+01 -0.13826625782E+00  0.14460751786E+02  0.51100000000E-03 0.  1.
        -12    1    4    4    0    0 -0.82014043206E+01  0.16948959783E+01  0.36711756277E+01  0.91440273237E+01  0.00000000000E+00 0.  1.
</event>
<event>
 8    1  0.2490104E-006  0.9118800E+02  0.7816164E-02  0.1184000E+00
        -11   -1    0    0    0    0  0.00000000000E+00  0.00000000000E+00  0.45593999997E+02  0.45594000000E+02  0.51100000000E-03 0.  1.
         11   -1    0    0    0    0 -0.00000000000E+00 -0.00000000000E+00 -0.45593999997E+02  0.45594000000E+02  0.51100000000E-03 0. -1.
         23    2    1    2    0    0  0.00000000000E+00  0.00000000000E+00  0.88817841970E-15  0.91188000000E+02  0.91188000000E+02 0.  0.
    9900012    2    3    3    0    0  0.22001840597E+02  0.28916970242E+02  0.59587487511E+01  0.54367097726E+02  0.40000030885E+02 0.  0.
         12    1    3    3    0    0 -0.22001840597E+02 -0.28916970242E+02 -0.59587487511E+01  0.36820902274E+02  0.00000000000E+00 0. -1.
         11    1    4    4    0    0 -0.45550344725E+01  0.82246081622E+01 -0.15716527359E+01  0.95321881565E+01  0.51100000000E-03 0. -1.
        -11    1    4    4    0    0  0.19511437676E+01  0.11795311525E+02 -0.80213458624E+01  0.14397163807E+02  0.51100000000E-03 0.  1.
        -12    1    4    4    0    0  0.24605731302E+02  0.88970505544E+01  0.15551747349E+02  0.30437745762E+02  0.00000000000E+00 0.  1.
</event>
<event>
 8    1  0.2490104E-006  0.9118800E+02  0.7816164E-02  0.1184000E+00
        -11   -1    0    0    0    0  0.00000000000E+00  0.00000000000E+00  0.45593999997E+02  0.45594000000E+02  0.51100000000E-03 0. -1.
         11   -1    0    0    0    0 -0.00000000000E+00 -0.00000000000E+00 -0.45593999997E+02  0.45594000000E+02  0.51100000000E-03 0.  1.
         23    2    1    2    0    0 -0.71054273576E-14  0.44408920985E-15  0.00000000000E+00  0.91188000000E+02  0.91188000000E+02 0.  0.
    9900012    2    3    3    0    0 -0.36343778809E+02  0.23757653347E+01 -0.54097363635E+01  0.54367085202E+02  0.40000002336E+02 0.  0.
         12    1    3    3    0    0  0.36343778809E+02 -0.23757653347E+01  0.54097363635E+01  0.36820914798E+02  0.00000000000E+00 0. -1.
         11    1    4    4    0    0  0.23053985333E+01 -0.89227200088E-01  0.18399994899E+01  0.29510036046E+01  0.51100000000E-03 0. -1.
        -11    1    4    4    0    0 -0.40558613184E+02  0.11508831226E+01  0.32108276681E+01  0.40701781902E+02  0.51100000000E-03 0.  1.
        -12    1    4    4    0    0  0.19094358425E+01  0.13141094121E+01 -0.10460563522E+02  0.10714299696E+02  0.00000000000E+00 0.  1.
</event>
<event>
 8    1  0.2490104E-006  0.9118800E+02  0.7816164E-02  0.1184000E+00
        -11   -1    0    0    0    0  0.00000000000E+00  0.00000000000E+00  0.45593999997E+02  0.45594000000E+02  0.51100000000E-03 0.  1.
         11   -1    0    0    0    0 -0.00000000000E+00 -0.00000000000E+00 -0.45593999997E+02  0.45594000000E+02  0.51100000000E-03 0. -1.
         23    2    1    2    0    0  0.00000000000E+00  0.88817841970E-15  0.00000000000E+00  0.91188000000E+02  0.91188000000E+02 0.  0.
    9900012    2    3    3    0    0 -0.45898325212E+01  0.65302654174E+01  0.35945345260E+02  0.54367098668E+02  0.40000033034E+02 0.  0.
         12    1    3    3    0    0  0.45898325212E+01 -0.65302654174E+01 -0.35945345260E+02  0.36820901332E+02  0.00000000000E+00 0. -1.
         11    1    4    4    0    0  0.72009274990E+01  0.11006247279E+02  0.27404149377E+02  0.30397010369E+02  0.51100000000E-03 0.  1.
        -11    1    4    4    0    0  0.25180004823E+01 -0.37434109757E+01 -0.31296634843E+01  0.54907418395E+01  0.51100000000E-03 0. -1.
        -12    1    4    4    0    0 -0.14308760502E+02 -0.73257088578E+00  0.11670859367E+02  0.18479346460E+02  0.00000000000E+00 0.  1.
</event>
<event>
 8    1  0.2490104E-006  0.9118800E+02  0.7816164E-02  0.1184000E+00
        -11   -1    0    0    0    0  0.00000000000E+00  0.00000000000E+00  0.45593999997E+02  0.45594000000E+02  0.51100000000E-03 0. -1.
         11   -1    0    0    0    0 -0.00000000000E+00 -0.00000000000E+00 -0.45593999997E+02  0.45594000000E+02  0.51100000000E-03 0.  1.
         23    2    1    2    0    0  0.11102230246E-14 -0.13322676296E-14  0.00000000000E+00  0.91188000000E+02  0.91188000000E+02 0.  0.
    9900012    2    3    3    0    0 -0.21685528014E+00  0.34638215557E+01  0.36656980456E+02  0.54367091508E+02  0.40000016712E+02 0.  0.
        -12    1    3    3    0    0  0.21685528014E+00 -0.34638215557E+01 -0.36656980456E+02  0.36820908492E+02  0.00000000000E+00 0.  1.
         11    1    4    4    0    0  0.15845381573E+02  0.44638169831E+01  0.14411001370E+02  0.21878728025E+02  0.51100000000E-03 0. -1.
        -11    1    4    4    0    0 -0.59331251025E+01 -0.88980840405E+01  0.83747031341E+01  0.13583575594E+02  0.51100000000E-03 0.  1.
        -12    1    4    4    0    0 -0.10129111751E+02  0.78980886131E+01  0.13871275952E+02  0.18904787889E+02  0.00000000000E+00 0.  1.
</event>
<event>
 8    1  0.2490104E-006  0.9118800E+02  0.7816164E-02  0.1184000E+00
        -11   -1    0    0    0    0  0.00000000000E+00  0.00000000000E+00  0.45593999997E+02  0.45594000000E+02  0.51100000000E-03 0. -1.
         11   -1    0    0    0    0 -0.00000000000E+00 -0.00000000000E+00 -0.45593999997E+02  0.45594000000E+02  0.51100000000E-03 0.  1.
         23    2    1    2    0    0 -0.88817841970E-15 -0.71054273576E-14  0.00000000000E+00  0.91188000000E+02  0.91188000000E+02 0.  0.
    9900012    2    3    3    0    0 -0.65348469808E+01 -0.34834736311E+02 -0.99808204134E+01  0.54367084000E+02  0.39999999596E+02 0.  0.
         12    1    3    3    0    0  0.65348469808E+01  0.34834736311E+02  0.99808204134E+01  0.36820916000E+02  0.00000000000E+00 0. -1.
         11    1    4    4    0    0 -0.15346204844E+02 -0.26127803958E+01 -0.33835194909E+01  0.15930499958E+02  0.51100000000E-03 0. -1.
        -11    1    4    4    0    0 -0.19541554070E+01 -0.23801918659E+02 -0.65703344883E+01  0.24769322775E+02  0.51100000000E-03 0.  1.
         12    1    4    4    0    0  0.10765513270E+02 -0.84200372566E+01 -0.26966434192E-01  0.13667261267E+02  0.00000000000E+00 0. -1.
</event>
<event>
 8    1  0.2490104E-006  0.9118800E+02  0.7816164E-02  0.1184000E+00
        -11   -1    0    0    0    0  0.00000000000E+00  0.00000000000E+00  0.45593999997E+02  0.45594000000E+02  0.51100000000E-03 0.  1.
         11   -1    0    0    0    0 -0.00000000000E+00 -0.00000000000E+00 -0.45593999997E+02  0.45594000000E+02  0.51100000000E-03 0. -1.
         23    2    1    2    0    0 -0.15543122345E-14 -0.13322676296E-14  0.00000000000E+00  0.91188000000E+02  0.91188000000E+02 0.  0.
    9900012    2    3    3    0    0  0.13004342421E+01 -0.36411000928E+01  0.36617386537E+02  0.54367058460E+02  0.39999941371E+02 0.  0.
         12    1    3    3    0    0 -0.13004342421E+01  0.36411000928E+01 -0.36617386537E+02  0.36820941540E+02  0.00000000000E+00 0. -1.
         11    1    4    4    0    0 -0.95999735455E+01 -0.84204409904E+01  0.82768299727E+01  0.15217399029E+02  0.51100000000E-03 0. -1.
        -11    1    4    4    0    0  0.20975564243E+01 -0.97243471105E+01  0.89143026776E+01  0.13357674280E+02  0.51100000000E-03 0.  1.
         12    1    4    4    0    0  0.88028513633E+01  0.14503688008E+02  0.19426253887E+02  0.25791985151E+02  0.00000000000E+00 0. -1.
</event>
<event>
 8    1  0.2490104E-006  0.9118800E+02  0.7816164E-02  0.1184000E+00
        -11   -1    0    0    0    0  0.00000000000E+00  0.00000000000E+00  0.45593999997E+02  0.45594000000E+02  0.51100000000E-03 0.  1.
         11   -1    0    0    0    0 -0.00000000000E+00 -0.00000000000E+00 -0.45593999997E+02  0.45594000000E+02  0.51100000000E-03 0. -1.
         23    2    1    2    0    0  0.00000000000E+00  0.00000000000E+00  0.00000000000E+00  0.91188000000E+02  0.91188000000E+02 0.  0.
    9900012    2    3    3    0    0 -0.53443806463E+01  0.35540748974E+02 -0.80045559680E+01  0.54367079881E+02  0.39999990205E+02 0.  0.
         12    1    3    3    0    0  0.53443806463E+01 -0.35540748974E+02  0.80045559680E+01  0.36820920119E+02  0.00000000000E+00 0. -1.
         11    1    4    4    0    0  0.44209772765E+01  0.60924471200E+01 -0.53738576712E+00  0.75466373779E+01  0.51100000000E-03 0. -1.
        -11    1    4    4    0    0  0.45161548711E+01  0.38374680452E+01 -0.15351195545E+02  0.16455425268E+02  0.51100000000E-03 0.  1.
        -12    1    4    4    0    0 -0.14281512794E+02  0.25610833809E+02  0.78840253445E+01  0.30365017235E+02  0.00000000000E+00 0.  1.
</event>
<event>
 8    1  0.2490104E-006  0.9118800E+02  0.7816164E-02  0.1184000E+00
        -11   -1    0    0    0    0  0.00000000000E+00  0.00000000000E+00  0.45593999997E+02  0.45594000000E+02  0.51100000000E-03 0.  1.
         11   -1    0    0    0    0 -0.00000000000E+00 -0.00000000000E+00 -0.45593999997E+02  0.45594000000E+02  0.51100000000E-03 0. -1.
         23    2    1    2    0    0  0.00000000000E+00  0.35527136788E-14 -0.35527136788E-14  0.91188000000E+02  0.91188000000E+02 0.  0.
    9900012    2    3    3    0    0  0.10651056712E+02 -0.26388276020E+02  0.23366512848E+02  0.54367081448E+02  0.39999993777E+02 0.  0.
         12    1    3    3    0    0 -0.10651056712E+02  0.26388276020E+02 -0.23366512848E+02  0.36820918552E+02  0.00000000000E+00 0. -1.
         11    1    4    4    0    0 -0.54035043457E+01 -0.60400069732E+01  0.15934531131E+01  0.82594573995E+01  0.51100000000E-03 0. -1.
        -11    1    4    4    0    0 -0.22397069730E+01  0.49388447321E+01  0.12377278600E+02  0.13513160268E+02  0.51100000000E-03 0.  1.
        -12    1    4    4    0    0  0.18294268031E+02 -0.25287113778E+02  0.93957811345E+01  0.32594463781E+02  0.00000000000E+00 0.  1.
</event>
<event>
 8    1  0.2490104E-006  0.9118800E+02  0.7816164E-02  0.1184000E+00
        -11   -1    0    0    0    0  0.00000000000E+00  0.00000000000E+00  0.45593999997E+02  0.45594000000E+02  0.51100000000E-03 0.  1.
         11   -1    0    0    0    0 -0.00000000000E+00 -0.00000000000E+00 -0.45593999997E+02  0.45594000000E+02  0.51100000000E-03 0. -1.
         23    2    1    2    0    0  0.00000000000E+00  0.00000000000E+00  0.00000000000E+00  0.91188000000E+02  0.91188000000E+02 0.  0.
    9900012    2    3    3    0    0  0.30156635207E+02 -0.14200504710E+02 -0.15642927674E+02  0.54367106920E+02  0.40000051844E+02 0.  0.
         12    1    3    3    0    0 -0.30156635207E+02  0.14200504710E+02  0.15642927674E+02  0.36820893080E+02  0.00000000000E+00 0. -1.
         11    1    4    4    0    0  0.14749984951E+00  0.14114927768E+01  0.47384532727E+01  0.49464136243E+01  0.51100000000E-03 0. -1.
        -11    1    4    4    0    0  0.16834466458E+02 -0.23565245373E+02 -0.91597828103E+01  0.30374688011E+02  0.51100000000E-03 0.  1.
        -12    1    4    4    0    0  0.13174668900E+02  0.79532478856E+01 -0.11221598136E+02  0.19046005284E+02  0.00000000000E+00 0.  1.
</event>
<event>
 8    1  0.2490104E-006  0.9118800E+02  0.7816164E-02  0.1184000E+00
        -11   -1    0    0    0    0  0.00000000000E+00  0.00000000000E+00  0.45593999997E+02  0.45594000000E+02  0.51100000000E-03 0. -1.
         11   -1    0    0    0    0 -0.00000000000E+00 -0.00000000000E+00 -0.45593999997E+02  0.45594000000E+02  0.51100000000E-03 0.  1.
         23    2    1    2    0    0  0.00000000000E+00  0.00000000000E+00 -0.44408920985E-15  0.91188000000E+02  0.91188000000E+02 0.  0.
    9900012    2    3    3    0    0  0.22459211185E+02 -0.28920474241E+02  0.38688666011E+01  0.54367107478E+02  0.40000053117E+02 0.  0.
         12    1    3    3    0    0 -0.22459211185E+02  0.28920474241E+02 -0.38688666011E+01  0.36820892522E+02  0.00000000000E+00 0. -1.
         11    1    4    4    0    0  0.11986909317E+02 -0.63836613549E+00  0.56428355780E+00  0.12017151181E+02  0.51100000000E-03 0. -1.
        -11    1    4    4    0    0 -0.10334189684E+02 -0.77984148530E+01  0.21965830494E+01  0.13131478515E+02  0.51100000000E-03 0.  1.
        -12    1    4    4    0    0  0.20806491551E+02 -0.20483693252E+02  0.11079999939E+01  0.29218477782E+02  0.00000000000E+00 0.  1.
</event>
<event>
 8    1  0.2490104E-006  0.9118800E+02  0.7816164E-02  0.1184000E+00
        -11   -1    0    0    0    0  0.00000000000E+00  0.00000000000E+00  0.45593999997E+02  0.45594000000E+02  0.51100000000E-03 0.  1.
         11   -1    0    0    0    0 -0.00000000000E+00 -0.00000000000E+00 -0.45593999997E+02  0.45594000000E+02  0.51100000000E-03 0. -1.
         23    2    1    2    0    0  0.00000000000E+00  0.00000000000E+00  0.00000000000E+00  0.91188000000E+02  0.91188000000E+02 0.  0.
    9900012    2    3    3    0    0 -0.26497422840E+02 -0.10644648696E+02  0.23245588505E+02  0.54367090886E+02  0.40000015294E+02 0.  0.
         12    1    3    3    0    0  0.26497422840E+02  0.10644648696E+02 -0.23245588505E+02  0.36820909114E+02  0.00000000000E+00 0. -1.
         11    1    4    4    0    0 -0.58962674211E+01 -0.44289108256E+01 -0.37170892034E+01  0.82582064039E+01  0.51100000000E-03 0. -1.
        -11    1    4    4    0    0 -0.25791573609E+02 -0.12948145114E+02  0.21743533882E+02  0.36133654632E+02  0.51100000000E-03 0.  1.
        -12    1    4    4    0    0  0.51904181901E+01  0.67324072442E+01  0.52191438266E+01  0.99752298506E+01  0.00000000000E+00 0.  1.
</event>
<event>
 8    1  0.2490104E-006  0.9118800E+02  0.7816164E-02  0.1184000E+00
        -11   -1    0    0    0    0  0.00000000000E+00  0.00000000000E+00  0.45593999997E+02  0.45594000000E+02  0.51100000000E-03 0.  1.
         11   -1    0    0    0    0 -0.00000000000E+00 -0.00000000000E+00 -0.45593999997E+02  0.45594000000E+02  0.51100000000E-03 0. -1.
         23    2    1    2    0    0  0.00000000000E+00  0.00000000000E+00  0.17763568394E-14  0.91188000000E+02  0.91188000000E+02 0.  0.
    9900012    2    3    3    0    0  0.34447041181E+02  0.27249793709E+01  0.12718375784E+02  0.54367065176E+02  0.39999956682E+02 0.  0.
         12    1    3    3    0    0 -0.34447041181E+02 -0.27249793709E+01 -0.12718375784E+02  0.36820934824E+02  0.00000000000E+00 0. -1.
         11    1    4    4    0    0  0.32492676480E+02 -0.25391585349E+01  0.42458292482E+00  0.32594502938E+02  0.51100000000E-03 0. -1.
        -11    1    4    4    0    0  0.49050857933E+01  0.19639845422E+01 -0.28441964488E+01  0.60005462770E+01  0.51100000000E-03 0.  1.
        -12    1    4    4    0    0 -0.29507210918E+01  0.33001533637E+01  0.15137989308E+02  0.15772015961E+02  0.00000000000E+00 0.  1.
</event>
<event>
 8    1  0.2490104E-006  0.9118800E+02  0.7816164E-02  0.1184000E+00
        -11   -1    0    0    0    0  0.00000000000E+00  0.00000000000E+00  0.45593999997E+02  0.45594000000E+02  0.51100000000E-03 0. -1.
         11   -1    0    0    0    0 -0.00000000000E+00 -0.00000000000E+00 -0.45593999997E+02  0.45594000000E+02  0.51100000000E-03 0.  1.
         23    2    1    2    0    0  0.00000000000E+00  0.00000000000E+00  0.00000000000E+00  0.91188000000E+02  0.91188000000E+02 0.  0.
    9900012    2    3    3    0    0  0.16653710108E+02  0.27091129776E+01 -0.32727584405E+02  0.54367080206E+02  0.39999990946E+02 0.  0.
         12    1    3    3    0    0 -0.16653710108E+02 -0.27091129776E+01  0.32727584405E+02  0.36820919794E+02  0.00000000000E+00 0. -1.
         11    1    4    4    0    0  0.23050329119E+02  0.42191325197E+01 -0.62639857725E+01  0.24256056352E+02  0.51100000000E-03 0. -1.
        -11    1    4    4    0    0  0.12250513177E+01 -0.55879482553E+01 -0.10626714711E+02  0.12068677734E+02  0.51100000000E-03 0.  1.
         12    1    4    4    0    0 -0.76216703289E+01  0.40779287132E+01 -0.15836883922E+02  0.18042346121E+02  0.00000000000E+00 0. -1.
</event>
<event>
 8    1  0.2490104E-006  0.9118800E+02  0.7816164E-02  0.1184000E+00
        -11   -1    0    0    0    0  0.00000000000E+00  0.00000000000E+00  0.45593999997E+02  0.45594000000E+02  0.51100000000E-03 0. -1.
         11   -1    0    0    0    0 -0.00000000000E+00 -0.00000000000E+00 -0.45593999997E+02  0.45594000000E+02  0.51100000000E-03 0.  1.
         23    2    1    2    0    0  0.00000000000E+00 -0.17763568394E-14  0.35527136788E-14  0.91188000000E+02  0.91188000000E+02 0.  0.
    9900012    2    3    3    0    0 -0.32821503456E+02  0.38134508901E+01 -0.16247595044E+02  0.54367111343E+02  0.40000061928E+02 0.  0.
         12    1    3    3    0    0  0.32821503456E+02 -0.38134508901E+01  0.16247595044E+02  0.36820888657E+02  0.00000000000E+00 0. -1.
         11    1    4    4    0    0 -0.57535438145E+01 -0.10135497371E+02  0.35281622701E+01  0.12177007130E+02  0.51100000000E-03 0. -1.
        -11    1    4    4    0    0 -0.24603504036E+02  0.66503193471E+01 -0.56573560710E+01  0.26106796744E+02  0.51100000000E-03 0.  1.
         12    1    4    4    0    0 -0.24644556054E+01  0.72986289138E+01 -0.14118401243E+02  0.16083307468E+02  0.00000000000E+00 0. -1.
</event>
<event>
 8    1  0.2490104E-006  0.9118800E+02  0.7816164E-02  0.1184000E+00
        -11   -1    0    0    0    0  0.00000000000E+00  0.00000000000E+00  0.45593999997E+02  0.45594000000E+02  0.51100000000E-03 0. -1.
         11   -1    0    0    0    0 -0.00000000000E+00 -0.00000000000E+00 -0.45593999997E+02  0.45594000000E+02  0.51100000000E-03 0.  1.
         23    2    1    2    0    0  0.00000000000E+00  0.17763568394E-14  0.00000000000E+00  0.91188000000E+02  0.91188000000E+02 0.  0.
    9900012    2    3    3    0    0  0.58123526679E+01 -0.12457484824E+02 -0.34158569984E+02  0.54367078297E+02  0.39999986594E+02 0.  0.
         12    1    3    3    0    0 -0.58123526679E+01  0.12457484824E+02  0.34158569984E+02  0.36820921703E+02  0.00000000000E+00 0. -1.
         11    1    4    4    0    0 -0.20795440821E+01  0.81582473538E+01 -0.85006324517E+00  0.84619212509E+01  0.51100000000E-03 0.  1.
        -11    1    4    4    0    0  0.10162621388E+02  0.61829821696E+00 -0.12002849847E+02  0.15739427273E+02  0.51100000000E-03 0. -1.
        -12    1    4    4    0    0 -0.22707246382E+01 -0.21234030395E+02 -0.21305656892E+02  0.30165729774E+02  0.00000000000E+00 0.  1.
</event>
<event>
 8    1  0.2490104E-006  0.9118800E+02  0.7816164E-02  0.1184000E+00
        -11   -1    0    0    0    0  0.00000000000E+00  0.00000000000E+00  0.45593999997E+02  0.45594000000E+02  0.51100000000E-03 0.  1.
         11   -1    0    0    0    0 -0.00000000000E+00 -0.00000000000E+00 -0.45593999997E+02  0.45594000000E+02  0.51100000000E-03 0. -1.
         23    2    1    2    0    0  0.17763568394E-14  0.00000000000E+00  0.00000000000E+00  0.91188000000E+02  0.91188000000E+02 0.  0.
    9900012    2    3    3    0    0  0.86732055791E+01 -0.60025474315E+01  0.35277816096E+02  0.54367090462E+02  0.40000014327E+02 0.  0.
         12    1    3    3    0    0 -0.86732055791E+01  0.60025474315E+01 -0.35277816096E+02  0.36820909538E+02  0.00000000000E+00 0. -1.
         11    1    4    4    0    0 -0.99780320127E+01  0.27737516722E+00  0.38579540489E+01  0.10701489127E+02  0.51100000000E-03 0. -1.
        -11    1    4    4    0    0  0.91431358997E+01  0.76499950688E+01  0.20046886321E+02  0.23323743483E+02  0.51100000000E-03 0.  1.
        -12    1    4    4    0    0  0.95081016921E+01 -0.13929917668E+02  0.11372975726E+02  0.20341857852E+02  0.00000000000E+00 0.  1.
</event>
<event>
 8    1  0.2490104E-006  0.9118800E+02  0.7816164E-02  0.1184000E+00
        -11   -1    0    0    0    0  0.00000000000E+00  0.00000000000E+00  0.45593999997E+02  0.45594000000E+02  0.51100000000E-03 0.  1.
         11   -1    0    0    0    0 -0.00000000000E+00 -0.00000000000E+00 -0.45593999997E+02  0.45594000000E+02  0.51100000000E-03 0. -1.
         23    2    1    2    0    0 -0.17763568394E-14  0.71054273576E-14  0.88817841970E-15  0.91188000000E+02  0.91188000000E+02 0.  0.
    9900012    2    3    3    0    0 -0.74736888615E+01  0.35481051520E+02  0.64045902073E+01  0.54367084505E+02  0.40000000746E+02 0.  0.
         12    1    3    3    0    0  0.74736888615E+01 -0.35481051520E+02 -0.64045902073E+01  0.36820915495E+02  0.00000000000E+00 0. -1.
         11    1    4    4    0    0  0.73916767323E+01  0.43861965809E+01 -0.25557396569E+01  0.89670179444E+01  0.51100000000E-03 0. -1.
        -11    1    4    4    0    0 -0.83510683549E+01 -0.35628699330E+01  0.28399470865E+00  0.90837788438E+01  0.51100000000E-03 0.  1.
        -12    1    4    4    0    0 -0.65142972389E+01  0.34657724872E+02  0.86763351555E+01  0.36316287717E+02  0.00000000000E+00 0.  1.
</event>
<event>
 8    1  0.2490104E-006  0.9118800E+02  0.7816164E-02  0.1184000E+00
        -11   -1    0    0    0    0  0.00000000000E+00  0.00000000000E+00  0.45593999997E+02  0.45594000000E+02  0.51100000000E-03 0.  1.
         11   -1    0    0    0    0 -0.00000000000E+00 -0.00000000000E+00 -0.45593999997E+02  0.45594000000E+02  0.51100000000E-03 0. -1.
         23    2    1    2    0    0 -0.88817841970E-15  0.00000000000E+00  0.00000000000E+00  0.91188000000E+02  0.91188000000E+02 0.  0.
    9900012    2    3    3    0    0 -0.51174174313E+01  0.24433669478E+02 -0.27066353550E+02  0.54367086652E+02  0.40000005641E+02 0.  0.
        -12    1    3    3    0    0  0.51174174313E+01 -0.24433669478E+02  0.27066353550E+02  0.36820913348E+02  0.00000000000E+00 0.  1.
         11    1    4    4    0    0  0.99339881146E+01  0.20942573798E+02 -0.93732707960E+01  0.25002674313E+02  0.51100000000E-03 0. -1.
        -11    1    4    4    0    0 -0.15726998685E+02  0.60504885382E+01 -0.68280270573E+01  0.18181552545E+02  0.51100000000E-03 0.  1.
        -12    1    4    4    0    0  0.67559313855E+00 -0.25593928584E+01 -0.10865055696E+02  0.11182859794E+02  0.00000000000E+00 0.  1.
</event>
<event>
 8    1  0.2490104E-006  0.9118800E+02  0.7816164E-02  0.1184000E+00
        -11   -1    0    0    0    0  0.00000000000E+00  0.00000000000E+00  0.45593999997E+02  0.45594000000E+02  0.51100000000E-03 0.  1.
         11   -1    0    0    0    0 -0.00000000000E+00 -0.00000000000E+00 -0.45593999997E+02  0.45594000000E+02  0.51100000000E-03 0. -1.
         23    2    1    2    0    0  0.17763568394E-14  0.44408920985E-15  0.00000000000E+00  0.91188000000E+02  0.91188000000E+02 0.  0.
    9900012    2    3    3    0    0  0.44410208203E+01  0.32847784555E+01 -0.36404227922E+02  0.54367078691E+02  0.39999987492E+02 0.  0.
        -12    1    3    3    0    0 -0.44410208203E+01 -0.32847784555E+01  0.36404227922E+02  0.36820921309E+02  0.00000000000E+00 0.  1.
         11    1    4    4    0    0  0.73591991979E+00 -0.37862514431E+01  0.19365118736E+01  0.43159421470E+01  0.51100000000E-03 0. -1.
        -11    1    4    4    0    0 -0.89967678939E+01  0.14369554427E+02 -0.15841392313E+02  0.23202923040E+02  0.51100000000E-03 0.  1.
         12    1    4    4    0    0  0.12701868794E+02 -0.72985245280E+01 -0.22499347483E+02  0.26848213504E+02  0.00000000000E+00 0. -1.
</event>
<event>
 8    1  0.2490104E-006  0.9118800E+02  0.7816164E-02  0.1184000E+00
        -11   -1    0    0    0    0  0.00000000000E+00  0.00000000000E+00  0.45593999997E+02  0.45594000000E+02  0.51100000000E-03 0. -1.
         11   -1    0    0    0    0 -0.00000000000E+00 -0.00000000000E+00 -0.45593999997E+02  0.45594000000E+02  0.51100000000E-03 0.  1.
         23    2    1    2    0    0  0.00000000000E+00  0.00000000000E+00 -0.35527136788E-14  0.91188000000E+02  0.91188000000E+02 0.  0.
    9900012    2    3    3    0    0 -0.17488669007E+02  0.90642960232E+01  0.31108911457E+02  0.54367090477E+02  0.40000014361E+02 0.  0.
        -12    1    3    3    0    0  0.17488669007E+02 -0.90642960232E+01 -0.31108911457E+02  0.36820909523E+02  0.00000000000E+00 0.  1.
         11    1    4    4    0    0 -0.75600543554E+00  0.46645821688E+01  0.41105276684E+01  0.62630910102E+01  0.51100000000E-03 0. -1.
        -11    1    4    4    0    0 -0.41111775516E+01  0.21002184766E+01 -0.88759124686E+01  0.10004724930E+02  0.51100000000E-03 0.  1.
         12    1    4    4    0    0 -0.12621486020E+02  0.22994953779E+01  0.35874296257E+02  0.38099274537E+02  0.00000000000E+00 0. -1.
</event>
<event>
 8    1  0.2490104E-006  0.9118800E+02  0.7816164E-02  0.1184000E+00
        -11   -1    0    0    0    0  0.00000000000E+00  0.00000000000E+00  0.45593999997E+02  0.45594000000E+02  0.51100000000E-03 0.  1.
         11   -1    0    0    0    0 -0.00000000000E+00 -0.00000000000E+00 -0.45593999997E+02  0.45594000000E+02  0.51100000000E-03 0. -1.
         23    2    1    2    0    0  0.00000000000E+00 -0.88817841970E-15  0.00000000000E+00  0.91188000000E+02  0.91188000000E+02 0.  0.
    9900012    2    3    3    0    0  0.19494373480E+02  0.45565321938E+01  0.30902866793E+02  0.54367085304E+02  0.40000002568E+02 0.  0.
         12    1    3    3    0    0 -0.19494373480E+02 -0.45565321938E+01 -0.30902866793E+02  0.36820914696E+02  0.00000000000E+00 0. -1.
         11    1    4    4    0    0  0.31114558994E+00 -0.51104681121E+01 -0.20510624989E+01  0.55154830739E+01  0.51100000000E-03 0. -1.
        -11    1    4    4    0    0  0.21262563596E+02  0.53793958333E+01  0.78431665559E+01  0.23292697827E+02  0.51100000000E-03 0.  1.
        -12    1    4    4    0    0 -0.20793357053E+01  0.42876044727E+01  0.25110762736E+02  0.25558904403E+02  0.00000000000E+00 0.  1.
</event>
<event>
 8    1  0.2490104E-006  0.9118800E+02  0.7816164E-02  0.1184000E+00
        -11   -1    0    0    0    0  0.00000000000E+00  0.00000000000E+00  0.45593999997E+02  0.45594000000E+02  0.51100000000E-03 0. -1.
         11   -1    0    0    0    0 -0.00000000000E+00 -0.00000000000E+00 -0.45593999997E+02  0.45594000000E+02  0.51100000000E-03 0.  1.
         23    2    1    2    0    0  0.17763568394E-14  0.17763568394E-14  0.00000000000E+00  0.91188000000E+02  0.91188000000E+02 0.  0.
    9900012    2    3    3    0    0 -0.13970375240E+02 -0.14803058404E+02 -0.30683521953E+02  0.54367076032E+02  0.39999981429E+02 0.  0.
         12    1    3    3    0    0  0.13970375240E+02  0.14803058404E+02  0.30683521953E+02  0.36820923968E+02  0.00000000000E+00 0. -1.
         11    1    4    4    0    0  0.61297556090E+01 -0.21576141786E+01 -0.39199012563E+01  0.75891257000E+01  0.51100000000E-03 0. -1.
        -11    1    4    4    0    0  0.78843160089E+01 -0.11594734482E+01 -0.73001459413E+01  0.10807356228E+02  0.51100000000E-03 0.  1.
        -12    1    4    4    0    0 -0.27984446858E+02 -0.11485970777E+02 -0.19463474755E+02  0.35970594104E+02  0.00000000000E+00 0.  1.
</event>
<event>
 8    1  0.2490104E-006  0.9118800E+02  0.7816164E-02  0.1184000E+00
        -11   -1    0    0    0    0  0.00000000000E+00  0.00000000000E+00  0.45593999997E+02  0.45594000000E+02  0.51100000000E-03 0. -1.
         11   -1    0    0    0    0 -0.00000000000E+00 -0.00000000000E+00 -0.45593999997E+02  0.45594000000E+02  0.51100000000E-03 0.  1.
         23    2    1    2    0    0 -0.35527136788E-14  0.00000000000E+00 -0.17763568394E-14  0.91188000000E+02  0.91188000000E+02 0.  0.
    9900012    2    3    3    0    0 -0.31115252357E+02  0.18736010930E+02 -0.60483811065E+01  0.54367082727E+02  0.39999996693E+02 0.  0.
         12    1    3    3    0    0  0.31115252357E+02 -0.18736010930E+02  0.60483811065E+01  0.36820917273E+02  0.00000000000E+00 0. -1.
         11    1    4    4    0    0 -0.17121773857E+02 -0.55651614464E+01  0.21731206504E+01  0.18134183620E+02  0.51100000000E-03 0.  1.
        -11    1    4    4    0    0  0.13444310479E+01  0.71857756628E+01  0.57817260208E+01  0.93204733120E+01  0.51100000000E-03 0. -1.
         12    1    4    4    0    0 -0.15337909547E+02  0.17115396714E+02 -0.14003227778E+02  0.26912425795E+02  0.00000000000E+00 0. -1.
</event>
<event>
 8    1  0.2490104E-006  0.9118800E+02  0.7816164E-02  0.1184000E+00
        -11   -1    0    0    0    0  0.00000000000E+00  0.00000000000E+00  0.45593999997E+02  0.45594000000E+02  0.51100000000E-03 0.  1.
         11   -1    0    0    0    0 -0.00000000000E+00 -0.00000000000E+00 -0.45593999997E+02  0.45594000000E+02  0.51100000000E-03 0. -1.
         23    2    1    2    0    0  0.00000000000E+00  0.35527136788E-14 -0.35527136788E-14  0.91188000000E+02  0.91188000000E+02 0.  0.
    9900012    2    3    3    0    0 -0.23630050984E+02 -0.16952607347E+02  0.22583406562E+02  0.54367075822E+02  0.39999980952E+02 0.  0.
         12    1    3    3    0    0  0.23630050984E+02  0.16952607347E+02 -0.22583406562E+02  0.36820924178E+02  0.00000000000E+00 0. -1.
         11    1    4    4    0    0  0.16783968712E+01 -0.10719242396E+01  0.17235283163E+02  0.17349957453E+02  0.51100000000E-03 0. -1.
        -11    1    4    4    0    0 -0.24157276899E+02 -0.10438670180E+02 -0.35183085784E+01  0.26550298639E+02  0.51100000000E-03 0.  1.
        -12    1    4    4    0    0 -0.11511709558E+01 -0.54420129267E+01  0.88664319772E+01  0.10466819730E+02  0.00000000000E+00 0.  1.
</event>
<event>
 8    1  0.2490104E-006  0.9118800E+02  0.7816164E-02  0.1184000E+00
        -11   -1    0    0    0    0  0.00000000000E+00  0.00000000000E+00  0.45593999997E+02  0.45594000000E+02  0.51100000000E-03 0.  1.
         11   -1    0    0    0    0 -0.00000000000E+00 -0.00000000000E+00 -0.45593999997E+02  0.45594000000E+02  0.51100000000E-03 0. -1.
         23    2    1    2    0    0  0.00000000000E+00  0.00000000000E+00  0.71054273576E-14  0.91188000000E+02  0.91188000000E+02 0.  0.
    9900012    2    3    3    0    0  0.44598880665E+01 -0.15843904409E+02  0.32937193699E+02  0.54367100537E+02  0.40000037295E+02 0.  0.
         12    1    3    3    0    0 -0.44598880665E+01  0.15843904409E+02 -0.32937193699E+02  0.36820899463E+02  0.00000000000E+00 0. -1.
         11    1    4    4    0    0 -0.62957791331E+01 -0.18199505693E+02  0.11390477474E+02  0.22374132826E+02  0.51100000000E-03 0. -1.
        -11    1    4    4    0    0  0.22855650791E+01 -0.85556829023E+01  0.41514520929E+01  0.97804944863E+01  0.51100000000E-03 0.  1.
        -12    1    4    4    0    0  0.84701021204E+01  0.10911284187E+02  0.17395264132E+02  0.22212473225E+02  0.00000000000E+00 0.  1.
</event>
<event>
 8    1  0.2490104E-006  0.9118800E+02  0.7816164E-02  0.1184000E+00
        -11   -1    0    0    0    0  0.00000000000E+00  0.00000000000E+00  0.45593999997E+02  0.45594000000E+02  0.51100000000E-03 0. -1.
         11   -1    0    0    0    0 -0.00000000000E+00 -0.00000000000E+00 -0.45593999997E+02  0.45594000000E+02  0.51100000000E-03 0.  1.
         23    2    1    2    0    0  0.00000000000E+00  0.17763568394E-14  0.35527136788E-14  0.91188000000E+02  0.91188000000E+02 0.  0.
    9900012    2    3    3    0    0 -0.25863286334E+02  0.95178316623E+01 -0.24418839372E+02  0.54367103544E+02  0.40000044150E+02 0.  0.
         12    1    3    3    0    0  0.25863286334E+02 -0.95178316623E+01  0.24418839372E+02  0.36820896456E+02  0.00000000000E+00 0. -1.
         11    1    4    4    0    0 -0.20717908171E+02  0.19466517603E+02 -0.25015156325E+02  0.37867335169E+02  0.51100000000E-03 0. -1.
        -11    1    4    4    0    0 -0.41710468070E+01 -0.51800980576E+00 -0.41417815178E+01  0.59008745138E+01  0.51100000000E-03 0.  1.
        -12    1    4    4    0    0 -0.97433135601E+00 -0.94306761354E+01  0.47380984709E+01  0.10598893861E+02  0.00000000000E+00 0.  1.
</event>
<event>
 8    1  0.2490104E-006  0.9118800E+02  0.7816164E-02  0.1184000E+00
        -11   -1    0    0    0    0  0.00000000000E+00  0.00000000000E+00  0.45593999997E+02  0.45594000000E+02  0.51100000000E-03 0.  1.
         11   -1    0    0    0    0 -0.00000000000E+00 -0.00000000000E+00 -0.45593999997E+02  0.45594000000E+02  0.51100000000E-03 0. -1.
         23    2    1    2    0    0  0.17763568394E-14  0.00000000000E+00  0.00000000000E+00  0.91188000000E+02  0.91188000000E+02 0.  0.
    9900012    2    3    3    0    0 -0.12436056316E+02 -0.33337115413E+02  0.94738939962E+01  0.54367171272E+02  0.40000198548E+02 0.  0.
        -12    1    3    3    0    0  0.12436056316E+02  0.33337115413E+02 -0.94738939962E+01  0.36820828728E+02  0.00000000000E+00 0.  1.
         11    1    4    4    0    0  0.55016215727E+01 -0.22008598785E+02  0.66562641527E+01  0.23642168114E+02  0.51100000000E-03 0. -1.
        -11    1    4    4    0    0 -0.11692361636E+02  0.47978644070E+01 -0.19460733699E+01  0.12787416679E+02  0.51100000000E-03 0.  1.
         12    1    4    4    0    0 -0.62453162526E+01 -0.16126381036E+02  0.47637032133E+01  0.17937586479E+02  0.00000000000E+00 0. -1.
</event>
<event>
 8    1  0.2490104E-006  0.9118800E+02  0.7816164E-02  0.1184000E+00
        -11   -1    0    0    0    0  0.00000000000E+00  0.00000000000E+00  0.45593999997E+02  0.45594000000E+02  0.51100000000E-03 0.  1.
         11   -1    0    0    0    0 -0.00000000000E+00 -0.00000000000E+00 -0.45593999997E+02  0.45594000000E+02  0.51100000000E-03 0. -1.
         23    2    1    2    0    0  0.17763568394E-14  0.00000000000E+00  0.00000000000E+00  0.91188000000E+02  0.91188000000E+02 0.  0.
    9900012    2    3    3    0    0  0.14190065497E+02 -0.31976504310E+02 -0.11486023359E+02  0.54367034242E+02  0.39999886162E+02 0.  0.
        -12    1    3    3    0    0 -0.14190065497E+02  0.31976504310E+02  0.11486023359E+02  0.36820965758E+02  0.00000000000E+00 0.  1.
         11    1    4    4    0    0  0.17102352756E+02 -0.31586945894E+02 -0.79052686518E+01  0.36779326984E+02  0.51100000000E-03 0.  1.
        -11    1    4    4    0    0 -0.13229673381E+01 -0.84405548741E+01 -0.38633014041E+01  0.93764762657E+01  0.51100000000E-03 0. -1.
        -12    1    4    4    0    0 -0.15893199203E+01  0.80509964578E+01  0.28254669703E+00  0.82112309923E+01  0.00000000000E+00 0.  1.
</event>
<event>
 8    1  0.2490104E-006  0.9118800E+02  0.7816164E-02  0.1184000E+00
        -11   -1    0    0    0    0  0.00000000000E+00  0.00000000000E+00  0.45593999997E+02  0.45594000000E+02  0.51100000000E-03 0. -1.
         11   -1    0    0    0    0 -0.00000000000E+00 -0.00000000000E+00 -0.45593999997E+02  0.45594000000E+02  0.51100000000E-03 0.  1.
         23    2    1    2    0    0  0.35527136788E-14  0.00000000000E+00  0.00000000000E+00  0.91188000000E+02  0.91188000000E+02 0.  0.
    9900012    2    3    3    0    0  0.24665376724E+02 -0.20692418341E+02  0.17867164880E+02  0.54366911388E+02  0.39999606089E+02 0.  0.
        -12    1    3    3    0    0 -0.24665376724E+02  0.20692418341E+02 -0.17867164880E+02  0.36821088612E+02  0.00000000000E+00 0.  1.
         11    1    4    4    0    0  0.35025544113E+01  0.97152384628E+00 -0.26611836574E+01  0.45048468018E+01  0.51100000000E-03 0. -1.
        -11    1    4    4    0    0  0.95092931950E+01 -0.13462290083E+02 -0.77369489701E+01  0.18207698674E+02  0.51100000000E-03 0.  1.
         12    1    4    4    0    0  0.11653529118E+02 -0.82016521034E+01  0.28265297508E+02  0.31654365913E+02  0.00000000000E+00 0. -1.
</event>
<event>
 8    1  0.2490104E-006  0.9118800E+02  0.7816164E-02  0.1184000E+00
        -11   -1    0    0    0    0  0.00000000000E+00  0.00000000000E+00  0.45593999997E+02  0.45594000000E+02  0.51100000000E-03 0. -1.
         11   -1    0    0    0    0 -0.00000000000E+00 -0.00000000000E+00 -0.45593999997E+02  0.45594000000E+02  0.51100000000E-03 0.  1.
         23    2    1    2    0    0  0.71054273576E-14  0.17763568394E-14 -0.35527136788E-14  0.91188000000E+02  0.91188000000E+02 0.  0.
    9900012    2    3    3    0    0 -0.27764222993E+02 -0.11586019558E+02  0.21229498425E+02  0.54367088401E+02  0.40000009628E+02 0.  0.
        -12    1    3    3    0    0  0.27764222993E+02  0.11586019558E+02 -0.21229498425E+02  0.36820911599E+02  0.00000000000E+00 0.  1.
         11    1    4    4    0    0  0.14885353636E+01  0.10650014652E+02  0.11289652726E+02  0.15591497957E+02  0.51100000000E-03 0. -1.
        -11    1    4    4    0    0 -0.78720483334E+01 -0.57840623355E+01 -0.65833271430E+00  0.97907060158E+01  0.51100000000E-03 0.  1.
         12    1    4    4    0    0 -0.21380710023E+02 -0.16451971874E+02  0.10598178413E+02  0.28984884428E+02  0.00000000000E+00 0. -1.
</event>
<event>
 8    1  0.2490104E-006  0.9118800E+02  0.7816164E-02  0.1184000E+00
        -11   -1    0    0    0    0  0.00000000000E+00  0.00000000000E+00  0.45593999997E+02  0.45594000000E+02  0.51100000000E-03 0.  1.
         11   -1    0    0    0    0 -0.00000000000E+00 -0.00000000000E+00 -0.45593999997E+02  0.45594000000E+02  0.51100000000E-03 0. -1.
         23    2    1    2    0    0 -0.22204460493E-14 -0.71054273576E-14  0.00000000000E+00  0.91188000000E+02  0.91188000000E+02 0.  0.
    9900012    2    3    3    0    0  0.24721878826E+01 -0.29985248360E+02 -0.21226271075E+02  0.54367062806E+02  0.39999951278E+02 0.  0.
        -12    1    3    3    0    0 -0.24721878826E+01  0.29985248360E+02  0.21226271075E+02  0.36820937194E+02  0.00000000000E+00 0.  1.
         11    1    4    4    0    0 -0.12264533937E+02 -0.11323961127E+02 -0.28209841522E+01  0.16929525692E+02  0.51100000000E-03 0. -1.
        -11    1    4    4    0    0 -0.30633708896E+01  0.12823120552E+01  0.19382067470E+01  0.38451542322E+01  0.51100000000E-03 0.  1.
         12    1    4    4    0    0  0.17800092709E+02 -0.19943599287E+02 -0.20343493670E+02  0.33592382882E+02  0.00000000000E+00 0. -1.
</event>
<event>
 8    1  0.2490104E-006  0.9118800E+02  0.7816164E-02  0.1184000E+00
        -11   -1    0    0    0    0  0.00000000000E+00  0.00000000000E+00  0.45593999997E+02  0.45594000000E+02  0.51100000000E-03 0.  1.
         11   -1    0    0    0    0 -0.00000000000E+00 -0.00000000000E+00 -0.45593999997E+02  0.45594000000E+02  0.51100000000E-03 0. -1.
         23    2    1    2    0    0 -0.17763568394E-14  0.00000000000E+00  0.71054273576E-14  0.91188000000E+02  0.91188000000E+02 0.  0.
    9900012    2    3    3    0    0  0.11112858206E+02 -0.90932756294E+01 -0.33905656330E+02  0.54367125345E+02  0.40000093849E+02 0.  0.
        -12    1    3    3    0    0 -0.11112858206E+02  0.90932756294E+01  0.33905656330E+02  0.36820874655E+02  0.00000000000E+00 0.  1.
         11    1    4    4    0    0  0.22318353584E+02 -0.48825616225E+01 -0.30007089644E+02  0.37714370522E+02  0.51100000000E-03 0. -1.
        -11    1    4    4    0    0 -0.32321049958E+01 -0.53527338124E+01 -0.56300196837E+01  0.84139992792E+01  0.51100000000E-03 0.  1.
        -12    1    4    4    0    0 -0.79733903823E+01  0.11420198055E+01  0.17314529977E+01  0.82387555436E+01  0.00000000000E+00 0.  1.
</event>
<event>
 8    1  0.2490104E-006  0.9118800E+02  0.7816164E-02  0.1184000E+00
        -11   -1    0    0    0    0  0.00000000000E+00  0.00000000000E+00  0.45593999997E+02  0.45594000000E+02  0.51100000000E-03 0.  1.
         11   -1    0    0    0    0 -0.00000000000E+00 -0.00000000000E+00 -0.45593999997E+02  0.45594000000E+02  0.51100000000E-03 0. -1.
         23    2    1    2    0    0  0.00000000000E+00 -0.71054273576E-14  0.35527136788E-14  0.91188000000E+02  0.91188000000E+02 0.  0.
    9900012    2    3    3    0    0 -0.20028339478E+02 -0.26084645358E+02  0.16560112743E+02  0.54367076061E+02  0.39999981496E+02 0.  0.
         12    1    3    3    0    0  0.20028339478E+02  0.26084645358E+02 -0.16560112743E+02  0.36820923939E+02  0.00000000000E+00 0. -1.
         11    1    4    4    0    0 -0.11871666043E+02  0.70026462920E+01  0.25754023430E+01  0.14021633543E+02  0.51100000000E-03 0. -1.
        -11    1    4    4    0    0  0.19474998275E+01 -0.73429856628E+01 -0.26809143253E+01  0.80560223375E+01  0.51100000000E-03 0.  1.
        -12    1    4    4    0    0 -0.10104173262E+02 -0.25744305987E+02  0.16665624726E+02  0.32289420180E+02  0.00000000000E+00 0.  1.
</event>
<event>
 8    1  0.2490104E-006  0.9118800E+02  0.7816164E-02  0.1184000E+00
        -11   -1    0    0    0    0  0.00000000000E+00  0.00000000000E+00  0.45593999997E+02  0.45594000000E+02  0.51100000000E-03 0. -1.
         11   -1    0    0    0    0 -0.00000000000E+00 -0.00000000000E+00 -0.45593999997E+02  0.45594000000E+02  0.51100000000E-03 0.  1.
         23    2    1    2    0    0 -0.35527136788E-14  0.00000000000E+00  0.35527136788E-14  0.91188000000E+02  0.91188000000E+02 0.  0.
    9900012    2    3    3    0    0 -0.20018144667E+02 -0.13623083963E+02  0.27739219963E+02  0.54367097557E+02  0.40000030500E+02 0.  0.
        -12    1    3    3    0    0  0.20018144667E+02  0.13623083963E+02 -0.27739219963E+02  0.36820902443E+02  0.00000000000E+00 0.  1.
         11    1    4    4    0    0 -0.37818249435E+01  0.66274737588E+01  0.14870061823E+02  0.16713597674E+02  0.51100000000E-03 0. -1.
        -11    1    4    4    0    0 -0.17931490449E+02 -0.16844516187E+02  0.38806531295E+00  0.24605419530E+02  0.51100000000E-03 0.  1.
        -12    1    4    4    0    0  0.16951707261E+01 -0.34060415348E+01  0.12481092828E+02  0.13048080353E+02  0.00000000000E+00 0.  1.
</event>
<event>
 8    1  0.2490104E-006  0.9118800E+02  0.7816164E-02  0.1184000E+00
        -11   -1    0    0    0    0  0.00000000000E+00  0.00000000000E+00  0.45593999997E+02  0.45594000000E+02  0.51100000000E-03 0. -1.
         11   -1    0    0    0    0 -0.00000000000E+00 -0.00000000000E+00 -0.45593999997E+02  0.45594000000E+02  0.51100000000E-03 0.  1.
         23    2    1    2    0    0  0.88817841970E-15 -0.71054273576E-14  0.88817841970E-15  0.91188000000E+02  0.91188000000E+02 0.  0.
    9900012    2    3    3    0    0  0.45952498441E+01 -0.36121319364E+02  0.54693520221E+01  0.54367084133E+02  0.39999999898E+02 0.  0.
         12    1    3    3    0    0 -0.45952498441E+01  0.36121319364E+02 -0.54693520221E+01  0.36820915867E+02  0.00000000000E+00 0. -1.
         11    1    4    4    0    0 -0.35242700770E+01 -0.11548713518E+01 -0.13039229431E+02  0.13556390074E+02  0.51100000000E-03 0. -1.
        -11    1    4    4    0    0  0.55510365140E+01 -0.12521802100E+02  0.56517199576E+01  0.14817269416E+02  0.51100000000E-03 0.  1.
         12    1    4    4    0    0  0.25684834070E+01 -0.22444645912E+02  0.12856861496E+02  0.25993424643E+02  0.00000000000E+00 0. -1.
</event>
<event>
 8    1  0.2490104E-006  0.9118800E+02  0.7816164E-02  0.1184000E+00
        -11   -1    0    0    0    0  0.00000000000E+00  0.00000000000E+00  0.45593999997E+02  0.45594000000E+02  0.51100000000E-03 0. -1.
         11   -1    0    0    0    0 -0.00000000000E+00 -0.00000000000E+00 -0.45593999997E+02  0.45594000000E+02  0.51100000000E-03 0.  1.
         23    2    1    2    0    0 -0.35527136788E-14  0.00000000000E+00 -0.35527136788E-14  0.91188000000E+02  0.91188000000E+02 0.  0.
    9900012    2    3    3    0    0  0.31111961608E+02  0.10384210727E+02  0.16733040373E+02  0.54367073510E+02  0.39999975680E+02 0.  0.
        -12    1    3    3    0    0 -0.31111961608E+02 -0.10384210727E+02 -0.16733040373E+02  0.36820926490E+02  0.00000000000E+00 0.  1.
         11    1    4    4    0    0  0.48115890994E+01  0.12905284919E+02  0.19597043206E+01  0.13911801097E+02  0.51100000000E-03 0. -1.
        -11    1    4    4    0    0  0.21174266086E+02  0.37911508024E+01 -0.22114291260E+01  0.21624356354E+02  0.51100000000E-03 0.  1.
        -12    1    4    4    0    0  0.51261064220E+01 -0.63122249940E+01  0.16984765178E+02  0.18830916058E+02  0.00000000000E+00 0.  1.
</event>
<event>
 8    1  0.2490104E-006  0.9118800E+02  0.7816164E-02  0.1184000E+00
        -11   -1    0    0    0    0  0.00000000000E+00  0.00000000000E+00  0.45593999997E+02  0.45594000000E+02  0.51100000000E-03 0.  1.
         11   -1    0    0    0    0 -0.00000000000E+00 -0.00000000000E+00 -0.45593999997E+02  0.45594000000E+02  0.51100000000E-03 0. -1.
         23    2    1    2    0    0  0.00000000000E+00  0.17763568394E-14  0.00000000000E+00  0.91188000000E+02  0.91188000000E+02 0.  0.
    9900012    2    3    3    0    0  0.33466599729E+02 -0.90315795217E+01  0.12417678654E+02  0.54367062081E+02  0.39999949626E+02 0.  0.
        -12    1    3    3    0    0 -0.33466599729E+02  0.90315795217E+01 -0.12417678654E+02  0.36820937919E+02  0.00000000000E+00 0.  1.
         11    1    4    4    0    0  0.25729685538E+02 -0.15655662895E+02  0.74370694241E+01  0.31022999539E+02  0.51100000000E-03 0. -1.
        -11    1    4    4    0    0  0.53978929620E+01  0.13133241891E+02  0.74058288016E+01  0.16014543124E+02  0.51100000000E-03 0.  1.
        -12    1    4    4    0    0  0.23390212295E+01 -0.65091585174E+01 -0.24252195720E+01  0.73295194174E+01  0.00000000000E+00 0.  1.
</event>
<event>
 8    1  0.2490104E-006  0.9118800E+02  0.7816164E-02  0.1184000E+00
        -11   -1    0    0    0    0  0.00000000000E+00  0.00000000000E+00  0.45593999997E+02  0.45594000000E+02  0.51100000000E-03 0. -1.
         11   -1    0    0    0    0 -0.00000000000E+00 -0.00000000000E+00 -0.45593999997E+02  0.45594000000E+02  0.51100000000E-03 0.  1.
         23    2    1    2    0    0  0.17763568394E-14  0.71054273576E-14 -0.16653345369E-14  0.91188000000E+02  0.91188000000E+02 0.  0.
    9900012    2    3    3    0    0 -0.15127698733E+02 -0.33563856184E+02  0.63176644368E+00  0.54367097788E+02  0.40000031027E+02 0.  0.
         12    1    3    3    0    0  0.15127698733E+02  0.33563856184E+02 -0.63176644368E+00  0.36820902212E+02  0.00000000000E+00 0. -1.
         11    1    4    4    0    0 -0.17372829238E+01  0.18513171806E+00 -0.92928579765E+00  0.19788880881E+01  0.51100000000E-03 0. -1.
        -11    1    4    4    0    0 -0.39445968061E+01 -0.78880819085E+01 -0.17022396959E+02  0.19171428706E+02  0.51100000000E-03 0.  1.
        -12    1    4    4    0    0 -0.94458190028E+01 -0.25860905993E+02  0.18583449200E+02  0.33216780994E+02  0.00000000000E+00 0.  1.
</event>
<event>
 8    1  0.2490104E-006  0.9118800E+02  0.7816164E-02  0.1184000E+00
        -11   -1    0    0    0    0  0.00000000000E+00  0.00000000000E+00  0.45593999997E+02  0.45594000000E+02  0.51100000000E-03 0.  1.
         11   -1    0    0    0    0 -0.00000000000E+00 -0.00000000000E+00 -0.45593999997E+02  0.45594000000E+02  0.51100000000E-03 0. -1.
         23    2    1    2    0    0 -0.17763568394E-14  0.00000000000E+00  0.14210854715E-13  0.91188000000E+02  0.91188000000E+02 0.  0.
    9900012    2    3    3    0    0  0.14286766064E+02 -0.10869486679E+02 -0.32148442937E+02  0.54367084632E+02  0.40000001037E+02 0.  0.
        -12    1    3    3    0    0 -0.14286766064E+02  0.10869486679E+02  0.32148442937E+02  0.36820915368E+02  0.00000000000E+00 0.  1.
         11    1    4    4    0    0 -0.28828138306E+01 -0.14226511280E+01  0.32938486760E+01  0.46026069977E+01  0.51100000000E-03 0. -1.
        -11    1    4    4    0    0  0.99745255794E+01 -0.19061391961E+02 -0.29084972758E+02  0.36176836022E+02  0.51100000000E-03 0.  1.
         12    1    4    4    0    0  0.71950543151E+01  0.96145564098E+01 -0.63573188553E+01  0.13587641612E+02  0.00000000000E+00 0. -1.
</event>
<event>
 8    1  0.2490104E-006  0.9118800E+02  0.7816164E-02  0.1184000E+00
        -11   -1    0    0    0    0  0.00000000000E+00  0.00000000000E+00  0.45593999997E+02  0.45594000000E+02  0.51100000000E-03 0. -1.
         11   -1    0    0    0    0 -0.00000000000E+00 -0.00000000000E+00 -0.45593999997E+02  0.45594000000E+02  0.51100000000E-03 0.  1.
         23    2    1    2    0    0  0.69388939039E-15  0.00000000000E+00  0.17763568394E-14  0.91188000000E+02  0.91188000000E+02 0.  0.
    9900012    2    3    3    0    0 -0.22972664302E+00  0.33986977003E+02 -0.14163751882E+02  0.54367092250E+02  0.40000018402E+02 0.  0.
         12    1    3    3    0    0  0.22972664302E+00 -0.33986977003E+02  0.14163751882E+02  0.36820907750E+02  0.00000000000E+00 0. -1.
         11    1    4    4    0    0  0.75443864615E+01  0.21103818510E+02  0.37588091428E+01  0.22724822755E+02  0.51100000000E-03 0. -1.
        -11    1    4    4    0    0 -0.75741277496E+01  0.56765571077E+01 -0.21575382146E+02  0.23560301925E+02  0.51100000000E-03 0.  1.
        -12    1    4    4    0    0 -0.19998535496E+00  0.72066013852E+01  0.36528211213E+01  0.80819675706E+01  0.00000000000E+00 0.  1.
</event>
<event>
 8    1  0.2490104E-006  0.9118800E+02  0.7816164E-02  0.1184000E+00
        -11   -1    0    0    0    0  0.00000000000E+00  0.00000000000E+00  0.45593999997E+02  0.45594000000E+02  0.51100000000E-03 0. -1.
         11   -1    0    0    0    0 -0.00000000000E+00 -0.00000000000E+00 -0.45593999997E+02  0.45594000000E+02  0.51100000000E-03 0.  1.
         23    2    1    2    0    0 -0.35527136788E-14 -0.35527136788E-14  0.00000000000E+00  0.91188000000E+02  0.91188000000E+02 0.  0.
    9900012    2    3    3    0    0  0.27283666147E+02 -0.20427590440E+02  0.13931753202E+02  0.54367100542E+02  0.40000037306E+02 0.  0.
        -12    1    3    3    0    0 -0.27283666147E+02  0.20427590440E+02 -0.13931753202E+02  0.36820899458E+02  0.00000000000E+00 0.  1.
         11    1    4    4    0    0 -0.40002930883E+01 -0.64826854703E+01  0.68218272292E+01  0.10225697175E+02  0.51100000000E-03 0. -1.
        -11    1    4    4    0    0  0.31443735693E+02 -0.18913985124E+01  0.47203630548E+01  0.31852279829E+02  0.51100000000E-03 0.  1.
        -12    1    4    4    0    0 -0.15977645744E+00 -0.12053506457E+02  0.23895629177E+01  0.12289123539E+02  0.00000000000E+00 0.  1.
</event>
<event>
 8    1  0.2490104E-006  0.9118800E+02  0.7816164E-02  0.1184000E+00
        -11   -1    0    0    0    0  0.00000000000E+00  0.00000000000E+00  0.45593999997E+02  0.45594000000E+02  0.51100000000E-03 0. -1.
         11   -1    0    0    0    0 -0.00000000000E+00 -0.00000000000E+00 -0.45593999997E+02  0.45594000000E+02  0.51100000000E-03 0.  1.
         23    2    1    2    0    0  0.00000000000E+00  0.35527136788E-14  0.00000000000E+00  0.91188000000E+02  0.91188000000E+02 0.  0.
    9900012    2    3    3    0    0 -0.12462573747E+02 -0.24063891347E+02  0.24927866246E+02  0.54367012415E+02  0.39999836402E+02 0.  0.
        -12    1    3    3    0    0  0.12462573747E+02  0.24063891347E+02 -0.24927866246E+02  0.36820987585E+02  0.00000000000E+00 0.  1.
         11    1    4    4    0    0  0.47761589562E+01 -0.29059875334E+01  0.17202448580E+02  0.18088136867E+02  0.51100000000E-03 0. -1.
        -11    1    4    4    0    0 -0.55936898451E+01 -0.31060074014E+01  0.12706914183E+02  0.14226816804E+02  0.51100000000E-03 0.  1.
        -12    1    4    4    0    0 -0.11645042858E+02 -0.18051896412E+02 -0.49814965175E+01  0.22052058743E+02  0.00000000000E+00 0.  1.
</event>
<event>
 8    1  0.2490104E-006  0.9118800E+02  0.7816164E-02  0.1184000E+00
        -11   -1    0    0    0    0  0.00000000000E+00  0.00000000000E+00  0.45593999997E+02  0.45594000000E+02  0.51100000000E-03 0.  1.
         11   -1    0    0    0    0 -0.00000000000E+00 -0.00000000000E+00 -0.45593999997E+02  0.45594000000E+02  0.51100000000E-03 0. -1.
         23    2    1    2    0    0 -0.71054273576E-14  0.00000000000E+00 -0.88817841970E-15  0.91188000000E+02  0.91188000000E+02 0.  0.
    9900012    2    3    3    0    0  0.36027715662E+02  0.54009682765E+01 -0.53490870385E+01  0.54367089007E+02  0.40000011010E+02 0.  0.
        -12    1    3    3    0    0 -0.36027715662E+02 -0.54009682765E+01  0.53490870385E+01  0.36820910993E+02  0.00000000000E+00 0.  1.
         11    1    4    4    0    0  0.29855926403E+02  0.99632038650E+01 -0.12260274021E+02  0.33778041565E+02  0.51100000000E-03 0. -1.
        -11    1    4    4    0    0  0.94964012871E+01 -0.74302095536E+01 -0.39590971817E+00  0.12064261112E+02  0.51100000000E-03 0.  1.
        -12    1    4    4    0    0 -0.33246120273E+01  0.28679739652E+01  0.73070967003E+01  0.85247863307E+01  0.00000000000E+00 0.  1.
</event>
<event>
 8    1  0.2490104E-006  0.9118800E+02  0.7816164E-02  0.1184000E+00
        -11   -1    0    0    0    0  0.00000000000E+00  0.00000000000E+00  0.45593999997E+02  0.45594000000E+02  0.51100000000E-03 0.  1.
         11   -1    0    0    0    0 -0.00000000000E+00 -0.00000000000E+00 -0.45593999997E+02  0.45594000000E+02  0.51100000000E-03 0. -1.
         23    2    1    2    0    0 -0.44408920985E-15  0.00000000000E+00  0.17763568394E-14  0.91188000000E+02  0.91188000000E+02 0.  0.
    9900012    2    3    3    0    0  0.35433648516E+01  0.33587792415E+02 -0.14665772151E+02  0.54367080585E+02  0.39999991809E+02 0.  0.
        -12    1    3    3    0    0 -0.35433648516E+01 -0.33587792415E+02  0.14665772151E+02  0.36820919415E+02  0.00000000000E+00 0.  1.
         11    1    4    4    0    0  0.66283320721E+01  0.20858514421E+01 -0.16968368500E+02  0.18336059885E+02  0.51100000000E-03 0. -1.
        -11    1    4    4    0    0 -0.63431899775E+01  0.25753083201E+01  0.29785819578E+00  0.68525171872E+01  0.51100000000E-03 0.  1.
         12    1    4    4    0    0  0.32582227570E+01  0.28926632653E+02  0.20047381526E+01  0.29178503513E+02  0.00000000000E+00 0. -1.
</event>
<event>
 8    1  0.2490104E-006  0.9118800E+02  0.7816164E-02  0.1184000E+00
        -11   -1    0    0    0    0  0.00000000000E+00  0.00000000000E+00  0.45593999997E+02  0.45594000000E+02  0.51100000000E-03 0.  1.
         11   -1    0    0    0    0 -0.00000000000E+00 -0.00000000000E+00 -0.45593999997E+02  0.45594000000E+02  0.51100000000E-03 0. -1.
         23    2    1    2    0    0 -0.26645352591E-14 -0.35527136788E-14  0.00000000000E+00  0.91188000000E+02  0.91188000000E+02 0.  0.
    9900012    2    3    3    0    0 -0.78860132473E+01 -0.15603572131E+02  0.32405487438E+02  0.54367132488E+02  0.40000110133E+02 0.  0.
         12    1    3    3    0    0  0.78860132473E+01  0.15603572131E+02 -0.32405487438E+02  0.36820867512E+02  0.00000000000E+00 0. -1.
         11    1    4    4    0    0  0.12592614184E+01 -0.37679412312E+01  0.32178385725E+02  0.32422702363E+02  0.51100000000E-03 0.  1.
        -11    1    4    4    0    0 -0.58180172864E-01 -0.64557478761E+01  0.69025707133E+01  0.94512194073E+01  0.51100000000E-03 0. -1.
         12    1    4    4    0    0 -0.90870944928E+01 -0.53798830240E+01 -0.66754689995E+01  0.12493210718E+02  0.00000000000E+00 0. -1.
</event>
<event>
 8    1  0.2490104E-006  0.9118800E+02  0.7816164E-02  0.1184000E+00
        -11   -1    0    0    0    0  0.00000000000E+00  0.00000000000E+00  0.45593999997E+02  0.45594000000E+02  0.51100000000E-03 0.  1.
         11   -1    0    0    0    0 -0.00000000000E+00 -0.00000000000E+00 -0.45593999997E+02  0.45594000000E+02  0.51100000000E-03 0. -1.
         23    2    1    2    0    0  0.00000000000E+00  0.00000000000E+00  0.11102230246E-15  0.91188000000E+02  0.91188000000E+02 0.  0.
    9900012    2    3    3    0    0  0.36000582332E+02 -0.77220221738E+01  0.32855271131E+00  0.54367088800E+02  0.40000010538E+02 0.  0.
         12    1    3    3    0    0 -0.36000582332E+02  0.77220221738E+01 -0.32855271131E+00  0.36820911200E+02  0.00000000000E+00 0. -1.
         11    1    4    4    0    0  0.16016142028E+01 -0.10311645025E+02 -0.28004242650E+01  0.10804516070E+02  0.51100000000E-03 0. -1.
        -11    1    4    4    0    0  0.30010969998E+02 -0.76107286852E+01 -0.25957807844E+01  0.31069592683E+02  0.51100000000E-03 0.  1.
        -12    1    4    4    0    0  0.43879981314E+01  0.10200351536E+02  0.57247577607E+01  0.12492980048E+02  0.00000000000E+00 0.  1.
</event>
<event>
 8    1  0.2490104E-006  0.9118800E+02  0.7816164E-02  0.1184000E+00
        -11   -1    0    0    0    0  0.00000000000E+00  0.00000000000E+00  0.45593999997E+02  0.45594000000E+02  0.51100000000E-03 0.  1.
         11   -1    0    0    0    0 -0.00000000000E+00 -0.00000000000E+00 -0.45593999997E+02  0.45594000000E+02  0.51100000000E-03 0. -1.
         23    2    1    2    0    0  0.00000000000E+00  0.00000000000E+00 -0.17763568394E-14  0.91188000000E+02  0.91188000000E+02 0.  0.
    9900012    2    3    3    0    0  0.22917796114E+02  0.25313387625E+02 -0.13776332390E+02  0.54367077878E+02  0.39999985640E+02 0.  0.
        -12    1    3    3    0    0 -0.22917796114E+02 -0.25313387625E+02  0.13776332390E+02  0.36820922122E+02  0.00000000000E+00 0.  1.
         11    1    4    4    0    0  0.10283615842E+02  0.17538352276E+02 -0.16846630512E+02  0.26403702680E+02  0.51100000000E-03 0. -1.
        -11    1    4    4    0    0 -0.26006037424E+01 -0.19932707516E+01  0.84665807046E+01  0.90785052296E+01  0.51100000000E-03 0.  1.
         12    1    4    4    0    0  0.15234784014E+02  0.97683061006E+01 -0.53962825825E+01  0.18884869969E+02  0.00000000000E+00 0. -1.
</event>
<event>
 8    1  0.2490104E-006  0.9118800E+02  0.7816164E-02  0.1184000E+00
        -11   -1    0    0    0    0  0.00000000000E+00  0.00000000000E+00  0.45593999997E+02  0.45594000000E+02  0.51100000000E-03 0. -1.
         11   -1    0    0    0    0 -0.00000000000E+00 -0.00000000000E+00 -0.45593999997E+02  0.45594000000E+02  0.51100000000E-03 0.  1.
         23    2    1    2    0    0  0.88817841970E-15  0.00000000000E+00  0.71054273576E-14  0.91188000000E+02  0.91188000000E+02 0.  0.
    9900012    2    3    3    0    0 -0.79346842791E+01  0.12590653956E+02 -0.33679326287E+02  0.54367071158E+02  0.39999970319E+02 0.  0.
         12    1    3    3    0    0  0.79346842791E+01 -0.12590653956E+02  0.33679326287E+02  0.36820928842E+02  0.00000000000E+00 0. -1.
         11    1    4    4    0    0 -0.80811154143E+00  0.14641942835E+02  0.17157661516E+01  0.14764260496E+02  0.51100000000E-03 0. -1.
        -11    1    4    4    0    0 -0.75163058296E+01 -0.76688750077E+01 -0.15018434592E+02  0.18462390827E+02  0.51100000000E-03 0.  1.
         12    1    4    4    0    0  0.38973309196E+00  0.56175861286E+01 -0.20376657847E+02  0.21140419835E+02  0.00000000000E+00 0. -1.
</event>
<event>
 8    1  0.2490104E-006  0.9118800E+02  0.7816164E-02  0.1184000E+00
        -11   -1    0    0    0    0  0.00000000000E+00  0.00000000000E+00  0.45593999997E+02  0.45594000000E+02  0.51100000000E-03 0. -1.
         11   -1    0    0    0    0 -0.00000000000E+00 -0.00000000000E+00 -0.45593999997E+02  0.45594000000E+02  0.51100000000E-03 0.  1.
         23    2    1    2    0    0  0.00000000000E+00  0.00000000000E+00 -0.88817841970E-15  0.91188000000E+02  0.91188000000E+02 0.  0.
    9900012    2    3    3    0    0 -0.89531727205E+01 -0.35087512593E+02  0.66698379760E+01  0.54367087730E+02  0.40000008099E+02 0.  0.
         12    1    3    3    0    0  0.89531727205E+01  0.35087512593E+02 -0.66698379760E+01  0.36820912270E+02  0.00000000000E+00 0. -1.
         11    1    4    4    0    0  0.50258434951E+00 -0.22394909771E+02  0.29704053605E+01  0.22596634328E+02  0.51100000000E-03 0. -1.
        -11    1    4    4    0    0 -0.13019028946E+02 -0.19738031468E+02  0.23610351191E+01  0.23762564846E+02  0.51100000000E-03 0.  1.
         12    1    4    4    0    0  0.35632718764E+01  0.70454286464E+01  0.13383974964E+01  0.80078885566E+01  0.00000000000E+00 0. -1.
</event>
<event>
 8    1  0.2490104E-006  0.9118800E+02  0.7816164E-02  0.1184000E+00
        -11   -1    0    0    0    0  0.00000000000E+00  0.00000000000E+00  0.45593999997E+02  0.45594000000E+02  0.51100000000E-03 0.  1.
         11   -1    0    0    0    0 -0.00000000000E+00 -0.00000000000E+00 -0.45593999997E+02  0.45594000000E+02  0.51100000000E-03 0. -1.
         23    2    1    2    0    0  0.88817841970E-15 -0.44408920985E-15  0.00000000000E+00  0.91188000000E+02  0.91188000000E+02 0.  0.
    9900012    2    3    3    0    0  0.74037266512E+01 -0.11888734965E+01  0.36049293953E+02  0.54367079547E+02  0.39999989443E+02 0.  0.
         12    1    3    3    0    0 -0.74037266512E+01  0.11888734965E+01 -0.36049293953E+02  0.36820920453E+02  0.00000000000E+00 0. -1.
         11    1    4    4    0    0  0.15059500157E+02 -0.14517526327E+02  0.27931388747E+02  0.34895695913E+02  0.51100000000E-03 0. -1.
        -11    1    4    4    0    0 -0.14143490171E+01  0.79533699274E+01  0.77983675181E+01  0.11228134865E+02  0.51100000000E-03 0.  1.
         12    1    4    4    0    0 -0.62414244883E+01  0.53752829029E+01  0.31953768749E+00  0.82432487687E+01  0.00000000000E+00 0. -1.
</event>
<event>
 8    1  0.2490104E-006  0.9118800E+02  0.7816164E-02  0.1184000E+00
        -11   -1    0    0    0    0  0.00000000000E+00  0.00000000000E+00  0.45593999997E+02  0.45594000000E+02  0.51100000000E-03 0. -1.
         11   -1    0    0    0    0 -0.00000000000E+00 -0.00000000000E+00 -0.45593999997E+02  0.45594000000E+02  0.51100000000E-03 0.  1.
         23    2    1    2    0    0  0.71054273576E-14 -0.88817841970E-15  0.88817841970E-15  0.91188000000E+02  0.91188000000E+02 0.  0.
    9900012    2    3    3    0    0  0.35996974889E+02 -0.23827851722E+01  0.73701724684E+01  0.54367091421E+02  0.40000016513E+02 0.  0.
        -12    1    3    3    0    0 -0.35996974889E+02  0.23827851722E+01 -0.73701724684E+01  0.36820908579E+02  0.00000000000E+00 0.  1.
         11    1    4    4    0    0 -0.29863416524E+01  0.31448058643E+01  0.11926403931E+01  0.44978252253E+01  0.51100000000E-03 0. -1.
        -11    1    4    4    0    0  0.45965188241E+01 -0.13117017153E+02 -0.98476394406E+00  0.13933911317E+02  0.51100000000E-03 0.  1.
         12    1    4    4    0    0  0.34386797717E+02  0.75894261165E+01  0.71622960193E+01  0.35935354879E+02  0.00000000000E+00 0. -1.
</event>
<event>
 8    1  0.2490104E-006  0.9118800E+02  0.7816164E-02  0.1184000E+00
        -11   -1    0    0    0    0  0.00000000000E+00  0.00000000000E+00  0.45593999997E+02  0.45594000000E+02  0.51100000000E-03 0.  1.
         11   -1    0    0    0    0 -0.00000000000E+00 -0.00000000000E+00 -0.45593999997E+02  0.45594000000E+02  0.51100000000E-03 0. -1.
         23    2    1    2    0    0  0.00000000000E+00  0.35527136788E-14  0.00000000000E+00  0.91188000000E+02  0.91188000000E+02 0.  0.
    9900012    2    3    3    0    0 -0.86905924050E+01  0.15266506719E+02 -0.32360273140E+02  0.54367083371E+02  0.39999998161E+02 0.  0.
        -12    1    3    3    0    0  0.86905924050E+01 -0.15266506719E+02  0.32360273140E+02  0.36820916629E+02  0.00000000000E+00 0.  1.
         11    1    4    4    0    0  0.46411000243E+01 -0.11592230788E+01 -0.12519357584E+02  0.13402161101E+02  0.51100000000E-03 0. -1.
        -11    1    4    4    0    0  0.50265872079E+01 -0.35891139832E+01 -0.10615678020E+02  0.12281731890E+02  0.51100000000E-03 0.  1.
         12    1    4    4    0    0 -0.18358279637E+02  0.20014843781E+02 -0.92252375354E+01  0.28683190380E+02  0.00000000000E+00 0. -1.
</event>
<event>
 8    1  0.2490104E-006  0.9118800E+02  0.7816164E-02  0.1184000E+00
        -11   -1    0    0    0    0  0.00000000000E+00  0.00000000000E+00  0.45593999997E+02  0.45594000000E+02  0.51100000000E-03 0. -1.
         11   -1    0    0    0    0 -0.00000000000E+00 -0.00000000000E+00 -0.45593999997E+02  0.45594000000E+02  0.51100000000E-03 0.  1.
         23    2    1    2    0    0  0.00000000000E+00  0.00000000000E+00  0.00000000000E+00  0.91188000000E+02  0.91188000000E+02 0.  0.
    9900012    2    3    3    0    0  0.71136606207E+01  0.54237888793E+01 -0.35717729572E+02  0.54367111105E+02  0.40000061386E+02 0.  0.
         12    1    3    3    0    0 -0.71136606207E+01 -0.54237888793E+01  0.35717729572E+02  0.36820888895E+02  0.00000000000E+00 0. -1.
         11    1    4    4    0    0 -0.33066505270E+01 -0.49551070630E+01  0.17049427078E+01  0.61962773995E+01  0.51100000000E-03 0. -1.
        -11    1    4    4    0    0  0.14910559587E+02 -0.38538127070E+01 -0.19495677684E+02  0.24844679676E+02  0.51100000000E-03 0.  1.
        -12    1    4    4    0    0 -0.44902484398E+01  0.14232708649E+02 -0.17926994596E+02  0.23326154029E+02  0.00000000000E+00 0.  1.
</event>
<event>
 8    1  0.2490104E-006  0.9118800E+02  0.7816164E-02  0.1184000E+00
        -11   -1    0    0    0    0  0.00000000000E+00  0.00000000000E+00  0.45593999997E+02  0.45594000000E+02  0.51100000000E-03 0.  1.
         11   -1    0    0    0    0 -0.00000000000E+00 -0.00000000000E+00 -0.45593999997E+02  0.45594000000E+02  0.51100000000E-03 0. -1.
         23    2    1    2    0    0 -0.17763568394E-14  0.17763568394E-14  0.00000000000E+00  0.91188000000E+02  0.91188000000E+02 0.  0.
    9900012    2    3    3    0    0  0.13356718750E+02  0.10250541767E+02  0.32746058986E+02  0.54367083099E+02  0.39999997541E+02 0.  0.
         12    1    3    3    0    0 -0.13356718750E+02 -0.10250541767E+02 -0.32746058986E+02  0.36820916901E+02  0.00000000000E+00 0. -1.
         11    1    4    4    0    0  0.13409326930E+02  0.11911136568E+02 -0.28392592818E+01  0.18158926636E+02  0.51100000000E-03 0. -1.
        -11    1    4    4    0    0  0.27349356112E+01  0.85665347203E+00  0.12950084963E+02  0.13263424474E+02  0.51100000000E-03 0.  1.
         12    1    4    4    0    0 -0.27875437911E+01 -0.25172482732E+01  0.22635233306E+02  0.22944731989E+02  0.00000000000E+00 0. -1.
</event>
<event>
 8    1  0.2490104E-006  0.9118800E+02  0.7816164E-02  0.1184000E+00
        -11   -1    0    0    0    0  0.00000000000E+00  0.00000000000E+00  0.45593999997E+02  0.45594000000E+02  0.51100000000E-03 0.  1.
         11   -1    0    0    0    0 -0.00000000000E+00 -0.00000000000E+00 -0.45593999997E+02  0.45594000000E+02  0.51100000000E-03 0. -1.
         23    2    1    2    0    0 -0.44408920985E-15  0.00000000000E+00  0.00000000000E+00  0.91188000000E+02  0.91188000000E+02 0.  0.
    9900012    2    3    3    0    0  0.27185377749E+01  0.13622835892E+02 -0.34099970170E+02  0.54367081068E+02  0.39999992911E+02 0.  0.
        -12    1    3    3    0    0 -0.27185377749E+01 -0.13622835892E+02  0.34099970170E+02  0.36820918932E+02  0.00000000000E+00 0.  1.
         11    1    4    4    0    0 -0.16336301249E+01 -0.32816447141E+00 -0.57796821855E+01  0.60150781983E+01  0.51100000000E-03 0. -1.
        -11    1    4    4    0    0  0.10200012613E+02 -0.49935091016E+01 -0.26022558602E+02  0.28392762228E+02  0.51100000000E-03 0.  1.
        -12    1    4    4    0    0 -0.58478447134E+01  0.18944509465E+02 -0.22977293822E+01  0.19959240642E+02  0.00000000000E+00 0.  1.
</event>
<event>
 8    1  0.2490104E-006  0.9118800E+02  0.7816164E-02  0.1184000E+00
        -11   -1    0    0    0    0  0.00000000000E+00  0.00000000000E+00  0.45593999997E+02  0.45594000000E+02  0.51100000000E-03 0. -1.
         11   -1    0    0    0    0 -0.00000000000E+00 -0.00000000000E+00 -0.45593999997E+02  0.45594000000E+02  0.51100000000E-03 0.  1.
         23    2    1    2    0    0  0.66613381478E-15 -0.71054273576E-14  0.88817841970E-15  0.91188000000E+02  0.91188000000E+02 0.  0.
    9900012    2    3    3    0    0  0.14422199422E+01 -0.36602600738E+02  0.37347168229E+01  0.54367102552E+02  0.40000041888E+02 0.  0.
        -12    1    3    3    0    0 -0.14422199422E+01  0.36602600738E+02 -0.37347168229E+01  0.36820897448E+02  0.00000000000E+00 0.  1.
         11    1    4    4    0    0  0.11258927428E+02 -0.43011116278E+00 -0.48638674961E+00  0.11277633386E+02  0.51100000000E-03 0.  1.
        -11    1    4    4    0    0 -0.13721777003E+02 -0.29653211792E+02 -0.27333188560E+01  0.32788277874E+02  0.51100000000E-03 0. -1.
         12    1    4    4    0    0  0.39050695168E+01 -0.65192777828E+01  0.69544224285E+01  0.10301191293E+02  0.00000000000E+00 0. -1.
</event>
<event>
 8    1  0.2490104E-006  0.9118800E+02  0.7816164E-02  0.1184000E+00
        -11   -1    0    0    0    0  0.00000000000E+00  0.00000000000E+00  0.45593999997E+02  0.45594000000E+02  0.51100000000E-03 0.  1.
         11   -1    0    0    0    0 -0.00000000000E+00 -0.00000000000E+00 -0.45593999997E+02  0.45594000000E+02  0.51100000000E-03 0. -1.
         23    2    1    2    0    0  0.35527136788E-14  0.00000000000E+00 -0.35527136788E-14  0.91188000000E+02  0.91188000000E+02 0.  0.
    9900012    2    3    3    0    0  0.21350195782E+02  0.88619864118E+01  0.28660333879E+02  0.54367076585E+02  0.39999982690E+02 0.  0.
         12    1    3    3    0    0 -0.21350195782E+02 -0.88619864118E+01 -0.28660333879E+02  0.36820923415E+02  0.00000000000E+00 0. -1.
         11    1    4    4    0    0  0.18894378230E+02 -0.25122654453E+01  0.91800262267E+00  0.19082760163E+02  0.51100000000E-03 0. -1.
        -11    1    4    4    0    0  0.96760863247E+01  0.29002561824E+01  0.17228859836E+02  0.19971773682E+02  0.51100000000E-03 0.  1.
         12    1    4    4    0    0 -0.72202687726E+01  0.84739956746E+01  0.10513471420E+02  0.15312542739E+02  0.00000000000E+00 0. -1.
</event>
<event>
 8    1  0.2490104E-006  0.9118800E+02  0.7816164E-02  0.1184000E+00
        -11   -1    0    0    0    0  0.00000000000E+00  0.00000000000E+00  0.45593999997E+02  0.45594000000E+02  0.51100000000E-03 0. -1.
         11   -1    0    0    0    0 -0.00000000000E+00 -0.00000000000E+00 -0.45593999997E+02  0.45594000000E+02  0.51100000000E-03 0.  1.
         23    2    1    2    0    0  0.26645352591E-14  0.00000000000E+00  0.00000000000E+00  0.91188000000E+02  0.91188000000E+02 0.  0.
    9900012    2    3    3    0    0  0.78390738917E+01 -0.17824335849E+02  0.31250890395E+02  0.54367133926E+02  0.40000113411E+02 0.  0.
        -12    1    3    3    0    0 -0.78390738917E+01  0.17824335849E+02 -0.31250890395E+02  0.36820866074E+02  0.00000000000E+00 0.  1.
         11    1    4    4    0    0 -0.63644233676E+01 -0.24696717602E+02  0.22515117634E+02  0.34020056841E+02  0.51100000000E-03 0. -1.
        -11    1    4    4    0    0  0.15322093142E+01  0.46341463177E+01  0.15956106980E+00  0.48834862007E+01  0.51100000000E-03 0.  1.
         12    1    4    4    0    0  0.12671287945E+02  0.22382354355E+01  0.85762116921E+01  0.15463590884E+02  0.00000000000E+00 0. -1.
</event>
<event>
 8    1  0.2490104E-006  0.9118800E+02  0.7816164E-02  0.1184000E+00
        -11   -1    0    0    0    0  0.00000000000E+00  0.00000000000E+00  0.45593999997E+02  0.45594000000E+02  0.51100000000E-03 0.  1.
         11   -1    0    0    0    0 -0.00000000000E+00 -0.00000000000E+00 -0.45593999997E+02  0.45594000000E+02  0.51100000000E-03 0. -1.
         23    2    1    2    0    0  0.17763568394E-14  0.00000000000E+00 -0.11102230246E-15  0.91188000000E+02  0.91188000000E+02 0.  0.
    9900012    2    3    3    0    0  0.83869152661E+01  0.35842514558E+02  0.86806487379E+00  0.54367085642E+02  0.40000003338E+02 0.  0.
         12    1    3    3    0    0 -0.83869152661E+01 -0.35842514558E+02 -0.86806487379E+00  0.36820914358E+02  0.00000000000E+00 0. -1.
         11    1    4    4    0    0 -0.37530660946E+01  0.70977263369E+01  0.15465972931E+02  0.17425829772E+02  0.51100000000E-03 0. -1.
        -11    1    4    4    0    0  0.20676268789E+00  0.17466025231E+02 -0.65475974998E+01  0.18654110042E+02  0.51100000000E-03 0.  1.
         12    1    4    4    0    0  0.11933218673E+02  0.11278762991E+02 -0.80503105574E+01  0.18287145829E+02  0.00000000000E+00 0. -1.
</event>
<event>
 8    1  0.2490104E-006  0.9118800E+02  0.7816164E-02  0.1184000E+00
        -11   -1    0    0    0    0  0.00000000000E+00  0.00000000000E+00  0.45593999997E+02  0.45594000000E+02  0.51100000000E-03 0.  1.
         11   -1    0    0    0    0 -0.00000000000E+00 -0.00000000000E+00 -0.45593999997E+02  0.45594000000E+02  0.51100000000E-03 0. -1.
         23    2    1    2    0    0 -0.17763568394E-14 -0.13322676296E-14  0.00000000000E+00  0.91188000000E+02  0.91188000000E+02 0.  0.
    9900012    2    3    3    0    0  0.11848493849E+02 -0.22053278146E+01  0.34792617882E+02  0.54367129066E+02  0.40000102331E+02 0.  0.
         12    1    3    3    0    0 -0.11848493849E+02  0.22053278146E+01 -0.34792617882E+02  0.36820870934E+02  0.00000000000E+00 0. -1.
         11    1    4    4    0    0  0.69390054881E+01 -0.22493784864E+01  0.17056111996E+01  0.74912355833E+01  0.51100000000E-03 0. -1.
        -11    1    4    4    0    0  0.11252159835E+02 -0.11919683870E+02  0.77150829698E+01  0.18116635174E+02  0.51100000000E-03 0.  1.
        -12    1    4    4    0    0 -0.63426714735E+01  0.11963734542E+02  0.25371923713E+02  0.28759258309E+02  0.00000000000E+00 0.  1.
</event>
<event>
 8    1  0.2490104E-006  0.9118800E+02  0.7816164E-02  0.1184000E+00
        -11   -1    0    0    0    0  0.00000000000E+00  0.00000000000E+00  0.45593999997E+02  0.45594000000E+02  0.51100000000E-03 0. -1.
         11   -1    0    0    0    0 -0.00000000000E+00 -0.00000000000E+00 -0.45593999997E+02  0.45594000000E+02  0.51100000000E-03 0.  1.
         23    2    1    2    0    0  0.00000000000E+00 -0.35527136788E-14  0.00000000000E+00  0.91188000000E+02  0.91188000000E+02 0.  0.
    9900012    2    3    3    0    0 -0.11065721355E+02 -0.28574855052E+02  0.20415850168E+02  0.54367089250E+02  0.40000011563E+02 0.  0.
        -12    1    3    3    0    0  0.11065721355E+02  0.28574855052E+02 -0.20415850168E+02  0.36820910750E+02  0.00000000000E+00 0.  1.
         11    1    4    4    0    0 -0.10740860331E+01 -0.21120702587E+02  0.82949834127E+01  0.22716612614E+02  0.51100000000E-03 0. -1.
        -11    1    4    4    0    0 -0.13313056052E+01 -0.33309056082E+01  0.19324659544E+02  0.19654764652E+02  0.51100000000E-03 0.  1.
        -12    1    4    4    0    0 -0.86603297168E+01 -0.41232468571E+01 -0.72037927886E+01  0.11995711983E+02  0.00000000000E+00 0.  1.
</event>
<event>
 8    1  0.2490104E-006  0.9118800E+02  0.7816164E-02  0.1184000E+00
        -11   -1    0    0    0    0  0.00000000000E+00  0.00000000000E+00  0.45593999997E+02  0.45594000000E+02  0.51100000000E-03 0. -1.
         11   -1    0    0    0    0 -0.00000000000E+00 -0.00000000000E+00 -0.45593999997E+02  0.45594000000E+02  0.51100000000E-03 0.  1.
         23    2    1    2    0    0  0.00000000000E+00  0.00000000000E+00  0.00000000000E+00  0.91188000000E+02  0.91188000000E+02 0.  0.
    9900012    2    3    3    0    0  0.90508140737E+01 -0.15643147660E+02  0.32080449981E+02  0.54367074223E+02  0.39999977306E+02 0.  0.
         12    1    3    3    0    0 -0.90508140737E+01  0.15643147660E+02 -0.32080449981E+02  0.36820925777E+02  0.00000000000E+00 0. -1.
         11    1    4    4    0    0  0.43265432686E+01 -0.11524049028E+02  0.34175282021E+02  0.36324545202E+02  0.51100000000E-03 0. -1.
        -11    1    4    4    0    0 -0.29881394240E+01  0.23831002280E+01  0.45657811608E+01  0.59543682943E+01  0.51100000000E-03 0.  1.
         12    1    4    4    0    0  0.77124102291E+01 -0.65021988597E+01 -0.66606132009E+01  0.12088160727E+02  0.00000000000E+00 0. -1.
</event>
<event>
 8    1  0.2490104E-006  0.9118800E+02  0.7816164E-02  0.1184000E+00
        -11   -1    0    0    0    0  0.00000000000E+00  0.00000000000E+00  0.45593999997E+02  0.45594000000E+02  0.51100000000E-03 0.  1.
         11   -1    0    0    0    0 -0.00000000000E+00 -0.00000000000E+00 -0.45593999997E+02  0.45594000000E+02  0.51100000000E-03 0. -1.
         23    2    1    2    0    0  0.00000000000E+00  0.35527136788E-14  0.00000000000E+00  0.91188000000E+02  0.91188000000E+02 0.  0.
    9900012    2    3    3    0    0  0.18225524737E+02 -0.25745365928E+02  0.18994400602E+02  0.54367070178E+02  0.39999968086E+02 0.  0.
         12    1    3    3    0    0 -0.18225524737E+02  0.25745365928E+02 -0.18994400602E+02  0.36820929822E+02  0.00000000000E+00 0. -1.
         11    1    4    4    0    0 -0.66453696619E+01 -0.52757787952E+01 -0.40010074589E+01  0.93809829328E+01  0.51100000000E-03 0. -1.
        -11    1    4    4    0    0  0.64054041463E+01  0.18231477481E+01  0.12558034597E+02  0.14214686180E+02  0.51100000000E-03 0.  1.
         12    1    4    4    0    0  0.18465490252E+02 -0.22292734881E+02  0.10437373464E+02  0.30771401066E+02  0.00000000000E+00 0. -1.
</event>
<event>
 8    1  0.2490104E-006  0.9118800E+02  0.7816164E-02  0.1184000E+00
        -11   -1    0    0    0    0  0.00000000000E+00  0.00000000000E+00  0.45593999997E+02  0.45594000000E+02  0.51100000000E-03 0.  1.
         11   -1    0    0    0    0 -0.00000000000E+00 -0.00000000000E+00 -0.45593999997E+02  0.45594000000E+02  0.51100000000E-03 0. -1.
         23    2    1    2    0    0 -0.35527136788E-14  0.00000000000E+00  0.00000000000E+00  0.91188000000E+02  0.91188000000E+02 0.  0.
    9900012    2    3    3    0    0 -0.18327599126E+02 -0.85965432111E+01 -0.30756765783E+02  0.54367080860E+02  0.39999992437E+02 0.  0.
        -12    1    3    3    0    0  0.18327599126E+02  0.85965432111E+01  0.30756765783E+02  0.36820919140E+02  0.00000000000E+00 0.  1.
         11    1    4    4    0    0 -0.15834992209E+02  0.15307606068E+01 -0.75005607690E+01  0.17588309140E+02  0.51100000000E-03 0. -1.
        -11    1    4    4    0    0  0.71002601549E+01 -0.14913101648E+02 -0.86046647942E+01  0.18624031559E+02  0.51100000000E-03 0.  1.
        -12    1    4    4    0    0 -0.95928670723E+01  0.47857978300E+01 -0.14651540219E+02  0.18154740162E+02  0.00000000000E+00 0.  1.
</event>
<event>
 8    1  0.2490104E-006  0.9118800E+02  0.7816164E-02  0.1184000E+00
        -11   -1    0    0    0    0  0.00000000000E+00  0.00000000000E+00  0.45593999997E+02  0.45594000000E+02  0.51100000000E-03 0.  1.
         11   -1    0    0    0    0 -0.00000000000E+00 -0.00000000000E+00 -0.45593999997E+02  0.45594000000E+02  0.51100000000E-03 0. -1.
         23    2    1    2    0    0 -0.35527136788E-14  0.35527136788E-14  0.00000000000E+00  0.91188000000E+02  0.91188000000E+02 0.  0.
    9900012    2    3    3    0    0  0.23399375580E+02 -0.17181139722E+02  0.22650767933E+02  0.54367087088E+02  0.40000006636E+02 0.  0.
         12    1    3    3    0    0 -0.23399375580E+02  0.17181139722E+02 -0.22650767933E+02  0.36820912912E+02  0.00000000000E+00 0. -1.
         11    1    4    4    0    0  0.53785815867E+01 -0.67778371283E+01  0.24950566352E+01  0.90051942731E+01  0.51100000000E-03 0. -1.
        -11    1    4    4    0    0  0.12215646402E+02 -0.22975333351E+02  0.17230757348E+02  0.31208764132E+02  0.51100000000E-03 0.  1.
        -12    1    4    4    0    0  0.58051475920E+01  0.12572030757E+02  0.29249539498E+01  0.14153128684E+02  0.00000000000E+00 0.  1.
</event>
<event>
 8    1  0.2490104E-006  0.9118800E+02  0.7816164E-02  0.1184000E+00
        -11   -1    0    0    0    0  0.00000000000E+00  0.00000000000E+00  0.45593999997E+02  0.45594000000E+02  0.51100000000E-03 0.  1.
         11   -1    0    0    0    0 -0.00000000000E+00 -0.00000000000E+00 -0.45593999997E+02  0.45594000000E+02  0.51100000000E-03 0. -1.
         23    2    1    2    0    0  0.00000000000E+00  0.17763568394E-14  0.71054273576E-14  0.91188000000E+02  0.91188000000E+02 0.  0.
    9900012    2    3    3    0    0 -0.47376956607E+01  0.11703293582E+02  0.34588561128E+02  0.54367062998E+02  0.39999951715E+02 0.  0.
         12    1    3    3    0    0  0.47376956607E+01 -0.11703293582E+02 -0.34588561128E+02  0.36820937002E+02  0.00000000000E+00 0. -1.
         11    1    4    4    0    0  0.98272565744E+01 -0.37257394282E+01  0.80056796361E+01  0.13211624153E+02  0.51100000000E-03 0. -1.
        -11    1    4    4    0    0 -0.12313135892E+01  0.58178536368E+00  0.20139321930E+02  0.20185313856E+02  0.51100000000E-03 0.  1.
         12    1    4    4    0    0 -0.13333638646E+02  0.14847247647E+02  0.64435595612E+01  0.20970124989E+02  0.00000000000E+00 0. -1.
</event>
<event>
 8    1  0.2490104E-006  0.9118800E+02  0.7816164E-02  0.1184000E+00
        -11   -1    0    0    0    0  0.00000000000E+00  0.00000000000E+00  0.45593999997E+02  0.45594000000E+02  0.51100000000E-03 0. -1.
         11   -1    0    0    0    0 -0.00000000000E+00 -0.00000000000E+00 -0.45593999997E+02  0.45594000000E+02  0.51100000000E-03 0.  1.
         23    2    1    2    0    0  0.00000000000E+00  0.00000000000E+00  0.00000000000E+00  0.91188000000E+02  0.91188000000E+02 0.  0.
    9900012    2    3    3    0    0  0.26883655026E+02  0.12523674870E+02  0.21822238260E+02  0.54367035558E+02  0.39999889161E+02 0.  0.
        -12    1    3    3    0    0 -0.26883655026E+02 -0.12523674870E+02 -0.21822238260E+02  0.36820964442E+02  0.00000000000E+00 0.  1.
         11    1    4    4    0    0 -0.95523352053E+00 -0.20044224754E+01  0.71843697096E+01  0.75196641497E+01  0.51100000000E-03 0. -1.
        -11    1    4    4    0    0  0.12558493007E+02 -0.23827801614E+01 -0.77095780972E+01  0.14927524329E+02  0.51100000000E-03 0.  1.
         12    1    4    4    0    0  0.15280395540E+02  0.16910877506E+02  0.22347446648E+02  0.31919847079E+02  0.00000000000E+00 0. -1.
</event>
<event>
 8    1  0.2490104E-006  0.9118800E+02  0.7816164E-02  0.1184000E+00
        -11   -1    0    0    0    0  0.00000000000E+00  0.00000000000E+00  0.45593999997E+02  0.45594000000E+02  0.51100000000E-03 0. -1.
         11   -1    0    0    0    0 -0.00000000000E+00 -0.00000000000E+00 -0.45593999997E+02  0.45594000000E+02  0.51100000000E-03 0.  1.
         23    2    1    2    0    0  0.00000000000E+00  0.00000000000E+00  0.26645352591E-14  0.91188000000E+02  0.91188000000E+02 0.  0.
    9900012    2    3    3    0    0  0.28920533983E+02 -0.21717372191E+02 -0.69092966004E+01  0.54367083116E+02  0.39999997579E+02 0.  0.
        -12    1    3    3    0    0 -0.28920533983E+02  0.21717372191E+02  0.69092966004E+01  0.36820916884E+02  0.00000000000E+00 0.  1.
         11    1    4    4    0    0  0.27123194723E+02 -0.12044229519E+02  0.11077263423E+02  0.31677072496E+02  0.51100000000E-03 0. -1.
        -11    1    4    4    0    0  0.13319748405E+01 -0.42673122725E+01 -0.16456073129E+02  0.17052461819E+02  0.51100000000E-03 0.  1.
         12    1    4    4    0    0  0.46536441904E+00 -0.54058303991E+01 -0.15304868946E+01  0.56375488008E+01  0.00000000000E+00 0. -1.
</event>
<event>
 8    1  0.2490104E-006  0.9118800E+02  0.7816164E-02  0.1184000E+00
        -11   -1    0    0    0    0  0.00000000000E+00  0.00000000000E+00  0.45593999997E+02  0.45594000000E+02  0.51100000000E-03 0.  1.
         11   -1    0    0    0    0 -0.00000000000E+00 -0.00000000000E+00 -0.45593999997E+02  0.45594000000E+02  0.51100000000E-03 0. -1.
         23    2    1    2    0    0  0.00000000000E+00  0.00000000000E+00  0.00000000000E+00  0.91188000000E+02  0.91188000000E+02 0.  0.
    9900012    2    3    3    0    0  0.83615948621E+01 -0.24326692347E+02 -0.26345310472E+02  0.54367087287E+02  0.40000007087E+02 0.  0.
        -12    1    3    3    0    0 -0.83615948621E+01  0.24326692347E+02  0.26345310472E+02  0.36820912713E+02  0.00000000000E+00 0.  1.
         11    1    4    4    0    0  0.47881351800E+01 -0.26053886957E+02 -0.16519013649E+02  0.31218729575E+02  0.51100000000E-03 0. -1.
        -11    1    4    4    0    0 -0.72233042376E+01 -0.27161222774E+01  0.25728408317E+00  0.77213755054E+01  0.51100000000E-03 0.  1.
         12    1    4    4    0    0  0.10796763920E+02  0.44433168875E+01 -0.10083580906E+02  0.15426982206E+02  0.00000000000E+00 0. -1.
</event>
<event>
 8    1  0.2490104E-006  0.9118800E+02  0.7816164E-02  0.1184000E+00
        -11   -1    0    0    0    0  0.00000000000E+00  0.00000000000E+00  0.45593999997E+02  0.45594000000E+02  0.51100000000E-03 0. -1.
         11   -1    0    0    0    0 -0.00000000000E+00 -0.00000000000E+00 -0.45593999997E+02  0.45594000000E+02  0.51100000000E-03 0.  1.
         23    2    1    2    0    0  0.00000000000E+00 -0.35527136788E-14  0.35527136788E-14  0.91188000000E+02  0.91188000000E+02 0.  0.
    9900012    2    3    3    0    0 -0.19203615949E+02  0.19500659119E+02 -0.24631883595E+02  0.54367024170E+02  0.39999863200E+02 0.  0.
        -12    1    3    3    0    0  0.19203615949E+02 -0.19500659119E+02  0.24631883595E+02  0.36820975830E+02  0.00000000000E+00 0.  1.
         11    1    4    4    0    0 -0.14849443714E+02  0.53144358456E+01 -0.53901201059E+01  0.16667411376E+02  0.51100000000E-03 0. -1.
        -11    1    4    4    0    0 -0.93175464019E+01 -0.46854865687E+01 -0.19461108221E+00  0.10431123097E+02  0.51100000000E-03 0.  1.
        -12    1    4    4    0    0  0.49633741665E+01  0.18871709842E+02 -0.19047152407E+02  0.27268489696E+02  0.00000000000E+00 0.  1.
</event>
<event>
 8    1  0.2490104E-006  0.9118800E+02  0.7816164E-02  0.1184000E+00
        -11   -1    0    0    0    0  0.00000000000E+00  0.00000000000E+00  0.45593999997E+02  0.45594000000E+02  0.51100000000E-03 0. -1.
         11   -1    0    0    0    0 -0.00000000000E+00 -0.00000000000E+00 -0.45593999997E+02  0.45594000000E+02  0.51100000000E-03 0.  1.
         23    2    1    2    0    0  0.00000000000E+00  0.17763568394E-14 -0.53290705182E-14  0.91188000000E+02  0.91188000000E+02 0.  0.
    9900012    2    3    3    0    0  0.31195418273E+02  0.12890721843E+02  0.14712452012E+02  0.54367067433E+02  0.39999961827E+02 0.  0.
        -12    1    3    3    0    0 -0.31195418273E+02 -0.12890721843E+02 -0.14712452012E+02  0.36820932567E+02  0.00000000000E+00 0.  1.
         11    1    4    4    0    0  0.68129968682E+01  0.12163514368E+02  0.18427388681E+02  0.23107069524E+02  0.51100000000E-03 0. -1.
        -11    1    4    4    0    0 -0.72792397768E+00  0.43560421638E+01 -0.38942875862E+01  0.58881620829E+01  0.51100000000E-03 0.  1.
        -12    1    4    4    0    0  0.25110345383E+02 -0.36288346890E+01  0.17935091734E+00  0.25371835826E+02  0.00000000000E+00 0.  1.
</event>
<event>
 8    1  0.2490104E-006  0.9118800E+02  0.7816164E-02  0.1184000E+00
        -11   -1    0    0    0    0  0.00000000000E+00  0.00000000000E+00  0.45593999997E+02  0.45594000000E+02  0.51100000000E-03 0.  1.
         11   -1    0    0    0    0 -0.00000000000E+00 -0.00000000000E+00 -0.45593999997E+02  0.45594000000E+02  0.51100000000E-03 0. -1.
         23    2    1    2    0    0 -0.17763568394E-14  0.00000000000E+00  0.00000000000E+00  0.91188000000E+02  0.91188000000E+02 0.  0.
    9900012    2    3    3    0    0 -0.11417646031E+02 -0.33192699643E+02  0.11120287687E+02  0.54367099024E+02  0.40000033844E+02 0.  0.
         12    1    3    3    0    0  0.11417646031E+02  0.33192699643E+02 -0.11120287687E+02  0.36820900976E+02  0.00000000000E+00 0. -1.
         11    1    4    4    0    0  0.10653873228E+02 -0.43336147520E+01 -0.40109706527E+01  0.12180850439E+02  0.51100000000E-03 0. -1.
        -11    1    4    4    0    0 -0.17228387062E+01  0.10407452406E+00  0.51168180447E+01  0.54000770252E+01  0.51100000000E-03 0.  1.
         12    1    4    4    0    0 -0.20348680553E+02 -0.28963159415E+02  0.10014440295E+02  0.36786171559E+02  0.00000000000E+00 0. -1.
</event>
<event>
 8    1  0.2490104E-006  0.9118800E+02  0.7816164E-02  0.1184000E+00
        -11   -1    0    0    0    0  0.00000000000E+00  0.00000000000E+00  0.45593999997E+02  0.45594000000E+02  0.51100000000E-03 0. -1.
         11   -1    0    0    0    0 -0.00000000000E+00 -0.00000000000E+00 -0.45593999997E+02  0.45594000000E+02  0.51100000000E-03 0.  1.
         23    2    1    2    0    0  0.11102230246E-14  0.88817841970E-15  0.00000000000E+00  0.91188000000E+02  0.91188000000E+02 0.  0.
    9900012    2    3    3    0    0  0.14409859957E+01  0.47903839435E+01 -0.36479528884E+02  0.54367078684E+02  0.39999987476E+02 0.  0.
         12    1    3    3    0    0 -0.14409859957E+01 -0.47903839435E+01  0.36479528884E+02  0.36820921316E+02  0.00000000000E+00 0. -1.
         11    1    4    4    0    0 -0.96135096354E+01  0.51306161037E+01 -0.27544980704E+02  0.29622099037E+02  0.51100000000E-03 0. -1.
        -11    1    4    4    0    0  0.94588946689E+01  0.82507786962E+01 -0.44133169116E+00  0.12559490888E+02  0.51100000000E-03 0.  1.
        -12    1    4    4    0    0  0.15956009622E+01 -0.85910108564E+01 -0.84932164888E+01  0.12185488759E+02  0.00000000000E+00 0.  1.
</event>
<event>
 8    1  0.2490104E-006  0.9118800E+02  0.7816164E-02  0.1184000E+00
        -11   -1    0    0    0    0  0.00000000000E+00  0.00000000000E+00  0.45593999997E+02  0.45594000000E+02  0.51100000000E-03 0.  1.
         11   -1    0    0    0    0 -0.00000000000E+00 -0.00000000000E+00 -0.45593999997E+02  0.45594000000E+02  0.51100000000E-03 0. -1.
         23    2    1    2    0    0  0.00000000000E+00 -0.17763568394E-14  0.00000000000E+00  0.91188000000E+02  0.91188000000E+02 0.  0.
    9900012    2    3    3    0    0  0.34150485947E+02 -0.12783073619E+02  0.51100890470E+01  0.54367140808E+02  0.40000129100E+02 0.  0.
         12    1    3    3    0    0 -0.34150485947E+02  0.12783073619E+02 -0.51100890470E+01  0.36820859192E+02  0.00000000000E+00 0. -1.
         11    1    4    4    0    0  0.14996561038E+02 -0.15670911637E+02  0.11434381778E+02  0.24519775720E+02  0.51100000000E-03 0. -1.
        -11    1    4    4    0    0  0.12161889358E+02  0.63280005402E+00  0.74214616009E+01  0.14261489446E+02  0.51100000000E-03 0.  1.
         12    1    4    4    0    0  0.69920355515E+01  0.22550379638E+01 -0.13745754332E+02  0.15585875642E+02  0.00000000000E+00 0. -1.
</event>
<event>
 8    1  0.2490104E-006  0.9118800E+02  0.7816164E-02  0.1184000E+00
        -11   -1    0    0    0    0  0.00000000000E+00  0.00000000000E+00  0.45593999997E+02  0.45594000000E+02  0.51100000000E-03 0. -1.
         11   -1    0    0    0    0 -0.00000000000E+00 -0.00000000000E+00 -0.45593999997E+02  0.45594000000E+02  0.51100000000E-03 0.  1.
         23    2    1    2    0    0 -0.35527136788E-14  0.00000000000E+00  0.17763568394E-14  0.91188000000E+02  0.91188000000E+02 0.  0.
    9900012    2    3    3    0    0  0.22421464484E+02 -0.25177411524E+02  0.14803886083E+02  0.54367093387E+02  0.40000020994E+02 0.  0.
        -12    1    3    3    0    0 -0.22421464484E+02  0.25177411524E+02 -0.14803886083E+02  0.36820906613E+02  0.00000000000E+00 0.  1.
         11    1    4    4    0    0  0.17877599981E+02 -0.18134451377E+02  0.12873103261E+01  0.25497530782E+02  0.51100000000E-03 0. -1.
        -11    1    4    4    0    0  0.28400259479E+00  0.50562541735E+01  0.15117169891E+02  0.15942872687E+02  0.51100000000E-03 0.  1.
        -12    1    4    4    0    0  0.42598619079E+01 -0.12099214321E+02 -0.16005941341E+01  0.12926689918E+02  0.00000000000E+00 0.  1.
</event>
<event>
 8    1  0.2490104E-006  0.9118800E+02  0.7816164E-02  0.1184000E+00
        -11   -1    0    0    0    0  0.00000000000E+00  0.00000000000E+00  0.45593999997E+02  0.45594000000E+02  0.51100000000E-03 0. -1.
         11   -1    0    0    0    0 -0.00000000000E+00 -0.00000000000E+00 -0.45593999997E+02  0.45594000000E+02  0.51100000000E-03 0.  1.
         23    2    1    2    0    0 -0.13322676296E-14  0.00000000000E+00  0.00000000000E+00  0.91188000000E+02  0.91188000000E+02 0.  0.
    9900012    2    3    3    0    0  0.24533173725E+01 -0.31573216536E+02 -0.18785489049E+02  0.54367063465E+02  0.39999952780E+02 0.  0.
         12    1    3    3    0    0 -0.24533173725E+01  0.31573216536E+02  0.18785489049E+02  0.36820936535E+02  0.00000000000E+00 0. -1.
         11    1    4    4    0    0 -0.65641871855E+00  0.79628394624E+01 -0.29642704681E+01  0.85220066597E+01  0.51100000000E-03 0. -1.
        -11    1    4    4    0    0  0.93785738788E+01 -0.24605011978E+02 -0.13149357309E+02  0.29432462696E+02  0.51100000000E-03 0.  1.
        -12    1    4    4    0    0 -0.62688377877E+01 -0.14931044020E+02 -0.26718612718E+01  0.16412594109E+02  0.00000000000E+00 0.  1.
</event>
<event>
 8    1  0.2490104E-006  0.9118800E+02  0.7816164E-02  0.1184000E+00
        -11   -1    0    0    0    0  0.00000000000E+00  0.00000000000E+00  0.45593999997E+02  0.45594000000E+02  0.51100000000E-03 0. -1.
         11   -1    0    0    0    0 -0.00000000000E+00 -0.00000000000E+00 -0.45593999997E+02  0.45594000000E+02  0.51100000000E-03 0.  1.
         23    2    1    2    0    0  0.00000000000E+00  0.00000000000E+00  0.00000000000E+00  0.91188000000E+02  0.91188000000E+02 0.  0.
    9900012    2    3    3    0    0  0.11124878485E+02  0.30673276645E+02  0.17063606174E+02  0.54367089133E+02  0.40000011296E+02 0.  0.
        -12    1    3    3    0    0 -0.11124878485E+02 -0.30673276645E+02 -0.17063606174E+02  0.36820910867E+02  0.00000000000E+00 0.  1.
         11    1    4    4    0    0  0.14586134111E+02  0.19406890783E+02  0.25877924140E+02  0.35483090004E+02  0.51100000000E-03 0. -1.
        -11    1    4    4    0    0 -0.67505531625E+01  0.39194296237E+01 -0.13808207998E+01  0.79270778297E+01  0.51100000000E-03 0.  1.
         12    1    4    4    0    0  0.32892975368E+01  0.73469562380E+01 -0.74334971658E+01  0.10956921299E+02  0.00000000000E+00 0. -1.
</event>
<event>
 8    1  0.2490104E-006  0.9118800E+02  0.7816164E-02  0.1184000E+00
        -11   -1    0    0    0    0  0.00000000000E+00  0.00000000000E+00  0.45593999997E+02  0.45594000000E+02  0.51100000000E-03 0. -1.
         11   -1    0    0    0    0 -0.00000000000E+00 -0.00000000000E+00 -0.45593999997E+02  0.45594000000E+02  0.51100000000E-03 0.  1.
         23    2    1    2    0    0 -0.71054273576E-14  0.00000000000E+00  0.00000000000E+00  0.91188000000E+02  0.91188000000E+02 0.  0.
    9900012    2    3    3    0    0 -0.33900858920E+02  0.11159529544E+02 -0.90540880025E+01  0.54367084141E+02  0.39999999917E+02 0.  0.
         12    1    3    3    0    0  0.33900858920E+02 -0.11159529544E+02  0.90540880025E+01  0.36820915859E+02  0.00000000000E+00 0. -1.
         11    1    4    4    0    0  0.64649998726E+01  0.88264976005E+01 -0.34885522783E+01  0.11483609211E+02  0.51100000000E-03 0. -1.
        -11    1    4    4    0    0 -0.15564231785E+02  0.46276483474E+01  0.30624298046E+01  0.16523889277E+02  0.51100000000E-03 0.  1.
         12    1    4    4    0    0 -0.24801627007E+02 -0.22946164043E+01 -0.86279655287E+01  0.26359585653E+02  0.00000000000E+00 0. -1.
</event>
<event>
 8    1  0.2490104E-006  0.9118800E+02  0.7816164E-02  0.1184000E+00
        -11   -1    0    0    0    0  0.00000000000E+00  0.00000000000E+00  0.45593999997E+02  0.45594000000E+02  0.51100000000E-03 0.  1.
         11   -1    0    0    0    0 -0.00000000000E+00 -0.00000000000E+00 -0.45593999997E+02  0.45594000000E+02  0.51100000000E-03 0. -1.
         23    2    1    2    0    0  0.35527136788E-14  0.00000000000E+00  0.00000000000E+00  0.91188000000E+02  0.91188000000E+02 0.  0.
    9900012    2    3    3    0    0 -0.17573441732E+02 -0.11042653766E+02 -0.30414042638E+02  0.54367081406E+02  0.39999993682E+02 0.  0.
        -12    1    3    3    0    0  0.17573441732E+02  0.11042653766E+02  0.30414042638E+02  0.36820918594E+02  0.00000000000E+00 0.  1.
         11    1    4    4    0    0 -0.15514773685E+02  0.74643190687E+01 -0.94136364563E-01  0.17217233331E+02  0.51100000000E-03 0. -1.
        -11    1    4    4    0    0  0.49142481975E+00  0.37683800529E+00 -0.70333668117E+01  0.70605774697E+01  0.51100000000E-03 0.  1.
         12    1    4    4    0    0 -0.25500928665E+01 -0.18883810840E+02 -0.23286539461E+02  0.30089270605E+02  0.00000000000E+00 0. -1.
</event>
<event>
 8    1  0.2490104E-006  0.9118800E+02  0.7816164E-02  0.1184000E+00
        -11   -1    0    0    0    0  0.00000000000E+00  0.00000000000E+00  0.45593999997E+02  0.45594000000E+02  0.51100000000E-03 0.  1.
         11   -1    0    0    0    0 -0.00000000000E+00 -0.00000000000E+00 -0.45593999997E+02  0.45594000000E+02  0.51100000000E-03 0. -1.
         23    2    1    2    0    0  0.17763568394E-14  0.35527136788E-14 -0.71054273576E-14  0.91188000000E+02  0.91188000000E+02 0.  0.
    9900012    2    3    3    0    0  0.25449538726E+01  0.17922274555E+02 -0.32063907497E+02  0.54367097249E+02  0.40000029798E+02 0.  0.
        -12    1    3    3    0    0 -0.25449538726E+01 -0.17922274555E+02  0.32063907497E+02  0.36820902751E+02  0.00000000000E+00 0.  1.
         11    1    4    4    0    0  0.15204918475E+02  0.83536804898E+01 -0.20121777578E+01  0.17464890013E+02  0.51100000000E-03 0. -1.
        -11    1    4    4    0    0 -0.48579243049E+01 -0.19946931142E+00 -0.58982349570E+00  0.48976635833E+01  0.51100000000E-03 0.  1.
        -12    1    4    4    0    0 -0.78020402976E+01  0.97680633763E+01 -0.29461906244E+02  0.32004543653E+02  0.00000000000E+00 0.  1.
</event>
<event>
 8    1  0.2490104E-006  0.9118800E+02  0.7816164E-02  0.1184000E+00
        -11   -1    0    0    0    0  0.00000000000E+00  0.00000000000E+00  0.45593999997E+02  0.45594000000E+02  0.51100000000E-03 0. -1.
         11   -1    0    0    0    0 -0.00000000000E+00 -0.00000000000E+00 -0.45593999997E+02  0.45594000000E+02  0.51100000000E-03 0.  1.
         23    2    1    2    0    0 -0.17763568394E-14  0.35527136788E-14  0.35527136788E-14  0.91188000000E+02  0.91188000000E+02 0.  0.
    9900012    2    3    3    0    0 -0.94643124431E+01  0.21880574178E+02 -0.28061488238E+02  0.54367083953E+02  0.39999999488E+02 0.  0.
         12    1    3    3    0    0  0.94643124431E+01 -0.21880574178E+02  0.28061488238E+02  0.36820916047E+02  0.00000000000E+00 0. -1.
         11    1    4    4    0    0 -0.13646842659E+02  0.12008952433E+02 -0.24689266533E+01  0.18345213331E+02  0.51100000000E-03 0. -1.
        -11    1    4    4    0    0  0.90589486978E+00  0.96839045937E+01 -0.29416437651E+02  0.30982663830E+02  0.51100000000E-03 0.  1.
         12    1    4    4    0    0  0.32766353462E+01  0.18771715154E+00  0.38238760657E+01  0.50392067914E+01  0.00000000000E+00 0. -1.
</event>
<event>
 8    1  0.2490104E-006  0.9118800E+02  0.7816164E-02  0.1184000E+00
        -11   -1    0    0    0    0  0.00000000000E+00  0.00000000000E+00  0.45593999997E+02  0.45594000000E+02  0.51100000000E-03 0.  1.
         11   -1    0    0    0    0 -0.00000000000E+00 -0.00000000000E+00 -0.45593999997E+02  0.45594000000E+02  0.51100000000E-03 0. -1.
         23    2    1    2    0    0 -0.17763568394E-14 -0.71054273576E-14  0.17763568394E-14  0.91188000000E+02  0.91188000000E+02 0.  0.
    9900012    2    3    3    0    0 -0.14987490941E+02 -0.33013071371E+02  0.64258359066E+01  0.54367093803E+02  0.40000021942E+02 0.  0.
        -12    1    3    3    0    0  0.14987490941E+02  0.33013071371E+02 -0.64258359066E+01  0.36820906197E+02  0.00000000000E+00 0.  1.
         11    1    4    4    0    0 -0.10180102860E+02 -0.35332108931E+01  0.35067329934E+01  0.11332045270E+02  0.51100000000E-03 0. -1.
        -11    1    4    4    0    0  0.50571350570E+01 -0.14183721966E+02  0.14948310955E+02  0.21218024990E+02  0.51100000000E-03 0.  1.
        -12    1    4    4    0    0 -0.98645231383E+01 -0.15296138512E+02 -0.12029208042E+02  0.21817023543E+02  0.00000000000E+00 0.  1.
</event>
<event>
 8    1  0.2490104E-006  0.9118800E+02  0.7816164E-02  0.1184000E+00
        -11   -1    0    0    0    0  0.00000000000E+00  0.00000000000E+00  0.45593999997E+02  0.45594000000E+02  0.51100000000E-03 0.  1.
         11   -1    0    0    0    0 -0.00000000000E+00 -0.00000000000E+00 -0.45593999997E+02  0.45594000000E+02  0.51100000000E-03 0. -1.
         23    2    1    2    0    0 -0.88817841970E-15  0.71054273576E-14 -0.83266726847E-16  0.91188000000E+02  0.91188000000E+02 0.  0.
    9900012    2    3    3    0    0 -0.78439939559E+01 -0.35975111460E+02 -0.20753714881E+00  0.54367082610E+02  0.39999996426E+02 0.  0.
         12    1    3    3    0    0  0.78439939559E+01  0.35975111460E+02  0.20753714881E+00  0.36820917390E+02  0.00000000000E+00 0. -1.
         11    1    4    4    0    0  0.99407713281E+01 -0.17404586309E+01  0.77773659918E-01  0.10092283183E+02  0.51100000000E-03 0. -1.
        -11    1    4    4    0    0 -0.16713691547E+02 -0.36265099082E+02  0.32459297852E+01  0.40062962409E+02  0.51100000000E-03 0.  1.
        -12    1    4    4    0    0 -0.10710737373E+01  0.20304462526E+01 -0.35312405939E+01  0.42118370182E+01  0.00000000000E+00 0.  1.
</event>
<event>
 8    1  0.2490104E-006  0.9118800E+02  0.7816164E-02  0.1184000E+00
        -11   -1    0    0    0    0  0.00000000000E+00  0.00000000000E+00  0.45593999997E+02  0.45594000000E+02  0.51100000000E-03 0.  1.
         11   -1    0    0    0    0 -0.00000000000E+00 -0.00000000000E+00 -0.45593999997E+02  0.45594000000E+02  0.51100000000E-03 0. -1.
         23    2    1    2    0    0  0.00000000000E+00  0.35527136788E-14 -0.35527136788E-14  0.91188000000E+02  0.91188000000E+02 0.  0.
    9900012    2    3    3    0    0 -0.20515121049E+02  0.24429098101E+02 -0.18388568508E+02  0.54366939756E+02  0.39999670762E+02 0.  0.
        -12    1    3    3    0    0  0.20515121049E+02 -0.24429098101E+02  0.18388568508E+02  0.36821060244E+02  0.00000000000E+00 0.  1.
         11    1    4    4    0    0 -0.24422247909E+02  0.13166593148E+02  0.69535782195E+00  0.27754078814E+02  0.51100000000E-03 0. -1.
        -11    1    4    4    0    0  0.17880118054E+01  0.12403122321E+02 -0.20345951342E+02  0.23895442365E+02  0.51100000000E-03 0.  1.
        -12    1    4    4    0    0  0.21191150544E+01 -0.11406173684E+01  0.12620250122E+01  0.27174185777E+01  0.00000000000E+00 0.  1.
</event>
<event>
 8    1  0.2490104E-006  0.9118800E+02  0.7816164E-02  0.1184000E+00
        -11   -1    0    0    0    0  0.00000000000E+00  0.00000000000E+00  0.45593999997E+02  0.45594000000E+02  0.51100000000E-03 0. -1.
         11   -1    0    0    0    0 -0.00000000000E+00 -0.00000000000E+00 -0.45593999997E+02  0.45594000000E+02  0.51100000000E-03 0.  1.
         23    2    1    2    0    0  0.00000000000E+00  0.71054273576E-14 -0.17763568394E-14  0.91188000000E+02  0.91188000000E+02 0.  0.
    9900012    2    3    3    0    0 -0.83009388734E+01 -0.34141060261E+02  0.11011915441E+02  0.54367083884E+02  0.39999999331E+02 0.  0.
         12    1    3    3    0    0  0.83009388734E+01  0.34141060261E+02 -0.11011915441E+02  0.36820916116E+02  0.00000000000E+00 0. -1.
         11    1    4    4    0    0 -0.40144686270E+01 -0.22776571029E+01  0.84864691549E+01  0.96604264509E+01  0.51100000000E-03 0. -1.
        -11    1    4    4    0    0 -0.16363538846E+01  0.54463679063E+01 -0.37053002581E+01  0.67874757952E+01  0.51100000000E-03 0.  1.
        -12    1    4    4    0    0 -0.26501163618E+01 -0.37309771064E+02  0.62307465445E+01  0.37919181638E+02  0.00000000000E+00 0.  1.
</event>
<event>
 8    1  0.2490104E-006  0.9118800E+02  0.7816164E-02  0.1184000E+00
        -11   -1    0    0    0    0  0.00000000000E+00  0.00000000000E+00  0.45593999997E+02  0.45594000000E+02  0.51100000000E-03 0.  1.
         11   -1    0    0    0    0 -0.00000000000E+00 -0.00000000000E+00 -0.45593999997E+02  0.45594000000E+02  0.51100000000E-03 0. -1.
         23    2    1    2    0    0 -0.94368957093E-15  0.00000000000E+00  0.88817841970E-15  0.91188000000E+02  0.91188000000E+02 0.  0.
    9900012    2    3    3    0    0  0.37638270855E+00 -0.36684069606E+02 -0.31489881566E+01  0.54367098962E+02  0.40000033704E+02 0.  0.
        -12    1    3    3    0    0 -0.37638270855E+00  0.36684069606E+02  0.31489881566E+01  0.36820901038E+02  0.00000000000E+00 0.  1.
         11    1    4    4    0    0 -0.26821136804E+01  0.43897978675E+01 -0.84994131827E+01  0.99349928950E+01  0.51100000000E-03 0. -1.
        -11    1    4    4    0    0  0.70469356386E+01 -0.38562489683E+02  0.34585969982E+01  0.39353358254E+02  0.51100000000E-03 0.  1.
        -12    1    4    4    0    0 -0.39884392496E+01 -0.25113777911E+01  0.18918280279E+01  0.50787478127E+01  0.00000000000E+00 0.  1.
</event>
<event>
 8    1  0.2490104E-006  0.9118800E+02  0.7816164E-02  0.1184000E+00
        -11   -1    0    0    0    0  0.00000000000E+00  0.00000000000E+00  0.45593999997E+02  0.45594000000E+02  0.51100000000E-03 0.  1.
         11   -1    0    0    0    0 -0.00000000000E+00 -0.00000000000E+00 -0.45593999997E+02  0.45594000000E+02  0.51100000000E-03 0. -1.
         23    2    1    2    0    0  0.35527136788E-14  0.17763568394E-14  0.35527136788E-14  0.91188000000E+02  0.91188000000E+02 0.  0.
    9900012    2    3    3    0    0  0.16625428748E+02  0.13354076515E+02  0.30017387539E+02  0.54367084812E+02  0.40000001445E+02 0.  0.
         12    1    3    3    0    0 -0.16625428748E+02 -0.13354076515E+02 -0.30017387539E+02  0.36820915188E+02  0.00000000000E+00 0. -1.
         11    1    4    4    0    0  0.18024432329E+02  0.21265130189E+02  0.17418882930E+02  0.32871011629E+02  0.51100000000E-03 0. -1.
        -11    1    4    4    0    0 -0.79464970411E+01 -0.61446440613E+01  0.10165420680E+02  0.14291229608E+02  0.51100000000E-03 0.  1.
         12    1    4    4    0    0  0.65474934595E+01 -0.17664096118E+01  0.24330839293E+01  0.72048435740E+01  0.00000000000E+00 0. -1.
</event>
<event>
 8    1  0.2490104E-006  0.9118800E+02  0.7816164E-02  0.1184000E+00
        -11   -1    0    0    0    0  0.00000000000E+00  0.00000000000E+00  0.45593999997E+02  0.45594000000E+02  0.51100000000E-03 0. -1.
         11   -1    0    0    0    0 -0.00000000000E+00 -0.00000000000E+00 -0.45593999997E+02  0.45594000000E+02  0.51100000000E-03 0.  1.
         23    2    1    2    0    0  0.35527136788E-14 -0.17763568394E-14  0.00000000000E+00  0.91188000000E+02  0.91188000000E+02 0.  0.
    9900012    2    3    3    0    0  0.19577428432E+02 -0.13104698011E+02 -0.28297910403E+02  0.54367074602E+02  0.39999978171E+02 0.  0.
         12    1    3    3    0    0 -0.19577428432E+02  0.13104698011E+02  0.28297910403E+02  0.36820925398E+02  0.00000000000E+00 0. -1.
         11    1    4    4    0    0  0.17618423731E+02 -0.22629317131E+02 -0.12047489210E+02  0.31106861704E+02  0.51100000000E-03 0. -1.
        -11    1    4    4    0    0 -0.46706621510E+01  0.26996431792E+01 -0.11329086209E+02  0.12547962098E+02  0.51100000000E-03 0.  1.
        -12    1    4    4    0    0  0.66296668516E+01  0.68249759411E+01 -0.49213349850E+01  0.10712250800E+02  0.00000000000E+00 0.  1.
</event>
<event>
 8    1  0.2490104E-006  0.9118800E+02  0.7816164E-02  0.1184000E+00
        -11   -1    0    0    0    0  0.00000000000E+00  0.00000000000E+00  0.45593999997E+02  0.45594000000E+02  0.51100000000E-03 0.  1.
         11   -1    0    0    0    0 -0.00000000000E+00 -0.00000000000E+00 -0.45593999997E+02  0.45594000000E+02  0.51100000000E-03 0. -1.
         23    2    1    2    0    0 -0.17763568394E-14  0.00000000000E+00  0.00000000000E+00  0.91188000000E+02  0.91188000000E+02 0.  0.
    9900012    2    3    3    0    0  0.11185755563E+02 -0.16200770567E+02 -0.31115791787E+02  0.54367101138E+02  0.40000038664E+02 0.  0.
        -12    1    3    3    0    0 -0.11185755563E+02  0.16200770567E+02  0.31115791787E+02  0.36820898862E+02  0.00000000000E+00 0.  1.
         11    1    4    4    0    0  0.23173162618E+02 -0.10911060973E+02 -0.11622160519E+02  0.28126879184E+02  0.51100000000E-03 0. -1.
        -11    1    4    4    0    0  0.20507072829E+01 -0.99996475158E+00 -0.68611960641E+00  0.23824546669E+01  0.51100000000E-03 0.  1.
        -12    1    4    4    0    0 -0.14038114338E+02 -0.42897448430E+01 -0.18807511662E+02  0.23857767287E+02  0.00000000000E+00 0.  1.
</event>
<event>
 8    1  0.2490104E-006  0.9118800E+02  0.7816164E-02  0.1184000E+00
        -11   -1    0    0    0    0  0.00000000000E+00  0.00000000000E+00  0.45593999997E+02  0.45594000000E+02  0.51100000000E-03 0.  1.
         11   -1    0    0    0    0 -0.00000000000E+00 -0.00000000000E+00 -0.45593999997E+02  0.45594000000E+02  0.51100000000E-03 0. -1.
         23    2    1    2    0    0  0.35527136788E-14 -0.35527136788E-14  0.35527136788E-14  0.91188000000E+02  0.91188000000E+02 0.  0.
    9900012    2    3    3    0    0  0.13072148617E+02 -0.31963877888E+02  0.12774776610E+02  0.54367279250E+02  0.40000444704E+02 0.  0.
         12    1    3    3    0    0 -0.13072148617E+02  0.31963877888E+02 -0.12774776610E+02  0.36820720750E+02  0.00000000000E+00 0. -1.
         11    1    4    4    0    0 -0.15892057635E+01 -0.23009655726E+01  0.76384832972E+01  0.81342759277E+01  0.51100000000E-03 0. -1.
        -11    1    4    4    0    0  0.92044051505E+01 -0.33237845382E+02  0.12232440946E+02  0.36593825320E+02  0.51100000000E-03 0.  1.
         12    1    4    4    0    0  0.54569492302E+01  0.35749330664E+01 -0.70961476330E+01  0.96391780023E+01  0.00000000000E+00 0. -1.
</event>
<event>
 8    1  0.2490104E-006  0.9118800E+02  0.7816164E-02  0.1184000E+00
        -11   -1    0    0    0    0  0.00000000000E+00  0.00000000000E+00  0.45593999997E+02  0.45594000000E+02  0.51100000000E-03 0.  1.
         11   -1    0    0    0    0 -0.00000000000E+00 -0.00000000000E+00 -0.45593999997E+02  0.45594000000E+02  0.51100000000E-03 0. -1.
         23    2    1    2    0    0 -0.88817841970E-15  0.13600232052E-14 -0.71054273576E-14  0.91188000000E+02  0.91188000000E+02 0.  0.
    9900012    2    3    3    0    0 -0.43080171289E+01  0.18872707053E+00 -0.36567415739E+02  0.54367210719E+02  0.40000288475E+02 0.  0.
        -12    1    3    3    0    0  0.43080171289E+01 -0.18872707053E+00  0.36567415739E+02  0.36820789281E+02  0.00000000000E+00 0.  1.
         11    1    4    4    0    0 -0.99450566936E+01  0.12549891285E+02 -0.47022885779E+01  0.16688781922E+02  0.51100000000E-03 0. -1.
        -11    1    4    4    0    0  0.94209924492E+01 -0.47274059615E+01 -0.11483492734E+02  0.15587625589E+02  0.51100000000E-03 0.  1.
         12    1    4    4    0    0 -0.37839528846E+01 -0.76337582529E+01 -0.20381634426E+02  0.22090803208E+02  0.00000000000E+00 0. -1.
</event>
<event>
 8    1  0.2490104E-006  0.9118800E+02  0.7816164E-02  0.1184000E+00
        -11   -1    0    0    0    0  0.00000000000E+00  0.00000000000E+00  0.45593999997E+02  0.45594000000E+02  0.51100000000E-03 0. -1.
         11   -1    0    0    0    0 -0.00000000000E+00 -0.00000000000E+00 -0.45593999997E+02  0.45594000000E+02  0.51100000000E-03 0.  1.
         23    2    1    2    0    0  0.17763568394E-14  0.71054273576E-14  0.00000000000E+00  0.91188000000E+02  0.91188000000E+02 0.  0.
    9900012    2    3    3    0    0 -0.11277951594E+02 -0.34870354136E+02  0.35562886018E+01  0.54367068747E+02  0.39999964822E+02 0.  0.
         12    1    3    3    0    0  0.11277951594E+02  0.34870354136E+02 -0.35562886018E+01  0.36820931253E+02  0.00000000000E+00 0. -1.
         11    1    4    4    0    0  0.54544260520E+01  0.42709777674E+01 -0.40667397731E+01  0.80330808093E+01  0.51100000000E-03 0. -1.
        -11    1    4    4    0    0 -0.11484696686E+02 -0.23791652423E+02 -0.35222216018E+01  0.26652336262E+02  0.51100000000E-03 0.  1.
         12    1    4    4    0    0 -0.52476809599E+01 -0.15349679481E+02  0.11145249977E+02  0.19681651675E+02  0.00000000000E+00 0. -1.
</event>
<event>
 8    1  0.2490104E-006  0.9118800E+02  0.7816164E-02  0.1184000E+00
        -11   -1    0    0    0    0  0.00000000000E+00  0.00000000000E+00  0.45593999997E+02  0.45594000000E+02  0.51100000000E-03 0. -1.
         11   -1    0    0    0    0 -0.00000000000E+00 -0.00000000000E+00 -0.45593999997E+02  0.45594000000E+02  0.51100000000E-03 0.  1.
         23    2    1    2    0    0  0.00000000000E+00  0.00000000000E+00  0.00000000000E+00  0.91188000000E+02  0.91188000000E+02 0.  0.
    9900012    2    3    3    0    0  0.10162343079E+02 -0.27092192554E+02  0.22771008541E+02  0.54367096369E+02  0.40000027791E+02 0.  0.
        -12    1    3    3    0    0 -0.10162343079E+02  0.27092192554E+02 -0.22771008541E+02  0.36820903631E+02  0.00000000000E+00 0.  1.
         11    1    4    4    0    0 -0.47177054393E+01 -0.17752714995E+02  0.20565480275E+02  0.27574528346E+02  0.51100000000E-03 0. -1.
        -11    1    4    4    0    0  0.15320105885E+02 -0.46431626719E+01  0.91189216654E+01  0.18423336737E+02  0.51100000000E-03 0.  1.
        -12    1    4    4    0    0 -0.44005736678E+00 -0.46963148873E+01 -0.69133933994E+01  0.83692312850E+01  0.00000000000E+00 0.  1.
</event>
<event>
 8    1  0.2490104E-006  0.9118800E+02  0.7816164E-02  0.1184000E+00
        -11   -1    0    0    0    0  0.00000000000E+00  0.00000000000E+00  0.45593999997E+02  0.45594000000E+02  0.51100000000E-03 0.  1.
         11   -1    0    0    0    0 -0.00000000000E+00 -0.00000000000E+00 -0.45593999997E+02  0.45594000000E+02  0.51100000000E-03 0. -1.
         23    2    1    2    0    0  0.71054273576E-14  0.17763568394E-14  0.17763568394E-14  0.91188000000E+02  0.91188000000E+02 0.  0.
    9900012    2    3    3    0    0 -0.33859473827E+02 -0.98532901966E+01 -0.10593627061E+02  0.54367133228E+02  0.40000111819E+02 0.  0.
        -12    1    3    3    0    0  0.33859473827E+02  0.98532901966E+01  0.10593627061E+02  0.36820866772E+02  0.00000000000E+00 0.  1.
         11    1    4    4    0    0 -0.14423858303E+02  0.31915894530E+01 -0.16942226239E+02  0.22478277554E+02  0.51100000000E-03 0. -1.
        -11    1    4    4    0    0 -0.58212629336E+01 -0.13277761010E+01  0.11709329081E+02  0.13143761993E+02  0.51100000000E-03 0.  1.
         12    1    4    4    0    0 -0.13614352591E+02 -0.11717103549E+02 -0.53607299028E+01  0.18745093681E+02  0.00000000000E+00 0. -1.
</event>
<event>
 8    1  0.2490104E-006  0.9118800E+02  0.7816164E-02  0.1184000E+00
        -11   -1    0    0    0    0  0.00000000000E+00  0.00000000000E+00  0.45593999997E+02  0.45594000000E+02  0.51100000000E-03 0.  1.
         11   -1    0    0    0    0 -0.00000000000E+00 -0.00000000000E+00 -0.45593999997E+02  0.45594000000E+02  0.51100000000E-03 0. -1.
         23    2    1    2    0    0 -0.22204460493E-15  0.00000000000E+00  0.00000000000E+00  0.91188000000E+02  0.91188000000E+02 0.  0.
    9900012    2    3    3    0    0  0.10423326689E+01  0.33070806168E+02  0.16155869389E+02  0.54367125571E+02  0.40000094364E+02 0.  0.
         12    1    3    3    0    0 -0.10423326689E+01 -0.33070806168E+02 -0.16155869389E+02  0.36820874429E+02  0.00000000000E+00 0. -1.
         11    1    4    4    0    0 -0.56773430696E+01 -0.37247921109E+01  0.11443291403E+02  0.13306209791E+02  0.51100000000E-03 0. -1.
        -11    1    4    4    0    0  0.79905396435E+01  0.68602982264E+01 -0.92812496795E+00  0.10572314400E+02  0.51100000000E-03 0.  1.
        -12    1    4    4    0    0 -0.12708639050E+01  0.29935300053E+02  0.56407029540E+01  0.30488601380E+02  0.00000000000E+00 0.  1.
</event>
<event>
 8    1  0.2490104E-006  0.9118800E+02  0.7816164E-02  0.1184000E+00
        -11   -1    0    0    0    0  0.00000000000E+00  0.00000000000E+00  0.45593999997E+02  0.45594000000E+02  0.51100000000E-03 0.  1.
         11   -1    0    0    0    0 -0.00000000000E+00 -0.00000000000E+00 -0.45593999997E+02  0.45594000000E+02  0.51100000000E-03 0. -1.
         23    2    1    2    0    0 -0.35527136788E-14  0.00000000000E+00  0.00000000000E+00  0.91188000000E+02  0.91188000000E+02 0.  0.
    9900012    2    3    3    0    0 -0.27921218772E+02  0.11085681388E+02  0.21290700904E+02  0.54367072058E+02  0.39999972370E+02 0.  0.
         12    1    3    3    0    0  0.27921218772E+02 -0.11085681388E+02 -0.21290700904E+02  0.36820927942E+02  0.00000000000E+00 0. -1.
         11    1    4    4    0    0 -0.81235116546E+01 -0.25291008692E+01 -0.36934330155E+01  0.92751949042E+01  0.51100000000E-03 0. -1.
        -11    1    4    4    0    0 -0.25812748712E+02  0.16636522769E+02  0.19206687058E+02  0.36221108679E+02  0.51100000000E-03 0.  1.
        -12    1    4    4    0    0  0.60150415944E+01 -0.30217405120E+01  0.57774468609E+01  0.88707684749E+01  0.00000000000E+00 0.  1.
</event>
<event>
 8    1  0.2490104E-006  0.9118800E+02  0.7816164E-02  0.1184000E+00
        -11   -1    0    0    0    0  0.00000000000E+00  0.00000000000E+00  0.45593999997E+02  0.45594000000E+02  0.51100000000E-03 0.  1.
         11   -1    0    0    0    0 -0.00000000000E+00 -0.00000000000E+00 -0.45593999997E+02  0.45594000000E+02  0.51100000000E-03 0. -1.
         23    2    1    2    0    0  0.00000000000E+00 -0.17763568394E-14  0.00000000000E+00  0.91188000000E+02  0.91188000000E+02 0.  0.
    9900012    2    3    3    0    0 -0.27869512340E+02 -0.13728905226E+02 -0.19763274400E+02  0.54367087847E+02  0.40000008364E+02 0.  0.
        -12    1    3    3    0    0  0.27869512340E+02  0.13728905226E+02  0.19763274400E+02  0.36820912153E+02  0.00000000000E+00 0.  1.
         11    1    4    4    0    0 -0.21601883862E+01  0.45127103960E+01 -0.12445113288E+01  0.51555579417E+01  0.51100000000E-03 0. -1.
        -11    1    4    4    0    0 -0.13114720706E+02  0.64822257149E+01  0.19127108961E+01  0.14753766049E+02  0.51100000000E-03 0.  1.
         12    1    4    4    0    0 -0.12594603248E+02 -0.24723841337E+02 -0.20431473968E+02  0.34457763856E+02  0.00000000000E+00 0. -1.
</event>
<event>
 8    1  0.2490104E-006  0.9118800E+02  0.7816164E-02  0.1184000E+00
        -11   -1    0    0    0    0  0.00000000000E+00  0.00000000000E+00  0.45593999997E+02  0.45594000000E+02  0.51100000000E-03 0. -1.
         11   -1    0    0    0    0 -0.00000000000E+00 -0.00000000000E+00 -0.45593999997E+02  0.45594000000E+02  0.51100000000E-03 0.  1.
         23    2    1    2    0    0  0.17763568394E-14 -0.71054273576E-14 -0.88817841970E-15  0.91188000000E+02  0.91188000000E+02 0.  0.
    9900012    2    3    3    0    0 -0.10270057623E+02  0.35008722355E+02  0.49693655935E+01  0.54367091281E+02  0.40000016193E+02 0.  0.
        -12    1    3    3    0    0  0.10270057623E+02 -0.35008722355E+02 -0.49693655935E+01  0.36820908719E+02  0.00000000000E+00 0.  1.
         11    1    4    4    0    0 -0.33029283186E+00  0.38567363949E+01  0.11554830618E+02  0.12185959947E+02  0.51100000000E-03 0.  1.
        -11    1    4    4    0    0 -0.16115661734E+02  0.10084747872E+02 -0.69018270448E+01  0.20225031757E+02  0.51100000000E-03 0. -1.
        -12    1    4    4    0    0  0.61758969421E+01  0.21067238088E+02  0.31636202078E+00  0.21956099577E+02  0.00000000000E+00 0.  1.
</event>
<event>
 8    1  0.2490104E-006  0.9118800E+02  0.7816164E-02  0.1184000E+00
        -11   -1    0    0    0    0  0.00000000000E+00  0.00000000000E+00  0.45593999997E+02  0.45594000000E+02  0.51100000000E-03 0. -1.
         11   -1    0    0    0    0 -0.00000000000E+00 -0.00000000000E+00 -0.45593999997E+02  0.45594000000E+02  0.51100000000E-03 0.  1.
         23    2    1    2    0    0  0.00000000000E+00 -0.17763568394E-14  0.00000000000E+00  0.91188000000E+02  0.91188000000E+02 0.  0.
    9900012    2    3    3    0    0 -0.21197870468E+02 -0.14376090114E+02 -0.26452899249E+02  0.54367115192E+02  0.40000070703E+02 0.  0.
         12    1    3    3    0    0  0.21197870468E+02  0.14376090114E+02  0.26452899249E+02  0.36820884808E+02  0.00000000000E+00 0. -1.
         11    1    4    4    0    0  0.33840656572E+01  0.49045784785E+01  0.17153238054E+01  0.62007359597E+01  0.51100000000E-03 0. -1.
        -11    1    4    4    0    0 -0.14481084759E+02 -0.15189935630E+02 -0.36046343414E+01  0.21293880558E+02  0.51100000000E-03 0.  1.
         12    1    4    4    0    0 -0.10100851366E+02 -0.40907329627E+01 -0.24563588713E+02  0.26872498674E+02  0.00000000000E+00 0. -1.
</event>
<event>
 8    1  0.2490104E-006  0.9118800E+02  0.7816164E-02  0.1184000E+00
        -11   -1    0    0    0    0  0.00000000000E+00  0.00000000000E+00  0.45593999997E+02  0.45594000000E+02  0.51100000000E-03 0.  1.
         11   -1    0    0    0    0 -0.00000000000E+00 -0.00000000000E+00 -0.45593999997E+02  0.45594000000E+02  0.51100000000E-03 0. -1.
         23    2    1    2    0    0 -0.88817841970E-15  0.17763568394E-14  0.00000000000E+00  0.91188000000E+02  0.91188000000E+02 0.  0.
    9900012    2    3    3    0    0 -0.49649838737E+01 -0.11990693967E+02 -0.34457966770E+02  0.54367091801E+02  0.40000017380E+02 0.  0.
        -12    1    3    3    0    0  0.49649838737E+01  0.11990693967E+02  0.34457966770E+02  0.36820908199E+02  0.00000000000E+00 0.  1.
         11    1    4    4    0    0 -0.97797950569E+01 -0.90544718288E+01 -0.13515812044E+02  0.18981702424E+02  0.51100000000E-03 0. -1.
        -11    1    4    4    0    0 -0.11666037236E+02 -0.29810871909E+01 -0.89890294492E+01  0.15026175705E+02  0.51100000000E-03 0.  1.
         12    1    4    4    0    0  0.16480848419E+02  0.44865053133E-01 -0.11953125276E+02  0.20359213672E+02  0.00000000000E+00 0. -1.
</event>
<event>
 8    1  0.2490104E-006  0.9118800E+02  0.7816164E-02  0.1184000E+00
        -11   -1    0    0    0    0  0.00000000000E+00  0.00000000000E+00  0.45593999997E+02  0.45594000000E+02  0.51100000000E-03 0.  1.
         11   -1    0    0    0    0 -0.00000000000E+00 -0.00000000000E+00 -0.45593999997E+02  0.45594000000E+02  0.51100000000E-03 0. -1.
         23    2    1    2    0    0 -0.35527136788E-14  0.00000000000E+00  0.35527136788E-14  0.91188000000E+02  0.91188000000E+02 0.  0.
    9900012    2    3    3    0    0 -0.26546301382E+02 -0.19235776478E+02  0.16764768950E+02  0.54367099797E+02  0.40000035608E+02 0.  0.
         12    1    3    3    0    0  0.26546301382E+02  0.19235776478E+02 -0.16764768950E+02  0.36820900203E+02  0.00000000000E+00 0. -1.
         11    1    4    4    0    0 -0.18815105043E+02 -0.61362575079E+01 -0.33356217976E+01  0.20069584127E+02  0.51100000000E-03 0. -1.
        -11    1    4    4    0    0 -0.10189791561E+02  0.36194687202E+01  0.66040516056E+01  0.12670671006E+02  0.51100000000E-03 0.  1.
         12    1    4    4    0    0  0.24585952226E+01 -0.16718987691E+02  0.13496339143E+02  0.21626844664E+02  0.00000000000E+00 0. -1.
</event>
<event>
 8    1  0.2490104E-006  0.9118800E+02  0.7816164E-02  0.1184000E+00
        -11   -1    0    0    0    0  0.00000000000E+00  0.00000000000E+00  0.45593999997E+02  0.45594000000E+02  0.51100000000E-03 0. -1.
         11   -1    0    0    0    0 -0.00000000000E+00 -0.00000000000E+00 -0.45593999997E+02  0.45594000000E+02  0.51100000000E-03 0.  1.
         23    2    1    2    0    0  0.88817841970E-15  0.00000000000E+00  0.00000000000E+00  0.91188000000E+02  0.91188000000E+02 0.  0.
    9900012    2    3    3    0    0  0.74786596791E+01 -0.68819673089E+01 -0.35390499734E+02  0.54367091591E+02  0.40000016901E+02 0.  0.
         12    1    3    3    0    0 -0.74786596791E+01  0.68819673089E+01  0.35390499734E+02  0.36820908409E+02  0.00000000000E+00 0. -1.
         11    1    4    4    0    0 -0.30462546231E+01 -0.38212497708E+01  0.40734148588E+01  0.63619435641E+01  0.51100000000E-03 0. -1.
        -11    1    4    4    0    0 -0.40987109626E+01  0.27870850425E+01 -0.28224635545E+02  0.28656540728E+02  0.51100000000E-03 0.  1.
        -12    1    4    4    0    0  0.14623625265E+02 -0.58478025806E+01 -0.11239279047E+02  0.19348607299E+02  0.00000000000E+00 0.  1.
</event>
<event>
 8    1  0.2490104E-006  0.9118800E+02  0.7816164E-02  0.1184000E+00
        -11   -1    0    0    0    0  0.00000000000E+00  0.00000000000E+00  0.45593999997E+02  0.45594000000E+02  0.51100000000E-03 0. -1.
         11   -1    0    0    0    0 -0.00000000000E+00 -0.00000000000E+00 -0.45593999997E+02  0.45594000000E+02  0.51100000000E-03 0.  1.
         23    2    1    2    0    0 -0.15543122345E-14 -0.71054273576E-14  0.35527136788E-14  0.91188000000E+02  0.91188000000E+02 0.  0.
    9900012    2    3    3    0    0  0.13373493544E+01 -0.25053597461E+02 -0.26950110905E+02  0.54367085742E+02  0.40000003565E+02 0.  0.
         12    1    3    3    0    0 -0.13373493544E+01  0.25053597461E+02  0.26950110905E+02  0.36820914258E+02  0.00000000000E+00 0. -1.
         11    1    4    4    0    0  0.63382906220E+01  0.17435508666E+01 -0.37770926918E+01  0.75815781403E+01  0.51100000000E-03 0. -1.
        -11    1    4    4    0    0  0.93416235090E+01 -0.34164612719E+01  0.12926969968E+01  0.10030413909E+02  0.51100000000E-03 0.  1.
        -12    1    4    4    0    0 -0.14342564777E+02 -0.23380687056E+02 -0.24465715210E+02  0.36755093692E+02  0.00000000000E+00 0.  1.
</event>
<event>
 8    1  0.2490104E-006  0.9118800E+02  0.7816164E-02  0.1184000E+00
        -11   -1    0    0    0    0  0.00000000000E+00  0.00000000000E+00  0.45593999997E+02  0.45594000000E+02  0.51100000000E-03 0.  1.
         11   -1    0    0    0    0 -0.00000000000E+00 -0.00000000000E+00 -0.45593999997E+02  0.45594000000E+02  0.51100000000E-03 0. -1.
         23    2    1    2    0    0 -0.17763568394E-14  0.17763568394E-14  0.00000000000E+00  0.91188000000E+02  0.91188000000E+02 0.  0.
    9900012    2    3    3    0    0  0.52865824177E+01 -0.14031986860E+02  0.33629369000E+02  0.54367094685E+02  0.40000023953E+02 0.  0.
         12    1    3    3    0    0 -0.52865824177E+01  0.14031986860E+02 -0.33629369000E+02  0.36820905315E+02  0.00000000000E+00 0. -1.
         11    1    4    4    0    0 -0.46370048697E+00  0.15770052905E+01  0.34778563731E+00  0.16801544389E+01  0.51100000000E-03 0. -1.
        -11    1    4    4    0    0 -0.49252122890E+01  0.10244623812E+02  0.16601301878E+02  0.20119971606E+02  0.51100000000E-03 0.  1.
         12    1    4    4    0    0  0.10675495194E+02 -0.25853615962E+02  0.16680281485E+02  0.32566968640E+02  0.00000000000E+00 0. -1.
</event>
<event>
 8    1  0.2490104E-006  0.9118800E+02  0.7816164E-02  0.1184000E+00
        -11   -1    0    0    0    0  0.00000000000E+00  0.00000000000E+00  0.45593999997E+02  0.45594000000E+02  0.51100000000E-03 0. -1.
         11   -1    0    0    0    0 -0.00000000000E+00 -0.00000000000E+00 -0.45593999997E+02  0.45594000000E+02  0.51100000000E-03 0.  1.
         23    2    1    2    0    0  0.35527136788E-14 -0.17763568394E-14  0.00000000000E+00  0.91188000000E+02  0.91188000000E+02 0.  0.
    9900012    2    3    3    0    0  0.29536365485E+02 -0.15782148882E+02 -0.15307092839E+02  0.54367079308E+02  0.39999988899E+02 0.  0.
         12    1    3    3    0    0 -0.29536365485E+02  0.15782148882E+02  0.15307092839E+02  0.36820920692E+02  0.00000000000E+00 0. -1.
         11    1    4    4    0    0  0.12249693276E+02 -0.93773804089E+01 -0.42016474932E+01  0.15988873963E+02  0.51100000000E-03 0. -1.
        -11    1    4    4    0    0  0.26336287192E+02 -0.15966624116E+01 -0.66883930069E+01  0.27219183587E+02  0.51100000000E-03 0.  1.
         12    1    4    4    0    0 -0.90496149823E+01 -0.48081060610E+01 -0.44170523394E+01  0.11159021758E+02  0.00000000000E+00 0. -1.
</event>
<event>
 8    1  0.2490104E-006  0.9118800E+02  0.7816164E-02  0.1184000E+00
        -11   -1    0    0    0    0  0.00000000000E+00  0.00000000000E+00  0.45593999997E+02  0.45594000000E+02  0.51100000000E-03 0. -1.
         11   -1    0    0    0    0 -0.00000000000E+00 -0.00000000000E+00 -0.45593999997E+02  0.45594000000E+02  0.51100000000E-03 0.  1.
         23    2    1    2    0    0  0.00000000000E+00  0.00000000000E+00 -0.35527136788E-14  0.91188000000E+02  0.91188000000E+02 0.  0.
    9900012    2    3    3    0    0 -0.20676165493E+02  0.12446862290E+02 -0.27809104406E+02  0.54367156878E+02  0.40000165734E+02 0.  0.
         12    1    3    3    0    0  0.20676165493E+02 -0.12446862290E+02  0.27809104406E+02  0.36820843122E+02  0.00000000000E+00 0. -1.
         11    1    4    4    0    0 -0.44572568235E+01  0.82751081173E+01  0.15984870290E+01  0.95341341393E+01  0.51100000000E-03 0. -1.
        -11    1    4    4    0    0 -0.19361804726E+02  0.84172564707E+01 -0.76692689023E+01  0.22462132012E+02  0.51100000000E-03 0.  1.
         12    1    4    4    0    0  0.31428960564E+01 -0.42455022975E+01 -0.21738322532E+02  0.22370890727E+02  0.00000000000E+00 0. -1.
</event>
<event>
 8    1  0.2490104E-006  0.9118800E+02  0.7816164E-02  0.1184000E+00
        -11   -1    0    0    0    0  0.00000000000E+00  0.00000000000E+00  0.45593999997E+02  0.45594000000E+02  0.51100000000E-03 0. -1.
         11   -1    0    0    0    0 -0.00000000000E+00 -0.00000000000E+00 -0.45593999997E+02  0.45594000000E+02  0.51100000000E-03 0.  1.
         23    2    1    2    0    0  0.00000000000E+00  0.00000000000E+00 -0.88817841970E-15  0.91188000000E+02  0.91188000000E+02 0.  0.
    9900012    2    3    3    0    0  0.18637090859E+02 -0.31653228222E+02 -0.25521939413E+01  0.54367058859E+02  0.39999942281E+02 0.  0.
         12    1    3    3    0    0 -0.18637090859E+02  0.31653228222E+02  0.25521939413E+01  0.36820941141E+02  0.00000000000E+00 0. -1.
         11    1    4    4    0    0  0.47186566998E+01 -0.26526110407E+02  0.17480500873E+01  0.26999183946E+02  0.51100000000E-03 0. -1.
        -11    1    4    4    0    0  0.13665443723E+02 -0.11632211560E+02 -0.82521642974E+01  0.19752238197E+02  0.51100000000E-03 0.  1.
        -12    1    4    4    0    0  0.25299043647E+00  0.65050937447E+01  0.39519202687E+01  0.76156367165E+01  0.00000000000E+00 0.  1.
</event>
<event>
 8    1  0.2490104E-006  0.9118800E+02  0.7816164E-02  0.1184000E+00
        -11   -1    0    0    0    0  0.00000000000E+00  0.00000000000E+00  0.45593999997E+02  0.45594000000E+02  0.51100000000E-03 0. -1.
         11   -1    0    0    0    0 -0.00000000000E+00 -0.00000000000E+00 -0.45593999997E+02  0.45594000000E+02  0.51100000000E-03 0.  1.
         23    2    1    2    0    0  0.00000000000E+00  0.00000000000E+00  0.00000000000E+00  0.91188000000E+02  0.91188000000E+02 0.  0.
    9900012    2    3    3    0    0  0.19676324642E+00 -0.26829404579E+02  0.25217525935E+02  0.54367091807E+02  0.40000017393E+02 0.  0.
        -12    1    3    3    0    0 -0.19676324642E+00  0.26829404579E+02 -0.25217525935E+02  0.36820908193E+02  0.00000000000E+00 0.  1.
         11    1    4    4    0    0  0.56730817729E+01 -0.16690028697E+02  0.26172348971E+02  0.31555233570E+02  0.51100000000E-03 0. -1.
        -11    1    4    4    0    0  0.19522246526E+01  0.37840656917E+01 -0.49534299290E+01  0.65319830508E+01  0.51100000000E-03 0.  1.
        -12    1    4    4    0    0 -0.74285431791E+01 -0.13923441573E+02  0.39986068929E+01  0.16279875187E+02  0.00000000000E+00 0.  1.
</event>
<event>
 8    1  0.2490104E-006  0.9118800E+02  0.7816164E-02  0.1184000E+00
        -11   -1    0    0    0    0  0.00000000000E+00  0.00000000000E+00  0.45593999997E+02  0.45594000000E+02  0.51100000000E-03 0.  1.
         11   -1    0    0    0    0 -0.00000000000E+00 -0.00000000000E+00 -0.45593999997E+02  0.45594000000E+02  0.51100000000E-03 0. -1.
         23    2    1    2    0    0 -0.44408920985E-15 -0.35527136788E-14  0.00000000000E+00  0.91188000000E+02  0.91188000000E+02 0.  0.
    9900012    2    3    3    0    0 -0.39076396249E+01 -0.19262861547E+02 -0.31136015583E+02  0.54367096307E+02  0.40000027650E+02 0.  0.
        -12    1    3    3    0    0  0.39076396249E+01  0.19262861547E+02  0.31136015583E+02  0.36820903693E+02  0.00000000000E+00 0.  1.
         11    1    4    4    0    0 -0.93698099863E+01 -0.13134186877E+02 -0.10880786057E+02  0.19460002815E+02  0.51100000000E-03 0. -1.
        -11    1    4    4    0    0 -0.51963006754E+01  0.87182354871E+01 -0.69715168749E+01  0.12313050740E+02  0.51100000000E-03 0.  1.
        -12    1    4    4    0    0  0.10658471037E+02 -0.14846910157E+02 -0.13283712652E+02  0.22594042752E+02  0.00000000000E+00 0.  1.
</event>
