<event>
 8    1  0.1271559E-006  0.9118800E+02  0.7816164E-02  0.1184000E+00
        -11   -1    0    0    0    0  0.00000000000E+00  0.00000000000E+00  0.45593999997E+02  0.45594000000E+02  0.51100000000E-03 0.  1.
         11   -1    0    0    0    0 -0.00000000000E+00 -0.00000000000E+00 -0.45593999997E+02  0.45594000000E+02  0.51100000000E-03 0. -1.
         23    2    1    2    0    0  0.00000000000E+00  0.00000000000E+00 -0.71054273576E-14  0.91188000000E+02  0.91188000000E+02 0.  0.
    9900012    2    3    3    0    0 -0.19206810480E+02  0.40167449054E+01 -0.31156754860E+02  0.54367093142E+02  0.40000020436E+02 0.  0.
        -12    1    3    3    0    0  0.19206810480E+02 -0.40167449054E+01  0.31156754860E+02  0.36820906858E+02  0.00000000000E+00 0.  1.
         11    1    4    4    0    0  0.73881835155E+00  0.44854349558E-01  0.84917547065E+00  0.11264828939E+01  0.51100000000E-03 0. -1.
        -11    1    4    4    0    0 -0.35202948814E+01 -0.16085426210E+01  0.84106345522E+01  0.92584371925E+01  0.51100000000E-03 0.  1.
         12    1    4    4    0    0 -0.16425333950E+02  0.55804331769E+01 -0.40416564882E+02  0.43982173056E+02  0.00000000000E+00 0. -1.
</event>
<event>
 8    1  0.1271559E-006  0.9118800E+02  0.7816164E-02  0.1184000E+00
        -11   -1    0    0    0    0  0.00000000000E+00  0.00000000000E+00  0.45593999997E+02  0.45594000000E+02  0.51100000000E-03 0. -1.
         11   -1    0    0    0    0 -0.00000000000E+00 -0.00000000000E+00 -0.45593999997E+02  0.45594000000E+02  0.51100000000E-03 0.  1.
         23    2    1    2    0    0  0.35527136788E-14  0.17763568394E-14  0.00000000000E+00  0.91188000000E+02  0.91188000000E+02 0.  0.
    9900012    2    3    3    0    0  0.27908945045E+02 -0.14588541933E+02 -0.19079502523E+02  0.54367323936E+02  0.40000546573E+02 0.  0.
         12    1    3    3    0    0 -0.27908945045E+02  0.14588541933E+02  0.19079502523E+02  0.36820676064E+02  0.00000000000E+00 0. -1.
         11    1    4    4    0    0 -0.51429641730E+01 -0.23208738862E+01  0.16982712097E+01  0.58924240719E+01  0.51100000000E-03 0. -1.
        -11    1    4    4    0    0  0.35676955435E+02 -0.77826015888E+01 -0.12301437244E+02  0.38532316244E+02  0.51100000000E-03 0.  1.
        -12    1    4    4    0    0 -0.26250462165E+01 -0.44850664584E+01 -0.84763364887E+01  0.99425836202E+01  0.00000000000E+00 0.  1.
</event>
<event>
 8    1  0.1271559E-006  0.9118800E+02  0.7816164E-02  0.1184000E+00
        -11   -1    0    0    0    0  0.00000000000E+00  0.00000000000E+00  0.45593999997E+02  0.45594000000E+02  0.51100000000E-03 0. -1.
         11   -1    0    0    0    0 -0.00000000000E+00 -0.00000000000E+00 -0.45593999997E+02  0.45594000000E+02  0.51100000000E-03 0.  1.
         23    2    1    2    0    0 -0.35527136788E-14  0.00000000000E+00  0.00000000000E+00  0.91188000000E+02  0.91188000000E+02 0.  0.
    9900012    2    3    3    0    0 -0.24367481248E+02 -0.23464137329E+02  0.14540861454E+02  0.54367129087E+02  0.40000102380E+02 0.  0.
         12    1    3    3    0    0  0.24367481248E+02  0.23464137329E+02 -0.14540861454E+02  0.36820870913E+02  0.00000000000E+00 0. -1.
         11    1    4    4    0    0 -0.15523976948E+02 -0.30025148130E+01  0.18918374168E+02  0.24655908763E+02  0.51100000000E-03 0. -1.
        -11    1    4    4    0    0 -0.14721827082E+02 -0.15278642944E+02 -0.51589946458E+01  0.21835392116E+02  0.51100000000E-03 0.  1.
         12    1    4    4    0    0  0.58783227814E+01 -0.51829795712E+01  0.78148193135E+00  0.78758282083E+01  0.00000000000E+00 0. -1.
</event>
<event>
 8    1  0.1271559E-006  0.9118800E+02  0.7816164E-02  0.1184000E+00
        -11   -1    0    0    0    0  0.00000000000E+00  0.00000000000E+00  0.45593999997E+02  0.45594000000E+02  0.51100000000E-03 0.  1.
         11   -1    0    0    0    0 -0.00000000000E+00 -0.00000000000E+00 -0.45593999997E+02  0.45594000000E+02  0.51100000000E-03 0. -1.
         23    2    1    2    0    0 -0.13322676296E-14  0.00000000000E+00  0.19428902931E-15  0.91188000000E+02  0.91188000000E+02 0.  0.
    9900012    2    3    3    0    0 -0.12033045164E+01  0.36800703205E+02 -0.19707774596E+00  0.54367101888E+02  0.40000040373E+02 0.  0.
        -12    1    3    3    0    0  0.12033045164E+01 -0.36800703205E+02  0.19707774596E+00  0.36820898112E+02  0.00000000000E+00 0.  1.
         11    1    4    4    0    0  0.60255852771E+01  0.14359480388E+02  0.24237586899E+01  0.15759979739E+02  0.51100000000E-03 0. -1.
        -11    1    4    4    0    0  0.10270544378E+01  0.14835910984E+02  0.12739764986E+02  0.19582152785E+02  0.51100000000E-03 0.  1.
        -12    1    4    4    0    0 -0.82559442313E+01  0.76053118339E+01 -0.15360601422E+02  0.19024969363E+02  0.00000000000E+00 0.  1.
</event>
<event>
 8    1  0.1271559E-006  0.9118800E+02  0.7816164E-02  0.1184000E+00
        -11   -1    0    0    0    0  0.00000000000E+00  0.00000000000E+00  0.45593999997E+02  0.45594000000E+02  0.51100000000E-03 0.  1.
         11   -1    0    0    0    0 -0.00000000000E+00 -0.00000000000E+00 -0.45593999997E+02  0.45594000000E+02  0.51100000000E-03 0. -1.
         23    2    1    2    0    0  0.00000000000E+00  0.00000000000E+00  0.35527136788E-14  0.91188000000E+02  0.91188000000E+02 0.  0.
    9900012    2    3    3    0    0 -0.10861686113E+02 -0.14811017097E+02  0.31912976875E+02  0.54367074622E+02  0.39999978216E+02 0.  0.
         12    1    3    3    0    0  0.10861686113E+02  0.14811017097E+02 -0.31912976875E+02  0.36820925378E+02  0.00000000000E+00 0. -1.
         11    1    4    4    0    0 -0.79287352566E+01 -0.87775997461E+01  0.13890784257E+02  0.18244587899E+02  0.51100000000E-03 0. -1.
        -11    1    4    4    0    0  0.54525691770E+01 -0.82764891570E+01  0.23741593852E+02  0.25727301885E+02  0.51100000000E-03 0.  1.
         12    1    4    4    0    0 -0.83855200332E+01  0.22430718062E+01 -0.57194012334E+01  0.10395184838E+02  0.00000000000E+00 0. -1.
</event>
<event>
 8    1  0.1271559E-006  0.9118800E+02  0.7816164E-02  0.1184000E+00
        -11   -1    0    0    0    0  0.00000000000E+00  0.00000000000E+00  0.45593999997E+02  0.45594000000E+02  0.51100000000E-03 0. -1.
         11   -1    0    0    0    0 -0.00000000000E+00 -0.00000000000E+00 -0.45593999997E+02  0.45594000000E+02  0.51100000000E-03 0.  1.
         23    2    1    2    0    0  0.71054273576E-14 -0.17763568394E-14 -0.35527136788E-14  0.91188000000E+02  0.91188000000E+02 0.  0.
    9900012    2    3    3    0    0 -0.32482882133E+02 -0.47108789781E+01  0.16686821821E+02  0.54367081558E+02  0.39999994027E+02 0.  0.
        -12    1    3    3    0    0  0.32482882133E+02  0.47108789781E+01 -0.16686821821E+02  0.36820918442E+02  0.00000000000E+00 0.  1.
         11    1    4    4    0    0 -0.22712466204E+02  0.12853812240E+01  0.70321196598E+01  0.23810901560E+02  0.51100000000E-03 0. -1.
        -11    1    4    4    0    0 -0.12638933789E+02  0.62633944580E+01 -0.88894835535E+00  0.14133753461E+02  0.51100000000E-03 0.  1.
        -12    1    4    4    0    0  0.28685178598E+01 -0.12259654660E+02  0.10543650517E+02  0.16422426536E+02  0.00000000000E+00 0.  1.
</event>
<event>
 8    1  0.1271559E-006  0.9118800E+02  0.7816164E-02  0.1184000E+00
        -11   -1    0    0    0    0  0.00000000000E+00  0.00000000000E+00  0.45593999997E+02  0.45594000000E+02  0.51100000000E-03 0.  1.
         11   -1    0    0    0    0 -0.00000000000E+00 -0.00000000000E+00 -0.45593999997E+02  0.45594000000E+02  0.51100000000E-03 0. -1.
         23    2    1    2    0    0  0.00000000000E+00 -0.71054273576E-14 -0.44408920985E-15  0.91188000000E+02  0.91188000000E+02 0.  0.
    9900012    2    3    3    0    0  0.13353138362E+02  0.34230567448E+02  0.23988025428E+01  0.54366914932E+02  0.39999614169E+02 0.  0.
         12    1    3    3    0    0 -0.13353138362E+02 -0.34230567448E+02 -0.23988025428E+01  0.36821085068E+02  0.00000000000E+00 0. -1.
         11    1    4    4    0    0  0.58753576424E+01  0.10442274803E+02  0.14211324609E+02  0.18588240312E+02  0.51100000000E-03 0. -1.
        -11    1    4    4    0    0 -0.13198859891E+01  0.18119314775E+02  0.21880591310E+01  0.18298613881E+02  0.51100000000E-03 0.  1.
        -12    1    4    4    0    0  0.87976667086E+01  0.56689778701E+01 -0.14000581197E+02  0.17480060740E+02  0.00000000000E+00 0.  1.
</event>
<event>
 8    1  0.1271559E-006  0.9118800E+02  0.7816164E-02  0.1184000E+00
        -11   -1    0    0    0    0  0.00000000000E+00  0.00000000000E+00  0.45593999997E+02  0.45594000000E+02  0.51100000000E-03 0. -1.
         11   -1    0    0    0    0 -0.00000000000E+00 -0.00000000000E+00 -0.45593999997E+02  0.45594000000E+02  0.51100000000E-03 0.  1.
         23    2    1    2    0    0  0.00000000000E+00 -0.71054273576E-14  0.00000000000E+00  0.91188000000E+02  0.91188000000E+02 0.  0.
    9900012    2    3    3    0    0  0.75976833451E+01  0.32284777932E+02  0.15992118068E+02  0.54367088569E+02  0.40000010011E+02 0.  0.
        -12    1    3    3    0    0 -0.75976833451E+01 -0.32284777932E+02 -0.15992118068E+02  0.36820911431E+02  0.00000000000E+00 0.  1.
         11    1    4    4    0    0  0.33412165199E+01  0.51209768592E+01  0.14413969276E+02  0.15657287197E+02  0.51100000000E-03 0. -1.
        -11    1    4    4    0    0  0.31658741778E+01 -0.52525326208E+01  0.13239579304E+01  0.62741312630E+01  0.51100000000E-03 0.  1.
         12    1    4    4    0    0  0.10905926473E+01  0.32416333693E+02  0.25419086146E+00  0.32435670109E+02  0.00000000000E+00 0. -1.
</event>
<event>
 8    1  0.1271559E-006  0.9118800E+02  0.7816164E-02  0.1184000E+00
        -11   -1    0    0    0    0  0.00000000000E+00  0.00000000000E+00  0.45593999997E+02  0.45594000000E+02  0.51100000000E-03 0. -1.
         11   -1    0    0    0    0 -0.00000000000E+00 -0.00000000000E+00 -0.45593999997E+02  0.45594000000E+02  0.51100000000E-03 0.  1.
         23    2    1    2    0    0  0.00000000000E+00 -0.35527136788E-14  0.35527136788E-14  0.91188000000E+02  0.91188000000E+02 0.  0.
    9900012    2    3    3    0    0 -0.98257448820E+01  0.17624624447E+02 -0.30799462742E+02  0.54367088081E+02  0.40000008898E+02 0.  0.
         12    1    3    3    0    0  0.98257448820E+01 -0.17624624447E+02  0.30799462742E+02  0.36820911919E+02  0.00000000000E+00 0. -1.
         11    1    4    4    0    0 -0.56993068051E+01  0.56171176506E+01  0.92282561539E+01  0.12214533174E+02  0.51100000000E-03 0. -1.
        -11    1    4    4    0    0 -0.39199922166E+01  0.58015741441E+01 -0.21680154701E+02  0.22782750265E+02  0.51100000000E-03 0.  1.
         12    1    4    4    0    0 -0.20644586032E+00  0.62059326524E+01 -0.18347564194E+02  0.19369804641E+02  0.00000000000E+00 0. -1.
</event>
<event>
 8    1  0.1271559E-006  0.9118800E+02  0.7816164E-02  0.1184000E+00
        -11   -1    0    0    0    0  0.00000000000E+00  0.00000000000E+00  0.45593999997E+02  0.45594000000E+02  0.51100000000E-03 0. -1.
         11   -1    0    0    0    0 -0.00000000000E+00 -0.00000000000E+00 -0.45593999997E+02  0.45594000000E+02  0.51100000000E-03 0.  1.
         23    2    1    2    0    0 -0.88817841970E-15  0.00000000000E+00  0.00000000000E+00  0.91188000000E+02  0.91188000000E+02 0.  0.
    9900012    2    3    3    0    0 -0.71252900848E+01  0.50088483139E+01  0.35775987218E+02  0.54367087713E+02  0.40000008059E+02 0.  0.
        -12    1    3    3    0    0  0.71252900848E+01 -0.50088483139E+01 -0.35775987218E+02  0.36820912287E+02  0.00000000000E+00 0.  1.
         11    1    4    4    0    0  0.20534925631E+01 -0.10198643003E+02  0.14446200013E+02  0.17802298893E+02  0.51100000000E-03 0. -1.
        -11    1    4    4    0    0  0.64502677123E+01  0.58004109103E+01  0.23676650707E+00  0.86779478524E+01  0.51100000000E-03 0.  1.
         12    1    4    4    0    0 -0.15629050360E+02  0.94070804070E+01  0.21093020698E+02  0.27886840967E+02  0.00000000000E+00 0. -1.
</event>
<event>
 8    1  0.1271559E-006  0.9118800E+02  0.7816164E-02  0.1184000E+00
        -11   -1    0    0    0    0  0.00000000000E+00  0.00000000000E+00  0.45593999997E+02  0.45594000000E+02  0.51100000000E-03 0. -1.
         11   -1    0    0    0    0 -0.00000000000E+00 -0.00000000000E+00 -0.45593999997E+02  0.45594000000E+02  0.51100000000E-03 0.  1.
         23    2    1    2    0    0  0.00000000000E+00  0.00000000000E+00  0.35527136788E-14  0.91188000000E+02  0.91188000000E+02 0.  0.
    9900012    2    3    3    0    0 -0.94221625784E+01  0.19248075200E+02 -0.29941800037E+02  0.54367123639E+02  0.40000089959E+02 0.  0.
        -12    1    3    3    0    0  0.94221625784E+01 -0.19248075200E+02  0.29941800037E+02  0.36820876361E+02  0.00000000000E+00 0.  1.
         11    1    4    4    0    0 -0.44022304217E+01  0.15425397994E+02 -0.18462270279E+01  0.16147169736E+02  0.51100000000E-03 0. -1.
        -11    1    4    4    0    0 -0.95467641369E+01 -0.43004863213E+01 -0.26872696393E+02  0.28840539173E+02  0.51100000000E-03 0.  1.
        -12    1    4    4    0    0  0.45268319801E+01  0.81231635267E+01 -0.12228766158E+01  0.93794147299E+01  0.00000000000E+00 0.  1.
</event>
<event>
 8    1  0.1271559E-006  0.9118800E+02  0.7816164E-02  0.1184000E+00
        -11   -1    0    0    0    0  0.00000000000E+00  0.00000000000E+00  0.45593999997E+02  0.45594000000E+02  0.51100000000E-03 0. -1.
         11   -1    0    0    0    0 -0.00000000000E+00 -0.00000000000E+00 -0.45593999997E+02  0.45594000000E+02  0.51100000000E-03 0.  1.
         23    2    1    2    0    0  0.00000000000E+00  0.00000000000E+00 -0.35527136788E-14  0.91188000000E+02  0.91188000000E+02 0.  0.
    9900012    2    3    3    0    0 -0.20717065058E+02  0.70686275261E+01  0.29607729676E+02  0.54367082897E+02  0.39999997080E+02 0.  0.
        -12    1    3    3    0    0  0.20717065058E+02 -0.70686275261E+01 -0.29607729676E+02  0.36820917103E+02  0.00000000000E+00 0.  1.
         11    1    4    4    0    0 -0.35985530416E+01  0.18890687096E+02  0.20683443502E+02  0.28242033891E+02  0.51100000000E-03 0. -1.
        -11    1    4    4    0    0 -0.34761796044E+01 -0.90795287180E+01  0.24580704891E+00  0.97253322693E+01  0.51100000000E-03 0.  1.
        -12    1    4    4    0    0 -0.13642332412E+02 -0.27425308519E+01  0.86784791257E+01  0.16399716737E+02  0.00000000000E+00 0.  1.
</event>
<event>
 8    1  0.1271559E-006  0.9118800E+02  0.7816164E-02  0.1184000E+00
        -11   -1    0    0    0    0  0.00000000000E+00  0.00000000000E+00  0.45593999997E+02  0.45594000000E+02  0.51100000000E-03 0.  1.
         11   -1    0    0    0    0 -0.00000000000E+00 -0.00000000000E+00 -0.45593999997E+02  0.45594000000E+02  0.51100000000E-03 0. -1.
         23    2    1    2    0    0  0.35527136788E-14  0.00000000000E+00  0.00000000000E+00  0.91188000000E+02  0.91188000000E+02 0.  0.
    9900012    2    3    3    0    0  0.26179878681E+02  0.23931576296E+02  0.98837153383E+01  0.54366888928E+02  0.39999554886E+02 0.  0.
         12    1    3    3    0    0 -0.26179878681E+02 -0.23931576296E+02 -0.98837153383E+01  0.36821111072E+02  0.00000000000E+00 0. -1.
         11    1    4    4    0    0  0.70069609703E+01  0.12423481490E+02 -0.61327598854E+01  0.15525821667E+02  0.51100000000E-03 0. -1.
        -11    1    4    4    0    0  0.17659305074E+02 -0.22305135549E+01  0.15220716842E+00  0.17800264428E+02  0.51100000000E-03 0.  1.
         12    1    4    4    0    0  0.15136126361E+01  0.13738608361E+02  0.15864268055E+02  0.21040802832E+02  0.00000000000E+00 0. -1.
</event>
<event>
 8    1  0.1271559E-006  0.9118800E+02  0.7816164E-02  0.1184000E+00
        -11   -1    0    0    0    0  0.00000000000E+00  0.00000000000E+00  0.45593999997E+02  0.45594000000E+02  0.51100000000E-03 0. -1.
         11   -1    0    0    0    0 -0.00000000000E+00 -0.00000000000E+00 -0.45593999997E+02  0.45594000000E+02  0.51100000000E-03 0.  1.
         23    2    1    2    0    0  0.44408920985E-15  0.00000000000E+00  0.00000000000E+00  0.91188000000E+02  0.91188000000E+02 0.  0.
    9900012    2    3    3    0    0  0.36089530005E+01  0.26036723404E+02 -0.25784564209E+02  0.54367092097E+02  0.40000018053E+02 0.  0.
         12    1    3    3    0    0 -0.36089530005E+01 -0.26036723404E+02  0.25784564209E+02  0.36820907903E+02  0.00000000000E+00 0. -1.
         11    1    4    4    0    0  0.45338087146E+01  0.46705355607E+01 -0.32100341553E+01  0.72576610160E+01  0.51100000000E-03 0. -1.
        -11    1    4    4    0    0 -0.59720134456E+01  0.15043027319E+02 -0.31283500650E+02  0.35222365462E+02  0.51100000000E-03 0.  1.
         12    1    4    4    0    0  0.50471577315E+01  0.63231605244E+01  0.87089705968E+01  0.11887065619E+02  0.00000000000E+00 0. -1.
</event>
<event>
 8    1  0.1271559E-006  0.9118800E+02  0.7816164E-02  0.1184000E+00
        -11   -1    0    0    0    0  0.00000000000E+00  0.00000000000E+00  0.45593999997E+02  0.45594000000E+02  0.51100000000E-03 0. -1.
         11   -1    0    0    0    0 -0.00000000000E+00 -0.00000000000E+00 -0.45593999997E+02  0.45594000000E+02  0.51100000000E-03 0.  1.
         23    2    1    2    0    0  0.00000000000E+00  0.00000000000E+00  0.35527136788E-14  0.91188000000E+02  0.91188000000E+02 0.  0.
    9900012    2    3    3    0    0  0.20322646524E+01  0.20280225369E+02  0.30665356459E+02  0.54367058575E+02  0.39999941634E+02 0.  0.
         12    1    3    3    0    0 -0.20322646524E+01 -0.20280225369E+02 -0.30665356459E+02  0.36820941425E+02  0.00000000000E+00 0. -1.
         11    1    4    4    0    0  0.12191092485E+02  0.11183582701E+02  0.19044942688E+02  0.25227070783E+02  0.51100000000E-03 0. -1.
        -11    1    4    4    0    0 -0.75465346807E+01  0.13837301536E+02 -0.60178219101E+00  0.15772864088E+02  0.51100000000E-03 0.  1.
        -12    1    4    4    0    0 -0.26122931522E+01 -0.47406588672E+01  0.12222195962E+02  0.13367123705E+02  0.00000000000E+00 0.  1.
</event>
<event>
 8    1  0.1271559E-006  0.9118800E+02  0.7816164E-02  0.1184000E+00
        -11   -1    0    0    0    0  0.00000000000E+00  0.00000000000E+00  0.45593999997E+02  0.45594000000E+02  0.51100000000E-03 0.  1.
         11   -1    0    0    0    0 -0.00000000000E+00 -0.00000000000E+00 -0.45593999997E+02  0.45594000000E+02  0.51100000000E-03 0. -1.
         23    2    1    2    0    0  0.35527136788E-14  0.35527136788E-14  0.35527136788E-14  0.91188000000E+02  0.91188000000E+02 0.  0.
    9900012    2    3    3    0    0 -0.13835534145E+02  0.23226528341E+02  0.24997787464E+02  0.54367041268E+02  0.39999902179E+02 0.  0.
         12    1    3    3    0    0  0.13835534145E+02 -0.23226528341E+02 -0.24997787464E+02  0.36820958732E+02  0.00000000000E+00 0. -1.
         11    1    4    4    0    0 -0.38457495407E+01  0.41765925032E+01 -0.67266491034E+01  0.88023589389E+01  0.51100000000E-03 0. -1.
        -11    1    4    4    0    0  0.58206932368E+01  0.83366979557E+00  0.15278572205E+02  0.16371018416E+02  0.51100000000E-03 0.  1.
         12    1    4    4    0    0 -0.15810477841E+02  0.18216266042E+02  0.16445864362E+02  0.29193663913E+02  0.00000000000E+00 0. -1.
</event>
<event>
 8    1  0.1271559E-006  0.9118800E+02  0.7816164E-02  0.1184000E+00
        -11   -1    0    0    0    0  0.00000000000E+00  0.00000000000E+00  0.45593999997E+02  0.45594000000E+02  0.51100000000E-03 0. -1.
         11   -1    0    0    0    0 -0.00000000000E+00 -0.00000000000E+00 -0.45593999997E+02  0.45594000000E+02  0.51100000000E-03 0.  1.
         23    2    1    2    0    0  0.00000000000E+00  0.00000000000E+00  0.00000000000E+00  0.91188000000E+02  0.91188000000E+02 0.  0.
    9900012    2    3    3    0    0 -0.36030811087E+02 -0.62944174935E+01  0.42356912991E+01  0.54367080404E+02  0.39999991396E+02 0.  0.
         12    1    3    3    0    0  0.36030811087E+02  0.62944174935E+01 -0.42356912991E+01  0.36820919596E+02  0.00000000000E+00 0. -1.
         11    1    4    4    0    0 -0.22541903680E+02  0.51562547420E+01  0.71709736763E+00  0.23135224515E+02  0.51100000000E-03 0. -1.
        -11    1    4    4    0    0 -0.17898381051E+02 -0.24582732246E+01 -0.42466755653E+01  0.18558809366E+02  0.51100000000E-03 0.  1.
         12    1    4    4    0    0  0.44094736438E+01 -0.89923990109E+01  0.77652694968E+01  0.12673046522E+02  0.00000000000E+00 0. -1.
</event>
<event>
 8    1  0.1271559E-006  0.9118800E+02  0.7816164E-02  0.1184000E+00
        -11   -1    0    0    0    0  0.00000000000E+00  0.00000000000E+00  0.45593999997E+02  0.45594000000E+02  0.51100000000E-03 0.  1.
         11   -1    0    0    0    0 -0.00000000000E+00 -0.00000000000E+00 -0.45593999997E+02  0.45594000000E+02  0.51100000000E-03 0. -1.
         23    2    1    2    0    0  0.00000000000E+00  0.00000000000E+00  0.35527136788E-14  0.91188000000E+02  0.91188000000E+02 0.  0.
    9900012    2    3    3    0    0  0.20232097460E+02 -0.11140009422E+02  0.28676483562E+02  0.54367105293E+02  0.40000048136E+02 0.  0.
         12    1    3    3    0    0 -0.20232097460E+02  0.11140009422E+02 -0.28676483562E+02  0.36820894707E+02  0.00000000000E+00 0. -1.
         11    1    4    4    0    0 -0.53412696728E+00 -0.49490577717E+01 -0.42709568386E+01  0.65589280392E+01  0.51100000000E-03 0. -1.
        -11    1    4    4    0    0  0.11798185451E+02 -0.12938015299E+02  0.58210753931E+01  0.18451946748E+02  0.51100000000E-03 0.  1.
         12    1    4    4    0    0  0.89680389763E+01  0.67470636492E+01  0.27126365008E+02  0.29356230506E+02  0.00000000000E+00 0. -1.
</event>
<event>
 8    1  0.1271559E-006  0.9118800E+02  0.7816164E-02  0.1184000E+00
        -11   -1    0    0    0    0  0.00000000000E+00  0.00000000000E+00  0.45593999997E+02  0.45594000000E+02  0.51100000000E-03 0. -1.
         11   -1    0    0    0    0 -0.00000000000E+00 -0.00000000000E+00 -0.45593999997E+02  0.45594000000E+02  0.51100000000E-03 0.  1.
         23    2    1    2    0    0  0.00000000000E+00  0.17763568394E-14  0.00000000000E+00  0.91188000000E+02  0.91188000000E+02 0.  0.
    9900012    2    3    3    0    0 -0.34285359146E+02  0.89320617896E+01  0.10025602343E+02  0.54367078204E+02  0.39999986382E+02 0.  0.
        -12    1    3    3    0    0  0.34285359146E+02 -0.89320617896E+01 -0.10025602343E+02  0.36820921796E+02  0.00000000000E+00 0.  1.
         11    1    4    4    0    0 -0.15955096962E+02  0.16556485894E+02  0.15132009669E+02  0.27525625535E+02  0.51100000000E-03 0. -1.
        -11    1    4    4    0    0 -0.16339576959E+02 -0.11559578248E+02 -0.80132102365E+01  0.21559618805E+02  0.51100000000E-03 0.  1.
        -12    1    4    4    0    0 -0.19906852252E+01  0.39351541442E+01  0.29068029106E+01  0.52818338639E+01  0.00000000000E+00 0.  1.
</event>
<event>
 8    1  0.1271559E-006  0.9118800E+02  0.7816164E-02  0.1184000E+00
        -11   -1    0    0    0    0  0.00000000000E+00  0.00000000000E+00  0.45593999997E+02  0.45594000000E+02  0.51100000000E-03 0.  1.
         11   -1    0    0    0    0 -0.00000000000E+00 -0.00000000000E+00 -0.45593999997E+02  0.45594000000E+02  0.51100000000E-03 0. -1.
         23    2    1    2    0    0  0.00000000000E+00  0.00000000000E+00 -0.22204460493E-15  0.91188000000E+02  0.91188000000E+02 0.  0.
    9900012    2    3    3    0    0 -0.32778771603E+02 -0.16706500635E+02 -0.14916612801E+01  0.54367080883E+02  0.39999992489E+02 0.  0.
        -12    1    3    3    0    0  0.32778771603E+02  0.16706500635E+02  0.14916612801E+01  0.36820919117E+02  0.00000000000E+00 0.  1.
         11    1    4    4    0    0 -0.25917735161E+02 -0.11267720607E+02  0.58864710727E+01  0.28867647385E+02  0.51100000000E-03 0. -1.
        -11    1    4    4    0    0 -0.11668660474E+02 -0.71888505691E+00  0.39323508431E+01  0.12334415933E+02  0.51100000000E-03 0.  1.
        -12    1    4    4    0    0  0.48076240329E+01 -0.47198949707E+01 -0.11310483196E+02  0.13165017565E+02  0.00000000000E+00 0.  1.
</event>
<event>
 8    1  0.1271559E-006  0.9118800E+02  0.7816164E-02  0.1184000E+00
        -11   -1    0    0    0    0  0.00000000000E+00  0.00000000000E+00  0.45593999997E+02  0.45594000000E+02  0.51100000000E-03 0.  1.
         11   -1    0    0    0    0 -0.00000000000E+00 -0.00000000000E+00 -0.45593999997E+02  0.45594000000E+02  0.51100000000E-03 0. -1.
         23    2    1    2    0    0  0.00000000000E+00 -0.88817841970E-15 -0.35527136788E-14  0.91188000000E+02  0.91188000000E+02 0.  0.
    9900012    2    3    3    0    0 -0.32673644512E+02 -0.40701912473E+01 -0.16481707985E+02  0.54367079308E+02  0.39999988899E+02 0.  0.
        -12    1    3    3    0    0  0.32673644512E+02  0.40701912473E+01  0.16481707985E+02  0.36820920692E+02  0.00000000000E+00 0.  1.
         11    1    4    4    0    0 -0.34663435278E+02  0.15276447801E+01 -0.20104014565E+02  0.40100609044E+02  0.51100000000E-03 0. -1.
        -11    1    4    4    0    0 -0.33379098678E+01  0.96068872967E+00  0.45958893160E+01  0.57607954301E+01  0.51100000000E-03 0.  1.
         12    1    4    4    0    0  0.53277006340E+01 -0.65585247571E+01 -0.97358273600E+00  0.85056748338E+01  0.00000000000E+00 0. -1.
</event>
<event>
 8    1  0.1271559E-006  0.9118800E+02  0.7816164E-02  0.1184000E+00
        -11   -1    0    0    0    0  0.00000000000E+00  0.00000000000E+00  0.45593999997E+02  0.45594000000E+02  0.51100000000E-03 0. -1.
         11   -1    0    0    0    0 -0.00000000000E+00 -0.00000000000E+00 -0.45593999997E+02  0.45594000000E+02  0.51100000000E-03 0.  1.
         23    2    1    2    0    0  0.00000000000E+00  0.00000000000E+00  0.00000000000E+00  0.91188000000E+02  0.91188000000E+02 0.  0.
    9900012    2    3    3    0    0  0.10421778513E+02  0.54308176164E+01 -0.34895186316E+02  0.54367064714E+02  0.39999955628E+02 0.  0.
         12    1    3    3    0    0 -0.10421778513E+02 -0.54308176164E+01  0.34895186316E+02  0.36820935286E+02  0.00000000000E+00 0. -1.
         11    1    4    4    0    0 -0.70770670119E+01 -0.54702582257E+01 -0.19572769021E+02  0.21519802275E+02  0.51100000000E-03 0. -1.
        -11    1    4    4    0    0  0.12111299705E+02  0.14401711137E+02 -0.31443422108E+01  0.19078253390E+02  0.51100000000E-03 0.  1.
        -12    1    4    4    0    0  0.53875458199E+01 -0.35006352949E+01 -0.12178075084E+02  0.13769009048E+02  0.00000000000E+00 0.  1.
</event>
<event>
 8    1  0.1271559E-006  0.9118800E+02  0.7816164E-02  0.1184000E+00
        -11   -1    0    0    0    0  0.00000000000E+00  0.00000000000E+00  0.45593999997E+02  0.45594000000E+02  0.51100000000E-03 0.  1.
         11   -1    0    0    0    0 -0.00000000000E+00 -0.00000000000E+00 -0.45593999997E+02  0.45594000000E+02  0.51100000000E-03 0. -1.
         23    2    1    2    0    0  0.88817841970E-15 -0.71054273576E-14  0.88817841970E-15  0.91188000000E+02  0.91188000000E+02 0.  0.
    9900012    2    3    3    0    0 -0.58260042905E+01  0.35579067903E+02 -0.74811164701E+01  0.54367088788E+02  0.40000010510E+02 0.  0.
        -12    1    3    3    0    0  0.58260042905E+01 -0.35579067903E+02  0.74811164701E+01  0.36820911212E+02  0.00000000000E+00 0.  1.
         11    1    4    4    0    0  0.12294698979E+02  0.13873480466E+02 -0.37308167878E+01  0.18909047500E+02  0.51100000000E-03 0. -1.
        -11    1    4    4    0    0 -0.13881291818E+02  0.90183148434E+01  0.73149575263E+01  0.18097758674E+02  0.51100000000E-03 0.  1.
        -12    1    4    4    0    0 -0.42394114513E+01  0.12687272594E+02 -0.11065257209E+02  0.17360282614E+02  0.00000000000E+00 0.  1.
</event>
<event>
 8    1  0.1271559E-006  0.9118800E+02  0.7816164E-02  0.1184000E+00
        -11   -1    0    0    0    0  0.00000000000E+00  0.00000000000E+00  0.45593999997E+02  0.45594000000E+02  0.51100000000E-03 0.  1.
         11   -1    0    0    0    0 -0.00000000000E+00 -0.00000000000E+00 -0.45593999997E+02  0.45594000000E+02  0.51100000000E-03 0. -1.
         23    2    1    2    0    0  0.00000000000E+00  0.00000000000E+00 -0.44408920985E-15  0.91188000000E+02  0.91188000000E+02 0.  0.
    9900012    2    3    3    0    0 -0.21802533067E+02  0.29502324229E+02  0.31689403532E+01  0.54367085209E+02  0.40000002351E+02 0.  0.
        -12    1    3    3    0    0  0.21802533067E+02 -0.29502324229E+02 -0.31689403532E+01  0.36820914791E+02  0.00000000000E+00 0.  1.
         11    1    4    4    0    0 -0.24452964486E+02  0.26320166232E+02  0.89086522435E+01  0.37014358129E+02  0.51100000000E-03 0. -1.
        -11    1    4    4    0    0 -0.31666597144E+01  0.75217460500E+01 -0.59376549434E+01  0.10092578653E+02  0.51100000000E-03 0.  1.
         12    1    4    4    0    0  0.58170911334E+01 -0.43395880528E+01  0.19794305310E+00  0.72601484265E+01  0.00000000000E+00 0. -1.
</event>
<event>
 8    1  0.1271559E-006  0.9118800E+02  0.7816164E-02  0.1184000E+00
        -11   -1    0    0    0    0  0.00000000000E+00  0.00000000000E+00  0.45593999997E+02  0.45594000000E+02  0.51100000000E-03 0. -1.
         11   -1    0    0    0    0 -0.00000000000E+00 -0.00000000000E+00 -0.45593999997E+02  0.45594000000E+02  0.51100000000E-03 0.  1.
         23    2    1    2    0    0  0.00000000000E+00 -0.71054273576E-14  0.00000000000E+00  0.91188000000E+02  0.91188000000E+02 0.  0.
    9900012    2    3    3    0    0  0.11963210492E+02 -0.33036209794E+02 -0.11012306960E+02  0.54367075685E+02  0.39999980639E+02 0.  0.
         12    1    3    3    0    0 -0.11963210492E+02  0.33036209794E+02  0.11012306960E+02  0.36820924315E+02  0.00000000000E+00 0. -1.
         11    1    4    4    0    0  0.60865044480E+01  0.70623131243E+01 -0.26065748498E+01  0.96807043014E+01  0.51100000000E-03 0.  1.
        -11    1    4    4    0    0 -0.37253136672E+01 -0.27816277667E+01  0.15282855751E+01  0.48939832459E+01  0.51100000000E-03 0. -1.
        -12    1    4    4    0    0  0.96020197113E+01 -0.37316895152E+02 -0.99340176849E+01  0.39792388137E+02  0.00000000000E+00 0.  1.
</event>
<event>
 8    1  0.1271559E-006  0.9118800E+02  0.7816164E-02  0.1184000E+00
        -11   -1    0    0    0    0  0.00000000000E+00  0.00000000000E+00  0.45593999997E+02  0.45594000000E+02  0.51100000000E-03 0.  1.
         11   -1    0    0    0    0 -0.00000000000E+00 -0.00000000000E+00 -0.45593999997E+02  0.45594000000E+02  0.51100000000E-03 0. -1.
         23    2    1    2    0    0  0.17763568394E-14 -0.35527136788E-14  0.00000000000E+00  0.91188000000E+02  0.91188000000E+02 0.  0.
    9900012    2    3    3    0    0 -0.13349096099E+02 -0.29387000202E+02 -0.17719640532E+02  0.54367084638E+02  0.40000001050E+02 0.  0.
        -12    1    3    3    0    0  0.13349096099E+02  0.29387000202E+02  0.17719640532E+02  0.36820915362E+02  0.00000000000E+00 0.  1.
         11    1    4    4    0    0 -0.40383184992E+01  0.51084393352E+01 -0.79593513750E+01  0.10283746560E+02  0.51100000000E-03 0. -1.
        -11    1    4    4    0    0 -0.68220881065E+01 -0.95959098451E+01 -0.14434096356E+02  0.18627010220E+02  0.51100000000E-03 0.  1.
        -12    1    4    4    0    0 -0.24886894933E+01 -0.24899529692E+02  0.46738071989E+01  0.25456327858E+02  0.00000000000E+00 0.  1.
</event>
<event>
 8    1  0.1271559E-006  0.9118800E+02  0.7816164E-02  0.1184000E+00
        -11   -1    0    0    0    0  0.00000000000E+00  0.00000000000E+00  0.45593999997E+02  0.45594000000E+02  0.51100000000E-03 0.  1.
         11   -1    0    0    0    0 -0.00000000000E+00 -0.00000000000E+00 -0.45593999997E+02  0.45594000000E+02  0.51100000000E-03 0. -1.
         23    2    1    2    0    0  0.35527136788E-14 -0.88817841970E-15  0.00000000000E+00  0.91188000000E+02  0.91188000000E+02 0.  0.
    9900012    2    3    3    0    0 -0.22589435575E+02 -0.70169342811E+01 -0.28218083905E+02  0.54367078969E+02  0.39999988126E+02 0.  0.
        -12    1    3    3    0    0  0.22589435575E+02  0.70169342811E+01  0.28218083905E+02  0.36820921031E+02  0.00000000000E+00 0.  1.
         11    1    4    4    0    0 -0.58613893551E+01 -0.50627197638E+01 -0.43414379038E+01  0.88789132169E+01  0.51100000000E-03 0. -1.
        -11    1    4    4    0    0 -0.22053285602E+02 -0.11648173063E+02 -0.23731468514E+02  0.34426878157E+02  0.51100000000E-03 0.  1.
        -12    1    4    4    0    0  0.53252393822E+01  0.96939585455E+01 -0.14517748664E+00  0.11061287595E+02  0.00000000000E+00 0.  1.
</event>
<event>
 8    1  0.1271559E-006  0.9118800E+02  0.7816164E-02  0.1184000E+00
        -11   -1    0    0    0    0  0.00000000000E+00  0.00000000000E+00  0.45593999997E+02  0.45594000000E+02  0.51100000000E-03 0.  1.
         11   -1    0    0    0    0 -0.00000000000E+00 -0.00000000000E+00 -0.45593999997E+02  0.45594000000E+02  0.51100000000E-03 0. -1.
         23    2    1    2    0    0  0.00000000000E+00 -0.53290705182E-14 -0.71054273576E-14  0.91188000000E+02  0.91188000000E+02 0.  0.
    9900012    2    3    3    0    0 -0.14371451703E+02  0.11867645897E+02  0.31755277850E+02  0.54367118499E+02  0.40000078242E+02 0.  0.
         12    1    3    3    0    0  0.14371451703E+02 -0.11867645897E+02 -0.31755277850E+02  0.36820881501E+02  0.00000000000E+00 0. -1.
         11    1    4    4    0    0 -0.17629950895E+01 -0.98576065186E+01  0.13258707988E+02  0.16615471578E+02  0.51100000000E-03 0. -1.
        -11    1    4    4    0    0 -0.17484588040E+00  0.31948443671E+01  0.14788170623E+02  0.15130353341E+02  0.51100000000E-03 0.  1.
         12    1    4    4    0    0 -0.12433610733E+02  0.18530408049E+02  0.37083992386E+01  0.22621293580E+02  0.00000000000E+00 0. -1.
</event>
<event>
 8    1  0.1271559E-006  0.9118800E+02  0.7816164E-02  0.1184000E+00
        -11   -1    0    0    0    0  0.00000000000E+00  0.00000000000E+00  0.45593999997E+02  0.45594000000E+02  0.51100000000E-03 0.  1.
         11   -1    0    0    0    0 -0.00000000000E+00 -0.00000000000E+00 -0.45593999997E+02  0.45594000000E+02  0.51100000000E-03 0. -1.
         23    2    1    2    0    0  0.00000000000E+00 -0.35527136788E-14  0.00000000000E+00  0.91188000000E+02  0.91188000000E+02 0.  0.
    9900012    2    3    3    0    0 -0.15293292938E+02 -0.27247490357E+02 -0.19479968887E+02  0.54367085732E+02  0.40000003544E+02 0.  0.
        -12    1    3    3    0    0  0.15293292938E+02  0.27247490357E+02  0.19479968887E+02  0.36820914268E+02  0.00000000000E+00 0.  1.
         11    1    4    4    0    0  0.42170864666E+00 -0.18205382839E+02 -0.12766788569E+02  0.22239709825E+02  0.51100000000E-03 0. -1.
        -11    1    4    4    0    0 -0.20087865829E+02 -0.69298318383E+01  0.28128081170E+01  0.21434943728E+02  0.51100000000E-03 0.  1.
         12    1    4    4    0    0  0.43728642440E+01 -0.21122756804E+01 -0.95259884347E+01  0.10692432179E+02  0.00000000000E+00 0. -1.
</event>
<event>
 8    1  0.1271559E-006  0.9118800E+02  0.7816164E-02  0.1184000E+00
        -11   -1    0    0    0    0  0.00000000000E+00  0.00000000000E+00  0.45593999997E+02  0.45594000000E+02  0.51100000000E-03 0.  1.
         11   -1    0    0    0    0 -0.00000000000E+00 -0.00000000000E+00 -0.45593999997E+02  0.45594000000E+02  0.51100000000E-03 0. -1.
         23    2    1    2    0    0 -0.71054273576E-14  0.00000000000E+00  0.00000000000E+00  0.91188000000E+02  0.91188000000E+02 0.  0.
    9900012    2    3    3    0    0  0.30222481425E+02  0.17888138829E+02  0.11063395917E+02  0.54367046407E+02  0.39999913894E+02 0.  0.
        -12    1    3    3    0    0 -0.30222481425E+02 -0.17888138829E+02 -0.11063395917E+02  0.36820953593E+02  0.00000000000E+00 0.  1.
         11    1    4    4    0    0  0.53147362305E+01  0.19276970658E+02  0.10687669247E+02  0.22673206503E+02  0.51100000000E-03 0. -1.
        -11    1    4    4    0    0  0.43280320337E+01  0.65232604032E+01  0.48321767166E+01  0.91997130202E+01  0.51100000000E-03 0.  1.
         12    1    4    4    0    0  0.20579713161E+02 -0.79120922316E+01 -0.44564500459E+01  0.22494126884E+02  0.00000000000E+00 0. -1.
</event>
<event>
 8    1  0.1271559E-006  0.9118800E+02  0.7816164E-02  0.1184000E+00
        -11   -1    0    0    0    0  0.00000000000E+00  0.00000000000E+00  0.45593999997E+02  0.45594000000E+02  0.51100000000E-03 0.  1.
         11   -1    0    0    0    0 -0.00000000000E+00 -0.00000000000E+00 -0.45593999997E+02  0.45594000000E+02  0.51100000000E-03 0. -1.
         23    2    1    2    0    0  0.00000000000E+00  0.00000000000E+00  0.44408920985E-15  0.91188000000E+02  0.91188000000E+02 0.  0.
    9900012    2    3    3    0    0 -0.36148592188E+02  0.63738893275E+01 -0.29036302064E+01  0.54367105786E+02  0.40000049261E+02 0.  0.
         12    1    3    3    0    0  0.36148592188E+02 -0.63738893275E+01  0.29036302064E+01  0.36820894214E+02  0.00000000000E+00 0. -1.
         11    1    4    4    0    0 -0.83382236192E+01 -0.36214949267E+01 -0.14826523193E+02  0.17391578102E+02  0.51100000000E-03 0. -1.
        -11    1    4    4    0    0 -0.17301603440E+02  0.30961264993E+00  0.14348822320E+02  0.22479547233E+02  0.51100000000E-03 0.  1.
        -12    1    4    4    0    0 -0.10508765128E+02  0.96857716043E+01 -0.24259293328E+01  0.14495980451E+02  0.00000000000E+00 0.  1.
</event>
<event>
 8    1  0.1271559E-006  0.9118800E+02  0.7816164E-02  0.1184000E+00
        -11   -1    0    0    0    0  0.00000000000E+00  0.00000000000E+00  0.45593999997E+02  0.45594000000E+02  0.51100000000E-03 0. -1.
         11   -1    0    0    0    0 -0.00000000000E+00 -0.00000000000E+00 -0.45593999997E+02  0.45594000000E+02  0.51100000000E-03 0.  1.
         23    2    1    2    0    0  0.00000000000E+00 -0.35527136788E-14  0.00000000000E+00  0.91188000000E+02  0.91188000000E+02 0.  0.
    9900012    2    3    3    0    0 -0.18322799367E+02 -0.18157769293E+02 -0.26274494315E+02  0.54367100855E+02  0.40000038019E+02 0.  0.
        -12    1    3    3    0    0  0.18322799367E+02  0.18157769293E+02  0.26274494315E+02  0.36820899145E+02  0.00000000000E+00 0.  1.
         11    1    4    4    0    0 -0.40149619388E+01  0.83333506940E+01  0.36339358101E+01  0.99383169043E+01  0.51100000000E-03 0. -1.
        -11    1    4    4    0    0 -0.71651019903E+01 -0.10619594466E+02 -0.43939578140E+01  0.13543313431E+02  0.51100000000E-03 0.  1.
        -12    1    4    4    0    0 -0.71427354379E+01 -0.15871525521E+02 -0.25514472311E+02  0.30885470519E+02  0.00000000000E+00 0.  1.
</event>
<event>
 8    1  0.1271559E-006  0.9118800E+02  0.7816164E-02  0.1184000E+00
        -11   -1    0    0    0    0  0.00000000000E+00  0.00000000000E+00  0.45593999997E+02  0.45594000000E+02  0.51100000000E-03 0.  1.
         11   -1    0    0    0    0 -0.00000000000E+00 -0.00000000000E+00 -0.45593999997E+02  0.45594000000E+02  0.51100000000E-03 0. -1.
         23    2    1    2    0    0 -0.35527136788E-14  0.00000000000E+00 -0.35527136788E-14  0.91188000000E+02  0.91188000000E+02 0.  0.
    9900012    2    3    3    0    0 -0.22717317681E+02 -0.58082367748E+01 -0.28389559958E+02  0.54367092193E+02  0.40000018273E+02 0.  0.
        -12    1    3    3    0    0  0.22717317681E+02  0.58082367748E+01  0.28389559958E+02  0.36820907807E+02  0.00000000000E+00 0.  1.
         11    1    4    4    0    0  0.79877367001E+01 -0.34213464470E+01 -0.59707775049E+01  0.10543231638E+02  0.51100000000E-03 0. -1.
        -11    1    4    4    0    0 -0.11637321009E+02  0.31923938319E+00 -0.21612112690E+02  0.24548168348E+02  0.51100000000E-03 0.  1.
        -12    1    4    4    0    0 -0.19067733373E+02 -0.27061297110E+01 -0.80666976394E+00  0.19275692208E+02  0.00000000000E+00 0.  1.
</event>
<event>
 8    1  0.1271559E-006  0.9118800E+02  0.7816164E-02  0.1184000E+00
        -11   -1    0    0    0    0  0.00000000000E+00  0.00000000000E+00  0.45593999997E+02  0.45594000000E+02  0.51100000000E-03 0.  1.
         11   -1    0    0    0    0 -0.00000000000E+00 -0.00000000000E+00 -0.45593999997E+02  0.45594000000E+02  0.51100000000E-03 0. -1.
         23    2    1    2    0    0  0.00000000000E+00  0.35527136788E-14  0.00000000000E+00  0.91188000000E+02  0.91188000000E+02 0.  0.
    9900012    2    3    3    0    0 -0.24992168977E+02  0.22751864240E+02  0.14612448815E+02  0.54367088863E+02  0.40000010682E+02 0.  0.
        -12    1    3    3    0    0  0.24992168977E+02 -0.22751864240E+02 -0.14612448815E+02  0.36820911137E+02  0.00000000000E+00 0.  1.
         11    1    4    4    0    0 -0.18706430584E+02  0.23599788099E+02  0.29130786936E+01  0.30255025554E+02  0.51100000000E-03 0. -1.
        -11    1    4    4    0    0  0.72864155206E+00 -0.27571730175E+01  0.15602461269E+02  0.15860949514E+02  0.51100000000E-03 0.  1.
        -12    1    4    4    0    0 -0.70143799452E+01  0.19092491579E+01 -0.39030911481E+01  0.82511137959E+01  0.00000000000E+00 0.  1.
</event>
<event>
 8    1  0.1271559E-006  0.9118800E+02  0.7816164E-02  0.1184000E+00
        -11   -1    0    0    0    0  0.00000000000E+00  0.00000000000E+00  0.45593999997E+02  0.45594000000E+02  0.51100000000E-03 0. -1.
         11   -1    0    0    0    0 -0.00000000000E+00 -0.00000000000E+00 -0.45593999997E+02  0.45594000000E+02  0.51100000000E-03 0.  1.
         23    2    1    2    0    0  0.00000000000E+00  0.00000000000E+00  0.35527136788E-14  0.91188000000E+02  0.91188000000E+02 0.  0.
    9900012    2    3    3    0    0  0.11840764446E+02 -0.20126898106E+02 -0.28468968689E+02  0.54367110437E+02  0.40000059862E+02 0.  0.
         12    1    3    3    0    0 -0.11840764446E+02  0.20126898106E+02  0.28468968689E+02  0.36820889563E+02  0.00000000000E+00 0. -1.
         11    1    4    4    0    0  0.13291268133E+02  0.82346472805E+01 -0.41049924616E+01  0.16165339086E+02  0.51100000000E-03 0. -1.
        -11    1    4    4    0    0  0.23261239836E+01 -0.17129281577E+02 -0.17027712689E+02  0.24264503700E+02  0.51100000000E-03 0.  1.
         12    1    4    4    0    0 -0.37766276703E+01 -0.11232263810E+02 -0.73362635381E+01  0.13937267650E+02  0.00000000000E+00 0. -1.
</event>
<event>
 8    1  0.1271559E-006  0.9118800E+02  0.7816164E-02  0.1184000E+00
        -11   -1    0    0    0    0  0.00000000000E+00  0.00000000000E+00  0.45593999997E+02  0.45594000000E+02  0.51100000000E-03 0.  1.
         11   -1    0    0    0    0 -0.00000000000E+00 -0.00000000000E+00 -0.45593999997E+02  0.45594000000E+02  0.51100000000E-03 0. -1.
         23    2    1    2    0    0 -0.33306690739E-15  0.00000000000E+00  0.00000000000E+00  0.91188000000E+02  0.91188000000E+02 0.  0.
    9900012    2    3    3    0    0  0.57089403151E+00  0.35051166124E+01 -0.36649239644E+02  0.54367102008E+02  0.40000040648E+02 0.  0.
        -12    1    3    3    0    0 -0.57089403151E+00 -0.35051166124E+01  0.36649239644E+02  0.36820897992E+02  0.00000000000E+00 0.  1.
         11    1    4    4    0    0  0.78751523844E+01  0.25678826526E+01 -0.42697963287E+02  0.43494000914E+02  0.51100000000E-03 0. -1.
        -11    1    4    4    0    0  0.20716147964E-01 -0.12875211611E+01  0.36489246650E+00  0.13383895816E+01  0.51100000000E-03 0.  1.
         12    1    4    4    0    0 -0.73249745009E+01  0.22247551209E+01  0.56838311763E+01  0.95347115125E+01  0.00000000000E+00 0. -1.
</event>
<event>
 8    1  0.1271559E-006  0.9118800E+02  0.7816164E-02  0.1184000E+00
        -11   -1    0    0    0    0  0.00000000000E+00  0.00000000000E+00  0.45593999997E+02  0.45594000000E+02  0.51100000000E-03 0.  1.
         11   -1    0    0    0    0 -0.00000000000E+00 -0.00000000000E+00 -0.45593999997E+02  0.45594000000E+02  0.51100000000E-03 0. -1.
         23    2    1    2    0    0  0.17763568394E-14  0.88817841970E-15  0.00000000000E+00  0.91188000000E+02  0.91188000000E+02 0.  0.
    9900012    2    3    3    0    0 -0.13253245017E+02 -0.75150000372E+01  0.33520956529E+02  0.54367105719E+02  0.40000049107E+02 0.  0.
        -12    1    3    3    0    0  0.13253245017E+02  0.75150000372E+01 -0.33520956529E+02  0.36820894281E+02  0.00000000000E+00 0.  1.
         11    1    4    4    0    0 -0.14893604977E+02 -0.10305095529E+02  0.79668081462E+01  0.19785967133E+02  0.51100000000E-03 0. -1.
        -11    1    4    4    0    0 -0.46235213688E+01 -0.88544256658E+01  0.12494704458E+02  0.15996732275E+02  0.51100000000E-03 0.  1.
        -12    1    4    4    0    0  0.62638813289E+01  0.11644521158E+02  0.13059443925E+02  0.18584406311E+02  0.00000000000E+00 0.  1.
</event>
<event>
 8    1  0.1271559E-006  0.9118800E+02  0.7816164E-02  0.1184000E+00
        -11   -1    0    0    0    0  0.00000000000E+00  0.00000000000E+00  0.45593999997E+02  0.45594000000E+02  0.51100000000E-03 0. -1.
         11   -1    0    0    0    0 -0.00000000000E+00 -0.00000000000E+00 -0.45593999997E+02  0.45594000000E+02  0.51100000000E-03 0.  1.
         23    2    1    2    0    0  0.00000000000E+00 -0.17763568394E-14  0.00000000000E+00  0.91188000000E+02  0.91188000000E+02 0.  0.
    9900012    2    3    3    0    0 -0.14869998356E+02 -0.47180880971E+01 -0.33352712436E+02  0.54367073434E+02  0.39999975506E+02 0.  0.
         12    1    3    3    0    0  0.14869998356E+02  0.47180880971E+01  0.33352712436E+02  0.36820926566E+02  0.00000000000E+00 0. -1.
         11    1    4    4    0    0 -0.21933719497E+02 -0.19089012460E+01 -0.18170099647E+02  0.28546181468E+02  0.51100000000E-03 0. -1.
        -11    1    4    4    0    0 -0.13673506128E+01 -0.98217954905E+01 -0.70005812186E+01  0.12138593494E+02  0.51100000000E-03 0.  1.
         12    1    4    4    0    0  0.84310717541E+01  0.70126086393E+01 -0.81820315697E+01  0.13682298471E+02  0.00000000000E+00 0. -1.
</event>
<event>
 8    1  0.1271559E-006  0.9118800E+02  0.7816164E-02  0.1184000E+00
        -11   -1    0    0    0    0  0.00000000000E+00  0.00000000000E+00  0.45593999997E+02  0.45594000000E+02  0.51100000000E-03 0. -1.
         11   -1    0    0    0    0 -0.00000000000E+00 -0.00000000000E+00 -0.45593999997E+02  0.45594000000E+02  0.51100000000E-03 0.  1.
         23    2    1    2    0    0  0.00000000000E+00  0.00000000000E+00 -0.35527136788E-14  0.91188000000E+02  0.91188000000E+02 0.  0.
    9900012    2    3    3    0    0 -0.25899421968E+02 -0.18578883307E+02 -0.18434352138E+02  0.54367077932E+02  0.39999985761E+02 0.  0.
         12    1    3    3    0    0  0.25899421968E+02  0.18578883307E+02  0.18434352138E+02  0.36820922068E+02  0.00000000000E+00 0. -1.
         11    1    4    4    0    0 -0.19150637882E+01  0.37260651902E+01  0.95848241455E+01  0.10460396038E+02  0.51100000000E-03 0. -1.
        -11    1    4    4    0    0 -0.18179366534E+02 -0.12025082338E+02 -0.15836591771E+02  0.26942338651E+02  0.51100000000E-03 0.  1.
         12    1    4    4    0    0 -0.58049916462E+01 -0.10279866158E+02 -0.12182584512E+02  0.16964343243E+02  0.00000000000E+00 0. -1.
</event>
<event>
 8    1  0.1271559E-006  0.9118800E+02  0.7816164E-02  0.1184000E+00
        -11   -1    0    0    0    0  0.00000000000E+00  0.00000000000E+00  0.45593999997E+02  0.45594000000E+02  0.51100000000E-03 0.  1.
         11   -1    0    0    0    0 -0.00000000000E+00 -0.00000000000E+00 -0.45593999997E+02  0.45594000000E+02  0.51100000000E-03 0. -1.
         23    2    1    2    0    0  0.22204460493E-15  0.00000000000E+00  0.35527136788E-14  0.91188000000E+02  0.91188000000E+02 0.  0.
    9900012    2    3    3    0    0 -0.14547456231E+01 -0.26217414470E+02 -0.25812958854E+02  0.54367109854E+02  0.40000058535E+02 0.  0.
        -12    1    3    3    0    0  0.14547456231E+01  0.26217414470E+02  0.25812958854E+02  0.36820890146E+02  0.00000000000E+00 0.  1.
         11    1    4    4    0    0 -0.12262184679E+02 -0.27181074237E+02 -0.16251508665E+02  0.33960028032E+02  0.51100000000E-03 0. -1.
        -11    1    4    4    0    0  0.62137206248E+01 -0.41534181403E+01  0.12660315487E+01  0.75805040989E+01  0.51100000000E-03 0.  1.
         12    1    4    4    0    0  0.45937184307E+01  0.51170779068E+01 -0.10827481738E+02  0.12826577724E+02  0.00000000000E+00 0. -1.
</event>
<event>
 8    1  0.1271559E-006  0.9118800E+02  0.7816164E-02  0.1184000E+00
        -11   -1    0    0    0    0  0.00000000000E+00  0.00000000000E+00  0.45593999997E+02  0.45594000000E+02  0.51100000000E-03 0.  1.
         11   -1    0    0    0    0 -0.00000000000E+00 -0.00000000000E+00 -0.45593999997E+02  0.45594000000E+02  0.51100000000E-03 0. -1.
         23    2    1    2    0    0  0.00000000000E+00  0.00000000000E+00 -0.17763568394E-14  0.91188000000E+02  0.91188000000E+02 0.  0.
    9900012    2    3    3    0    0  0.36303052813E+02  0.52220091829E+01  0.32555529144E+01  0.54367086809E+02  0.40000005999E+02 0.  0.
         12    1    3    3    0    0 -0.36303052813E+02 -0.52220091829E+01 -0.32555529144E+01  0.36820913191E+02  0.00000000000E+00 0. -1.
         11    1    4    4    0    0  0.15234732454E+02 -0.37888207735E+01 -0.92317793849E+01  0.18212028626E+02  0.51100000000E-03 0. -1.
        -11    1    4    4    0    0  0.26132342548E+02  0.90472913299E+01  0.13824786557E+02  0.30917269140E+02  0.51100000000E-03 0.  1.
         12    1    4    4    0    0 -0.50640221900E+01 -0.36461373540E-01 -0.13374542573E+01  0.52377890434E+01  0.00000000000E+00 0. -1.
</event>
<event>
 8    1  0.1271559E-006  0.9118800E+02  0.7816164E-02  0.1184000E+00
        -11   -1    0    0    0    0  0.00000000000E+00  0.00000000000E+00  0.45593999997E+02  0.45594000000E+02  0.51100000000E-03 0.  1.
         11   -1    0    0    0    0 -0.00000000000E+00 -0.00000000000E+00 -0.45593999997E+02  0.45594000000E+02  0.51100000000E-03 0. -1.
         23    2    1    2    0    0  0.35527136788E-14  0.00000000000E+00 -0.47184478547E-15  0.91188000000E+02  0.91188000000E+02 0.  0.
    9900012    2    3    3    0    0  0.31437802036E+02  0.19167944624E+02 -0.18588226992E+00  0.54367081350E+02  0.39999993555E+02 0.  0.
        -12    1    3    3    0    0 -0.31437802036E+02 -0.19167944624E+02  0.18588226992E+00  0.36820918650E+02  0.00000000000E+00 0.  1.
         11    1    4    4    0    0  0.30806184962E+01  0.12261310805E+02  0.12804236961E+02  0.17993844431E+02  0.51100000000E-03 0.  1.
        -11    1    4    4    0    0  0.18046613215E+02  0.37094879266E+00  0.65772133052E+00  0.18062404302E+02  0.51100000000E-03 0. -1.
        -12    1    4    4    0    0  0.10310570325E+02  0.65356850261E+01 -0.13647840561E+02  0.18310832618E+02  0.00000000000E+00 0.  1.
</event>
<event>
 8    1  0.1271559E-006  0.9118800E+02  0.7816164E-02  0.1184000E+00
        -11   -1    0    0    0    0  0.00000000000E+00  0.00000000000E+00  0.45593999997E+02  0.45594000000E+02  0.51100000000E-03 0. -1.
         11   -1    0    0    0    0 -0.00000000000E+00 -0.00000000000E+00 -0.45593999997E+02  0.45594000000E+02  0.51100000000E-03 0.  1.
         23    2    1    2    0    0 -0.35527136788E-14 -0.17763568394E-14 -0.35527136788E-14  0.91188000000E+02  0.91188000000E+02 0.  0.
    9900012    2    3    3    0    0 -0.17818306611E+02  0.83535398963E+01  0.31120834592E+02  0.54367081693E+02  0.39999994336E+02 0.  0.
        -12    1    3    3    0    0  0.17818306611E+02 -0.83535398963E+01 -0.31120834592E+02  0.36820918307E+02  0.00000000000E+00 0.  1.
         11    1    4    4    0    0 -0.21059665153E+02 -0.36328946821E+01  0.26882387493E+02  0.34341959434E+02  0.51100000000E-03 0. -1.
        -11    1    4    4    0    0  0.56508848305E+01  0.93107720681E+01 -0.35411747620E+01  0.11452637025E+02  0.51100000000E-03 0.  1.
        -12    1    4    4    0    0 -0.24095262882E+01  0.26756625103E+01  0.77796218606E+01  0.85724852345E+01  0.00000000000E+00 0.  1.
</event>
<event>
 8    1  0.1271559E-006  0.9118800E+02  0.7816164E-02  0.1184000E+00
        -11   -1    0    0    0    0  0.00000000000E+00  0.00000000000E+00  0.45593999997E+02  0.45594000000E+02  0.51100000000E-03 0.  1.
         11   -1    0    0    0    0 -0.00000000000E+00 -0.00000000000E+00 -0.45593999997E+02  0.45594000000E+02  0.51100000000E-03 0. -1.
         23    2    1    2    0    0  0.00000000000E+00 -0.17763568394E-14  0.00000000000E+00  0.91188000000E+02  0.91188000000E+02 0.  0.
    9900012    2    3    3    0    0  0.18856156317E+02 -0.11168578042E+02  0.29588645312E+02  0.54367086134E+02  0.40000004460E+02 0.  0.
         12    1    3    3    0    0 -0.18856156317E+02  0.11168578042E+02 -0.29588645312E+02  0.36820913866E+02  0.00000000000E+00 0. -1.
         11    1    4    4    0    0  0.15767046498E+01 -0.16294134427E+02 -0.27051909044E+01  0.16592253385E+02  0.51100000000E-03 0. -1.
        -11    1    4    4    0    0  0.16084590437E+01  0.32098950912E+01  0.84138004403E+01  0.91478196912E+01  0.51100000000E-03 0.  1.
         12    1    4    4    0    0  0.15670992623E+02  0.19156612941E+01  0.23880035776E+02  0.28627013058E+02  0.00000000000E+00 0. -1.
</event>
<event>
 8    1  0.1271559E-006  0.9118800E+02  0.7816164E-02  0.1184000E+00
        -11   -1    0    0    0    0  0.00000000000E+00  0.00000000000E+00  0.45593999997E+02  0.45594000000E+02  0.51100000000E-03 0. -1.
         11   -1    0    0    0    0 -0.00000000000E+00 -0.00000000000E+00 -0.45593999997E+02  0.45594000000E+02  0.51100000000E-03 0.  1.
         23    2    1    2    0    0 -0.35527136788E-14  0.00000000000E+00  0.35527136788E-14  0.91188000000E+02  0.91188000000E+02 0.  0.
    9900012    2    3    3    0    0  0.19479013251E+02 -0.19769501311E+02 -0.24197433201E+02  0.54367069636E+02  0.39999966850E+02 0.  0.
         12    1    3    3    0    0 -0.19479013251E+02  0.19769501311E+02  0.24197433201E+02  0.36820930364E+02  0.00000000000E+00 0. -1.
         11    1    4    4    0    0  0.88691089591E+01 -0.19165700986E+00 -0.22543003180E+02  0.24225705743E+02  0.51100000000E-03 0. -1.
        -11    1    4    4    0    0  0.11835309359E+02 -0.12811801136E+02 -0.93758100466E+01  0.19802086008E+02  0.51100000000E-03 0.  1.
         12    1    4    4    0    0 -0.12254050676E+01 -0.67660431650E+01  0.77213800252E+01  0.10339277885E+02  0.00000000000E+00 0. -1.
</event>
<event>
 8    1  0.1271559E-006  0.9118800E+02  0.7816164E-02  0.1184000E+00
        -11   -1    0    0    0    0  0.00000000000E+00  0.00000000000E+00  0.45593999997E+02  0.45594000000E+02  0.51100000000E-03 0.  1.
         11   -1    0    0    0    0 -0.00000000000E+00 -0.00000000000E+00 -0.45593999997E+02  0.45594000000E+02  0.51100000000E-03 0. -1.
         23    2    1    2    0    0 -0.35527136788E-14  0.00000000000E+00  0.11102230246E-14  0.91188000000E+02  0.91188000000E+02 0.  0.
    9900012    2    3    3    0    0 -0.11644472752E+02  0.34927444880E+02 -0.50808212690E+00  0.54367105131E+02  0.40000047767E+02 0.  0.
        -12    1    3    3    0    0  0.11644472752E+02 -0.34927444880E+02  0.50808212690E+00  0.36820894869E+02  0.00000000000E+00 0.  1.
         11    1    4    4    0    0 -0.17791295679E+02  0.13355732641E+02  0.89142398986E+01  0.23966006541E+02  0.51100000000E-03 0.  1.
        -11    1    4    4    0    0 -0.70476599305E+00  0.18862507699E+02 -0.12257799041E+02  0.22506544146E+02  0.51100000000E-03 0. -1.
         12    1    4    4    0    0  0.68515889195E+01  0.27092045395E+01  0.28354770154E+01  0.78945544436E+01  0.00000000000E+00 0. -1.
</event>
<event>
 8    1  0.1271559E-006  0.9118800E+02  0.7816164E-02  0.1184000E+00
        -11   -1    0    0    0    0  0.00000000000E+00  0.00000000000E+00  0.45593999997E+02  0.45594000000E+02  0.51100000000E-03 0. -1.
         11   -1    0    0    0    0 -0.00000000000E+00 -0.00000000000E+00 -0.45593999997E+02  0.45594000000E+02  0.51100000000E-03 0.  1.
         23    2    1    2    0    0  0.00000000000E+00  0.00000000000E+00  0.00000000000E+00  0.91188000000E+02  0.91188000000E+02 0.  0.
    9900012    2    3    3    0    0 -0.17229181507E+02 -0.23963138982E+02  0.22015987967E+02  0.54367075902E+02  0.39999981135E+02 0.  0.
        -12    1    3    3    0    0  0.17229181507E+02  0.23963138982E+02 -0.22015987967E+02  0.36820924098E+02  0.00000000000E+00 0.  1.
         11    1    4    4    0    0  0.99335964943E+00 -0.98271547082E+01  0.88991078907E+01  0.13294880765E+02  0.51100000000E-03 0. -1.
        -11    1    4    4    0    0 -0.23884577498E+02 -0.19562800296E+02  0.12115876399E+02  0.33165805567E+02  0.51100000000E-03 0.  1.
         12    1    4    4    0    0  0.56620363421E+01  0.54268160226E+01  0.10010036767E+01  0.79063895707E+01  0.00000000000E+00 0. -1.
</event>
<event>
 8    1  0.1271559E-006  0.9118800E+02  0.7816164E-02  0.1184000E+00
        -11   -1    0    0    0    0  0.00000000000E+00  0.00000000000E+00  0.45593999997E+02  0.45594000000E+02  0.51100000000E-03 0. -1.
         11   -1    0    0    0    0 -0.00000000000E+00 -0.00000000000E+00 -0.45593999997E+02  0.45594000000E+02  0.51100000000E-03 0.  1.
         23    2    1    2    0    0 -0.13322676296E-14  0.00000000000E+00  0.00000000000E+00  0.91188000000E+02  0.91188000000E+02 0.  0.
    9900012    2    3    3    0    0 -0.30941464675E+01  0.15871141643E+02 -0.33080381295E+02  0.54367102319E+02  0.40000041357E+02 0.  0.
         12    1    3    3    0    0  0.30941464675E+01 -0.15871141643E+02  0.33080381295E+02  0.36820897681E+02  0.00000000000E+00 0. -1.
         11    1    4    4    0    0  0.11921853658E+02  0.35623513530E+01 -0.11616524274E+02  0.17022472743E+02  0.51100000000E-03 0. -1.
        -11    1    4    4    0    0 -0.20464044978E+02  0.14067649956E+02 -0.17619939371E+02  0.30448943756E+02  0.51100000000E-03 0.  1.
        -12    1    4    4    0    0  0.54480448526E+01 -0.17588596658E+01 -0.38439176495E+01  0.68956858206E+01  0.00000000000E+00 0.  1.
</event>
<event>
 8    1  0.1271559E-006  0.9118800E+02  0.7816164E-02  0.1184000E+00
        -11   -1    0    0    0    0  0.00000000000E+00  0.00000000000E+00  0.45593999997E+02  0.45594000000E+02  0.51100000000E-03 0. -1.
         11   -1    0    0    0    0 -0.00000000000E+00 -0.00000000000E+00 -0.45593999997E+02  0.45594000000E+02  0.51100000000E-03 0.  1.
         23    2    1    2    0    0  0.00000000000E+00 -0.88817841970E-15  0.00000000000E+00  0.91188000000E+02  0.91188000000E+02 0.  0.
    9900012    2    3    3    0    0 -0.12311016029E+02  0.69282449407E+01 -0.34003212873E+02  0.54367079597E+02  0.39999989558E+02 0.  0.
         12    1    3    3    0    0  0.12311016029E+02 -0.69282449407E+01  0.34003212873E+02  0.36820920403E+02  0.00000000000E+00 0. -1.
         11    1    4    4    0    0 -0.61142664213E+01 -0.10840082683E+02 -0.20011442689E+01  0.12605404598E+02  0.51100000000E-03 0. -1.
        -11    1    4    4    0    0  0.37834300622E+01  0.13443432982E+02 -0.25542591083E+02  0.29111238257E+02  0.51100000000E-03 0.  1.
         12    1    4    4    0    0 -0.99801796700E+01  0.43248946410E+01 -0.64594775212E+01  0.12650436741E+02  0.00000000000E+00 0. -1.
</event>
<event>
 8    1  0.1271559E-006  0.9118800E+02  0.7816164E-02  0.1184000E+00
        -11   -1    0    0    0    0  0.00000000000E+00  0.00000000000E+00  0.45593999997E+02  0.45594000000E+02  0.51100000000E-03 0. -1.
         11   -1    0    0    0    0 -0.00000000000E+00 -0.00000000000E+00 -0.45593999997E+02  0.45594000000E+02  0.51100000000E-03 0.  1.
         23    2    1    2    0    0 -0.88817841970E-15  0.00000000000E+00  0.00000000000E+00  0.91188000000E+02  0.91188000000E+02 0.  0.
    9900012    2    3    3    0    0 -0.62030593573E+01  0.24012474256E+02 -0.27215765764E+02  0.54367153032E+02  0.40000156967E+02 0.  0.
         12    1    3    3    0    0  0.62030593573E+01 -0.24012474256E+02  0.27215765764E+02  0.36820846968E+02  0.00000000000E+00 0. -1.
         11    1    4    4    0    0  0.33591685966E+01  0.24217958988E+02 -0.24658318365E+02  0.34725008510E+02  0.51100000000E-03 0. -1.
        -11    1    4    4    0    0 -0.19261437814E+01 -0.84725833577E+00 -0.92388139375E+01  0.94754187130E+01  0.51100000000E-03 0.  1.
         12    1    4    4    0    0 -0.76360841725E+01  0.64177360407E+00  0.66813665381E+01  0.10166725809E+02  0.00000000000E+00 0. -1.
</event>
<event>
 8    1  0.1271559E-006  0.9118800E+02  0.7816164E-02  0.1184000E+00
        -11   -1    0    0    0    0  0.00000000000E+00  0.00000000000E+00  0.45593999997E+02  0.45594000000E+02  0.51100000000E-03 0.  1.
         11   -1    0    0    0    0 -0.00000000000E+00 -0.00000000000E+00 -0.45593999997E+02  0.45594000000E+02  0.51100000000E-03 0. -1.
         23    2    1    2    0    0 -0.44408920985E-15  0.00000000000E+00  0.35527136788E-14  0.91188000000E+02  0.91188000000E+02 0.  0.
    9900012    2    3    3    0    0 -0.15722324356E+01  0.20498245825E+02 -0.30547169629E+02  0.54367087883E+02  0.40000008448E+02 0.  0.
        -12    1    3    3    0    0  0.15722324356E+01 -0.20498245825E+02  0.30547169629E+02  0.36820912117E+02  0.00000000000E+00 0.  1.
         11    1    4    4    0    0  0.75424550689E+01 -0.86061834671E+01 -0.16635018500E+02  0.20191058989E+02  0.51100000000E-03 0. -1.
        -11    1    4    4    0    0 -0.97950845480E+01  0.26360309608E+02 -0.13852782409E+02  0.31348192686E+02  0.51100000000E-03 0.  1.
         12    1    4    4    0    0  0.68039704349E+00  0.27441196845E+01 -0.59368720150E-01  0.28278362089E+01  0.00000000000E+00 0. -1.
</event>
<event>
 8    1  0.1271559E-006  0.9118800E+02  0.7816164E-02  0.1184000E+00
        -11   -1    0    0    0    0  0.00000000000E+00  0.00000000000E+00  0.45593999997E+02  0.45594000000E+02  0.51100000000E-03 0.  1.
         11   -1    0    0    0    0 -0.00000000000E+00 -0.00000000000E+00 -0.45593999997E+02  0.45594000000E+02  0.51100000000E-03 0. -1.
         23    2    1    2    0    0  0.00000000000E+00  0.00000000000E+00  0.11752751550E-15  0.91188000000E+02  0.91188000000E+02 0.  0.
    9900012    2    3    3    0    0  0.36636143124E+02 -0.36841001942E+01  0.36595415710E-02  0.54367087591E+02  0.40000007781E+02 0.  0.
        -12    1    3    3    0    0 -0.36636143124E+02  0.36841001942E+01 -0.36595415710E-02  0.36820912409E+02  0.00000000000E+00 0.  1.
         11    1    4    4    0    0  0.66038941527E+01  0.89528121087E+00  0.16655603492E+01  0.68692822015E+01  0.51100000000E-03 0. -1.
        -11    1    4    4    0    0 -0.84942132973E+01 -0.12601032459E+01 -0.20425319538E+01  0.88267466699E+01  0.51100000000E-03 0.  1.
        -12    1    4    4    0    0  0.38526462269E+02 -0.33192781591E+01  0.38063114619E+00  0.38671058720E+02  0.00000000000E+00 0.  1.
</event>
<event>
 8    1  0.1271559E-006  0.9118800E+02  0.7816164E-02  0.1184000E+00
        -11   -1    0    0    0    0  0.00000000000E+00  0.00000000000E+00  0.45593999997E+02  0.45594000000E+02  0.51100000000E-03 0.  1.
         11   -1    0    0    0    0 -0.00000000000E+00 -0.00000000000E+00 -0.45593999997E+02  0.45594000000E+02  0.51100000000E-03 0. -1.
         23    2    1    2    0    0 -0.35527136788E-14  0.35527136788E-14  0.35527136788E-14  0.91188000000E+02  0.91188000000E+02 0.  0.
    9900012    2    3    3    0    0  0.20890183081E+02 -0.22690152932E+02 -0.20113116558E+02  0.54367078679E+02  0.39999987466E+02 0.  0.
         12    1    3    3    0    0 -0.20890183081E+02  0.22690152932E+02  0.20113116558E+02  0.36820921321E+02  0.00000000000E+00 0. -1.
         11    1    4    4    0    0  0.89627738515E+01 -0.27098609511E+01 -0.62878697411E+01  0.11278828291E+02  0.51100000000E-03 0. -1.
        -11    1    4    4    0    0  0.22999322476E+02 -0.17697977043E+02 -0.12860700599E+02  0.31742476998E+02  0.51100000000E-03 0.  1.
        -12    1    4    4    0    0 -0.11071913247E+02 -0.22823149372E+01 -0.96454621812E+00  0.11345773390E+02  0.00000000000E+00 0.  1.
</event>
<event>
 8    1  0.1271559E-006  0.9118800E+02  0.7816164E-02  0.1184000E+00
        -11   -1    0    0    0    0  0.00000000000E+00  0.00000000000E+00  0.45593999997E+02  0.45594000000E+02  0.51100000000E-03 0. -1.
         11   -1    0    0    0    0 -0.00000000000E+00 -0.00000000000E+00 -0.45593999997E+02  0.45594000000E+02  0.51100000000E-03 0.  1.
         23    2    1    2    0    0  0.00000000000E+00 -0.17763568394E-14  0.00000000000E+00  0.91188000000E+02  0.91188000000E+02 0.  0.
    9900012    2    3    3    0    0 -0.34851237667E+02 -0.11549559010E+02  0.27891111529E+01  0.54367079027E+02  0.39999988258E+02 0.  0.
        -12    1    3    3    0    0  0.34851237667E+02  0.11549559010E+02 -0.27891111529E+01  0.36820920973E+02  0.00000000000E+00 0.  1.
         11    1    4    4    0    0 -0.17582260221E+02  0.18296783196E+01 -0.67234304112E+01  0.18912644289E+02  0.51100000000E-03 0. -1.
        -11    1    4    4    0    0  0.83721675604E+00 -0.13211201663E+02 -0.28353362162E+01  0.13537943456E+02  0.51100000000E-03 0.  1.
        -12    1    4    4    0    0 -0.18106194202E+02 -0.16803566649E+00  0.12347877780E+02  0.21916491282E+02  0.00000000000E+00 0.  1.
</event>
<event>
 8    1  0.1271559E-006  0.9118800E+02  0.7816164E-02  0.1184000E+00
        -11   -1    0    0    0    0  0.00000000000E+00  0.00000000000E+00  0.45593999997E+02  0.45594000000E+02  0.51100000000E-03 0.  1.
         11   -1    0    0    0    0 -0.00000000000E+00 -0.00000000000E+00 -0.45593999997E+02  0.45594000000E+02  0.51100000000E-03 0. -1.
         23    2    1    2    0    0  0.35527136788E-14  0.00000000000E+00  0.35527136788E-14  0.91188000000E+02  0.91188000000E+02 0.  0.
    9900012    2    3    3    0    0  0.30298188165E+02 -0.37887549234E+01 -0.20577767016E+02  0.54367090651E+02  0.40000014757E+02 0.  0.
        -12    1    3    3    0    0 -0.30298188165E+02  0.37887549234E+01  0.20577767016E+02  0.36820909349E+02  0.00000000000E+00 0.  1.
         11    1    4    4    0    0 -0.24456957073E+01 -0.84812545539E+01 -0.58977501112E+01  0.10615863739E+02  0.51100000000E-03 0.  1.
        -11    1    4    4    0    0  0.17419717372E+02  0.11103801890E+02 -0.17286995066E+02  0.26936613900E+02  0.51100000000E-03 0. -1.
         12    1    4    4    0    0  0.15324166500E+02 -0.64113022595E+01  0.26069781617E+01  0.16814613011E+02  0.00000000000E+00 0. -1.
</event>
<event>
 8    1  0.1271559E-006  0.9118800E+02  0.7816164E-02  0.1184000E+00
        -11   -1    0    0    0    0  0.00000000000E+00  0.00000000000E+00  0.45593999997E+02  0.45594000000E+02  0.51100000000E-03 0.  1.
         11   -1    0    0    0    0 -0.00000000000E+00 -0.00000000000E+00 -0.45593999997E+02  0.45594000000E+02  0.51100000000E-03 0. -1.
         23    2    1    2    0    0  0.88817841970E-15  0.00000000000E+00  0.00000000000E+00  0.91188000000E+02  0.91188000000E+02 0.  0.
    9900012    2    3    3    0    0  0.55095630425E+01 -0.25422106094E+02 -0.26060332489E+02  0.54367086206E+02  0.40000004625E+02 0.  0.
        -12    1    3    3    0    0 -0.55095630425E+01  0.25422106094E+02  0.26060332489E+02  0.36820913794E+02  0.00000000000E+00 0.  1.
         11    1    4    4    0    0  0.12255630022E+02 -0.23467738003E+02 -0.18172280426E+02  0.32111788651E+02  0.51100000000E-03 0. -1.
        -11    1    4    4    0    0 -0.12443537971E+02 -0.48574748613E+01 -0.18956695113E+01  0.13491859117E+02  0.51100000000E-03 0.  1.
        -12    1    4    4    0    0  0.56974709912E+01  0.29031067709E+01 -0.59923825518E+01  0.87634384386E+01  0.00000000000E+00 0.  1.
</event>
<event>
 8    1  0.1271559E-006  0.9118800E+02  0.7816164E-02  0.1184000E+00
        -11   -1    0    0    0    0  0.00000000000E+00  0.00000000000E+00  0.45593999997E+02  0.45594000000E+02  0.51100000000E-03 0.  1.
         11   -1    0    0    0    0 -0.00000000000E+00 -0.00000000000E+00 -0.45593999997E+02  0.45594000000E+02  0.51100000000E-03 0. -1.
         23    2    1    2    0    0 -0.35527136788E-14 -0.35527136788E-14  0.00000000000E+00  0.91188000000E+02  0.91188000000E+02 0.  0.
    9900012    2    3    3    0    0  0.11418236075E+02 -0.22445883314E+02  0.26862348445E+02  0.54367088050E+02  0.40000008829E+02 0.  0.
         12    1    3    3    0    0 -0.11418236075E+02  0.22445883314E+02 -0.26862348445E+02  0.36820911950E+02  0.00000000000E+00 0. -1.
         11    1    4    4    0    0  0.19011901677E+02 -0.13854355785E+02  0.12528854428E+02  0.26652725435E+02  0.51100000000E-03 0. -1.
        -11    1    4    4    0    0 -0.67385375793E+01  0.58351157886E+01  0.31987113639E+01  0.94703864560E+01  0.51100000000E-03 0.  1.
        -12    1    4    4    0    0 -0.85512802314E+00 -0.14426643318E+02  0.11134782653E+02  0.18243976159E+02  0.00000000000E+00 0.  1.
</event>
<event>
 8    1  0.1271559E-006  0.9118800E+02  0.7816164E-02  0.1184000E+00
        -11   -1    0    0    0    0  0.00000000000E+00  0.00000000000E+00  0.45593999997E+02  0.45594000000E+02  0.51100000000E-03 0.  1.
         11   -1    0    0    0    0 -0.00000000000E+00 -0.00000000000E+00 -0.45593999997E+02  0.45594000000E+02  0.51100000000E-03 0. -1.
         23    2    1    2    0    0 -0.17763568394E-14 -0.71054273576E-14  0.00000000000E+00  0.91188000000E+02  0.91188000000E+02 0.  0.
    9900012    2    3    3    0    0  0.12330308973E+02  0.33710358597E+02 -0.82070166067E+01  0.54367083150E+02  0.39999997656E+02 0.  0.
         12    1    3    3    0    0 -0.12330308973E+02 -0.33710358597E+02  0.82070166067E+01  0.36820916850E+02  0.00000000000E+00 0. -1.
         11    1    4    4    0    0  0.13771227871E+02  0.30592176992E+02 -0.16298104827E+02  0.37298206812E+02  0.51100000000E-03 0. -1.
        -11    1    4    4    0    0 -0.14214865749E+01  0.86799418956E+01  0.73413755119E+01  0.11456780091E+02  0.51100000000E-03 0.  1.
        -12    1    4    4    0    0 -0.19432323715E-01 -0.55617602898E+01  0.74971270791E+00  0.56120962466E+01  0.00000000000E+00 0.  1.
</event>
<event>
 8    1  0.1271559E-006  0.9118800E+02  0.7816164E-02  0.1184000E+00
        -11   -1    0    0    0    0  0.00000000000E+00  0.00000000000E+00  0.45593999997E+02  0.45594000000E+02  0.51100000000E-03 0. -1.
         11   -1    0    0    0    0 -0.00000000000E+00 -0.00000000000E+00 -0.45593999997E+02  0.45594000000E+02  0.51100000000E-03 0.  1.
         23    2    1    2    0    0  0.88817841970E-15  0.00000000000E+00 -0.35527136788E-14  0.91188000000E+02  0.91188000000E+02 0.  0.
    9900012    2    3    3    0    0  0.38893002386E+01 -0.18494095358E+02 -0.31600986459E+02  0.54367074365E+02  0.39999977630E+02 0.  0.
         12    1    3    3    0    0 -0.38893002386E+01  0.18494095358E+02  0.31600986459E+02  0.36820925635E+02  0.00000000000E+00 0. -1.
         11    1    4    4    0    0 -0.24051412936E+01 -0.96621522868E+00  0.45542077129E+01  0.52401416644E+01  0.51100000000E-03 0. -1.
        -11    1    4    4    0    0  0.13258272599E+02 -0.64021692291E+00 -0.23211461477E+02  0.26738803529E+02  0.51100000000E-03 0.  1.
        -12    1    4    4    0    0 -0.69638310672E+01 -0.16887663207E+02 -0.12943732695E+02  0.22388129171E+02  0.00000000000E+00 0.  1.
</event>
<event>
 8    1  0.1271559E-006  0.9118800E+02  0.7816164E-02  0.1184000E+00
        -11   -1    0    0    0    0  0.00000000000E+00  0.00000000000E+00  0.45593999997E+02  0.45594000000E+02  0.51100000000E-03 0. -1.
         11   -1    0    0    0    0 -0.00000000000E+00 -0.00000000000E+00 -0.45593999997E+02  0.45594000000E+02  0.51100000000E-03 0.  1.
         23    2    1    2    0    0 -0.19984014443E-14  0.00000000000E+00  0.00000000000E+00  0.91188000000E+02  0.91188000000E+02 0.  0.
    9900012    2    3    3    0    0  0.99537931173E+00 -0.64249447518E+01  0.36242360735E+02  0.54367090088E+02  0.40000013475E+02 0.  0.
        -12    1    3    3    0    0 -0.99537931173E+00  0.64249447518E+01 -0.36242360735E+02  0.36820909912E+02  0.00000000000E+00 0.  1.
         11    1    4    4    0    0 -0.74650896906E+01 -0.10241095162E+01  0.16384617302E+02  0.18034191105E+02  0.51100000000E-03 0.  1.
        -11    1    4    4    0    0  0.85757014289E+01 -0.70178680406E+01 -0.44717441317E+01  0.11949461188E+02  0.51100000000E-03 0. -1.
         12    1    4    4    0    0 -0.11523242660E+00  0.16170328050E+01  0.24329487565E+02  0.24383437796E+02  0.00000000000E+00 0. -1.
</event>
<event>
 8    1  0.1271559E-006  0.9118800E+02  0.7816164E-02  0.1184000E+00
        -11   -1    0    0    0    0  0.00000000000E+00  0.00000000000E+00  0.45593999997E+02  0.45594000000E+02  0.51100000000E-03 0.  1.
         11   -1    0    0    0    0 -0.00000000000E+00 -0.00000000000E+00 -0.45593999997E+02  0.45594000000E+02  0.51100000000E-03 0. -1.
         23    2    1    2    0    0  0.00000000000E+00  0.94368957093E-15  0.00000000000E+00  0.91188000000E+02  0.91188000000E+02 0.  0.
    9900012    2    3    3    0    0  0.57757515364E+01  0.45660465826E+00 -0.36362225931E+02  0.54367091969E+02  0.40000017761E+02 0.  0.
        -12    1    3    3    0    0 -0.57757515364E+01 -0.45660465826E+00  0.36362225931E+02  0.36820908031E+02  0.00000000000E+00 0.  1.
         11    1    4    4    0    0 -0.44128791273E+01 -0.10790939539E+02 -0.25330834674E+02  0.27884925387E+02  0.51100000000E-03 0. -1.
        -11    1    4    4    0    0 -0.52578290592E+01  0.65479531382E+00 -0.17576936622E+01  0.55823839522E+01  0.51100000000E-03 0.  1.
        -12    1    4    4    0    0  0.15446459723E+02  0.10592748883E+02 -0.92736975947E+01  0.20899782629E+02  0.00000000000E+00 0.  1.
</event>
<event>
 8    1  0.1271559E-006  0.9118800E+02  0.7816164E-02  0.1184000E+00
        -11   -1    0    0    0    0  0.00000000000E+00  0.00000000000E+00  0.45593999997E+02  0.45594000000E+02  0.51100000000E-03 0. -1.
         11   -1    0    0    0    0 -0.00000000000E+00 -0.00000000000E+00 -0.45593999997E+02  0.45594000000E+02  0.51100000000E-03 0.  1.
         23    2    1    2    0    0 -0.71054273576E-14 -0.17763568394E-14  0.17763568394E-14  0.91188000000E+02  0.91188000000E+02 0.  0.
    9900012    2    3    3    0    0 -0.33054986577E+02 -0.11804669823E+02  0.11126362721E+02  0.54367104918E+02  0.40000047281E+02 0.  0.
         12    1    3    3    0    0  0.33054986577E+02  0.11804669823E+02 -0.11126362721E+02  0.36820895082E+02  0.00000000000E+00 0. -1.
         11    1    4    4    0    0 -0.35781476707E+01  0.11365933916E+01  0.53179741358E+01  0.65096723774E+01  0.51100000000E-03 0. -1.
        -11    1    4    4    0    0  0.20417412805E+01 -0.15520251950E+02  0.41269683275E+01  0.16188847887E+02  0.51100000000E-03 0.  1.
         12    1    4    4    0    0 -0.31518580187E+02  0.25789887354E+01  0.16814202576E+01  0.31668584654E+02  0.00000000000E+00 0. -1.
</event>
<event>
 8    1  0.1271559E-006  0.9118800E+02  0.7816164E-02  0.1184000E+00
        -11   -1    0    0    0    0  0.00000000000E+00  0.00000000000E+00  0.45593999997E+02  0.45594000000E+02  0.51100000000E-03 0. -1.
         11   -1    0    0    0    0 -0.00000000000E+00 -0.00000000000E+00 -0.45593999997E+02  0.45594000000E+02  0.51100000000E-03 0.  1.
         23    2    1    2    0    0 -0.35527136788E-14 -0.17763568394E-14  0.00000000000E+00  0.91188000000E+02  0.91188000000E+02 0.  0.
    9900012    2    3    3    0    0  0.27596501307E+02  0.63017059600E+01 -0.23547899340E+02  0.54367055611E+02  0.39999934875E+02 0.  0.
         12    1    3    3    0    0 -0.27596501307E+02 -0.63017059600E+01  0.23547899340E+02  0.36820944389E+02  0.00000000000E+00 0. -1.
         11    1    4    4    0    0 -0.12032607069E+01 -0.79472392453E+01 -0.14912915059E+02  0.16941118138E+02  0.51100000000E-03 0.  1.
        -11    1    4    4    0    0  0.28791997835E+02  0.82749581897E+01 -0.94128269111E+01  0.31401518803E+02  0.51100000000E-03 0. -1.
         12    1    4    4    0    0  0.77641787733E-02  0.59739870157E+01  0.77784263073E+00  0.60244186694E+01  0.00000000000E+00 0. -1.
</event>
<event>
 8    1  0.1271559E-006  0.9118800E+02  0.7816164E-02  0.1184000E+00
        -11   -1    0    0    0    0  0.00000000000E+00  0.00000000000E+00  0.45593999997E+02  0.45594000000E+02  0.51100000000E-03 0. -1.
         11   -1    0    0    0    0 -0.00000000000E+00 -0.00000000000E+00 -0.45593999997E+02  0.45594000000E+02  0.51100000000E-03 0.  1.
         23    2    1    2    0    0  0.00000000000E+00 -0.17763568394E-14  0.00000000000E+00  0.91188000000E+02  0.91188000000E+02 0.  0.
    9900012    2    3    3    0    0  0.16665189924E+02  0.48082662033E+01  0.32479733916E+02  0.54367067172E+02  0.39999961232E+02 0.  0.
        -12    1    3    3    0    0 -0.16665189924E+02 -0.48082662033E+01 -0.32479733916E+02  0.36820932828E+02  0.00000000000E+00 0.  1.
         11    1    4    4    0    0 -0.31997466754E+01 -0.44868962014E+01  0.10576498698E+02  0.11926145282E+02  0.51100000000E-03 0. -1.
        -11    1    4    4    0    0  0.17537017465E+02 -0.72133276050E+01  0.74403478902E+01  0.20370023410E+02  0.51100000000E-03 0.  1.
        -12    1    4    4    0    0  0.23279191341E+01  0.16508490010E+02  0.14462887327E+02  0.22070898481E+02  0.00000000000E+00 0.  1.
</event>
<event>
 8    1  0.1271559E-006  0.9118800E+02  0.7816164E-02  0.1184000E+00
        -11   -1    0    0    0    0  0.00000000000E+00  0.00000000000E+00  0.45593999997E+02  0.45594000000E+02  0.51100000000E-03 0.  1.
         11   -1    0    0    0    0 -0.00000000000E+00 -0.00000000000E+00 -0.45593999997E+02  0.45594000000E+02  0.51100000000E-03 0. -1.
         23    2    1    2    0    0  0.22204460493E-15  0.00000000000E+00  0.88817841970E-15  0.91188000000E+02  0.91188000000E+02 0.  0.
    9900012    2    3    3    0    0  0.16293809056E+01 -0.36251373299E+02  0.62420018412E+01  0.54367088344E+02  0.40000009499E+02 0.  0.
         12    1    3    3    0    0 -0.16293809056E+01  0.36251373299E+02 -0.62420018412E+01  0.36820911656E+02  0.00000000000E+00 0. -1.
         11    1    4    4    0    0  0.56898317881E+01  0.21702856051E+01  0.11379244236E+02  0.12906259141E+02  0.51100000000E-03 0. -1.
        -11    1    4    4    0    0  0.20253664170E+01 -0.44324744494E+01  0.33371603053E+01  0.59064014453E+01  0.51100000000E-03 0.  1.
        -12    1    4    4    0    0 -0.60858172995E+01 -0.33989184454E+02 -0.84744026998E+01  0.35554427758E+02  0.00000000000E+00 0.  1.
</event>
<event>
 8    1  0.1271559E-006  0.9118800E+02  0.7816164E-02  0.1184000E+00
        -11   -1    0    0    0    0  0.00000000000E+00  0.00000000000E+00  0.45593999997E+02  0.45594000000E+02  0.51100000000E-03 0.  1.
         11   -1    0    0    0    0 -0.00000000000E+00 -0.00000000000E+00 -0.45593999997E+02  0.45594000000E+02  0.51100000000E-03 0. -1.
         23    2    1    2    0    0  0.00000000000E+00  0.00000000000E+00  0.26645352591E-14  0.91188000000E+02  0.91188000000E+02 0.  0.
    9900012    2    3    3    0    0 -0.18786067846E+02 -0.31219344058E+02 -0.53119826636E+01  0.54367069155E+02  0.39999965752E+02 0.  0.
        -12    1    3    3    0    0  0.18786067846E+02  0.31219344058E+02  0.53119826636E+01  0.36820930845E+02  0.00000000000E+00 0.  1.
         11    1    4    4    0    0 -0.20196372540E+01 -0.16717433975E+02 -0.76740357607E+01  0.18505198147E+02  0.51100000000E-03 0. -1.
        -11    1    4    4    0    0 -0.10506108272E+02 -0.68459650472E+00  0.13443834465E+02  0.17075821174E+02  0.51100000000E-03 0.  1.
        -12    1    4    4    0    0 -0.62603223196E+01 -0.13817313578E+02 -0.11081781368E+02  0.18786049833E+02  0.00000000000E+00 0.  1.
</event>
<event>
 8    1  0.1271559E-006  0.9118800E+02  0.7816164E-02  0.1184000E+00
        -11   -1    0    0    0    0  0.00000000000E+00  0.00000000000E+00  0.45593999997E+02  0.45594000000E+02  0.51100000000E-03 0. -1.
         11   -1    0    0    0    0 -0.00000000000E+00 -0.00000000000E+00 -0.45593999997E+02  0.45594000000E+02  0.51100000000E-03 0.  1.
         23    2    1    2    0    0  0.00000000000E+00  0.00000000000E+00 -0.35527136788E-14  0.91188000000E+02  0.91188000000E+02 0.  0.
    9900012    2    3    3    0    0  0.24125141823E+02  0.21980162253E+02 -0.17047820910E+02  0.54367106496E+02  0.40000050879E+02 0.  0.
         12    1    3    3    0    0 -0.24125141823E+02 -0.21980162253E+02  0.17047820910E+02  0.36820893504E+02  0.00000000000E+00 0. -1.
         11    1    4    4    0    0  0.10904811325E+02  0.80725746917E+01 -0.96031350904E+01  0.16622321619E+02  0.51100000000E-03 0. -1.
        -11    1    4    4    0    0  0.11526096621E+02  0.10598117658E+02 -0.19569555701E+02  0.25062691631E+02  0.51100000000E-03 0.  1.
         12    1    4    4    0    0  0.16942338771E+01  0.33094699031E+01  0.12124869881E+02  0.12682093246E+02  0.00000000000E+00 0. -1.
</event>
<event>
 8    1  0.1271559E-006  0.9118800E+02  0.7816164E-02  0.1184000E+00
        -11   -1    0    0    0    0  0.00000000000E+00  0.00000000000E+00  0.45593999997E+02  0.45594000000E+02  0.51100000000E-03 0. -1.
         11   -1    0    0    0    0 -0.00000000000E+00 -0.00000000000E+00 -0.45593999997E+02  0.45594000000E+02  0.51100000000E-03 0.  1.
         23    2    1    2    0    0 -0.17763568394E-14  0.00000000000E+00  0.00000000000E+00  0.91188000000E+02  0.91188000000E+02 0.  0.
    9900012    2    3    3    0    0  0.49496361483E+01 -0.12539628833E+02 -0.34264184765E+02  0.54367142503E+02  0.40000132963E+02 0.  0.
         12    1    3    3    0    0 -0.49496361483E+01  0.12539628833E+02  0.34264184765E+02  0.36820857497E+02  0.00000000000E+00 0. -1.
         11    1    4    4    0    0  0.61840871508E+01 -0.25938326981E+01  0.11422489825E+01  0.68026197125E+01  0.51100000000E-03 0. -1.
        -11    1    4    4    0    0  0.10713753529E+02 -0.13744593778E+02 -0.28065612764E+02  0.33035995413E+02  0.51100000000E-03 0.  1.
        -12    1    4    4    0    0 -0.11948204531E+02  0.37987976434E+01 -0.73408209828E+01  0.14528527377E+02  0.00000000000E+00 0.  1.
</event>
<event>
 8    1  0.1271559E-006  0.9118800E+02  0.7816164E-02  0.1184000E+00
        -11   -1    0    0    0    0  0.00000000000E+00  0.00000000000E+00  0.45593999997E+02  0.45594000000E+02  0.51100000000E-03 0. -1.
         11   -1    0    0    0    0 -0.00000000000E+00 -0.00000000000E+00 -0.45593999997E+02  0.45594000000E+02  0.51100000000E-03 0.  1.
         23    2    1    2    0    0  0.00000000000E+00  0.00000000000E+00  0.00000000000E+00  0.91188000000E+02  0.91188000000E+02 0.  0.
    9900012    2    3    3    0    0  0.22437089541E+02  0.27695938624E+02  0.92355510703E+01  0.54367035768E+02  0.39999889641E+02 0.  0.
        -12    1    3    3    0    0 -0.22437089541E+02 -0.27695938624E+02 -0.92355510703E+01  0.36820964232E+02  0.00000000000E+00 0.  1.
         11    1    4    4    0    0  0.12656407224E+02  0.60990747569E+01  0.14483450816E+02  0.20178050067E+02  0.51100000000E-03 0. -1.
        -11    1    4    4    0    0  0.17432116242E+02  0.14155574076E+02 -0.66606113932E+01  0.23422696226E+02  0.51100000000E-03 0.  1.
         12    1    4    4    0    0 -0.76514339250E+01  0.74412897913E+01  0.14127116474E+01  0.10766289475E+02  0.00000000000E+00 0. -1.
</event>
<event>
 8    1  0.1271559E-006  0.9118800E+02  0.7816164E-02  0.1184000E+00
        -11   -1    0    0    0    0  0.00000000000E+00  0.00000000000E+00  0.45593999997E+02  0.45594000000E+02  0.51100000000E-03 0.  1.
         11   -1    0    0    0    0 -0.00000000000E+00 -0.00000000000E+00 -0.45593999997E+02  0.45594000000E+02  0.51100000000E-03 0. -1.
         23    2    1    2    0    0 -0.35527136788E-14 -0.35527136788E-14  0.00000000000E+00  0.91188000000E+02  0.91188000000E+02 0.  0.
    9900012    2    3    3    0    0  0.19894155558E+02 -0.28204008947E+02  0.12827208025E+02  0.54367071009E+02  0.39999969980E+02 0.  0.
        -12    1    3    3    0    0 -0.19894155558E+02  0.28204008947E+02 -0.12827208025E+02  0.36820928991E+02  0.00000000000E+00 0.  1.
         11    1    4    4    0    0  0.18278535794E+01 -0.10666227322E+02 -0.11840958020E+00  0.10822359959E+02  0.51100000000E-03 0. -1.
        -11    1    4    4    0    0  0.18161022416E+02 -0.25588716038E+02  0.15632387907E+02  0.35056763621E+02  0.51100000000E-03 0.  1.
         12    1    4    4    0    0 -0.94720438109E-01  0.80509344136E+01 -0.26867703017E+01  0.84879474284E+01  0.00000000000E+00 0. -1.
</event>
<event>
 8    1  0.1271559E-006  0.9118800E+02  0.7816164E-02  0.1184000E+00
        -11   -1    0    0    0    0  0.00000000000E+00  0.00000000000E+00  0.45593999997E+02  0.45594000000E+02  0.51100000000E-03 0. -1.
         11   -1    0    0    0    0 -0.00000000000E+00 -0.00000000000E+00 -0.45593999997E+02  0.45594000000E+02  0.51100000000E-03 0.  1.
         23    2    1    2    0    0  0.00000000000E+00  0.22204460493E-15  0.00000000000E+00  0.91188000000E+02  0.91188000000E+02 0.  0.
    9900012    2    3    3    0    0  0.13295570466E+02  0.74879327450E+00  0.34328489062E+02  0.54367108557E+02  0.40000055578E+02 0.  0.
        -12    1    3    3    0    0 -0.13295570466E+02 -0.74879327450E+00 -0.34328489062E+02  0.36820891443E+02  0.00000000000E+00 0.  1.
         11    1    4    4    0    0  0.15914509928E+02  0.16817611623E+01  0.21009351790E+02  0.26410089166E+02  0.51100000000E-03 0. -1.
        -11    1    4    4    0    0 -0.99003547761E+01 -0.47822519021E+01  0.15895202241E+02  0.19327297082E+02  0.51100000000E-03 0.  1.
         12    1    4    4    0    0  0.72814153144E+01  0.38492840143E+01 -0.25760649699E+01  0.86297223091E+01  0.00000000000E+00 0. -1.
</event>
<event>
 8    1  0.1271559E-006  0.9118800E+02  0.7816164E-02  0.1184000E+00
        -11   -1    0    0    0    0  0.00000000000E+00  0.00000000000E+00  0.45593999997E+02  0.45594000000E+02  0.51100000000E-03 0.  1.
         11   -1    0    0    0    0 -0.00000000000E+00 -0.00000000000E+00 -0.45593999997E+02  0.45594000000E+02  0.51100000000E-03 0. -1.
         23    2    1    2    0    0 -0.71054273576E-14  0.00000000000E+00  0.00000000000E+00  0.91188000000E+02  0.91188000000E+02 0.  0.
    9900012    2    3    3    0    0 -0.32780462927E+02  0.75195669049E+01 -0.14989266339E+02  0.54367071962E+02  0.39999972152E+02 0.  0.
        -12    1    3    3    0    0  0.32780462927E+02 -0.75195669049E+01  0.14989266339E+02  0.36820928038E+02  0.00000000000E+00 0.  1.
         11    1    4    4    0    0 -0.11394516533E+02  0.56493454922E+01 -0.17111177495E+02  0.21320002510E+02  0.51100000000E-03 0. -1.
        -11    1    4    4    0    0  0.19959399904E+01  0.90366082746E+00 -0.74483707950E+01  0.77639298746E+01  0.51100000000E-03 0.  1.
        -12    1    4    4    0    0 -0.23381886385E+02  0.96656058516E+00  0.95702819506E+01  0.25283139577E+02  0.00000000000E+00 0.  1.
</event>
<event>
 8    1  0.1271559E-006  0.9118800E+02  0.7816164E-02  0.1184000E+00
        -11   -1    0    0    0    0  0.00000000000E+00  0.00000000000E+00  0.45593999997E+02  0.45594000000E+02  0.51100000000E-03 0.  1.
         11   -1    0    0    0    0 -0.00000000000E+00 -0.00000000000E+00 -0.45593999997E+02  0.45594000000E+02  0.51100000000E-03 0. -1.
         23    2    1    2    0    0  0.00000000000E+00  0.00000000000E+00  0.00000000000E+00  0.91188000000E+02  0.91188000000E+02 0.  0.
    9900012    2    3    3    0    0  0.18710674815E+02 -0.29633419901E+02 -0.11293843613E+02  0.54367084332E+02  0.40000000352E+02 0.  0.
        -12    1    3    3    0    0 -0.18710674815E+02  0.29633419901E+02  0.11293843613E+02  0.36820915668E+02  0.00000000000E+00 0.  1.
         11    1    4    4    0    0 -0.35509787659E+01 -0.15849967022E+02 -0.43183851596E+01  0.16807122164E+02  0.51100000000E-03 0. -1.
        -11    1    4    4    0    0  0.27897428422E+02 -0.14103037755E+02 -0.57629096293E+01  0.31786369942E+02  0.51100000000E-03 0.  1.
        -12    1    4    4    0    0 -0.56357748405E+01  0.31958487551E+00 -0.12125488238E+01  0.57735922263E+01  0.00000000000E+00 0.  1.
</event>
<event>
 8    1  0.1271559E-006  0.9118800E+02  0.7816164E-02  0.1184000E+00
        -11   -1    0    0    0    0  0.00000000000E+00  0.00000000000E+00  0.45593999997E+02  0.45594000000E+02  0.51100000000E-03 0.  1.
         11   -1    0    0    0    0 -0.00000000000E+00 -0.00000000000E+00 -0.45593999997E+02  0.45594000000E+02  0.51100000000E-03 0. -1.
         23    2    1    2    0    0  0.00000000000E+00 -0.17763568394E-14  0.00000000000E+00  0.91188000000E+02  0.91188000000E+02 0.  0.
    9900012    2    3    3    0    0  0.87830992245E+01 -0.15576745923E+02  0.32186991331E+02  0.54367078549E+02  0.39999987169E+02 0.  0.
         12    1    3    3    0    0 -0.87830992245E+01  0.15576745923E+02 -0.32186991331E+02  0.36820921451E+02  0.00000000000E+00 0. -1.
         11    1    4    4    0    0  0.10341336600E+02 -0.43641545169E+01 -0.33482359157E+01  0.11713230611E+02  0.51100000000E-03 0. -1.
        -11    1    4    4    0    0  0.87662597682E+01 -0.81983953983E+01  0.13060007131E+02  0.17737665685E+02  0.51100000000E-03 0.  1.
        -12    1    4    4    0    0 -0.10324497144E+02 -0.30141960079E+01  0.22475220115E+02  0.24916182253E+02  0.00000000000E+00 0.  1.
</event>
<event>
 8    1  0.1271559E-006  0.9118800E+02  0.7816164E-02  0.1184000E+00
        -11   -1    0    0    0    0  0.00000000000E+00  0.00000000000E+00  0.45593999997E+02  0.45594000000E+02  0.51100000000E-03 0.  1.
         11   -1    0    0    0    0 -0.00000000000E+00 -0.00000000000E+00 -0.45593999997E+02  0.45594000000E+02  0.51100000000E-03 0. -1.
         23    2    1    2    0    0  0.17763568394E-14  0.00000000000E+00  0.33306690739E-15  0.91188000000E+02  0.91188000000E+02 0.  0.
    9900012    2    3    3    0    0  0.87932980165E+01  0.35743630056E+02 -0.92229749231E+00  0.54367084582E+02  0.40000000921E+02 0.  0.
         12    1    3    3    0    0 -0.87932980165E+01 -0.35743630056E+02  0.92229749231E+00  0.36820915418E+02  0.00000000000E+00 0. -1.
         11    1    4    4    0    0 -0.67124519220E+01 -0.13866042820E+01  0.32900897935E+01  0.76029187389E+01  0.51100000000E-03 0. -1.
        -11    1    4    4    0    0  0.11510305175E+02  0.14668424608E+02  0.86715039873E+01  0.20563190107E+02  0.51100000000E-03 0.  1.
         12    1    4    4    0    0  0.39954447634E+01  0.22461809730E+02 -0.12883891273E+02  0.26200975736E+02  0.00000000000E+00 0. -1.
</event>
<event>
 8    1  0.1271559E-006  0.9118800E+02  0.7816164E-02  0.1184000E+00
        -11   -1    0    0    0    0  0.00000000000E+00  0.00000000000E+00  0.45593999997E+02  0.45594000000E+02  0.51100000000E-03 0. -1.
         11   -1    0    0    0    0 -0.00000000000E+00 -0.00000000000E+00 -0.45593999997E+02  0.45594000000E+02  0.51100000000E-03 0.  1.
         23    2    1    2    0    0 -0.35527136788E-14  0.00000000000E+00  0.00000000000E+00  0.91188000000E+02  0.91188000000E+02 0.  0.
    9900012    2    3    3    0    0  0.22175406638E+02  0.27992095319E+02  0.89707078437E+01  0.54367086661E+02  0.40000005661E+02 0.  0.
        -12    1    3    3    0    0 -0.22175406638E+02 -0.27992095319E+02 -0.89707078437E+01  0.36820913339E+02  0.00000000000E+00 0.  1.
         11    1    4    4    0    0 -0.70864248337E+01  0.18301489413E+02  0.23719297973E+01  0.19768358123E+02  0.51100000000E-03 0. -1.
        -11    1    4    4    0    0  0.38053548202E+01  0.27901299492E+01  0.67346760918E+01  0.82232239884E+01  0.51100000000E-03 0.  1.
        -12    1    4    4    0    0  0.25456476652E+02  0.69004759568E+01 -0.13589804542E+00  0.26375504549E+02  0.00000000000E+00 0.  1.
</event>
<event>
 8    1  0.1271559E-006  0.9118800E+02  0.7816164E-02  0.1184000E+00
        -11   -1    0    0    0    0  0.00000000000E+00  0.00000000000E+00  0.45593999997E+02  0.45594000000E+02  0.51100000000E-03 0. -1.
         11   -1    0    0    0    0 -0.00000000000E+00 -0.00000000000E+00 -0.45593999997E+02  0.45594000000E+02  0.51100000000E-03 0.  1.
         23    2    1    2    0    0  0.71054273576E-14  0.53290705182E-14 -0.22204460493E-15  0.91188000000E+02  0.91188000000E+02 0.  0.
    9900012    2    3    3    0    0 -0.35733614565E+02 -0.88150155115E+01 -0.10887781756E+01  0.54367066466E+02  0.39999959624E+02 0.  0.
         12    1    3    3    0    0  0.35733614565E+02  0.88150155115E+01  0.10887781756E+01  0.36820933534E+02  0.00000000000E+00 0. -1.
         11    1    4    4    0    0 -0.54946602847E+01  0.29895812602E+01 -0.53707723688E+01  0.82446397043E+01  0.51100000000E-03 0. -1.
        -11    1    4    4    0    0 -0.48588628677E+01  0.10798960769E+02  0.24109032656E+01  0.12084641363E+02  0.51100000000E-03 0.  1.
        -12    1    4    4    0    0 -0.25380091413E+02 -0.22603557541E+02  0.18710909276E+01  0.34037785399E+02  0.00000000000E+00 0.  1.
</event>
<event>
 8    1  0.1271559E-006  0.9118800E+02  0.7816164E-02  0.1184000E+00
        -11   -1    0    0    0    0  0.00000000000E+00  0.00000000000E+00  0.45593999997E+02  0.45594000000E+02  0.51100000000E-03 0. -1.
         11   -1    0    0    0    0 -0.00000000000E+00 -0.00000000000E+00 -0.45593999997E+02  0.45594000000E+02  0.51100000000E-03 0.  1.
         23    2    1    2    0    0  0.00000000000E+00  0.00000000000E+00  0.00000000000E+00  0.91188000000E+02  0.91188000000E+02 0.  0.
    9900012    2    3    3    0    0  0.17267574595E+02  0.18345962909E+02  0.26852153486E+02  0.54367059839E+02  0.39999944515E+02 0.  0.
         12    1    3    3    0    0 -0.17267574595E+02 -0.18345962909E+02 -0.26852153486E+02  0.36820940161E+02  0.00000000000E+00 0. -1.
         11    1    4    4    0    0 -0.88864236483E+01  0.44885133094E+01  0.82930841157E+01  0.12957257480E+02  0.51100000000E-03 0. -1.
        -11    1    4    4    0    0  0.50058376415E+01  0.98488701232E+01  0.16403948624E+02  0.19777466570E+02  0.51100000000E-03 0.  1.
        -12    1    4    4    0    0  0.21148160602E+02  0.40085794769E+01  0.21551207464E+01  0.21632335789E+02  0.00000000000E+00 0.  1.
</event>
<event>
 8    1  0.1271559E-006  0.9118800E+02  0.7816164E-02  0.1184000E+00
        -11   -1    0    0    0    0  0.00000000000E+00  0.00000000000E+00  0.45593999997E+02  0.45594000000E+02  0.51100000000E-03 0.  1.
         11   -1    0    0    0    0 -0.00000000000E+00 -0.00000000000E+00 -0.45593999997E+02  0.45594000000E+02  0.51100000000E-03 0. -1.
         23    2    1    2    0    0  0.35527136788E-14  0.35527136788E-14 -0.88817841970E-15  0.91188000000E+02  0.91188000000E+02 0.  0.
    9900012    2    3    3    0    0  0.25302262816E+02  0.25787424096E+02 -0.71122635498E+01  0.54367081517E+02  0.39999993935E+02 0.  0.
         12    1    3    3    0    0 -0.25302262816E+02 -0.25787424096E+02  0.71122635498E+01  0.36820918483E+02  0.00000000000E+00 0. -1.
         11    1    4    4    0    0  0.33861269921E+01 -0.38086783168E+01 -0.45668696346E+01  0.68431122341E+01  0.51100000000E-03 0. -1.
        -11    1    4    4    0    0  0.26570078776E+02  0.16554109664E+02  0.50818541119E+01  0.31714868349E+02  0.51100000000E-03 0.  1.
         12    1    4    4    0    0 -0.46539429524E+01  0.13041992749E+02 -0.76272480270E+01  0.15809100934E+02  0.00000000000E+00 0. -1.
</event>
<event>
 8    1  0.1271559E-006  0.9118800E+02  0.7816164E-02  0.1184000E+00
        -11   -1    0    0    0    0  0.00000000000E+00  0.00000000000E+00  0.45593999997E+02  0.45594000000E+02  0.51100000000E-03 0.  1.
         11   -1    0    0    0    0 -0.00000000000E+00 -0.00000000000E+00 -0.45593999997E+02  0.45594000000E+02  0.51100000000E-03 0. -1.
         23    2    1    2    0    0  0.00000000000E+00  0.00000000000E+00  0.00000000000E+00  0.91188000000E+02  0.91188000000E+02 0.  0.
    9900012    2    3    3    0    0 -0.12011762216E+02 -0.83112964484E+01 -0.33799708074E+02  0.54367077332E+02  0.39999984394E+02 0.  0.
        -12    1    3    3    0    0  0.12011762216E+02  0.83112964484E+01  0.33799708074E+02  0.36820922668E+02  0.00000000000E+00 0.  1.
         11    1    4    4    0    0 -0.32175467358E+01  0.78977809983E+01 -0.60905011116E+01  0.10479587575E+02  0.51100000000E-03 0. -1.
        -11    1    4    4    0    0 -0.14525265002E+02 -0.34755388358E+01 -0.26046103160E+01  0.15160695523E+02  0.51100000000E-03 0.  1.
        -12    1    4    4    0    0  0.57310495218E+01 -0.12733538611E+02 -0.25104596647E+02  0.28726794234E+02  0.00000000000E+00 0.  1.
</event>
<event>
 8    1  0.1271559E-006  0.9118800E+02  0.7816164E-02  0.1184000E+00
        -11   -1    0    0    0    0  0.00000000000E+00  0.00000000000E+00  0.45593999997E+02  0.45594000000E+02  0.51100000000E-03 0. -1.
         11   -1    0    0    0    0 -0.00000000000E+00 -0.00000000000E+00 -0.45593999997E+02  0.45594000000E+02  0.51100000000E-03 0.  1.
         23    2    1    2    0    0 -0.35527136788E-14  0.00000000000E+00 -0.44408920985E-15  0.91188000000E+02  0.91188000000E+02 0.  0.
    9900012    2    3    3    0    0  0.27267362930E+02 -0.24625098005E+02  0.24237965372E+01  0.54367091231E+02  0.40000016080E+02 0.  0.
         12    1    3    3    0    0 -0.27267362930E+02  0.24625098005E+02 -0.24237965372E+01  0.36820908769E+02  0.00000000000E+00 0. -1.
         11    1    4    4    0    0 -0.49441691297E+01  0.13644280310E+01 -0.45447533485E+01  0.68528282843E+01  0.51100000000E-03 0. -1.
        -11    1    4    4    0    0  0.43659595908E+01 -0.83822177150E+01 -0.69684148058E+01  0.11742315876E+02  0.51100000000E-03 0.  1.
         12    1    4    4    0    0  0.27845572469E+02 -0.17607308321E+02  0.13936964691E+02  0.35771947071E+02  0.00000000000E+00 0. -1.
</event>
<event>
 8    1  0.1271559E-006  0.9118800E+02  0.7816164E-02  0.1184000E+00
        -11   -1    0    0    0    0  0.00000000000E+00  0.00000000000E+00  0.45593999997E+02  0.45594000000E+02  0.51100000000E-03 0. -1.
         11   -1    0    0    0    0 -0.00000000000E+00 -0.00000000000E+00 -0.45593999997E+02  0.45594000000E+02  0.51100000000E-03 0.  1.
         23    2    1    2    0    0  0.35527136788E-14 -0.35527136788E-14  0.00000000000E+00  0.91188000000E+02  0.91188000000E+02 0.  0.
    9900012    2    3    3    0    0  0.22646563737E+02 -0.22358058821E+02  0.18521003863E+02  0.54367119682E+02  0.40000080938E+02 0.  0.
        -12    1    3    3    0    0 -0.22646563737E+02  0.22358058821E+02 -0.18521003863E+02  0.36820880318E+02  0.00000000000E+00 0.  1.
         11    1    4    4    0    0  0.16818552405E+02 -0.30864506007E+02  0.12983536712E+02  0.37470704049E+02  0.51100000000E-03 0. -1.
        -11    1    4    4    0    0 -0.26017800905E+01  0.52647840777E+01  0.52232381315E+01  0.78593528909E+01  0.51100000000E-03 0.  1.
        -12    1    4    4    0    0  0.84297914222E+01  0.32416631088E+01  0.31422901964E+00  0.90370627423E+01  0.00000000000E+00 0.  1.
</event>
<event>
 8    1  0.1271559E-006  0.9118800E+02  0.7816164E-02  0.1184000E+00
        -11   -1    0    0    0    0  0.00000000000E+00  0.00000000000E+00  0.45593999997E+02  0.45594000000E+02  0.51100000000E-03 0.  1.
         11   -1    0    0    0    0 -0.00000000000E+00 -0.00000000000E+00 -0.45593999997E+02  0.45594000000E+02  0.51100000000E-03 0. -1.
         23    2    1    2    0    0  0.00000000000E+00  0.00000000000E+00  0.35527136788E-14  0.91188000000E+02  0.91188000000E+02 0.  0.
    9900012    2    3    3    0    0 -0.39496024087E+01 -0.24931334780E+02  0.26806877639E+02  0.54367088797E+02  0.40000010531E+02 0.  0.
         12    1    3    3    0    0  0.39496024087E+01  0.24931334780E+02 -0.26806877639E+02  0.36820911203E+02  0.00000000000E+00 0. -1.
         11    1    4    4    0    0 -0.96575492438E+00  0.25601537598E+01 -0.30750998371E+01  0.41162251053E+01  0.51100000000E-03 0. -1.
        -11    1    4    4    0    0 -0.82202584674E+01  0.97205900669E+00  0.16299548372E+02  0.18280941589E+02  0.51100000000E-03 0.  1.
        -12    1    4    4    0    0  0.52364109831E+01 -0.28463547546E+02  0.13582429104E+02  0.31969922103E+02  0.00000000000E+00 0.  1.
</event>
<event>
 8    1  0.1271559E-006  0.9118800E+02  0.7816164E-02  0.1184000E+00
        -11   -1    0    0    0    0  0.00000000000E+00  0.00000000000E+00  0.45593999997E+02  0.45594000000E+02  0.51100000000E-03 0.  1.
         11   -1    0    0    0    0 -0.00000000000E+00 -0.00000000000E+00 -0.45593999997E+02  0.45594000000E+02  0.51100000000E-03 0. -1.
         23    2    1    2    0    0  0.17763568394E-14 -0.35527136788E-14 -0.17763568394E-14  0.91188000000E+02  0.91188000000E+02 0.  0.
    9900012    2    3    3    0    0 -0.15243572489E+02  0.30857204367E+02 -0.13085795818E+02  0.54367195883E+02  0.40000254654E+02 0.  0.
        -12    1    3    3    0    0  0.15243572489E+02 -0.30857204367E+02  0.13085795818E+02  0.36820804117E+02  0.00000000000E+00 0.  1.
         11    1    4    4    0    0  0.87227131725E+01  0.53573111802E+01 -0.12993107950E+02  0.16541081060E+02  0.51100000000E-03 0. -1.
        -11    1    4    4    0    0 -0.79704203042E+01  0.83712334555E+01 -0.68488254920E+01  0.13435459065E+02  0.51100000000E-03 0.  1.
        -12    1    4    4    0    0 -0.15995865358E+02  0.17128659732E+02  0.67561376237E+01  0.24390655759E+02  0.00000000000E+00 0.  1.
</event>
<event>
 8    1  0.1271559E-006  0.9118800E+02  0.7816164E-02  0.1184000E+00
        -11   -1    0    0    0    0  0.00000000000E+00  0.00000000000E+00  0.45593999997E+02  0.45594000000E+02  0.51100000000E-03 0.  1.
         11   -1    0    0    0    0 -0.00000000000E+00 -0.00000000000E+00 -0.45593999997E+02  0.45594000000E+02  0.51100000000E-03 0. -1.
         23    2    1    2    0    0 -0.71054273576E-14  0.00000000000E+00  0.35527136788E-14  0.91188000000E+02  0.91188000000E+02 0.  0.
    9900012    2    3    3    0    0  0.28374833987E+02 -0.88991666976E+01 -0.21712998307E+02  0.54367072972E+02  0.39999974455E+02 0.  0.
        -12    1    3    3    0    0 -0.28374833987E+02  0.88991666976E+01  0.21712998307E+02  0.36820927028E+02  0.00000000000E+00 0.  1.
         11    1    4    4    0    0  0.20323211920E+02 -0.65226189395E+00 -0.94456577138E+01  0.22420500401E+02  0.51100000000E-03 0. -1.
        -11    1    4    4    0    0  0.63517213818E+01 -0.17451668235E+01  0.81341041153E+01  0.10466786602E+02  0.51100000000E-03 0.  1.
        -12    1    4    4    0    0  0.16999006856E+01 -0.65017379801E+01 -0.20401444709E+02  0.21479785970E+02  0.00000000000E+00 0.  1.
</event>
<event>
 8    1  0.1271559E-006  0.9118800E+02  0.7816164E-02  0.1184000E+00
        -11   -1    0    0    0    0  0.00000000000E+00  0.00000000000E+00  0.45593999997E+02  0.45594000000E+02  0.51100000000E-03 0.  1.
         11   -1    0    0    0    0 -0.00000000000E+00 -0.00000000000E+00 -0.45593999997E+02  0.45594000000E+02  0.51100000000E-03 0. -1.
         23    2    1    2    0    0 -0.35527136788E-14  0.00000000000E+00  0.00000000000E+00  0.91188000000E+02  0.91188000000E+02 0.  0.
    9900012    2    3    3    0    0  0.85759588759E+01  0.63986225607E+01  0.35231941550E+02  0.54367093620E+02  0.40000021525E+02 0.  0.
         12    1    3    3    0    0 -0.85759588759E+01 -0.63986225607E+01 -0.35231941550E+02  0.36820906380E+02  0.00000000000E+00 0. -1.
         11    1    4    4    0    0 -0.24537197800E+01 -0.27512930502E+01  0.38043635039E+01  0.52975028210E+01  0.51100000000E-03 0. -1.
        -11    1    4    4    0    0 -0.76562266923E+01  0.11664763969E+00 -0.35169940599E+01  0.84261890149E+01  0.51100000000E-03 0.  1.
        -12    1    4    4    0    0  0.18685905348E+02  0.90332679712E+01  0.34944572106E+02  0.40643401784E+02  0.00000000000E+00 0.  1.
</event>
<event>
 8    1  0.1271559E-006  0.9118800E+02  0.7816164E-02  0.1184000E+00
        -11   -1    0    0    0    0  0.00000000000E+00  0.00000000000E+00  0.45593999997E+02  0.45594000000E+02  0.51100000000E-03 0. -1.
         11   -1    0    0    0    0 -0.00000000000E+00 -0.00000000000E+00 -0.45593999997E+02  0.45594000000E+02  0.51100000000E-03 0.  1.
         23    2    1    2    0    0  0.17763568394E-14 -0.35527136788E-14  0.35527136788E-14  0.91188000000E+02  0.91188000000E+02 0.  0.
    9900012    2    3    3    0    0  0.98384183357E+01 -0.18737631080E+02  0.30131156287E+02  0.54367083756E+02  0.39999999039E+02 0.  0.
        -12    1    3    3    0    0 -0.98384183357E+01  0.18737631080E+02 -0.30131156287E+02  0.36820916244E+02  0.00000000000E+00 0.  1.
         11    1    4    4    0    0  0.60550708962E+01 -0.16963671444E+00  0.98233766840E+00  0.61365827404E+01  0.51100000000E-03 0. -1.
        -11    1    4    4    0    0  0.13034230665E+02  0.43247475070E+01  0.10219971623E+02  0.17118482125E+02  0.51100000000E-03 0.  1.
         12    1    4    4    0    0 -0.92508832255E+01 -0.22892741873E+02  0.18928846995E+02  0.31112018891E+02  0.00000000000E+00 0. -1.
</event>
<event>
 8    1  0.1271559E-006  0.9118800E+02  0.7816164E-02  0.1184000E+00
        -11   -1    0    0    0    0  0.00000000000E+00  0.00000000000E+00  0.45593999997E+02  0.45594000000E+02  0.51100000000E-03 0.  1.
         11   -1    0    0    0    0 -0.00000000000E+00 -0.00000000000E+00 -0.45593999997E+02  0.45594000000E+02  0.51100000000E-03 0. -1.
         23    2    1    2    0    0  0.35527136788E-14  0.35527136788E-14  0.00000000000E+00  0.91188000000E+02  0.91188000000E+02 0.  0.
    9900012    2    3    3    0    0  0.19162584819E+02 -0.30399310180E+02  0.80284646668E+01  0.54367096138E+02  0.40000027265E+02 0.  0.
         12    1    3    3    0    0 -0.19162584819E+02  0.30399310180E+02 -0.80284646668E+01  0.36820903862E+02  0.00000000000E+00 0. -1.
         11    1    4    4    0    0  0.57921516786E+00 -0.71743582084E+01 -0.38775171539E+01  0.81756984688E+01  0.51100000000E-03 0. -1.
        -11    1    4    4    0    0  0.21579402212E+02 -0.60648959033E+01  0.16897219977E+02  0.28070796308E+02  0.51100000000E-03 0.  1.
        -12    1    4    4    0    0 -0.29960325607E+01 -0.17160056068E+02 -0.49912381562E+01  0.18120601361E+02  0.00000000000E+00 0.  1.
</event>
<event>
 8    1  0.1271559E-006  0.9118800E+02  0.7816164E-02  0.1184000E+00
        -11   -1    0    0    0    0  0.00000000000E+00  0.00000000000E+00  0.45593999997E+02  0.45594000000E+02  0.51100000000E-03 0.  1.
         11   -1    0    0    0    0 -0.00000000000E+00 -0.00000000000E+00 -0.45593999997E+02  0.45594000000E+02  0.51100000000E-03 0. -1.
         23    2    1    2    0    0  0.00000000000E+00  0.00000000000E+00  0.00000000000E+00  0.91188000000E+02  0.91188000000E+02 0.  0.
    9900012    2    3    3    0    0 -0.35160778188E+02 -0.69546078738E+01  0.84340753505E+01  0.54367074965E+02  0.39999978997E+02 0.  0.
         12    1    3    3    0    0  0.35160778188E+02  0.69546078738E+01 -0.84340753505E+01  0.36820925035E+02  0.00000000000E+00 0. -1.
         11    1    4    4    0    0  0.49759811057E+01  0.21968206150E+01  0.14354748535E+01  0.56255663799E+01  0.51100000000E-03 0. -1.
        -11    1    4    4    0    0 -0.42362555910E+02 -0.12528915558E+02  0.67472587099E+01  0.44688761100E+02  0.51100000000E-03 0.  1.
        -12    1    4    4    0    0  0.22257966172E+01  0.33774870688E+01  0.25134178714E+00  0.40527474847E+01  0.00000000000E+00 0.  1.
</event>
<event>
 8    1  0.1271559E-006  0.9118800E+02  0.7816164E-02  0.1184000E+00
        -11   -1    0    0    0    0  0.00000000000E+00  0.00000000000E+00  0.45593999997E+02  0.45594000000E+02  0.51100000000E-03 0. -1.
         11   -1    0    0    0    0 -0.00000000000E+00 -0.00000000000E+00 -0.45593999997E+02  0.45594000000E+02  0.51100000000E-03 0.  1.
         23    2    1    2    0    0 -0.44408920985E-15  0.00000000000E+00  0.88817841970E-15  0.91188000000E+02  0.91188000000E+02 0.  0.
    9900012    2    3    3    0    0 -0.16546508249E+01 -0.36284750858E+02  0.60386831903E+01  0.54366990931E+02  0.39999787426E+02 0.  0.
        -12    1    3    3    0    0  0.16546508249E+01  0.36284750858E+02 -0.60386831903E+01  0.36821009069E+02  0.00000000000E+00 0.  1.
         11    1    4    4    0    0 -0.88708843343E+01 -0.20917726853E+02  0.12449712755E+02  0.25908285036E+02  0.51100000000E-03 0. -1.
        -11    1    4    4    0    0 -0.23736370713E+01  0.30833313839E+01 -0.66027625861E+01  0.76640432801E+01  0.51100000000E-03 0.  1.
         12    1    4    4    0    0  0.95898705807E+01 -0.18450355389E+02  0.19173302103E+00  0.20794662615E+02  0.00000000000E+00 0. -1.
</event>
<event>
 8    1  0.1271559E-006  0.9118800E+02  0.7816164E-02  0.1184000E+00
        -11   -1    0    0    0    0  0.00000000000E+00  0.00000000000E+00  0.45593999997E+02  0.45594000000E+02  0.51100000000E-03 0.  1.
         11   -1    0    0    0    0 -0.00000000000E+00 -0.00000000000E+00 -0.45593999997E+02  0.45594000000E+02  0.51100000000E-03 0. -1.
         23    2    1    2    0    0 -0.71054273576E-14  0.00000000000E+00 -0.88817841970E-15  0.91188000000E+02  0.91188000000E+02 0.  0.
    9900012    2    3    3    0    0  0.36160245252E+02  0.46396241741E+01  0.51662837158E+01  0.54367082893E+02  0.39999997071E+02 0.  0.
        -12    1    3    3    0    0 -0.36160245252E+02 -0.46396241741E+01 -0.51662837158E+01  0.36820917107E+02  0.00000000000E+00 0.  1.
         11    1    4    4    0    0  0.41024894641E+01 -0.51540824068E+01 -0.18889682474E+01  0.68529691784E+01  0.51100000000E-03 0. -1.
        -11    1    4    4    0    0  0.62439930997E+01 -0.10699895149E+02 -0.35554504136E+01  0.12888616448E+02  0.51100000000E-03 0.  1.
        -12    1    4    4    0    0  0.25813762688E+02  0.20493601730E+02  0.10610702377E+02  0.34625497266E+02  0.00000000000E+00 0.  1.
</event>
<event>
 8    1  0.1271559E-006  0.9118800E+02  0.7816164E-02  0.1184000E+00
        -11   -1    0    0    0    0  0.00000000000E+00  0.00000000000E+00  0.45593999997E+02  0.45594000000E+02  0.51100000000E-03 0.  1.
         11   -1    0    0    0    0 -0.00000000000E+00 -0.00000000000E+00 -0.45593999997E+02  0.45594000000E+02  0.51100000000E-03 0. -1.
         23    2    1    2    0    0  0.00000000000E+00  0.00000000000E+00  0.00000000000E+00  0.91188000000E+02  0.91188000000E+02 0.  0.
    9900012    2    3    3    0    0 -0.28294106504E+02  0.11498033133E+02 -0.20567417393E+02  0.54367083566E+02  0.39999998606E+02 0.  0.
         12    1    3    3    0    0  0.28294106504E+02 -0.11498033133E+02  0.20567417393E+02  0.36820916434E+02  0.00000000000E+00 0. -1.
         11    1    4    4    0    0 -0.25629230310E+01  0.43230216066E+01  0.25982319938E+01  0.56575524769E+01  0.51100000000E-03 0. -1.
        -11    1    4    4    0    0 -0.29218428941E+02  0.14826842816E+02 -0.12363293947E+02  0.35020035625E+02  0.51100000000E-03 0.  1.
        -12    1    4    4    0    0  0.34872454676E+01 -0.76518312901E+01 -0.10802355440E+02  0.13689495465E+02  0.00000000000E+00 0.  1.
</event>
<event>
 8    1  0.1271559E-006  0.9118800E+02  0.7816164E-02  0.1184000E+00
        -11   -1    0    0    0    0  0.00000000000E+00  0.00000000000E+00  0.45593999997E+02  0.45594000000E+02  0.51100000000E-03 0.  1.
         11   -1    0    0    0    0 -0.00000000000E+00 -0.00000000000E+00 -0.45593999997E+02  0.45594000000E+02  0.51100000000E-03 0. -1.
         23    2    1    2    0    0  0.00000000000E+00  0.00000000000E+00  0.00000000000E+00  0.91188000000E+02  0.91188000000E+02 0.  0.
    9900012    2    3    3    0    0  0.45955007225E+01 -0.15145544597E+02 -0.33245703657E+02  0.54367041842E+02  0.39999903486E+02 0.  0.
        -12    1    3    3    0    0 -0.45955007225E+01  0.15145544597E+02  0.33245703657E+02  0.36820958158E+02  0.00000000000E+00 0.  1.
         11    1    4    4    0    0 -0.29341183212E+01 -0.49861504151E+01 -0.26476062330E+01  0.63624339140E+01  0.51100000000E-03 0. -1.
        -11    1    4    4    0    0  0.20990508321E+02 -0.34778365272E+01 -0.22366108389E+02  0.30869719649E+02  0.51100000000E-03 0.  1.
        -12    1    4    4    0    0 -0.13460889277E+02 -0.66815576545E+01 -0.82319890352E+01  0.17134888278E+02  0.00000000000E+00 0.  1.
</event>
<event>
 8    1  0.1271559E-006  0.9118800E+02  0.7816164E-02  0.1184000E+00
        -11   -1    0    0    0    0  0.00000000000E+00  0.00000000000E+00  0.45593999997E+02  0.45594000000E+02  0.51100000000E-03 0.  1.
         11   -1    0    0    0    0 -0.00000000000E+00 -0.00000000000E+00 -0.45593999997E+02  0.45594000000E+02  0.51100000000E-03 0. -1.
         23    2    1    2    0    0  0.35527136788E-14  0.22204460493E-15 -0.35527136788E-14  0.91188000000E+02  0.91188000000E+02 0.  0.
    9900012    2    3    3    0    0  0.29302140978E+02  0.19858213991E+01 -0.22208519311E+02  0.54367118934E+02  0.40000079233E+02 0.  0.
        -12    1    3    3    0    0 -0.29302140978E+02 -0.19858213991E+01  0.22208519311E+02  0.36820881066E+02  0.00000000000E+00 0.  1.
         11    1    4    4    0    0  0.27006961587E+02 -0.61056786896E+01 -0.26504314242E+02  0.38329283324E+02  0.51100000000E-03 0. -1.
        -11    1    4    4    0    0  0.12717392266E+01  0.11113908583E+02  0.56960535490E+01  0.12553139486E+02  0.51100000000E-03 0.  1.
        -12    1    4    4    0    0  0.10234401651E+01 -0.30224084946E+01 -0.14002586173E+01  0.34846961238E+01  0.00000000000E+00 0.  1.
</event>
<event>
 8    1  0.1271559E-006  0.9118800E+02  0.7816164E-02  0.1184000E+00
        -11   -1    0    0    0    0  0.00000000000E+00  0.00000000000E+00  0.45593999997E+02  0.45594000000E+02  0.51100000000E-03 0.  1.
         11   -1    0    0    0    0 -0.00000000000E+00 -0.00000000000E+00 -0.45593999997E+02  0.45594000000E+02  0.51100000000E-03 0. -1.
         23    2    1    2    0    0 -0.35527136788E-14  0.00000000000E+00  0.00000000000E+00  0.91188000000E+02  0.91188000000E+02 0.  0.
    9900012    2    3    3    0    0  0.31015851540E+02 -0.83079020765E+00 -0.19826919182E+02  0.54367082258E+02  0.39999995623E+02 0.  0.
        -12    1    3    3    0    0 -0.31015851540E+02  0.83079020765E+00  0.19826919182E+02  0.36820917742E+02  0.00000000000E+00 0.  1.
         11    1    4    4    0    0  0.33304054615E+02 -0.14114437057E+00 -0.26866274786E+02  0.42789913492E+02  0.51100000000E-03 0. -1.
        -11    1    4    4    0    0  0.18650043426E+01  0.95203284656E+00  0.67886379110E+01  0.71042390646E+01  0.51100000000E-03 0.  1.
         12    1    4    4    0    0 -0.41532074170E+01 -0.16416786836E+01  0.25071769276E+00  0.44729297011E+01  0.00000000000E+00 0. -1.
</event>
<event>
 8    1  0.1271559E-006  0.9118800E+02  0.7816164E-02  0.1184000E+00
        -11   -1    0    0    0    0  0.00000000000E+00  0.00000000000E+00  0.45593999997E+02  0.45594000000E+02  0.51100000000E-03 0.  1.
         11   -1    0    0    0    0 -0.00000000000E+00 -0.00000000000E+00 -0.45593999997E+02  0.45594000000E+02  0.51100000000E-03 0. -1.
         23    2    1    2    0    0  0.00000000000E+00  0.00000000000E+00  0.00000000000E+00  0.91188000000E+02  0.91188000000E+02 0.  0.
    9900012    2    3    3    0    0 -0.25328115938E+02  0.52421710206E+01 -0.26206389871E+02  0.54367235694E+02  0.40000345410E+02 0.  0.
        -12    1    3    3    0    0  0.25328115938E+02 -0.52421710206E+01  0.26206389871E+02  0.36820764306E+02  0.00000000000E+00 0.  1.
         11    1    4    4    0    0 -0.13173316028E+02  0.51229255315E+01 -0.27172576432E+02  0.30628900264E+02  0.51100000000E-03 0. -1.
        -11    1    4    4    0    0 -0.14416549063E+02 -0.71248276731E+01 -0.53904110816E-01  0.16081136843E+02  0.51100000000E-03 0.  1.
         12    1    4    4    0    0  0.22617491530E+01  0.72440731621E+01  0.10200906715E+01  0.76571985861E+01  0.00000000000E+00 0. -1.
</event>
<event>
 8    1  0.1271559E-006  0.9118800E+02  0.7816164E-02  0.1184000E+00
        -11   -1    0    0    0    0  0.00000000000E+00  0.00000000000E+00  0.45593999997E+02  0.45594000000E+02  0.51100000000E-03 0. -1.
         11   -1    0    0    0    0 -0.00000000000E+00 -0.00000000000E+00 -0.45593999997E+02  0.45594000000E+02  0.51100000000E-03 0.  1.
         23    2    1    2    0    0 -0.35527136788E-14  0.35527136788E-14  0.17763568394E-14  0.91188000000E+02  0.91188000000E+02 0.  0.
    9900012    2    3    3    0    0  0.31170295921E+02 -0.19119731606E+02 -0.43163448222E+01  0.54367050568E+02  0.39999923380E+02 0.  0.
         12    1    3    3    0    0 -0.31170295921E+02  0.19119731606E+02  0.43163448222E+01  0.36820949432E+02  0.00000000000E+00 0. -1.
         11    1    4    4    0    0 -0.77545902345E+00  0.48150958723E+01 -0.37849932694E+01  0.61735451134E+01  0.51100000000E-03 0. -1.
        -11    1    4    4    0    0  0.28137728050E+02 -0.14975661252E+02 -0.11167922926E+02  0.33774615801E+02  0.51100000000E-03 0.  1.
         12    1    4    4    0    0  0.38080268940E+01 -0.89591662258E+01  0.10636571373E+02  0.14418889654E+02  0.00000000000E+00 0. -1.
</event>
<event>
 8    1  0.1271559E-006  0.9118800E+02  0.7816164E-02  0.1184000E+00
        -11   -1    0    0    0    0  0.00000000000E+00  0.00000000000E+00  0.45593999997E+02  0.45594000000E+02  0.51100000000E-03 0.  1.
         11   -1    0    0    0    0 -0.00000000000E+00 -0.00000000000E+00 -0.45593999997E+02  0.45594000000E+02  0.51100000000E-03 0. -1.
         23    2    1    2    0    0  0.00000000000E+00 -0.35527136788E-14  0.17763568394E-14  0.91188000000E+02  0.91188000000E+02 0.  0.
    9900012    2    3    3    0    0 -0.18544057981E+02  0.31724778513E+02  0.23314536419E+01  0.54367091073E+02  0.40000015719E+02 0.  0.
         12    1    3    3    0    0  0.18544057981E+02 -0.31724778513E+02 -0.23314536419E+01  0.36820908927E+02  0.00000000000E+00 0. -1.
         11    1    4    4    0    0  0.68997812120E+01  0.16029550198E+02 -0.11410329499E+02  0.20850637397E+02  0.51100000000E-03 0. -1.
        -11    1    4    4    0    0 -0.55344695602E+01  0.53493353047E+01  0.11352739126E+01  0.77803977169E+01  0.51100000000E-03 0.  1.
         12    1    4    4    0    0 -0.19909369633E+02  0.10345893011E+02  0.12606509229E+02  0.25736055959E+02  0.00000000000E+00 0. -1.
</event>
<event>
 8    1  0.1271559E-006  0.9118800E+02  0.7816164E-02  0.1184000E+00
        -11   -1    0    0    0    0  0.00000000000E+00  0.00000000000E+00  0.45593999997E+02  0.45594000000E+02  0.51100000000E-03 0.  1.
         11   -1    0    0    0    0 -0.00000000000E+00 -0.00000000000E+00 -0.45593999997E+02  0.45594000000E+02  0.51100000000E-03 0. -1.
         23    2    1    2    0    0  0.88817841970E-15  0.35527136788E-14  0.00000000000E+00  0.91188000000E+02  0.91188000000E+02 0.  0.
    9900012    2    3    3    0    0  0.72423539979E+01 -0.31178262785E+02 -0.18199775877E+02  0.54367250365E+02  0.40000378855E+02 0.  0.
         12    1    3    3    0    0 -0.72423539979E+01  0.31178262785E+02  0.18199775877E+02  0.36820749635E+02  0.00000000000E+00 0. -1.
         11    1    4    4    0    0 -0.66020374692E+01 -0.60845133164E+01  0.10277995292E+01  0.90368453111E+01  0.51100000000E-03 0.  1.
        -11    1    4    4    0    0  0.17277633891E+02 -0.26928702808E+01 -0.13115281655E+02  0.21858151714E+02  0.51100000000E-03 0. -1.
        -12    1    4    4    0    0 -0.34332424237E+01 -0.22400879188E+02 -0.61122937514E+01  0.23472253339E+02  0.00000000000E+00 0.  1.
</event>
<event>
 8    1  0.1271559E-006  0.9118800E+02  0.7816164E-02  0.1184000E+00
        -11   -1    0    0    0    0  0.00000000000E+00  0.00000000000E+00  0.45593999997E+02  0.45594000000E+02  0.51100000000E-03 0.  1.
         11   -1    0    0    0    0 -0.00000000000E+00 -0.00000000000E+00 -0.45593999997E+02  0.45594000000E+02  0.51100000000E-03 0. -1.
         23    2    1    2    0    0  0.00000000000E+00 -0.22204460493E-15  0.00000000000E+00  0.91188000000E+02  0.91188000000E+02 0.  0.
    9900012    2    3    3    0    0 -0.24882884838E+02  0.26496247078E+00  0.27139480803E+02  0.54367087719E+02  0.40000008073E+02 0.  0.
         12    1    3    3    0    0  0.24882884838E+02 -0.26496247078E+00 -0.27139480803E+02  0.36820912281E+02  0.00000000000E+00 0. -1.
         11    1    4    4    0    0  0.17457040850E+01  0.73607359686E+01  0.41831831444E+01  0.86444744336E+01  0.51100000000E-03 0. -1.
        -11    1    4    4    0    0 -0.24470270758E+02  0.30098335753E+00  0.27472333792E+02  0.36791491763E+02  0.51100000000E-03 0.  1.
        -12    1    4    4    0    0 -0.21583181651E+01 -0.73967568554E+01 -0.45160361335E+01  0.89311215218E+01  0.00000000000E+00 0.  1.
</event>
<event>
 8    1  0.1271559E-006  0.9118800E+02  0.7816164E-02  0.1184000E+00
        -11   -1    0    0    0    0  0.00000000000E+00  0.00000000000E+00  0.45593999997E+02  0.45594000000E+02  0.51100000000E-03 0. -1.
         11   -1    0    0    0    0 -0.00000000000E+00 -0.00000000000E+00 -0.45593999997E+02  0.45594000000E+02  0.51100000000E-03 0.  1.
         23    2    1    2    0    0  0.00000000000E+00  0.00000000000E+00  0.00000000000E+00  0.91188000000E+02  0.91188000000E+02 0.  0.
    9900012    2    3    3    0    0  0.16537855884E+02  0.97188340888E+01  0.31429669944E+02  0.54367074345E+02  0.39999977585E+02 0.  0.
        -12    1    3    3    0    0 -0.16537855884E+02 -0.97188340888E+01 -0.31429669944E+02  0.36820925655E+02  0.00000000000E+00 0.  1.
         11    1    4    4    0    0  0.19826885220E+01  0.34558594674E+01  0.49964832702E+01  0.63905292241E+01  0.51100000000E-03 0. -1.
        -11    1    4    4    0    0  0.10222691064E+02  0.17068108303E+02  0.29824363281E+02  0.35851309307E+02  0.51100000000E-03 0.  1.
        -12    1    4    4    0    0  0.43324762980E+01 -0.10805133682E+02 -0.33911766076E+01  0.12125235814E+02  0.00000000000E+00 0.  1.
</event>
<event>
 8    1  0.1271559E-006  0.9118800E+02  0.7816164E-02  0.1184000E+00
        -11   -1    0    0    0    0  0.00000000000E+00  0.00000000000E+00  0.45593999997E+02  0.45594000000E+02  0.51100000000E-03 0. -1.
         11   -1    0    0    0    0 -0.00000000000E+00 -0.00000000000E+00 -0.45593999997E+02  0.45594000000E+02  0.51100000000E-03 0.  1.
         23    2    1    2    0    0  0.00000000000E+00  0.00000000000E+00 -0.35527136788E-14  0.91188000000E+02  0.91188000000E+02 0.  0.
    9900012    2    3    3    0    0 -0.19466084257E+02  0.93106345580E+01 -0.29835494336E+02  0.54367176076E+02  0.40000209500E+02 0.  0.
         12    1    3    3    0    0  0.19466084257E+02 -0.93106345580E+01  0.29835494336E+02  0.36820823924E+02  0.00000000000E+00 0. -1.
         11    1    4    4    0    0  0.16667094634E+00  0.74243671245E+01 -0.13589751162E+01  0.75495576050E+01  0.51100000000E-03 0. -1.
        -11    1    4    4    0    0 -0.15231269485E+02 -0.38979198461E+01  0.16669220611E+01  0.15810249166E+02  0.51100000000E-03 0.  1.
         12    1    4    4    0    0 -0.44014857183E+01  0.57841872796E+01 -0.30143441280E+02  0.31007369305E+02  0.00000000000E+00 0. -1.
</event>
<event>
 8    1  0.1271559E-006  0.9118800E+02  0.7816164E-02  0.1184000E+00
        -11   -1    0    0    0    0  0.00000000000E+00  0.00000000000E+00  0.45593999997E+02  0.45594000000E+02  0.51100000000E-03 0.  1.
         11   -1    0    0    0    0 -0.00000000000E+00 -0.00000000000E+00 -0.45593999997E+02  0.45594000000E+02  0.51100000000E-03 0. -1.
         23    2    1    2    0    0 -0.35527136788E-14 -0.35527136788E-14  0.00000000000E+00  0.91188000000E+02  0.91188000000E+02 0.  0.
    9900012    2    3    3    0    0 -0.27302165093E+02 -0.20939451570E+02 -0.13111452359E+02  0.54367095153E+02  0.40000025020E+02 0.  0.
        -12    1    3    3    0    0  0.27302165093E+02  0.20939451570E+02  0.13111452359E+02  0.36820904847E+02  0.00000000000E+00 0.  1.
         11    1    4    4    0    0 -0.77432391086E+01 -0.13944578472E+02 -0.11346043497E+01  0.15990508058E+02  0.51100000000E-03 0. -1.
        -11    1    4    4    0    0 -0.77869455000E+00  0.10655047627E+02 -0.37671518351E+01  0.11328187779E+02  0.51100000000E-03 0.  1.
        -12    1    4    4    0    0 -0.18780231434E+02 -0.17649920725E+02 -0.82096961741E+01  0.27048399317E+02  0.00000000000E+00 0.  1.
</event>
<event>
 8    1  0.1271559E-006  0.9118800E+02  0.7816164E-02  0.1184000E+00
        -11   -1    0    0    0    0  0.00000000000E+00  0.00000000000E+00  0.45593999997E+02  0.45594000000E+02  0.51100000000E-03 0. -1.
         11   -1    0    0    0    0 -0.00000000000E+00 -0.00000000000E+00 -0.45593999997E+02  0.45594000000E+02  0.51100000000E-03 0.  1.
         23    2    1    2    0    0  0.00000000000E+00  0.35527136788E-14  0.00000000000E+00  0.91188000000E+02  0.91188000000E+02 0.  0.
    9900012    2    3    3    0    0  0.13104757972E+02 -0.26682040801E+02  0.21728179266E+02  0.54367085332E+02  0.40000002630E+02 0.  0.
        -12    1    3    3    0    0 -0.13104757972E+02  0.26682040801E+02 -0.21728179266E+02  0.36820914668E+02  0.00000000000E+00 0.  1.
         11    1    4    4    0    0  0.40228433198E+01 -0.22970536424E+02  0.11181888248E+02  0.25862394263E+02  0.51100000000E-03 0. -1.
        -11    1    4    4    0    0  0.13791549520E+02 -0.10592898030E+02  0.38527140842E+01  0.17811786348E+02  0.51100000000E-03 0.  1.
         12    1    4    4    0    0 -0.47096348685E+01  0.68813936522E+01  0.66935769335E+01  0.10692904720E+02  0.00000000000E+00 0. -1.
</event>
<event>
 8    1  0.1271559E-006  0.9118800E+02  0.7816164E-02  0.1184000E+00
        -11   -1    0    0    0    0  0.00000000000E+00  0.00000000000E+00  0.45593999997E+02  0.45594000000E+02  0.51100000000E-03 0.  1.
         11   -1    0    0    0    0 -0.00000000000E+00 -0.00000000000E+00 -0.45593999997E+02  0.45594000000E+02  0.51100000000E-03 0. -1.
         23    2    1    2    0    0  0.00000000000E+00  0.44408920985E-15  0.00000000000E+00  0.91188000000E+02  0.91188000000E+02 0.  0.
    9900012    2    3    3    0    0  0.79294009952E+01 -0.34368894470E+01 -0.35792374203E+02  0.54367059487E+02  0.39999943711E+02 0.  0.
         12    1    3    3    0    0 -0.79294009952E+01  0.34368894470E+01  0.35792374203E+02  0.36820940513E+02  0.00000000000E+00 0. -1.
         11    1    4    4    0    0  0.15827441728E+02 -0.20923718708E+01 -0.12537541295E+02  0.20299652058E+02  0.51100000000E-03 0. -1.
        -11    1    4    4    0    0 -0.14682595789E+02 -0.42423123128E+01 -0.82992880465E+01  0.17391205110E+02  0.51100000000E-03 0.  1.
        -12    1    4    4    0    0  0.67845550559E+01  0.28977947366E+01 -0.14955544861E+02  0.16676202318E+02  0.00000000000E+00 0.  1.
</event>
<event>
 8    1  0.1271559E-006  0.9118800E+02  0.7816164E-02  0.1184000E+00
        -11   -1    0    0    0    0  0.00000000000E+00  0.00000000000E+00  0.45593999997E+02  0.45594000000E+02  0.51100000000E-03 0. -1.
         11   -1    0    0    0    0 -0.00000000000E+00 -0.00000000000E+00 -0.45593999997E+02  0.45594000000E+02  0.51100000000E-03 0.  1.
         23    2    1    2    0    0  0.00000000000E+00 -0.35527136788E-14  0.00000000000E+00  0.91188000000E+02  0.91188000000E+02 0.  0.
    9900012    2    3    3    0    0 -0.28960248269E+02  0.14886760888E+02  0.17189415469E+02  0.54366978373E+02  0.39999758795E+02 0.  0.
        -12    1    3    3    0    0  0.28960248269E+02 -0.14886760888E+02 -0.17189415469E+02  0.36821021627E+02  0.00000000000E+00 0.  1.
         11    1    4    4    0    0 -0.51129860949E+01  0.19679052178E+02  0.72250584610E+01  0.21577979318E+02  0.51100000000E-03 0. -1.
        -11    1    4    4    0    0 -0.59027195966E+01  0.34803850933E+01 -0.45901074934E+01  0.82476824682E+01  0.51100000000E-03 0.  1.
         12    1    4    4    0    0 -0.17944542577E+02 -0.82726763836E+01  0.14554464502E+02  0.24541316586E+02  0.00000000000E+00 0. -1.
</event>
<event>
 8    1  0.1271559E-006  0.9118800E+02  0.7816164E-02  0.1184000E+00
        -11   -1    0    0    0    0  0.00000000000E+00  0.00000000000E+00  0.45593999997E+02  0.45594000000E+02  0.51100000000E-03 0. -1.
         11   -1    0    0    0    0 -0.00000000000E+00 -0.00000000000E+00 -0.45593999997E+02  0.45594000000E+02  0.51100000000E-03 0.  1.
         23    2    1    2    0    0 -0.17763568394E-14 -0.88817841970E-15  0.00000000000E+00  0.91188000000E+02  0.91188000000E+02 0.  0.
    9900012    2    3    3    0    0 -0.69254646741E+01  0.60856122796E+01 -0.35648048059E+02  0.54367081106E+02  0.39999992998E+02 0.  0.
         12    1    3    3    0    0  0.69254646741E+01 -0.60856122796E+01  0.35648048059E+02  0.36820918894E+02  0.00000000000E+00 0. -1.
         11    1    4    4    0    0  0.60471377034E+01  0.10175173882E+02 -0.62567122466E+01  0.13388371310E+02  0.51100000000E-03 0. -1.
        -11    1    4    4    0    0  0.67888685051E+01 -0.25874775866E+01 -0.27366097037E+01  0.77635564513E+01  0.51100000000E-03 0.  1.
         12    1    4    4    0    0 -0.19761470883E+02 -0.15020840159E+01 -0.26654726108E+02  0.33215153345E+02  0.00000000000E+00 0. -1.
</event>
<event>
 8    1  0.1271559E-006  0.9118800E+02  0.7816164E-02  0.1184000E+00
        -11   -1    0    0    0    0  0.00000000000E+00  0.00000000000E+00  0.45593999997E+02  0.45594000000E+02  0.51100000000E-03 0.  1.
         11   -1    0    0    0    0 -0.00000000000E+00 -0.00000000000E+00 -0.45593999997E+02  0.45594000000E+02  0.51100000000E-03 0. -1.
         23    2    1    2    0    0 -0.35527136788E-14 -0.35527136788E-14  0.44408920985E-15  0.91188000000E+02  0.91188000000E+02 0.  0.
    9900012    2    3    3    0    0 -0.21934311779E+02  0.29334617846E+02  0.37609185405E+01  0.54367104497E+02  0.40000046322E+02 0.  0.
         12    1    3    3    0    0  0.21934311779E+02 -0.29334617846E+02 -0.37609185405E+01  0.36820895503E+02  0.00000000000E+00 0. -1.
         11    1    4    4    0    0 -0.48060919369E+01 -0.52733475956E+01 -0.74379906893E+01  0.10306814267E+02  0.51100000000E-03 0. -1.
        -11    1    4    4    0    0 -0.27764479825E+01  0.21076889611E+02 -0.23684737471E+00  0.21260292473E+02  0.51100000000E-03 0.  1.
         12    1    4    4    0    0 -0.14351771859E+02  0.13531075830E+02  0.11435756605E+02  0.22799997757E+02  0.00000000000E+00 0. -1.
</event>
<event>
 8    1  0.1271559E-006  0.9118800E+02  0.7816164E-02  0.1184000E+00
        -11   -1    0    0    0    0  0.00000000000E+00  0.00000000000E+00  0.45593999997E+02  0.45594000000E+02  0.51100000000E-03 0.  1.
         11   -1    0    0    0    0 -0.00000000000E+00 -0.00000000000E+00 -0.45593999997E+02  0.45594000000E+02  0.51100000000E-03 0. -1.
         23    2    1    2    0    0 -0.17763568394E-14  0.19984014443E-14  0.00000000000E+00  0.91188000000E+02  0.91188000000E+02 0.  0.
    9900012    2    3    3    0    0 -0.15119214210E+02 -0.10848010699E+01  0.33556092737E+02  0.54367098443E+02  0.40000032521E+02 0.  0.
         12    1    3    3    0    0  0.15119214210E+02  0.10848010699E+01 -0.33556092737E+02  0.36820901557E+02  0.00000000000E+00 0. -1.
         11    1    4    4    0    0  0.25824062909E+01  0.17425931457E+01 -0.27298432694E+01  0.41421609890E+01  0.51100000000E-03 0. -1.
        -11    1    4    4    0    0  0.41718584073E+01  0.83876560414E+01  0.56243312782E+01  0.10926585882E+02  0.51100000000E-03 0.  1.
        -12    1    4    4    0    0 -0.21873478909E+02 -0.11215050257E+02  0.30661604728E+02  0.39298351573E+02  0.00000000000E+00 0.  1.
</event>
<event>
 8    1  0.1271559E-006  0.9118800E+02  0.7816164E-02  0.1184000E+00
        -11   -1    0    0    0    0  0.00000000000E+00  0.00000000000E+00  0.45593999997E+02  0.45594000000E+02  0.51100000000E-03 0. -1.
         11   -1    0    0    0    0 -0.00000000000E+00 -0.00000000000E+00 -0.45593999997E+02  0.45594000000E+02  0.51100000000E-03 0.  1.
         23    2    1    2    0    0 -0.35527136788E-14  0.00000000000E+00  0.00000000000E+00  0.91188000000E+02  0.91188000000E+02 0.  0.
    9900012    2    3    3    0    0 -0.54706919182E+01 -0.35293553741E+02  0.89564267436E+01  0.54367068647E+02  0.39999964594E+02 0.  0.
        -12    1    3    3    0    0  0.54706919182E+01  0.35293553741E+02 -0.89564267436E+01  0.36820931353E+02  0.00000000000E+00 0.  1.
         11    1    4    4    0    0  0.40139828757E+01 -0.12760298773E+02 -0.26936889795E+01  0.13645264523E+02  0.51100000000E-03 0. -1.
        -11    1    4    4    0    0  0.96000786416E+01 -0.14655501318E+02  0.95893461806E+01  0.19972500826E+02  0.51100000000E-03 0.  1.
        -12    1    4    4    0    0 -0.19084753436E+02 -0.78777536490E+01  0.20607695425E+01  0.20749303298E+02  0.00000000000E+00 0.  1.
</event>
<event>
 8    1  0.1271559E-006  0.9118800E+02  0.7816164E-02  0.1184000E+00
        -11   -1    0    0    0    0  0.00000000000E+00  0.00000000000E+00  0.45593999997E+02  0.45594000000E+02  0.51100000000E-03 0.  1.
         11   -1    0    0    0    0 -0.00000000000E+00 -0.00000000000E+00 -0.45593999997E+02  0.45594000000E+02  0.51100000000E-03 0. -1.
         23    2    1    2    0    0 -0.88817841970E-15  0.00000000000E+00  0.00000000000E+00  0.91188000000E+02  0.91188000000E+02 0.  0.
    9900012    2    3    3    0    0 -0.76173885559E+01 -0.32727321990E+02 -0.15055837408E+02  0.54367075879E+02  0.39999981082E+02 0.  0.
        -12    1    3    3    0    0  0.76173885559E+01  0.32727321990E+02  0.15055837408E+02  0.36820924121E+02  0.00000000000E+00 0.  1.
         11    1    4    4    0    0 -0.27184799342E+01 -0.20443213178E+02 -0.20503489166E+01  0.20724840871E+02  0.51100000000E-03 0. -1.
        -11    1    4    4    0    0 -0.13164101140E+02 -0.16078334752E+01 -0.14968724206E+02  0.19998534744E+02  0.51100000000E-03 0.  1.
        -12    1    4    4    0    0  0.82651925183E+01 -0.10676275337E+02  0.19632357145E+01  0.13643700265E+02  0.00000000000E+00 0.  1.
</event>
<event>
 8    1  0.1271559E-006  0.9118800E+02  0.7816164E-02  0.1184000E+00
        -11   -1    0    0    0    0  0.00000000000E+00  0.00000000000E+00  0.45593999997E+02  0.45594000000E+02  0.51100000000E-03 0.  1.
         11   -1    0    0    0    0 -0.00000000000E+00 -0.00000000000E+00 -0.45593999997E+02  0.45594000000E+02  0.51100000000E-03 0. -1.
         23    2    1    2    0    0  0.11102230246E-14  0.00000000000E+00  0.00000000000E+00  0.91188000000E+02  0.91188000000E+02 0.  0.
    9900012    2    3    3    0    0 -0.10147151261E+01  0.11022166316E+02 -0.35117826269E+02  0.54367088564E+02  0.40000010000E+02 0.  0.
        -12    1    3    3    0    0  0.10147151261E+01 -0.11022166316E+02  0.35117826269E+02  0.36820911436E+02  0.00000000000E+00 0.  1.
         11    1    4    4    0    0 -0.11386579954E+02  0.17636273878E+02 -0.14107123168E+02  0.25292356231E+02  0.51100000000E-03 0.  1.
        -11    1    4    4    0    0  0.17014983144E+00  0.28259074382E+01 -0.12411905293E+02  0.12730675437E+02  0.51100000000E-03 0. -1.
         12    1    4    4    0    0  0.10201714997E+02 -0.94400150008E+01 -0.85987978076E+01  0.16344056896E+02  0.00000000000E+00 0. -1.
</event>
<event>
 8    1  0.1271559E-006  0.9118800E+02  0.7816164E-02  0.1184000E+00
        -11   -1    0    0    0    0  0.00000000000E+00  0.00000000000E+00  0.45593999997E+02  0.45594000000E+02  0.51100000000E-03 0. -1.
         11   -1    0    0    0    0 -0.00000000000E+00 -0.00000000000E+00 -0.45593999997E+02  0.45594000000E+02  0.51100000000E-03 0.  1.
         23    2    1    2    0    0  0.17763568394E-14  0.00000000000E+00 -0.35527136788E-14  0.91188000000E+02  0.91188000000E+02 0.  0.
    9900012    2    3    3    0    0 -0.78291426185E+01 -0.24825228249E+02  0.26042100981E+02  0.54367103009E+02  0.40000042929E+02 0.  0.
        -12    1    3    3    0    0  0.78291426185E+01  0.24825228249E+02 -0.26042100981E+02  0.36820896991E+02  0.00000000000E+00 0.  1.
         11    1    4    4    0    0 -0.15927123393E+02 -0.49733316422E+01 -0.57449721959E+00  0.16695428551E+02  0.51100000000E-03 0.  1.
        -11    1    4    4    0    0  0.47164944733E+01 -0.11508252404E+02  0.25788356840E+02  0.28630832022E+02  0.51100000000E-03 0. -1.
        -12    1    4    4    0    0  0.33814863010E+01 -0.83436442029E+01  0.82824136065E+00  0.90408424353E+01  0.00000000000E+00 0.  1.
</event>
<event>
 8    1  0.1271559E-006  0.9118800E+02  0.7816164E-02  0.1184000E+00
        -11   -1    0    0    0    0  0.00000000000E+00  0.00000000000E+00  0.45593999997E+02  0.45594000000E+02  0.51100000000E-03 0.  1.
         11   -1    0    0    0    0 -0.00000000000E+00 -0.00000000000E+00 -0.45593999997E+02  0.45594000000E+02  0.51100000000E-03 0. -1.
         23    2    1    2    0    0  0.00000000000E+00  0.35527136788E-14 -0.35527136788E-14  0.91188000000E+02  0.91188000000E+02 0.  0.
    9900012    2    3    3    0    0  0.23256267394E+02 -0.21604715976E+02  0.18659109545E+02  0.54367080748E+02  0.39999992182E+02 0.  0.
         12    1    3    3    0    0 -0.23256267394E+02  0.21604715976E+02 -0.18659109545E+02  0.36820919252E+02  0.00000000000E+00 0. -1.
         11    1    4    4    0    0  0.14579956935E+02  0.47751089774E+01 -0.58577536175E+01  0.16422243686E+02  0.51100000000E-03 0. -1.
        -11    1    4    4    0    0  0.90831310762E+01 -0.22177467980E+02  0.17205741306E+02  0.29502218396E+02  0.51100000000E-03 0.  1.
         12    1    4    4    0    0 -0.40682061685E+00 -0.42023569738E+01  0.73111218564E+01  0.84426186665E+01  0.00000000000E+00 0. -1.
</event>
<event>
 8    1  0.1271559E-006  0.9118800E+02  0.7816164E-02  0.1184000E+00
        -11   -1    0    0    0    0  0.00000000000E+00  0.00000000000E+00  0.45593999997E+02  0.45594000000E+02  0.51100000000E-03 0.  1.
         11   -1    0    0    0    0 -0.00000000000E+00 -0.00000000000E+00 -0.45593999997E+02  0.45594000000E+02  0.51100000000E-03 0. -1.
         23    2    1    2    0    0  0.00000000000E+00  0.00000000000E+00 -0.35527136788E-14  0.91188000000E+02  0.91188000000E+02 0.  0.
    9900012    2    3    3    0    0 -0.20630362067E+02 -0.19084119512E+02  0.23790008779E+02  0.54367082381E+02  0.39999995904E+02 0.  0.
         12    1    3    3    0    0  0.20630362067E+02  0.19084119512E+02 -0.23790008779E+02  0.36820917619E+02  0.00000000000E+00 0. -1.
         11    1    4    4    0    0 -0.36878476980E+01  0.76506460057E+01 -0.12691850498E+01  0.85873998334E+01  0.51100000000E-03 0. -1.
        -11    1    4    4    0    0  0.39234454696E+01 -0.10285999045E+02  0.11611354896E+02  0.16000586348E+02  0.51100000000E-03 0.  1.
        -12    1    4    4    0    0 -0.20865959839E+02 -0.16448766474E+02  0.13447838932E+02  0.29779096199E+02  0.00000000000E+00 0.  1.
</event>
<event>
 8    1  0.1271559E-006  0.9118800E+02  0.7816164E-02  0.1184000E+00
        -11   -1    0    0    0    0  0.00000000000E+00  0.00000000000E+00  0.45593999997E+02  0.45594000000E+02  0.51100000000E-03 0. -1.
         11   -1    0    0    0    0 -0.00000000000E+00 -0.00000000000E+00 -0.45593999997E+02  0.45594000000E+02  0.51100000000E-03 0.  1.
         23    2    1    2    0    0 -0.35527136788E-14  0.00000000000E+00 -0.71054273576E-14  0.91188000000E+02  0.91188000000E+02 0.  0.
    9900012    2    3    3    0    0  0.24819999911E+02 -0.65516932581E+01  0.26397391046E+02  0.54367091073E+02  0.40000015720E+02 0.  0.
        -12    1    3    3    0    0 -0.24819999911E+02  0.65516932581E+01 -0.26397391046E+02  0.36820908927E+02  0.00000000000E+00 0.  1.
         11    1    4    4    0    0  0.19029582940E+02 -0.13634606069E+01  0.29681557051E+02  0.35284258260E+02  0.51100000000E-03 0. -1.
        -11    1    4    4    0    0  0.59363866065E+01 -0.58032758167E+01  0.57040081035E+01  0.10072457736E+02  0.51100000000E-03 0.  1.
        -12    1    4    4    0    0 -0.14596963522E+00  0.61504316559E+00 -0.89881741082E+01  0.90103750771E+01  0.00000000000E+00 0.  1.
</event>
<event>
 8    1  0.1271559E-006  0.9118800E+02  0.7816164E-02  0.1184000E+00
        -11   -1    0    0    0    0  0.00000000000E+00  0.00000000000E+00  0.45593999997E+02  0.45594000000E+02  0.51100000000E-03 0. -1.
         11   -1    0    0    0    0 -0.00000000000E+00 -0.00000000000E+00 -0.45593999997E+02  0.45594000000E+02  0.51100000000E-03 0.  1.
         23    2    1    2    0    0 -0.17763568394E-14  0.17763568394E-14  0.35527136788E-14  0.91188000000E+02  0.91188000000E+02 0.  0.
    9900012    2    3    3    0    0  0.11895645675E+02 -0.15186310695E+02 -0.31363226833E+02  0.54367049226E+02  0.39999920320E+02 0.  0.
         12    1    3    3    0    0 -0.11895645675E+02  0.15186310695E+02  0.31363226833E+02  0.36820950774E+02  0.00000000000E+00 0. -1.
         11    1    4    4    0    0  0.39254451010E+01 -0.19491654106E+02 -0.90339168352E+00  0.19903512650E+02  0.51100000000E-03 0. -1.
        -11    1    4    4    0    0  0.21417204973E+01 -0.45991629586E+01 -0.64928499171E+01  0.82399251766E+01  0.51100000000E-03 0.  1.
         12    1    4    4    0    0  0.58284800768E+01  0.89045063690E+01 -0.23966985232E+02  0.26223611399E+02  0.00000000000E+00 0. -1.
</event>
<event>
 8    1  0.1271559E-006  0.9118800E+02  0.7816164E-02  0.1184000E+00
        -11   -1    0    0    0    0  0.00000000000E+00  0.00000000000E+00  0.45593999997E+02  0.45594000000E+02  0.51100000000E-03 0.  1.
         11   -1    0    0    0    0 -0.00000000000E+00 -0.00000000000E+00 -0.45593999997E+02  0.45594000000E+02  0.51100000000E-03 0. -1.
         23    2    1    2    0    0  0.00000000000E+00 -0.35527136788E-14  0.00000000000E+00  0.91188000000E+02  0.91188000000E+02 0.  0.
    9900012    2    3    3    0    0  0.47647700163E+01  0.31046980435E+02  0.19213580187E+02  0.54367086227E+02  0.40000004672E+02 0.  0.
        -12    1    3    3    0    0 -0.47647700163E+01 -0.31046980435E+02 -0.19213580187E+02  0.36820913773E+02  0.00000000000E+00 0.  1.
         11    1    4    4    0    0 -0.89915688912E+00  0.17729850148E+02  0.18463516603E+02  0.25613619717E+02  0.51100000000E-03 0.  1.
        -11    1    4    4    0    0  0.96034959764E+00  0.14192078016E+02 -0.97293387991E+01  0.17233612026E+02  0.51100000000E-03 0. -1.
         12    1    4    4    0    0  0.47035773077E+01 -0.87494772806E+00  0.10479402384E+02  0.11519854484E+02  0.00000000000E+00 0. -1.
</event>
<event>
 8    1  0.1271559E-006  0.9118800E+02  0.7816164E-02  0.1184000E+00
        -11   -1    0    0    0    0  0.00000000000E+00  0.00000000000E+00  0.45593999997E+02  0.45594000000E+02  0.51100000000E-03 0. -1.
         11   -1    0    0    0    0 -0.00000000000E+00 -0.00000000000E+00 -0.45593999997E+02  0.45594000000E+02  0.51100000000E-03 0.  1.
         23    2    1    2    0    0 -0.44408920985E-15 -0.71054273576E-14 -0.44408920985E-15  0.91188000000E+02  0.91188000000E+02 0.  0.
    9900012    2    3    3    0    0  0.23195539745E+01 -0.36600310884E+02 -0.32879423670E+01  0.54367168227E+02  0.40000191606E+02 0.  0.
         12    1    3    3    0    0 -0.23195539745E+01  0.36600310884E+02  0.32879423670E+01  0.36820831773E+02  0.00000000000E+00 0. -1.
         11    1    4    4    0    0  0.17679634509E+01  0.46806446114E+01  0.32039774536E+01  0.59413466930E+01  0.51100000000E-03 0. -1.
        -11    1    4    4    0    0 -0.10069094170E+02 -0.17411155569E+02  0.35733895014E+01  0.20428022627E+02  0.51100000000E-03 0.  1.
        -12    1    4    4    0    0  0.10620684693E+02 -0.23869799927E+02 -0.10065309322E+02  0.27997798907E+02  0.00000000000E+00 0.  1.
</event>
<event>
 8    1  0.1271559E-006  0.9118800E+02  0.7816164E-02  0.1184000E+00
        -11   -1    0    0    0    0  0.00000000000E+00  0.00000000000E+00  0.45593999997E+02  0.45594000000E+02  0.51100000000E-03 0.  1.
         11   -1    0    0    0    0 -0.00000000000E+00 -0.00000000000E+00 -0.45593999997E+02  0.45594000000E+02  0.51100000000E-03 0. -1.
         23    2    1    2    0    0  0.00000000000E+00 -0.35527136788E-14  0.35527136788E-14  0.91188000000E+02  0.91188000000E+02 0.  0.
    9900012    2    3    3    0    0 -0.24683085705E+02  0.16161716000E+02 -0.22030076099E+02  0.54367081531E+02  0.39999993966E+02 0.  0.
        -12    1    3    3    0    0  0.24683085705E+02 -0.16161716000E+02  0.22030076099E+02  0.36820918469E+02  0.00000000000E+00 0.  1.
         11    1    4    4    0    0 -0.21969493035E+02  0.22427908371E+02 -0.64442682561E+01  0.32049934348E+02  0.51100000000E-03 0. -1.
        -11    1    4    4    0    0 -0.54189534510E+01  0.52398429062E+00 -0.39404916488E+00  0.54584696616E+01  0.51100000000E-03 0.  1.
        -12    1    4    4    0    0  0.27053607805E+01 -0.67901766617E+01 -0.15191758678E+02  0.16858677521E+02  0.00000000000E+00 0.  1.
</event>
<event>
 8    1  0.1271559E-006  0.9118800E+02  0.7816164E-02  0.1184000E+00
        -11   -1    0    0    0    0  0.00000000000E+00  0.00000000000E+00  0.45593999997E+02  0.45594000000E+02  0.51100000000E-03 0.  1.
         11   -1    0    0    0    0 -0.00000000000E+00 -0.00000000000E+00 -0.45593999997E+02  0.45594000000E+02  0.51100000000E-03 0. -1.
         23    2    1    2    0    0  0.00000000000E+00 -0.17763568394E-14  0.35527136788E-14  0.91188000000E+02  0.91188000000E+02 0.  0.
    9900012    2    3    3    0    0 -0.14086313093E+02 -0.12936934497E+02 -0.31464131921E+02  0.54367080833E+02  0.39999992376E+02 0.  0.
        -12    1    3    3    0    0  0.14086313093E+02  0.12936934497E+02  0.31464131921E+02  0.36820919167E+02  0.00000000000E+00 0.  1.
         11    1    4    4    0    0  0.15901863847E+01  0.69182345888E+01 -0.16226117005E+01  0.72817258638E+01  0.51100000000E-03 0.  1.
        -11    1    4    4    0    0 -0.24600662164E+01 -0.19718303226E+02 -0.77240502604E+01  0.21319576932E+02  0.51100000000E-03 0. -1.
         12    1    4    4    0    0 -0.13216433262E+02 -0.13686585967E+00 -0.22117469960E+02  0.25765778037E+02  0.00000000000E+00 0. -1.
</event>
<event>
 8    1  0.1271559E-006  0.9118800E+02  0.7816164E-02  0.1184000E+00
        -11   -1    0    0    0    0  0.00000000000E+00  0.00000000000E+00  0.45593999997E+02  0.45594000000E+02  0.51100000000E-03 0. -1.
         11   -1    0    0    0    0 -0.00000000000E+00 -0.00000000000E+00 -0.45593999997E+02  0.45594000000E+02  0.51100000000E-03 0.  1.
         23    2    1    2    0    0  0.17763568394E-14 -0.71054273576E-14  0.00000000000E+00  0.91188000000E+02  0.91188000000E+02 0.  0.
    9900012    2    3    3    0    0  0.80910108460E+01  0.35824507316E+02  0.26308474621E+01  0.54367066561E+02  0.39999959839E+02 0.  0.
         12    1    3    3    0    0 -0.80910108460E+01 -0.35824507316E+02 -0.26308474621E+01  0.36820933439E+02  0.00000000000E+00 0. -1.
         11    1    4    4    0    0  0.13197266008E+01  0.19767711438E+02  0.16615145120E+00  0.19812412785E+02  0.51100000000E-03 0.  1.
        -11    1    4    4    0    0 -0.98438227831E+01 -0.10616095223E+01  0.39334491465E+01  0.10653632442E+02  0.51100000000E-03 0. -1.
        -12    1    4    4    0    0  0.16615107028E+02  0.17118405400E+02 -0.14687531356E+01  0.23901021334E+02  0.00000000000E+00 0.  1.
</event>
<event>
 8    1  0.1271559E-006  0.9118800E+02  0.7816164E-02  0.1184000E+00
        -11   -1    0    0    0    0  0.00000000000E+00  0.00000000000E+00  0.45593999997E+02  0.45594000000E+02  0.51100000000E-03 0.  1.
         11   -1    0    0    0    0 -0.00000000000E+00 -0.00000000000E+00 -0.45593999997E+02  0.45594000000E+02  0.51100000000E-03 0. -1.
         23    2    1    2    0    0  0.00000000000E+00 -0.35527136788E-14  0.00000000000E+00  0.91188000000E+02  0.91188000000E+02 0.  0.
    9900012    2    3    3    0    0  0.30257818357E+02 -0.20018071332E+02 -0.62865444298E+01  0.54367090282E+02  0.40000013915E+02 0.  0.
        -12    1    3    3    0    0 -0.30257818357E+02  0.20018071332E+02  0.62865444298E+01  0.36820909718E+02  0.00000000000E+00 0.  1.
         11    1    4    4    0    0  0.68751682164E+01 -0.10878276402E+02 -0.25830575634E+01  0.13125434169E+02  0.51100000000E-03 0. -1.
        -11    1    4    4    0    0  0.28504964066E+01 -0.16988682579E+02 -0.77531060701E+01  0.18890508716E+02  0.51100000000E-03 0.  1.
        -12    1    4    4    0    0  0.20532153734E+02  0.78488876487E+01  0.40496192037E+01  0.22351147398E+02  0.00000000000E+00 0.  1.
</event>
<event>
 8    1  0.1271559E-006  0.9118800E+02  0.7816164E-02  0.1184000E+00
        -11   -1    0    0    0    0  0.00000000000E+00  0.00000000000E+00  0.45593999997E+02  0.45594000000E+02  0.51100000000E-03 0.  1.
         11   -1    0    0    0    0 -0.00000000000E+00 -0.00000000000E+00 -0.45593999997E+02  0.45594000000E+02  0.51100000000E-03 0. -1.
         23    2    1    2    0    0 -0.17763568394E-14  0.00000000000E+00 -0.71054273576E-14  0.91188000000E+02  0.91188000000E+02 0.  0.
    9900012    2    3    3    0    0  0.10708555704E+02 -0.12698423173E+02  0.32861178929E+02  0.54367079358E+02  0.39999989012E+02 0.  0.
         12    1    3    3    0    0 -0.10708555704E+02  0.12698423173E+02 -0.32861178929E+02  0.36820920642E+02  0.00000000000E+00 0. -1.
         11    1    4    4    0    0 -0.92965418910E+01 -0.65629297717E+01 -0.25038044513E+01  0.11651900073E+02  0.51100000000E-03 0. -1.
        -11    1    4    4    0    0  0.27914382015E+01 -0.17725950039E+00  0.15550483527E+02  0.15800034378E+02  0.51100000000E-03 0.  1.
         12    1    4    4    0    0  0.17213659393E+02 -0.59582339013E+01  0.19814499853E+02  0.26915144907E+02  0.00000000000E+00 0. -1.
</event>
<event>
 8    1  0.1271559E-006  0.9118800E+02  0.7816164E-02  0.1184000E+00
        -11   -1    0    0    0    0  0.00000000000E+00  0.00000000000E+00  0.45593999997E+02  0.45594000000E+02  0.51100000000E-03 0. -1.
         11   -1    0    0    0    0 -0.00000000000E+00 -0.00000000000E+00 -0.45593999997E+02  0.45594000000E+02  0.51100000000E-03 0.  1.
         23    2    1    2    0    0  0.00000000000E+00  0.00000000000E+00 -0.88817841970E-15  0.91188000000E+02  0.91188000000E+02 0.  0.
    9900012    2    3    3    0    0  0.53720897965E+00 -0.36272769320E+02 -0.63069698602E+01  0.54367078549E+02  0.39999987169E+02 0.  0.
         12    1    3    3    0    0 -0.53720897965E+00  0.36272769320E+02  0.63069698602E+01  0.36820921451E+02  0.00000000000E+00 0. -1.
         11    1    4    4    0    0  0.77991735197E+01 -0.11089675661E+01  0.60768001474E+01  0.99490912622E+01  0.51100000000E-03 0. -1.
        -11    1    4    4    0    0 -0.13990322749E+02 -0.21927926043E+02 -0.15861836211E+01  0.26059145226E+02  0.51100000000E-03 0.  1.
        -12    1    4    4    0    0  0.67283582094E+01 -0.13235875711E+02 -0.10797586386E+02  0.18358842061E+02  0.00000000000E+00 0.  1.
</event>
<event>
 8    1  0.1271559E-006  0.9118800E+02  0.7816164E-02  0.1184000E+00
        -11   -1    0    0    0    0  0.00000000000E+00  0.00000000000E+00  0.45593999997E+02  0.45594000000E+02  0.51100000000E-03 0.  1.
         11   -1    0    0    0    0 -0.00000000000E+00 -0.00000000000E+00 -0.45593999997E+02  0.45594000000E+02  0.51100000000E-03 0. -1.
         23    2    1    2    0    0  0.33306690739E-15  0.00000000000E+00  0.17763568394E-14  0.91188000000E+02  0.91188000000E+02 0.  0.
    9900012    2    3    3    0    0 -0.80680695474E+00 -0.34984718301E+02  0.11454211080E+02  0.54367076553E+02  0.39999982618E+02 0.  0.
         12    1    3    3    0    0  0.80680695474E+00  0.34984718301E+02 -0.11454211080E+02  0.36820923447E+02  0.00000000000E+00 0. -1.
         11    1    4    4    0    0 -0.12049752826E+01 -0.76022401759E+01  0.17954726089E+02  0.19535050814E+02  0.51100000000E-03 0. -1.
        -11    1    4    4    0    0  0.44443656144E+01 -0.28341830038E+02 -0.88924821612E+01  0.30034779088E+02  0.51100000000E-03 0.  1.
        -12    1    4    4    0    0 -0.40461972866E+01  0.95935191288E+00  0.23919671526E+01  0.47972466513E+01  0.00000000000E+00 0.  1.
</event>
<event>
 8    1  0.1271559E-006  0.9118800E+02  0.7816164E-02  0.1184000E+00
        -11   -1    0    0    0    0  0.00000000000E+00  0.00000000000E+00  0.45593999997E+02  0.45594000000E+02  0.51100000000E-03 0. -1.
         11   -1    0    0    0    0 -0.00000000000E+00 -0.00000000000E+00 -0.45593999997E+02  0.45594000000E+02  0.51100000000E-03 0.  1.
         23    2    1    2    0    0  0.17763568394E-14  0.00000000000E+00  0.00000000000E+00  0.91188000000E+02  0.91188000000E+02 0.  0.
    9900012    2    3    3    0    0  0.14344298764E+02  0.26997450826E+02 -0.20522149824E+02  0.54367083505E+02  0.39999998466E+02 0.  0.
         12    1    3    3    0    0 -0.14344298764E+02 -0.26997450826E+02  0.20522149824E+02  0.36820916495E+02  0.00000000000E+00 0. -1.
         11    1    4    4    0    0 -0.90627109227E+01  0.10954142542E+02 -0.48333211434E+01  0.15016223281E+02  0.51100000000E-03 0. -1.
        -11    1    4    4    0    0  0.55205509941E+01  0.75351435448E+01  0.50952909476E+01  0.10640341236E+02  0.51100000000E-03 0.  1.
        -12    1    4    4    0    0  0.17886458692E+02  0.85081647396E+01 -0.20784119628E+02  0.28710518987E+02  0.00000000000E+00 0.  1.
</event>
<event>
 8    1  0.1271559E-006  0.9118800E+02  0.7816164E-02  0.1184000E+00
        -11   -1    0    0    0    0  0.00000000000E+00  0.00000000000E+00  0.45593999997E+02  0.45594000000E+02  0.51100000000E-03 0. -1.
         11   -1    0    0    0    0 -0.00000000000E+00 -0.00000000000E+00 -0.45593999997E+02  0.45594000000E+02  0.51100000000E-03 0.  1.
         23    2    1    2    0    0  0.35527136788E-14  0.00000000000E+00  0.17763568394E-14  0.91188000000E+02  0.91188000000E+02 0.  0.
    9900012    2    3    3    0    0 -0.18575231999E+02 -0.28850082998E+02 -0.13357245447E+02  0.54367047559E+02  0.39999916519E+02 0.  0.
         12    1    3    3    0    0  0.18575231999E+02  0.28850082998E+02  0.13357245447E+02  0.36820952441E+02  0.00000000000E+00 0. -1.
         11    1    4    4    0    0 -0.75411166577E+01 -0.49575035898E+01 -0.18698837472E+02  0.20762750429E+02  0.51100000000E-03 0. -1.
        -11    1    4    4    0    0 -0.21809831006E+01 -0.14232966161E+02 -0.66334369760E+01  0.15853595788E+02  0.51100000000E-03 0.  1.
         12    1    4    4    0    0 -0.88531322403E+01 -0.96596132468E+01  0.11975029002E+02  0.17750701342E+02  0.00000000000E+00 0. -1.
</event>
<event>
 8    1  0.1271559E-006  0.9118800E+02  0.7816164E-02  0.1184000E+00
        -11   -1    0    0    0    0  0.00000000000E+00  0.00000000000E+00  0.45593999997E+02  0.45594000000E+02  0.51100000000E-03 0. -1.
         11   -1    0    0    0    0 -0.00000000000E+00 -0.00000000000E+00 -0.45593999997E+02  0.45594000000E+02  0.51100000000E-03 0.  1.
         23    2    1    2    0    0  0.00000000000E+00 -0.17763568394E-14  0.00000000000E+00  0.91188000000E+02  0.91188000000E+02 0.  0.
    9900012    2    3    3    0    0 -0.32529981852E+02 -0.14930884949E+02  0.86399620156E+01  0.54367082191E+02  0.39999995471E+02 0.  0.
        -12    1    3    3    0    0  0.32529981852E+02  0.14930884949E+02 -0.86399620156E+01  0.36820917809E+02  0.00000000000E+00 0.  1.
         11    1    4    4    0    0 -0.26774500335E+02 -0.77576820366E+01 -0.29928842943E+01  0.28035920805E+02  0.51100000000E-03 0. -1.
        -11    1    4    4    0    0 -0.55241782774E+01 -0.13393963848E+02  0.13529810639E+02  0.19823485803E+02  0.51100000000E-03 0.  1.
        -12    1    4    4    0    0 -0.23130324041E+00  0.62207609362E+01 -0.18969643292E+01  0.65076755820E+01  0.00000000000E+00 0.  1.
</event>
<event>
 8    1  0.1271559E-006  0.9118800E+02  0.7816164E-02  0.1184000E+00
        -11   -1    0    0    0    0  0.00000000000E+00  0.00000000000E+00  0.45593999997E+02  0.45594000000E+02  0.51100000000E-03 0.  1.
         11   -1    0    0    0    0 -0.00000000000E+00 -0.00000000000E+00 -0.45593999997E+02  0.45594000000E+02  0.51100000000E-03 0. -1.
         23    2    1    2    0    0  0.00000000000E+00  0.00000000000E+00 -0.35527136788E-14  0.91188000000E+02  0.91188000000E+02 0.  0.
    9900012    2    3    3    0    0 -0.19173928017E+02  0.28117071100E+02 -0.14055981886E+02  0.54367084346E+02  0.40000000383E+02 0.  0.
        -12    1    3    3    0    0  0.19173928017E+02 -0.28117071100E+02  0.14055981886E+02  0.36820915654E+02  0.00000000000E+00 0.  1.
         11    1    4    4    0    0 -0.11788400407E+02  0.12433328171E+02  0.11031071357E+02  0.20377403395E+02  0.51100000000E-03 0. -1.
        -11    1    4    4    0    0  0.37145779247E+01  0.22528117153E+00 -0.26493309319E+01  0.45681282176E+01  0.51100000000E-03 0.  1.
         12    1    4    4    0    0 -0.11100105534E+02  0.15458461757E+02 -0.22437722310E+02  0.29421552733E+02  0.00000000000E+00 0. -1.
</event>
<event>
 8    1  0.1271559E-006  0.9118800E+02  0.7816164E-02  0.1184000E+00
        -11   -1    0    0    0    0  0.00000000000E+00  0.00000000000E+00  0.45593999997E+02  0.45594000000E+02  0.51100000000E-03 0.  1.
         11   -1    0    0    0    0 -0.00000000000E+00 -0.00000000000E+00 -0.45593999997E+02  0.45594000000E+02  0.51100000000E-03 0. -1.
         23    2    1    2    0    0  0.44408920985E-15  0.00000000000E+00  0.71054273576E-14  0.91188000000E+02  0.91188000000E+02 0.  0.
    9900012    2    3    3    0    0  0.30197300281E+01 -0.24244766238E+01  0.36616633859E+02  0.54367153574E+02  0.40000158202E+02 0.  0.
         12    1    3    3    0    0 -0.30197300281E+01  0.24244766238E+01 -0.36616633859E+02  0.36820846426E+02  0.00000000000E+00 0. -1.
         11    1    4    4    0    0 -0.75183661830E+01  0.35556124991E+00  0.29525012123E+01  0.80851417757E+01  0.51100000000E-03 0. -1.
        -11    1    4    4    0    0 -0.93148781428E+01 -0.50463160630E+01  0.60602247790E+01  0.12204859084E+02  0.51100000000E-03 0.  1.
        -12    1    4    4    0    0  0.19852974354E+02  0.22662781892E+01  0.27603907868E+02  0.34077152714E+02  0.00000000000E+00 0.  1.
</event>
<event>
 8    1  0.1271559E-006  0.9118800E+02  0.7816164E-02  0.1184000E+00
        -11   -1    0    0    0    0  0.00000000000E+00  0.00000000000E+00  0.45593999997E+02  0.45594000000E+02  0.51100000000E-03 0. -1.
         11   -1    0    0    0    0 -0.00000000000E+00 -0.00000000000E+00 -0.45593999997E+02  0.45594000000E+02  0.51100000000E-03 0.  1.
         23    2    1    2    0    0  0.00000000000E+00 -0.13322676296E-14  0.00000000000E+00  0.91188000000E+02  0.91188000000E+02 0.  0.
    9900012    2    3    3    0    0 -0.36679390874E+02  0.10796637844E+01  0.30401142716E+01  0.54367004853E+02  0.39999819164E+02 0.  0.
        -12    1    3    3    0    0  0.36679390874E+02 -0.10796637844E+01 -0.30401142716E+01  0.36820995147E+02  0.00000000000E+00 0.  1.
         11    1    4    4    0    0 -0.39887412151E+01 -0.11876889023E+01  0.97457611872E+01  0.10597194100E+02  0.51100000000E-03 0.  1.
        -11    1    4    4    0    0 -0.92548474617E+01 -0.10293497050E+02  0.49999062815E+01  0.14717586288E+02  0.51100000000E-03 0. -1.
        -12    1    4    4    0    0 -0.23435802198E+02  0.12560849737E+02 -0.11705553197E+02  0.29052224466E+02  0.00000000000E+00 0.  1.
</event>
<event>
 8    1  0.1271559E-006  0.9118800E+02  0.7816164E-02  0.1184000E+00
        -11   -1    0    0    0    0  0.00000000000E+00  0.00000000000E+00  0.45593999997E+02  0.45594000000E+02  0.51100000000E-03 0.  1.
         11   -1    0    0    0    0 -0.00000000000E+00 -0.00000000000E+00 -0.45593999997E+02  0.45594000000E+02  0.51100000000E-03 0. -1.
         23    2    1    2    0    0 -0.26645352591E-14  0.35527136788E-14 -0.35527136788E-14  0.91188000000E+02  0.91188000000E+02 0.  0.
    9900012    2    3    3    0    0  0.32850337207E+01 -0.24904078984E+02  0.26921644442E+02  0.54367088332E+02  0.40000009471E+02 0.  0.
         12    1    3    3    0    0 -0.32850337207E+01  0.24904078984E+02 -0.26921644442E+02  0.36820911668E+02  0.00000000000E+00 0. -1.
         11    1    4    4    0    0 -0.96742307206E+01 -0.13397189961E+02 -0.47924718583E+01  0.17205906708E+02  0.51100000000E-03 0. -1.
        -11    1    4    4    0    0  0.15121829704E+01 -0.61683102845E+01  0.14317270708E+02  0.15662662286E+02  0.51100000000E-03 0.  1.
         12    1    4    4    0    0  0.11447081471E+02 -0.53385787387E+01  0.17396845592E+02  0.21498519338E+02  0.00000000000E+00 0. -1.
</event>
<event>
 8    1  0.1271559E-006  0.9118800E+02  0.7816164E-02  0.1184000E+00
        -11   -1    0    0    0    0  0.00000000000E+00  0.00000000000E+00  0.45593999997E+02  0.45594000000E+02  0.51100000000E-03 0.  1.
         11   -1    0    0    0    0 -0.00000000000E+00 -0.00000000000E+00 -0.45593999997E+02  0.45594000000E+02  0.51100000000E-03 0. -1.
         23    2    1    2    0    0  0.00000000000E+00  0.00000000000E+00  0.00000000000E+00  0.91188000000E+02  0.91188000000E+02 0.  0.
    9900012    2    3    3    0    0  0.46647676130E+01 -0.27917925613E+02 -0.23550113575E+02  0.54367102716E+02  0.40000042261E+02 0.  0.
        -12    1    3    3    0    0 -0.46647676130E+01  0.27917925613E+02  0.23550113575E+02  0.36820897284E+02  0.00000000000E+00 0.  1.
         11    1    4    4    0    0 -0.11931647032E+02 -0.20244038488E+02 -0.81030846937E+01  0.24856493659E+02  0.51100000000E-03 0. -1.
        -11    1    4    4    0    0  0.10371139855E+02 -0.59455941184E+01  0.84495696846E+00  0.11984347452E+02  0.51100000000E-03 0.  1.
         12    1    4    4    0    0  0.62252747906E+01 -0.17282930068E+01 -0.16291985849E+02  0.17526261605E+02  0.00000000000E+00 0. -1.
</event>
<event>
 8    1  0.1271559E-006  0.9118800E+02  0.7816164E-02  0.1184000E+00
        -11   -1    0    0    0    0  0.00000000000E+00  0.00000000000E+00  0.45593999997E+02  0.45594000000E+02  0.51100000000E-03 0.  1.
         11   -1    0    0    0    0 -0.00000000000E+00 -0.00000000000E+00 -0.45593999997E+02  0.45594000000E+02  0.51100000000E-03 0. -1.
         23    2    1    2    0    0  0.00000000000E+00 -0.35527136788E-14 -0.35527136788E-14  0.91188000000E+02  0.91188000000E+02 0.  0.
    9900012    2    3    3    0    0  0.85748138192E+01  0.17572112685E+02  0.31200498689E+02  0.54367113336E+02  0.40000066472E+02 0.  0.
         12    1    3    3    0    0 -0.85748138192E+01 -0.17572112685E+02 -0.31200498689E+02  0.36820886664E+02  0.00000000000E+00 0. -1.
         11    1    4    4    0    0 -0.56490046006E+01 -0.33258055216E+01  0.28063518213E+01  0.71307675709E+01  0.51100000000E-03 0. -1.
        -11    1    4    4    0    0  0.18917911292E+02  0.43386586672E+01  0.20721945287E+02  0.28392082407E+02  0.51100000000E-03 0.  1.
         12    1    4    4    0    0 -0.46940928722E+01  0.16559259540E+02  0.76722015809E+01  0.18844263358E+02  0.00000000000E+00 0. -1.
</event>
<event>
 8    1  0.1271559E-006  0.9118800E+02  0.7816164E-02  0.1184000E+00
        -11   -1    0    0    0    0  0.00000000000E+00  0.00000000000E+00  0.45593999997E+02  0.45594000000E+02  0.51100000000E-03 0.  1.
         11   -1    0    0    0    0 -0.00000000000E+00 -0.00000000000E+00 -0.45593999997E+02  0.45594000000E+02  0.51100000000E-03 0. -1.
         23    2    1    2    0    0  0.00000000000E+00  0.00000000000E+00 -0.44408920985E-15  0.91188000000E+02  0.91188000000E+02 0.  0.
    9900012    2    3    3    0    0  0.33999337800E+02  0.13792460020E+02  0.30972079760E+01  0.54367087172E+02  0.40000006826E+02 0.  0.
        -12    1    3    3    0    0 -0.33999337800E+02 -0.13792460020E+02 -0.30972079760E+01  0.36820912828E+02  0.00000000000E+00 0.  1.
         11    1    4    4    0    0  0.27085931425E+02  0.12469773260E+02 -0.51052659838E+01  0.30252382838E+02  0.51100000000E-03 0. -1.
        -11    1    4    4    0    0  0.10787051351E+02 -0.71150083916E+00  0.13467096376E+02  0.17269319482E+02  0.51100000000E-03 0.  1.
        -12    1    4    4    0    0 -0.38736449760E+01  0.20341875989E+01 -0.52646224167E+01  0.68453848524E+01  0.00000000000E+00 0.  1.
</event>
<event>
 8    1  0.1271559E-006  0.9118800E+02  0.7816164E-02  0.1184000E+00
        -11   -1    0    0    0    0  0.00000000000E+00  0.00000000000E+00  0.45593999997E+02  0.45594000000E+02  0.51100000000E-03 0.  1.
         11   -1    0    0    0    0 -0.00000000000E+00 -0.00000000000E+00 -0.45593999997E+02  0.45594000000E+02  0.51100000000E-03 0. -1.
         23    2    1    2    0    0 -0.35527136788E-14  0.88817841970E-15  0.35527136788E-14  0.91188000000E+02  0.91188000000E+02 0.  0.
    9900012    2    3    3    0    0 -0.31023169091E+02  0.72686644516E+01  0.18452947025E+02  0.54367058170E+02  0.39999940711E+02 0.  0.
        -12    1    3    3    0    0  0.31023169091E+02 -0.72686644516E+01 -0.18452947025E+02  0.36820941830E+02  0.00000000000E+00 0.  1.
         11    1    4    4    0    0 -0.19202043953E+02  0.54570913922E+00 -0.74021119509E+01  0.20586586702E+02  0.51100000000E-03 0. -1.
        -11    1    4    4    0    0  0.29784228636E+01  0.32272328825E+01  0.13471595097E+02  0.14169329891E+02  0.51100000000E-03 0.  1.
        -12    1    4    4    0    0 -0.14799548001E+02  0.34957224299E+01  0.12383463878E+02  0.19611141578E+02  0.00000000000E+00 0.  1.
</event>
<event>
 8    1  0.1271559E-006  0.9118800E+02  0.7816164E-02  0.1184000E+00
        -11   -1    0    0    0    0  0.00000000000E+00  0.00000000000E+00  0.45593999997E+02  0.45594000000E+02  0.51100000000E-03 0. -1.
         11   -1    0    0    0    0 -0.00000000000E+00 -0.00000000000E+00 -0.45593999997E+02  0.45594000000E+02  0.51100000000E-03 0.  1.
         23    2    1    2    0    0  0.35527136788E-14 -0.35527136788E-14 -0.35527136788E-14  0.91188000000E+02  0.91188000000E+02 0.  0.
    9900012    2    3    3    0    0 -0.25186535269E+02  0.16422400144E+02  0.21253864795E+02  0.54367033771E+02  0.39999885087E+02 0.  0.
        -12    1    3    3    0    0  0.25186535269E+02 -0.16422400144E+02 -0.21253864795E+02  0.36820966229E+02  0.00000000000E+00 0.  1.
         11    1    4    4    0    0  0.16441655036E+00 -0.96495834418E+01  0.84458427201E+01  0.12824732080E+02  0.51100000000E-03 0. -1.
        -11    1    4    4    0    0 -0.11471042821E+02  0.42359302058E+01  0.94440741389E+01  0.15450516648E+02  0.51100000000E-03 0.  1.
        -12    1    4    4    0    0 -0.13879908999E+02  0.21836053380E+02  0.33639479356E+01  0.26091785043E+02  0.00000000000E+00 0.  1.
</event>
<event>
 8    1  0.1271559E-006  0.9118800E+02  0.7816164E-02  0.1184000E+00
        -11   -1    0    0    0    0  0.00000000000E+00  0.00000000000E+00  0.45593999997E+02  0.45594000000E+02  0.51100000000E-03 0.  1.
         11   -1    0    0    0    0 -0.00000000000E+00 -0.00000000000E+00 -0.45593999997E+02  0.45594000000E+02  0.51100000000E-03 0. -1.
         23    2    1    2    0    0  0.35527136788E-14 -0.35527136788E-14 -0.17763568394E-14  0.91188000000E+02  0.91188000000E+02 0.  0.
    9900012    2    3    3    0    0  0.20225053618E+02 -0.30039210256E+02 -0.66607316343E+01  0.54367186694E+02  0.40000233705E+02 0.  0.
         12    1    3    3    0    0 -0.20225053618E+02  0.30039210256E+02  0.66607316343E+01  0.36820813306E+02  0.00000000000E+00 0. -1.
         11    1    4    4    0    0 -0.11302957970E+01 -0.33862967519E+01 -0.42643762575E+01  0.55614278209E+01  0.51100000000E-03 0. -1.
        -11    1    4    4    0    0  0.25097424734E+01  0.80310510258E+01  0.30683407284E+01  0.89560763143E+01  0.51100000000E-03 0.  1.
         12    1    4    4    0    0  0.18845606942E+02 -0.34683964530E+02 -0.54646961052E+01  0.39849682558E+02  0.00000000000E+00 0. -1.
</event>
<event>
 8    1  0.1271559E-006  0.9118800E+02  0.7816164E-02  0.1184000E+00
        -11   -1    0    0    0    0  0.00000000000E+00  0.00000000000E+00  0.45593999997E+02  0.45594000000E+02  0.51100000000E-03 0. -1.
         11   -1    0    0    0    0 -0.00000000000E+00 -0.00000000000E+00 -0.45593999997E+02  0.45594000000E+02  0.51100000000E-03 0.  1.
         23    2    1    2    0    0  0.00000000000E+00  0.00000000000E+00  0.35527136788E-14  0.91188000000E+02  0.91188000000E+02 0.  0.
    9900012    2    3    3    0    0  0.18111184069E+02  0.82832966562E+01 -0.30970112982E+02  0.54367137843E+02  0.40000122340E+02 0.  0.
         12    1    3    3    0    0 -0.18111184069E+02 -0.82832966562E+01  0.30970112982E+02  0.36820862157E+02  0.00000000000E+00 0. -1.
         11    1    4    4    0    0  0.15830420477E+01 -0.66053334359E+01 -0.85524107127E+01  0.10921546648E+02  0.51100000000E-03 0. -1.
        -11    1    4    4    0    0 -0.11089070972E+01 -0.62361623936E+00 -0.19767453324E+02  0.19808351353E+02  0.51100000000E-03 0.  1.
         12    1    4    4    0    0  0.17637049119E+02  0.15512246331E+02 -0.26502489456E+01  0.23637239842E+02  0.00000000000E+00 0. -1.
</event>
<event>
 8    1  0.1271559E-006  0.9118800E+02  0.7816164E-02  0.1184000E+00
        -11   -1    0    0    0    0  0.00000000000E+00  0.00000000000E+00  0.45593999997E+02  0.45594000000E+02  0.51100000000E-03 0.  1.
         11   -1    0    0    0    0 -0.00000000000E+00 -0.00000000000E+00 -0.45593999997E+02  0.45594000000E+02  0.51100000000E-03 0. -1.
         23    2    1    2    0    0  0.00000000000E+00  0.00000000000E+00  0.00000000000E+00  0.91188000000E+02  0.91188000000E+02 0.  0.
    9900012    2    3    3    0    0  0.16229862488E+02 -0.28094634093E+01  0.32931449790E+02  0.54367056146E+02  0.39999936096E+02 0.  0.
         12    1    3    3    0    0 -0.16229862488E+02  0.28094634093E+01 -0.32931449790E+02  0.36820943854E+02  0.00000000000E+00 0. -1.
         11    1    4    4    0    0  0.16558879058E+02 -0.12694532944E+02  0.23377615504E+02  0.31334654126E+02  0.51100000000E-03 0. -1.
        -11    1    4    4    0    0 -0.52142636937E+01  0.53939913827E+00 -0.34609447532E+01  0.62815313534E+01  0.51100000000E-03 0.  1.
        -12    1    4    4    0    0  0.48852471240E+01  0.93456703966E+01  0.13014779040E+02  0.16750870666E+02  0.00000000000E+00 0.  1.
</event>
<event>
 8    1  0.1271559E-006  0.9118800E+02  0.7816164E-02  0.1184000E+00
        -11   -1    0    0    0    0  0.00000000000E+00  0.00000000000E+00  0.45593999997E+02  0.45594000000E+02  0.51100000000E-03 0.  1.
         11   -1    0    0    0    0 -0.00000000000E+00 -0.00000000000E+00 -0.45593999997E+02  0.45594000000E+02  0.51100000000E-03 0. -1.
         23    2    1    2    0    0  0.17763568394E-14  0.71054273576E-14  0.00000000000E+00  0.91188000000E+02  0.91188000000E+02 0.  0.
    9900012    2    3    3    0    0 -0.14701704941E+02 -0.33480569717E+02 -0.43234731386E+01  0.54367067139E+02  0.39999961157E+02 0.  0.
        -12    1    3    3    0    0  0.14701704941E+02  0.33480569717E+02  0.43234731386E+01  0.36820932861E+02  0.00000000000E+00 0.  1.
         11    1    4    4    0    0 -0.49190605188E+01 -0.29458911012E+01 -0.14592223185E+02  0.15678278238E+02  0.51100000000E-03 0. -1.
        -11    1    4    4    0    0 -0.56620882821E+01 -0.13528311975E+02 -0.49703437350E+01  0.15484792079E+02  0.51100000000E-03 0.  1.
        -12    1    4    4    0    0 -0.41205561403E+01 -0.17006366641E+02  0.15239093782E+02  0.23203996822E+02  0.00000000000E+00 0.  1.
</event>
<event>
 8    1  0.1271559E-006  0.9118800E+02  0.7816164E-02  0.1184000E+00
        -11   -1    0    0    0    0  0.00000000000E+00  0.00000000000E+00  0.45593999997E+02  0.45594000000E+02  0.51100000000E-03 0. -1.
         11   -1    0    0    0    0 -0.00000000000E+00 -0.00000000000E+00 -0.45593999997E+02  0.45594000000E+02  0.51100000000E-03 0.  1.
         23    2    1    2    0    0 -0.17763568394E-14 -0.22204460493E-15 -0.71054273576E-14  0.91188000000E+02  0.91188000000E+02 0.  0.
    9900012    2    3    3    0    0  0.13659687864E+02 -0.18547151252E+01  0.34143132092E+02  0.54367075109E+02  0.39999979327E+02 0.  0.
        -12    1    3    3    0    0 -0.13659687864E+02  0.18547151252E+01 -0.34143132092E+02  0.36820924891E+02  0.00000000000E+00 0.  1.
         11    1    4    4    0    0  0.16198750041E+02 -0.99495276971E+00  0.40718664190E+02  0.43833766067E+02  0.51100000000E-03 0. -1.
        -11    1    4    4    0    0 -0.18435176216E+01  0.31499977776E+01 -0.49521915696E+01  0.61518488947E+01  0.51100000000E-03 0.  1.
         12    1    4    4    0    0 -0.69554455505E+00 -0.40097601332E+01 -0.16233405286E+01  0.43814601477E+01  0.00000000000E+00 0. -1.
</event>
<event>
 8    1  0.1271559E-006  0.9118800E+02  0.7816164E-02  0.1184000E+00
        -11   -1    0    0    0    0  0.00000000000E+00  0.00000000000E+00  0.45593999997E+02  0.45594000000E+02  0.51100000000E-03 0. -1.
         11   -1    0    0    0    0 -0.00000000000E+00 -0.00000000000E+00 -0.45593999997E+02  0.45594000000E+02  0.51100000000E-03 0.  1.
         23    2    1    2    0    0 -0.35527136788E-14  0.00000000000E+00  0.88817841970E-15  0.91188000000E+02  0.91188000000E+02 0.  0.
    9900012    2    3    3    0    0 -0.22768645075E+02  0.28185945949E+02 -0.65513064340E+01  0.54367104253E+02  0.40000045765E+02 0.  0.
         12    1    3    3    0    0  0.22768645075E+02 -0.28185945949E+02  0.65513064340E+01  0.36820895747E+02  0.00000000000E+00 0. -1.
         11    1    4    4    0    0 -0.63459098641E+01  0.14920497389E+02 -0.69012643744E+01  0.17621556815E+02  0.51100000000E-03 0.  1.
        -11    1    4    4    0    0 -0.17807456214E+02  0.30603539948E+01 -0.11210013589E+02  0.21263482037E+02  0.51100000000E-03 0. -1.
         12    1    4    4    0    0  0.13847210028E+01  0.10205094565E+02  0.11559971529E+02  0.15482065402E+02  0.00000000000E+00 0. -1.
</event>
<event>
 8    1  0.1271559E-006  0.9118800E+02  0.7816164E-02  0.1184000E+00
        -11   -1    0    0    0    0  0.00000000000E+00  0.00000000000E+00  0.45593999997E+02  0.45594000000E+02  0.51100000000E-03 0.  1.
         11   -1    0    0    0    0 -0.00000000000E+00 -0.00000000000E+00 -0.45593999997E+02  0.45594000000E+02  0.51100000000E-03 0. -1.
         23    2    1    2    0    0  0.35527136788E-14  0.00000000000E+00  0.00000000000E+00  0.91188000000E+02  0.91188000000E+02 0.  0.
    9900012    2    3    3    0    0 -0.13051449222E+02 -0.32869800215E+02  0.10247660371E+02  0.54367100554E+02  0.40000037332E+02 0.  0.
         12    1    3    3    0    0  0.13051449222E+02  0.32869800215E+02 -0.10247660371E+02  0.36820899446E+02  0.00000000000E+00 0. -1.
         11    1    4    4    0    0 -0.35619581030E+00 -0.11947502595E+02 -0.11004392358E+02  0.16247041120E+02  0.51100000000E-03 0.  1.
        -11    1    4    4    0    0  0.26130453032E+01 -0.38304149669E+01 -0.23539903556E+01  0.52001303282E+01  0.51100000000E-03 0. -1.
         12    1    4    4    0    0 -0.15308298715E+02 -0.17091882652E+02  0.23606043085E+02  0.32919929105E+02  0.00000000000E+00 0. -1.
</event>
<event>
 8    1  0.1271559E-006  0.9118800E+02  0.7816164E-02  0.1184000E+00
        -11   -1    0    0    0    0  0.00000000000E+00  0.00000000000E+00  0.45593999997E+02  0.45594000000E+02  0.51100000000E-03 0.  1.
         11   -1    0    0    0    0 -0.00000000000E+00 -0.00000000000E+00 -0.45593999997E+02  0.45594000000E+02  0.51100000000E-03 0. -1.
         23    2    1    2    0    0  0.00000000000E+00  0.00000000000E+00  0.00000000000E+00  0.91188000000E+02  0.91188000000E+02 0.  0.
    9900012    2    3    3    0    0 -0.29851554284E+02  0.19243615951E+02  0.97132054088E+01  0.54367103659E+02  0.40000044411E+02 0.  0.
        -12    1    3    3    0    0  0.29851554284E+02 -0.19243615951E+02 -0.97132054088E+01  0.36820896341E+02  0.00000000000E+00 0.  1.
         11    1    4    4    0    0 -0.97882110695E+01  0.15756491195E+02  0.66705047142E+01  0.19712222709E+02  0.51100000000E-03 0. -1.
        -11    1    4    4    0    0 -0.48749027582E+01  0.11856975237E+02  0.97029815951E+01  0.16077947343E+02  0.51100000000E-03 0.  1.
         12    1    4    4    0    0 -0.15188440457E+02 -0.83698504804E+01 -0.66602809005E+01  0.18576933607E+02  0.00000000000E+00 0. -1.
</event>
<event>
 8    1  0.1271559E-006  0.9118800E+02  0.7816164E-02  0.1184000E+00
        -11   -1    0    0    0    0  0.00000000000E+00  0.00000000000E+00  0.45593999997E+02  0.45594000000E+02  0.51100000000E-03 0. -1.
         11   -1    0    0    0    0 -0.00000000000E+00 -0.00000000000E+00 -0.45593999997E+02  0.45594000000E+02  0.51100000000E-03 0.  1.
         23    2    1    2    0    0  0.00000000000E+00  0.00000000000E+00  0.35527136788E-14  0.91188000000E+02  0.91188000000E+02 0.  0.
    9900012    2    3    3    0    0 -0.37698347460E+01 -0.29930758150E+02  0.21112066291E+02  0.54367064644E+02  0.39999955469E+02 0.  0.
        -12    1    3    3    0    0  0.37698347460E+01  0.29930758150E+02 -0.21112066291E+02  0.36820935356E+02  0.00000000000E+00 0.  1.
         11    1    4    4    0    0 -0.71306878856E+01 -0.69448295363E+01  0.20652371168E+02  0.22925919876E+02  0.51100000000E-03 0. -1.
        -11    1    4    4    0    0  0.22557809681E+01 -0.26567748626E+02  0.31191039511E+01  0.26845160170E+02  0.51100000000E-03 0.  1.
         12    1    4    4    0    0  0.11050721715E+01  0.35818200129E+01 -0.26594088287E+01  0.45959845982E+01  0.00000000000E+00 0. -1.
</event>
<event>
 8    1  0.1271559E-006  0.9118800E+02  0.7816164E-02  0.1184000E+00
        -11   -1    0    0    0    0  0.00000000000E+00  0.00000000000E+00  0.45593999997E+02  0.45594000000E+02  0.51100000000E-03 0.  1.
         11   -1    0    0    0    0 -0.00000000000E+00 -0.00000000000E+00 -0.45593999997E+02  0.45594000000E+02  0.51100000000E-03 0. -1.
         23    2    1    2    0    0  0.00000000000E+00  0.44408920985E-15 -0.13322676296E-14  0.91188000000E+02  0.91188000000E+02 0.  0.
    9900012    2    3    3    0    0  0.36687976753E+02  0.30113329054E+01  0.84009560805E+00  0.54367061327E+02  0.39999947908E+02 0.  0.
        -12    1    3    3    0    0 -0.36687976753E+02 -0.30113329054E+01 -0.84009560805E+00  0.36820938673E+02  0.00000000000E+00 0.  1.
         11    1    4    4    0    0  0.20633617057E+01 -0.36921783577E+01  0.35927501584E+01  0.55495492174E+01  0.51100000000E-03 0.  1.
        -11    1    4    4    0    0  0.35980590772E+02  0.62171906440E+01  0.84859987621E+01  0.37486911676E+02  0.51100000000E-03 0. -1.
        -12    1    4    4    0    0 -0.13559757245E+01  0.48632061911E+00 -0.11238653312E+02  0.11330600434E+02  0.00000000000E+00 0.  1.
</event>
<event>
 8    1  0.1271559E-006  0.9118800E+02  0.7816164E-02  0.1184000E+00
        -11   -1    0    0    0    0  0.00000000000E+00  0.00000000000E+00  0.45593999997E+02  0.45594000000E+02  0.51100000000E-03 0.  1.
         11   -1    0    0    0    0 -0.00000000000E+00 -0.00000000000E+00 -0.45593999997E+02  0.45594000000E+02  0.51100000000E-03 0. -1.
         23    2    1    2    0    0  0.00000000000E+00 -0.71054273576E-14 -0.35527136788E-14  0.91188000000E+02  0.91188000000E+02 0.  0.
    9900012    2    3    3    0    0 -0.11157463651E+02 -0.33866767775E+02 -0.91833416242E+01  0.54367072282E+02  0.39999972880E+02 0.  0.
         12    1    3    3    0    0  0.11157463651E+02  0.33866767775E+02  0.91833416242E+01  0.36820927718E+02  0.00000000000E+00 0. -1.
         11    1    4    4    0    0 -0.79566723072E+01 -0.24380588367E+02  0.10916553155E+02  0.27872797785E+02  0.51100000000E-03 0. -1.
        -11    1    4    4    0    0 -0.72887543943E+01 -0.49170441421E+01 -0.48121439923E+01  0.10022973300E+02  0.51100000000E-03 0.  1.
         12    1    4    4    0    0  0.40879630506E+01 -0.45691352659E+01 -0.15287750786E+02  0.16471301196E+02  0.00000000000E+00 0. -1.
</event>
<event>
 8    1  0.1271559E-006  0.9118800E+02  0.7816164E-02  0.1184000E+00
        -11   -1    0    0    0    0  0.00000000000E+00  0.00000000000E+00  0.45593999997E+02  0.45594000000E+02  0.51100000000E-03 0. -1.
         11   -1    0    0    0    0 -0.00000000000E+00 -0.00000000000E+00 -0.45593999997E+02  0.45594000000E+02  0.51100000000E-03 0.  1.
         23    2    1    2    0    0  0.00000000000E+00  0.00000000000E+00 -0.35527136788E-14  0.91188000000E+02  0.91188000000E+02 0.  0.
    9900012    2    3    3    0    0 -0.33386949177E+02  0.69748863972E+01  0.13872367186E+02  0.54367082209E+02  0.39999995512E+02 0.  0.
        -12    1    3    3    0    0  0.33386949177E+02 -0.69748863972E+01 -0.13872367186E+02  0.36820917791E+02  0.00000000000E+00 0.  1.
         11    1    4    4    0    0 -0.21660580962E+02 -0.28674882633E+00  0.36927083309E+01  0.21974965018E+02  0.51100000000E-03 0. -1.
        -11    1    4    4    0    0 -0.35080346144E+01  0.15046560758E+02 -0.22126631578E+01  0.15607728086E+02  0.51100000000E-03 0.  1.
         12    1    4    4    0    0 -0.82183336010E+01 -0.77849255341E+01  0.12392322013E+02  0.16784389105E+02  0.00000000000E+00 0. -1.
</event>
<event>
 8    1  0.1271559E-006  0.9118800E+02  0.7816164E-02  0.1184000E+00
        -11   -1    0    0    0    0  0.00000000000E+00  0.00000000000E+00  0.45593999997E+02  0.45594000000E+02  0.51100000000E-03 0.  1.
         11   -1    0    0    0    0 -0.00000000000E+00 -0.00000000000E+00 -0.45593999997E+02  0.45594000000E+02  0.51100000000E-03 0. -1.
         23    2    1    2    0    0 -0.44408920985E-15  0.00000000000E+00  0.17763568394E-14  0.91188000000E+02  0.91188000000E+02 0.  0.
    9900012    2    3    3    0    0  0.19073453741E+01 -0.34491499299E+02 -0.12746647868E+02  0.54367102100E+02  0.40000040857E+02 0.  0.
        -12    1    3    3    0    0 -0.19073453741E+01  0.34491499299E+02  0.12746647868E+02  0.36820897900E+02  0.00000000000E+00 0.  1.
         11    1    4    4    0    0  0.55728533950E+00 -0.43632573309E+01 -0.17366944108E+02  0.17915337825E+02  0.51100000000E-03 0. -1.
        -11    1    4    4    0    0  0.64765991824E+01 -0.26056865468E+02 -0.22723101508E+01  0.26945685530E+02  0.51100000000E-03 0.  1.
        -12    1    4    4    0    0 -0.51265391478E+01 -0.40713765004E+01  0.68926063910E+01  0.95060787449E+01  0.00000000000E+00 0.  1.
</event>
<event>
 8    1  0.1271559E-006  0.9118800E+02  0.7816164E-02  0.1184000E+00
        -11   -1    0    0    0    0  0.00000000000E+00  0.00000000000E+00  0.45593999997E+02  0.45594000000E+02  0.51100000000E-03 0.  1.
         11   -1    0    0    0    0 -0.00000000000E+00 -0.00000000000E+00 -0.45593999997E+02  0.45594000000E+02  0.51100000000E-03 0. -1.
         23    2    1    2    0    0  0.00000000000E+00 -0.17763568394E-14  0.00000000000E+00  0.91188000000E+02  0.91188000000E+02 0.  0.
    9900012    2    3    3    0    0 -0.14133611073E+02 -0.80950287677E+01 -0.33022589951E+02  0.54367083393E+02  0.39999998211E+02 0.  0.
        -12    1    3    3    0    0  0.14133611073E+02  0.80950287677E+01  0.33022589951E+02  0.36820916607E+02  0.00000000000E+00 0.  1.
         11    1    4    4    0    0 -0.81002216855E+01 -0.52906742452E+01 -0.58253718193E+00  0.96924803406E+01  0.51100000000E-03 0.  1.
        -11    1    4    4    0    0  0.49680958678E+01  0.10467822301E+02 -0.21001595623E+02  0.23985918770E+02  0.51100000000E-03 0. -1.
        -12    1    4    4    0    0 -0.11001485255E+02 -0.13272176823E+02 -0.11438457146E+02  0.20688684282E+02  0.00000000000E+00 0.  1.
</event>
<event>
 8    1  0.1271559E-006  0.9118800E+02  0.7816164E-02  0.1184000E+00
        -11   -1    0    0    0    0  0.00000000000E+00  0.00000000000E+00  0.45593999997E+02  0.45594000000E+02  0.51100000000E-03 0. -1.
         11   -1    0    0    0    0 -0.00000000000E+00 -0.00000000000E+00 -0.45593999997E+02  0.45594000000E+02  0.51100000000E-03 0.  1.
         23    2    1    2    0    0  0.00000000000E+00 -0.35527136788E-14 -0.35527136788E-14  0.91188000000E+02  0.91188000000E+02 0.  0.
    9900012    2    3    3    0    0 -0.24243415051E+02 -0.20852319952E+02 -0.18254232309E+02  0.54367089937E+02  0.40000013130E+02 0.  0.
         12    1    3    3    0    0  0.24243415051E+02  0.20852319952E+02  0.18254232309E+02  0.36820910063E+02  0.00000000000E+00 0. -1.
         11    1    4    4    0    0  0.32921427000E+01 -0.23681361793E+01  0.68200584656E+01  0.79347003886E+01  0.51100000000E-03 0. -1.
        -11    1    4    4    0    0 -0.39530054600E+01  0.19359103668E+01 -0.11683144796E+02  0.12484785689E+02  0.51100000000E-03 0.  1.
         12    1    4    4    0    0 -0.23582552291E+02 -0.20420094139E+02 -0.13391145978E+02  0.33947603860E+02  0.00000000000E+00 0. -1.
</event>
<event>
 8    1  0.1271559E-006  0.9118800E+02  0.7816164E-02  0.1184000E+00
        -11   -1    0    0    0    0  0.00000000000E+00  0.00000000000E+00  0.45593999997E+02  0.45594000000E+02  0.51100000000E-03 0.  1.
         11   -1    0    0    0    0 -0.00000000000E+00 -0.00000000000E+00 -0.45593999997E+02  0.45594000000E+02  0.51100000000E-03 0. -1.
         23    2    1    2    0    0  0.00000000000E+00  0.00000000000E+00 -0.22204460493E-15  0.91188000000E+02  0.91188000000E+02 0.  0.
    9900012    2    3    3    0    0  0.35099332467E+02 -0.11014252453E+02  0.15814435511E+01  0.54367111086E+02  0.40000061342E+02 0.  0.
         12    1    3    3    0    0 -0.35099332467E+02  0.11014252453E+02 -0.15814435511E+01  0.36820888914E+02  0.00000000000E+00 0. -1.
         11    1    4    4    0    0 -0.37181930004E+01 -0.47776998718E+01  0.15368072183E+01  0.62460509076E+01  0.51100000000E-03 0. -1.
        -11    1    4    4    0    0  0.14112858714E+02 -0.15470629930E+02  0.43778939302E+01  0.21393436541E+02  0.51100000000E-03 0.  1.
        -12    1    4    4    0    0  0.24704666753E+02  0.92340773489E+01 -0.43332575974E+01  0.26727623637E+02  0.00000000000E+00 0.  1.
</event>
<event>
 8    1  0.1271559E-006  0.9118800E+02  0.7816164E-02  0.1184000E+00
        -11   -1    0    0    0    0  0.00000000000E+00  0.00000000000E+00  0.45593999997E+02  0.45594000000E+02  0.51100000000E-03 0.  1.
         11   -1    0    0    0    0 -0.00000000000E+00 -0.00000000000E+00 -0.45593999997E+02  0.45594000000E+02  0.51100000000E-03 0. -1.
         23    2    1    2    0    0  0.00000000000E+00  0.35527136788E-14 -0.35527136788E-14  0.91188000000E+02  0.91188000000E+02 0.  0.
    9900012    2    3    3    0    0  0.14816415504E+02  0.28677600848E+02 -0.17715734806E+02  0.54367106224E+02  0.40000050258E+02 0.  0.
         12    1    3    3    0    0 -0.14816415504E+02 -0.28677600848E+02  0.17715734806E+02  0.36820893776E+02  0.00000000000E+00 0. -1.
         11    1    4    4    0    0  0.17373761223E+02  0.18446821316E+02 -0.22032757408E+02  0.33579386458E+02  0.51100000000E-03 0. -1.
        -11    1    4    4    0    0  0.69218835280E+00 -0.47789656340E+01  0.21206940950E+01  0.52739909891E+01  0.51100000000E-03 0.  1.
        -12    1    4    4    0    0 -0.32495340710E+01  0.15009745166E+02  0.21963285070E+01  0.15513728776E+02  0.00000000000E+00 0.  1.
</event>
<event>
 8    1  0.1271559E-006  0.9118800E+02  0.7816164E-02  0.1184000E+00
        -11   -1    0    0    0    0  0.00000000000E+00  0.00000000000E+00  0.45593999997E+02  0.45594000000E+02  0.51100000000E-03 0.  1.
         11   -1    0    0    0    0 -0.00000000000E+00 -0.00000000000E+00 -0.45593999997E+02  0.45594000000E+02  0.51100000000E-03 0. -1.
         23    2    1    2    0    0  0.88817841970E-15  0.00000000000E+00 -0.71054273576E-14  0.91188000000E+02  0.91188000000E+02 0.  0.
    9900012    2    3    3    0    0 -0.45625297142E+01  0.16722142073E+02 -0.32485908063E+02  0.54367069328E+02  0.39999966147E+02 0.  0.
        -12    1    3    3    0    0  0.45625297142E+01 -0.16722142073E+02  0.32485908063E+02  0.36820930672E+02  0.00000000000E+00 0.  1.
         11    1    4    4    0    0  0.31549339011E+01  0.32797719245E+01 -0.27797203261E+02  0.28167268614E+02  0.51100000000E-03 0. -1.
        -11    1    4    4    0    0  0.64518360668E+01  0.75666798377E+01  0.63201800605E+00  0.99639489872E+01  0.51100000000E-03 0.  1.
         12    1    4    4    0    0 -0.14169299682E+02  0.58756903104E+01 -0.53207228082E+01  0.16235851727E+02  0.00000000000E+00 0. -1.
</event>
<event>
 8    1  0.1271559E-006  0.9118800E+02  0.7816164E-02  0.1184000E+00
        -11   -1    0    0    0    0  0.00000000000E+00  0.00000000000E+00  0.45593999997E+02  0.45594000000E+02  0.51100000000E-03 0. -1.
         11   -1    0    0    0    0 -0.00000000000E+00 -0.00000000000E+00 -0.45593999997E+02  0.45594000000E+02  0.51100000000E-03 0.  1.
         23    2    1    2    0    0 -0.11102230246E-14  0.00000000000E+00  0.00000000000E+00  0.91188000000E+02  0.91188000000E+02 0.  0.
    9900012    2    3    3    0    0  0.13200626922E+01  0.43995452436E+01 -0.36533284168E+02  0.54367089963E+02  0.40000013189E+02 0.  0.
         12    1    3    3    0    0 -0.13200626922E+01 -0.43995452436E+01  0.36533284168E+02  0.36820910037E+02  0.00000000000E+00 0. -1.
         11    1    4    4    0    0  0.23112339808E+01 -0.79466311279E+01  0.22325775025E+00  0.82789246331E+01  0.51100000000E-03 0. -1.
        -11    1    4    4    0    0 -0.82020236720E+01  0.13527297338E+02 -0.10880325948E+02  0.19200064026E+02  0.51100000000E-03 0.  1.
         12    1    4    4    0    0  0.72108523835E+01 -0.11811209670E+01 -0.25876215970E+02  0.26888101304E+02  0.00000000000E+00 0. -1.
</event>
<event>
 8    1  0.1271559E-006  0.9118800E+02  0.7816164E-02  0.1184000E+00
        -11   -1    0    0    0    0  0.00000000000E+00  0.00000000000E+00  0.45593999997E+02  0.45594000000E+02  0.51100000000E-03 0. -1.
         11   -1    0    0    0    0 -0.00000000000E+00 -0.00000000000E+00 -0.45593999997E+02  0.45594000000E+02  0.51100000000E-03 0.  1.
         23    2    1    2    0    0  0.00000000000E+00  0.00000000000E+00 -0.17763568394E-14  0.91188000000E+02  0.91188000000E+02 0.  0.
    9900012    2    3    3    0    0 -0.14327878076E+02  0.32902683476E+02 -0.82404995443E+01  0.54367075204E+02  0.39999979542E+02 0.  0.
         12    1    3    3    0    0  0.14327878076E+02 -0.32902683476E+02  0.82404995443E+01  0.36820924796E+02  0.00000000000E+00 0. -1.
         11    1    4    4    0    0 -0.30975319382E+00 -0.23138452526E+01  0.50582721388E+01  0.55709913108E+01  0.51100000000E-03 0. -1.
        -11    1    4    4    0    0 -0.17824460535E+02  0.17084950166E+02  0.19972606152E+01  0.24770869297E+02  0.51100000000E-03 0.  1.
         12    1    4    4    0    0  0.38063356528E+01  0.18131578563E+02 -0.15296032298E+02  0.24025214596E+02  0.00000000000E+00 0. -1.
</event>
<event>
 8    1  0.1271559E-006  0.9118800E+02  0.7816164E-02  0.1184000E+00
        -11   -1    0    0    0    0  0.00000000000E+00  0.00000000000E+00  0.45593999997E+02  0.45594000000E+02  0.51100000000E-03 0.  1.
         11   -1    0    0    0    0 -0.00000000000E+00 -0.00000000000E+00 -0.45593999997E+02  0.45594000000E+02  0.51100000000E-03 0. -1.
         23    2    1    2    0    0  0.00000000000E+00  0.88817841970E-15 -0.35527136788E-14  0.91188000000E+02  0.91188000000E+02 0.  0.
    9900012    2    3    3    0    0 -0.18838462128E+02  0.76634096915E+01  0.30694723076E+02  0.54367061281E+02  0.39999947802E+02 0.  0.
         12    1    3    3    0    0  0.18838462128E+02 -0.76634096915E+01 -0.30694723076E+02  0.36820938719E+02  0.00000000000E+00 0. -1.
         11    1    4    4    0    0 -0.81754698346E+01  0.13635326838E+02  0.33010690973E+02  0.36639680181E+02  0.51100000000E-03 0. -1.
        -11    1    4    4    0    0 -0.81893731494E+01  0.10198608485E+01  0.28032185205E+01  0.87157319294E+01  0.51100000000E-03 0.  1.
         12    1    4    4    0    0 -0.24736191437E+01 -0.69917779946E+01 -0.51191864177E+01  0.90116491705E+01  0.00000000000E+00 0. -1.
</event>
<event>
 8    1  0.1271559E-006  0.9118800E+02  0.7816164E-02  0.1184000E+00
        -11   -1    0    0    0    0  0.00000000000E+00  0.00000000000E+00  0.45593999997E+02  0.45594000000E+02  0.51100000000E-03 0. -1.
         11   -1    0    0    0    0 -0.00000000000E+00 -0.00000000000E+00 -0.45593999997E+02  0.45594000000E+02  0.51100000000E-03 0.  1.
         23    2    1    2    0    0  0.00000000000E+00  0.00000000000E+00  0.00000000000E+00  0.91188000000E+02  0.91188000000E+02 0.  0.
    9900012    2    3    3    0    0  0.60950616114E+01 -0.96882505726E+01 -0.34996690939E+02  0.54367077254E+02  0.39999984216E+02 0.  0.
         12    1    3    3    0    0 -0.60950616114E+01  0.96882505726E+01  0.34996690939E+02  0.36820922746E+02  0.00000000000E+00 0. -1.
         11    1    4    4    0    0  0.23932212184E+01 -0.95766754758E-01 -0.68028097563E+00  0.24898717915E+01  0.51100000000E-03 0. -1.
        -11    1    4    4    0    0  0.17070663590E+02  0.46991065236E+01 -0.23791401883E+02  0.29656701795E+02  0.51100000000E-03 0.  1.
         12    1    4    4    0    0 -0.13368823197E+02 -0.14291590341E+02 -0.10525008080E+02  0.22220503668E+02  0.00000000000E+00 0. -1.
</event>
<event>
 8    1  0.1271559E-006  0.9118800E+02  0.7816164E-02  0.1184000E+00
        -11   -1    0    0    0    0  0.00000000000E+00  0.00000000000E+00  0.45593999997E+02  0.45594000000E+02  0.51100000000E-03 0.  1.
         11   -1    0    0    0    0 -0.00000000000E+00 -0.00000000000E+00 -0.45593999997E+02  0.45594000000E+02  0.51100000000E-03 0. -1.
         23    2    1    2    0    0  0.00000000000E+00  0.88817841970E-15  0.17763568394E-14  0.91188000000E+02  0.91188000000E+02 0.  0.
    9900012    2    3    3    0    0  0.33694542871E+02 -0.59168079446E+01 -0.13617957127E+02  0.54367087575E+02  0.40000007744E+02 0.  0.
        -12    1    3    3    0    0 -0.33694542871E+02  0.59168079446E+01  0.13617957127E+02  0.36820912425E+02  0.00000000000E+00 0.  1.
         11    1    4    4    0    0 -0.20290721676E+01  0.46757578433E+01 -0.69064255151E+00  0.51436205795E+01  0.51100000000E-03 0. -1.
        -11    1    4    4    0    0  0.16447990936E+02  0.99191254793E+01 -0.33911896491E+01  0.19504502650E+02  0.51100000000E-03 0.  1.
         12    1    4    4    0    0  0.19275624102E+02 -0.20511691267E+02 -0.95361249263E+01  0.29718964345E+02  0.00000000000E+00 0. -1.
</event>
<event>
 8    1  0.1271559E-006  0.9118800E+02  0.7816164E-02  0.1184000E+00
        -11   -1    0    0    0    0  0.00000000000E+00  0.00000000000E+00  0.45593999997E+02  0.45594000000E+02  0.51100000000E-03 0.  1.
         11   -1    0    0    0    0 -0.00000000000E+00 -0.00000000000E+00 -0.45593999997E+02  0.45594000000E+02  0.51100000000E-03 0. -1.
         23    2    1    2    0    0  0.00000000000E+00 -0.44408920985E-15  0.17763568394E-14  0.91188000000E+02  0.91188000000E+02 0.  0.
    9900012    2    3    3    0    0  0.34658357479E+02 -0.19140024396E+01  0.12284772194E+02  0.54367071490E+02  0.39999971076E+02 0.  0.
        -12    1    3    3    0    0 -0.34658357479E+02  0.19140024396E+01 -0.12284772194E+02  0.36820928510E+02  0.00000000000E+00 0.  1.
         11    1    4    4    0    0 -0.19706223473E+01  0.23928034722E-01 -0.16459248806E+01  0.25676826050E+01  0.51100000000E-03 0. -1.
        -11    1    4    4    0    0 -0.23284815551E+01  0.57763441533E+01  0.10146721474E+02  0.11905626194E+02  0.51100000000E-03 0.  1.
        -12    1    4    4    0    0  0.38957461381E+02 -0.77142746277E+01  0.37839756004E+01  0.39893762691E+02  0.00000000000E+00 0.  1.
</event>
<event>
 8    1  0.1271559E-006  0.9118800E+02  0.7816164E-02  0.1184000E+00
        -11   -1    0    0    0    0  0.00000000000E+00  0.00000000000E+00  0.45593999997E+02  0.45594000000E+02  0.51100000000E-03 0.  1.
         11   -1    0    0    0    0 -0.00000000000E+00 -0.00000000000E+00 -0.45593999997E+02  0.45594000000E+02  0.51100000000E-03 0. -1.
         23    2    1    2    0    0  0.00000000000E+00  0.00000000000E+00  0.00000000000E+00  0.91188000000E+02  0.91188000000E+02 0.  0.
    9900012    2    3    3    0    0 -0.15007863760E+02  0.31842783530E+02  0.10797322140E+02  0.54367068412E+02  0.39999964060E+02 0.  0.
        -12    1    3    3    0    0  0.15007863760E+02 -0.31842783530E+02 -0.10797322140E+02  0.36820931588E+02  0.00000000000E+00 0.  1.
         11    1    4    4    0    0 -0.18342221595E+00  0.11716067068E+02  0.19093444012E+01  0.11872045635E+02  0.51100000000E-03 0. -1.
        -11    1    4    4    0    0  0.10165778172E+02  0.53346460532E+01 -0.16577918120E+01  0.11599558971E+02  0.51100000000E-03 0.  1.
        -12    1    4    4    0    0 -0.24990219716E+02  0.14792070409E+02  0.10545769551E+02  0.30895463807E+02  0.00000000000E+00 0.  1.
</event>
<event>
 8    1  0.1271559E-006  0.9118800E+02  0.7816164E-02  0.1184000E+00
        -11   -1    0    0    0    0  0.00000000000E+00  0.00000000000E+00  0.45593999997E+02  0.45594000000E+02  0.51100000000E-03 0. -1.
         11   -1    0    0    0    0 -0.00000000000E+00 -0.00000000000E+00 -0.45593999997E+02  0.45594000000E+02  0.51100000000E-03 0.  1.
         23    2    1    2    0    0  0.00000000000E+00  0.00000000000E+00 -0.35527136788E-14  0.91188000000E+02  0.91188000000E+02 0.  0.
    9900012    2    3    3    0    0 -0.24044379012E+02  0.22376014007E+02 -0.16642176166E+02  0.54367079419E+02  0.39999989152E+02 0.  0.
         12    1    3    3    0    0  0.24044379012E+02 -0.22376014007E+02  0.16642176166E+02  0.36820920581E+02  0.00000000000E+00 0. -1.
         11    1    4    4    0    0  0.75220385220E-01  0.19921102549E+02 -0.81790211724E+01  0.21534910552E+02  0.51100000000E-03 0. -1.
        -11    1    4    4    0    0 -0.14633044419E+02 -0.27946101955E+01 -0.14186906984E+02  0.20571926627E+02  0.51100000000E-03 0.  1.
        -12    1    4    4    0    0 -0.94865549779E+01  0.52495216534E+01  0.57237519910E+01  0.12260242240E+02  0.00000000000E+00 0.  1.
</event>
<event>
 8    1  0.1271559E-006  0.9118800E+02  0.7816164E-02  0.1184000E+00
        -11   -1    0    0    0    0  0.00000000000E+00  0.00000000000E+00  0.45593999997E+02  0.45594000000E+02  0.51100000000E-03 0.  1.
         11   -1    0    0    0    0 -0.00000000000E+00 -0.00000000000E+00 -0.45593999997E+02  0.45594000000E+02  0.51100000000E-03 0. -1.
         23    2    1    2    0    0  0.00000000000E+00 -0.35527136788E-14  0.00000000000E+00  0.91188000000E+02  0.91188000000E+02 0.  0.
    9900012    2    3    3    0    0  0.28744935300E+02 -0.21333202286E+02  0.86257333336E+01  0.54367080665E+02  0.39999991991E+02 0.  0.
         12    1    3    3    0    0 -0.28744935300E+02  0.21333202286E+02 -0.86257333336E+01  0.36820919335E+02  0.00000000000E+00 0. -1.
         11    1    4    4    0    0  0.52877036442E+01  0.69471085384E+01  0.77207194520E+01  0.11654683007E+02  0.51100000000E-03 0. -1.
        -11    1    4    4    0    0  0.20835797435E+02 -0.10055729213E+02  0.54047946870E+01  0.23758365908E+02  0.51100000000E-03 0.  1.
        -12    1    4    4    0    0  0.26214342209E+01 -0.18224581611E+02 -0.44997808054E+01  0.18954031750E+02  0.00000000000E+00 0.  1.
</event>
<event>
 8    1  0.1271559E-006  0.9118800E+02  0.7816164E-02  0.1184000E+00
        -11   -1    0    0    0    0  0.00000000000E+00  0.00000000000E+00  0.45593999997E+02  0.45594000000E+02  0.51100000000E-03 0.  1.
         11   -1    0    0    0    0 -0.00000000000E+00 -0.00000000000E+00 -0.45593999997E+02  0.45594000000E+02  0.51100000000E-03 0. -1.
         23    2    1    2    0    0 -0.71054273576E-14  0.00000000000E+00  0.00000000000E+00  0.91188000000E+02  0.91188000000E+02 0.  0.
    9900012    2    3    3    0    0  0.33636263588E+02  0.14732738560E+02 -0.27065542702E+01  0.54367119380E+02  0.40000080250E+02 0.  0.
         12    1    3    3    0    0 -0.33636263588E+02 -0.14732738560E+02  0.27065542702E+01  0.36820880620E+02  0.00000000000E+00 0. -1.
         11    1    4    4    0    0  0.16687829716E+01 -0.28343564914E+01  0.10758518664E+02  0.11250072774E+02  0.51100000000E-03 0. -1.
        -11    1    4    4    0    0  0.28593569290E+02  0.13127027851E+02 -0.17713577695E+02  0.36106535419E+02  0.51100000000E-03 0.  1.
         12    1    4    4    0    0  0.33739113263E+01  0.44400672004E+01  0.42485047612E+01  0.70105111859E+01  0.00000000000E+00 0. -1.
</event>
<event>
 8    1  0.1271559E-006  0.9118800E+02  0.7816164E-02  0.1184000E+00
        -11   -1    0    0    0    0  0.00000000000E+00  0.00000000000E+00  0.45593999997E+02  0.45594000000E+02  0.51100000000E-03 0. -1.
         11   -1    0    0    0    0 -0.00000000000E+00 -0.00000000000E+00 -0.45593999997E+02  0.45594000000E+02  0.51100000000E-03 0.  1.
         23    2    1    2    0    0  0.00000000000E+00  0.00000000000E+00  0.00000000000E+00  0.91188000000E+02  0.91188000000E+02 0.  0.
    9900012    2    3    3    0    0  0.68404768049E+01 -0.34508717538E+02  0.10869065912E+02  0.54367077920E+02  0.39999985733E+02 0.  0.
        -12    1    3    3    0    0 -0.68404768049E+01  0.34508717538E+02 -0.10869065912E+02  0.36820922080E+02  0.00000000000E+00 0.  1.
         11    1    4    4    0    0 -0.60757196771E+01 -0.33729950266E+01  0.81508690017E+01  0.10711121827E+02  0.51100000000E-03 0. -1.
        -11    1    4    4    0    0  0.49521967395E+01  0.42282914895E+01 -0.26128284544E+01  0.70163789992E+01  0.51100000000E-03 0.  1.
        -12    1    4    4    0    0  0.79639997425E+01 -0.35364014001E+02  0.53310253652E+01  0.36639577094E+02  0.00000000000E+00 0.  1.
</event>
<event>
 8    1  0.1271559E-006  0.9118800E+02  0.7816164E-02  0.1184000E+00
        -11   -1    0    0    0    0  0.00000000000E+00  0.00000000000E+00  0.45593999997E+02  0.45594000000E+02  0.51100000000E-03 0.  1.
         11   -1    0    0    0    0 -0.00000000000E+00 -0.00000000000E+00 -0.45593999997E+02  0.45594000000E+02  0.51100000000E-03 0. -1.
         23    2    1    2    0    0  0.35527136788E-14  0.55511151231E-16  0.00000000000E+00  0.91188000000E+02  0.91188000000E+02 0.  0.
    9900012    2    3    3    0    0  0.28951332539E+02  0.39479275356E+00 -0.22747052711E+02  0.54367300331E+02  0.40000492761E+02 0.  0.
        -12    1    3    3    0    0 -0.28951332539E+02 -0.39479275356E+00  0.22747052711E+02  0.36820699669E+02  0.00000000000E+00 0.  1.
         11    1    4    4    0    0  0.13943527094E+02 -0.50083620228E+01 -0.21945718704E+02  0.26478674583E+02  0.51100000000E-03 0. -1.
        -11    1    4    4    0    0  0.19620616868E+02 -0.74145081495E+00 -0.30794395759E+01  0.19874639718E+02  0.51100000000E-03 0.  1.
         12    1    4    4    0    0 -0.46128114233E+01  0.61446055913E+01  0.22781055682E+01  0.80139860294E+01  0.00000000000E+00 0. -1.
</event>
<event>
 8    1  0.1271559E-006  0.9118800E+02  0.7816164E-02  0.1184000E+00
        -11   -1    0    0    0    0  0.00000000000E+00  0.00000000000E+00  0.45593999997E+02  0.45594000000E+02  0.51100000000E-03 0.  1.
         11   -1    0    0    0    0 -0.00000000000E+00 -0.00000000000E+00 -0.45593999997E+02  0.45594000000E+02  0.51100000000E-03 0. -1.
         23    2    1    2    0    0 -0.35527136788E-14  0.17763568394E-14 -0.35527136788E-14  0.91188000000E+02  0.91188000000E+02 0.  0.
    9900012    2    3    3    0    0  0.30237324062E+02  0.88273159265E+01  0.19067352273E+02  0.54367065796E+02  0.39999958096E+02 0.  0.
         12    1    3    3    0    0 -0.30237324062E+02 -0.88273159265E+01 -0.19067352273E+02  0.36820934204E+02  0.00000000000E+00 0. -1.
         11    1    4    4    0    0  0.13984801964E+02  0.14070318177E+02 -0.51301528973E+01  0.20490656616E+02  0.51100000000E-03 0. -1.
        -11    1    4    4    0    0  0.17362834518E+02 -0.43795379747E+00  0.13171979738E+02  0.21798185165E+02  0.51100000000E-03 0.  1.
         12    1    4    4    0    0 -0.11103124189E+01 -0.48050484527E+01  0.11025525432E+02  0.12078224015E+02  0.00000000000E+00 0. -1.
</event>
<event>
 8    1  0.1271559E-006  0.9118800E+02  0.7816164E-02  0.1184000E+00
        -11   -1    0    0    0    0  0.00000000000E+00  0.00000000000E+00  0.45593999997E+02  0.45594000000E+02  0.51100000000E-03 0.  1.
         11   -1    0    0    0    0 -0.00000000000E+00 -0.00000000000E+00 -0.45593999997E+02  0.45594000000E+02  0.51100000000E-03 0. -1.
         23    2    1    2    0    0  0.00000000000E+00 -0.88817841970E-15  0.00000000000E+00  0.91188000000E+02  0.91188000000E+02 0.  0.
    9900012    2    3    3    0    0 -0.32417822468E+02 -0.77580107060E+01 -0.15642174544E+02  0.54367087896E+02  0.40000008477E+02 0.  0.
        -12    1    3    3    0    0  0.32417822468E+02  0.77580107060E+01  0.15642174544E+02  0.36820912104E+02  0.00000000000E+00 0.  1.
         11    1    4    4    0    0 -0.35312473156E+01 -0.51810042707E+01 -0.14376866925E+02  0.15684604416E+02  0.51100000000E-03 0. -1.
        -11    1    4    4    0    0 -0.45709147282E+01 -0.51948102403E+01 -0.10471303743E+02  0.12550996663E+02  0.51100000000E-03 0.  1.
        -12    1    4    4    0    0 -0.24315660424E+02  0.26178038050E+01  0.92059961242E+01  0.26131486817E+02  0.00000000000E+00 0.  1.
</event>
<event>
 8    1  0.1271559E-006  0.9118800E+02  0.7816164E-02  0.1184000E+00
        -11   -1    0    0    0    0  0.00000000000E+00  0.00000000000E+00  0.45593999997E+02  0.45594000000E+02  0.51100000000E-03 0. -1.
         11   -1    0    0    0    0 -0.00000000000E+00 -0.00000000000E+00 -0.45593999997E+02  0.45594000000E+02  0.51100000000E-03 0.  1.
         23    2    1    2    0    0 -0.35527136788E-14  0.00000000000E+00  0.35527136788E-14  0.91188000000E+02  0.91188000000E+02 0.  0.
    9900012    2    3    3    0    0  0.19629177086E+02 -0.17589098868E+02  0.25711838763E+02  0.54367086857E+02  0.40000006109E+02 0.  0.
        -12    1    3    3    0    0 -0.19629177086E+02  0.17589098868E+02 -0.25711838763E+02  0.36820913143E+02  0.00000000000E+00 0.  1.
         11    1    4    4    0    0  0.92148768344E+01 -0.20376502865E+02  0.18768741152E+02  0.29195572760E+02  0.51100000000E-03 0. -1.
        -11    1    4    4    0    0 -0.39469343369E+01  0.68446886426E+01 -0.14749398991E+01  0.80376303250E+01  0.51100000000E-03 0.  1.
        -12    1    4    4    0    0  0.14361234588E+02 -0.40572846457E+01  0.84180375105E+01  0.17133883772E+02  0.00000000000E+00 0.  1.
</event>
<event>
 8    1  0.1271559E-006  0.9118800E+02  0.7816164E-02  0.1184000E+00
        -11   -1    0    0    0    0  0.00000000000E+00  0.00000000000E+00  0.45593999997E+02  0.45594000000E+02  0.51100000000E-03 0.  1.
         11   -1    0    0    0    0 -0.00000000000E+00 -0.00000000000E+00 -0.45593999997E+02  0.45594000000E+02  0.51100000000E-03 0. -1.
         23    2    1    2    0    0  0.00000000000E+00  0.35527136788E-14  0.88817841970E-15  0.91188000000E+02  0.91188000000E+02 0.  0.
    9900012    2    3    3    0    0 -0.18876801879E+02 -0.30873545953E+02 -0.68021718599E+01  0.54367095192E+02  0.40000025109E+02 0.  0.
        -12    1    3    3    0    0  0.18876801879E+02  0.30873545953E+02  0.68021718599E+01  0.36820904808E+02  0.00000000000E+00 0.  1.
         11    1    4    4    0    0  0.66637106182E+01  0.22737482013E+01 -0.41774687600E+01  0.81869539871E+01  0.51100000000E-03 0. -1.
        -11    1    4    4    0    0 -0.24453643316E+02 -0.35372138110E+02 -0.42604510399E+01  0.43212501307E+02  0.51100000000E-03 0.  1.
        -12    1    4    4    0    0 -0.10868691807E+01  0.22248439550E+01  0.16357479399E+01  0.29676398978E+01  0.00000000000E+00 0.  1.
</event>
<event>
 8    1  0.1271559E-006  0.9118800E+02  0.7816164E-02  0.1184000E+00
        -11   -1    0    0    0    0  0.00000000000E+00  0.00000000000E+00  0.45593999997E+02  0.45594000000E+02  0.51100000000E-03 0. -1.
         11   -1    0    0    0    0 -0.00000000000E+00 -0.00000000000E+00 -0.45593999997E+02  0.45594000000E+02  0.51100000000E-03 0.  1.
         23    2    1    2    0    0 -0.88817841970E-15  0.00000000000E+00  0.00000000000E+00  0.91188000000E+02  0.91188000000E+02 0.  0.
    9900012    2    3    3    0    0 -0.67559277759E+01  0.23100835024E+02  0.27865530948E+02  0.54367096237E+02  0.40000027491E+02 0.  0.
        -12    1    3    3    0    0  0.67559277759E+01 -0.23100835024E+02 -0.27865530948E+02  0.36820903763E+02  0.00000000000E+00 0.  1.
         11    1    4    4    0    0  0.36152147121E+01  0.97145138354E+01 -0.26750363639E+01  0.10705016407E+02  0.51100000000E-03 0. -1.
        -11    1    4    4    0    0  0.10193184779E+01 -0.51582321048E+00 -0.43053285873E+01  0.44543168106E+01  0.51100000000E-03 0.  1.
         12    1    4    4    0    0 -0.11390460966E+02  0.13902144399E+02  0.34845895899E+02  0.39207763019E+02  0.00000000000E+00 0. -1.
</event>
<event>
 8    1  0.1271559E-006  0.9118800E+02  0.7816164E-02  0.1184000E+00
        -11   -1    0    0    0    0  0.00000000000E+00  0.00000000000E+00  0.45593999997E+02  0.45594000000E+02  0.51100000000E-03 0. -1.
         11   -1    0    0    0    0 -0.00000000000E+00 -0.00000000000E+00 -0.45593999997E+02  0.45594000000E+02  0.51100000000E-03 0.  1.
         23    2    1    2    0    0 -0.71054273576E-14  0.11102230246E-14  0.88817841970E-15  0.91188000000E+02  0.91188000000E+02 0.  0.
    9900012    2    3    3    0    0  0.36659754173E+02 -0.69174323310E+00  0.33708125815E+01  0.54367102915E+02  0.40000042714E+02 0.  0.
        -12    1    3    3    0    0 -0.36659754173E+02  0.69174323310E+00 -0.33708125815E+01  0.36820897085E+02  0.00000000000E+00 0.  1.
         11    1    4    4    0    0  0.33412116983E+02  0.46865754450E+01  0.11152588500E+01  0.33757626594E+02  0.51100000000E-03 0. -1.
        -11    1    4    4    0    0  0.54841884802E+01 -0.11448761508E+02 -0.20210253134E+01  0.12854376956E+02  0.51100000000E-03 0.  1.
         12    1    4    4    0    0 -0.22365512905E+01  0.60704428298E+01  0.42765790449E+01  0.77550993645E+01  0.00000000000E+00 0. -1.
</event>
<event>
 8    1  0.1271559E-006  0.9118800E+02  0.7816164E-02  0.1184000E+00
        -11   -1    0    0    0    0  0.00000000000E+00  0.00000000000E+00  0.45593999997E+02  0.45594000000E+02  0.51100000000E-03 0.  1.
         11   -1    0    0    0    0 -0.00000000000E+00 -0.00000000000E+00 -0.45593999997E+02  0.45594000000E+02  0.51100000000E-03 0. -1.
         23    2    1    2    0    0 -0.35527136788E-14 -0.35527136788E-14  0.00000000000E+00  0.91188000000E+02  0.91188000000E+02 0.  0.
    9900012    2    3    3    0    0 -0.24330231199E+02 -0.26594817149E+02  0.75189669160E+01  0.54367091363E+02  0.40000016380E+02 0.  0.
         12    1    3    3    0    0  0.24330231199E+02  0.26594817149E+02 -0.75189669160E+01  0.36820908637E+02  0.00000000000E+00 0. -1.
         11    1    4    4    0    0 -0.67633141676E+01 -0.62530668370E+01  0.92296944671E+01  0.13039575285E+02  0.51100000000E-03 0. -1.
        -11    1    4    4    0    0 -0.95966012419E+01 -0.20725168784E+02  0.11746169067E+02  0.25682676351E+02  0.51100000000E-03 0.  1.
         12    1    4    4    0    0 -0.79703157889E+01  0.38341847207E+00 -0.13456896618E+02  0.15644839727E+02  0.00000000000E+00 0. -1.
</event>
<event>
 8    1  0.1271559E-006  0.9118800E+02  0.7816164E-02  0.1184000E+00
        -11   -1    0    0    0    0  0.00000000000E+00  0.00000000000E+00  0.45593999997E+02  0.45594000000E+02  0.51100000000E-03 0.  1.
         11   -1    0    0    0    0 -0.00000000000E+00 -0.00000000000E+00 -0.45593999997E+02  0.45594000000E+02  0.51100000000E-03 0. -1.
         23    2    1    2    0    0  0.00000000000E+00  0.88817841970E-15  0.00000000000E+00  0.91188000000E+02  0.91188000000E+02 0.  0.
    9900012    2    3    3    0    0  0.43597305208E+01 -0.43520030365E+01 -0.36301958914E+02  0.54367090157E+02  0.40000013631E+02 0.  0.
        -12    1    3    3    0    0 -0.43597305208E+01  0.43520030365E+01  0.36301958914E+02  0.36820909843E+02  0.00000000000E+00 0.  1.
         11    1    4    4    0    0 -0.49106817954E+01  0.54386791235E+01 -0.42085145936E+01  0.84501847110E+01  0.51100000000E-03 0. -1.
        -11    1    4    4    0    0 -0.67087410247E+01 -0.96335024225E+01 -0.20908548784E+01  0.11924061785E+02  0.51100000000E-03 0.  1.
         12    1    4    4    0    0  0.15979153341E+02 -0.15717973754E+00 -0.30002589442E+02  0.33992843662E+02  0.00000000000E+00 0. -1.
</event>
<event>
 8    1  0.1271559E-006  0.9118800E+02  0.7816164E-02  0.1184000E+00
        -11   -1    0    0    0    0  0.00000000000E+00  0.00000000000E+00  0.45593999997E+02  0.45594000000E+02  0.51100000000E-03 0.  1.
         11   -1    0    0    0    0 -0.00000000000E+00 -0.00000000000E+00 -0.45593999997E+02  0.45594000000E+02  0.51100000000E-03 0. -1.
         23    2    1    2    0    0  0.00000000000E+00  0.00000000000E+00 -0.44408920985E-15  0.91188000000E+02  0.91188000000E+02 0.  0.
    9900012    2    3    3    0    0 -0.26291527085E+02 -0.25509874163E+02  0.37123577039E+01  0.54367086431E+02  0.40000005138E+02 0.  0.
        -12    1    3    3    0    0  0.26291527085E+02  0.25509874163E+02 -0.37123577039E+01  0.36820913569E+02  0.00000000000E+00 0.  1.
         11    1    4    4    0    0 -0.33679507903E+01 -0.12084910102E+02  0.39857113539E+01  0.13163359752E+02  0.51100000000E-03 0. -1.
        -11    1    4    4    0    0 -0.17573873812E+02 -0.40114191227E+01 -0.14634302926E+02  0.23218426874E+02  0.51100000000E-03 0.  1.
        -12    1    4    4    0    0 -0.53497024835E+01 -0.94135449385E+01  0.14360949276E+02  0.17985299805E+02  0.00000000000E+00 0.  1.
</event>
<event>
 8    1  0.1271559E-006  0.9118800E+02  0.7816164E-02  0.1184000E+00
        -11   -1    0    0    0    0  0.00000000000E+00  0.00000000000E+00  0.45593999997E+02  0.45594000000E+02  0.51100000000E-03 0. -1.
         11   -1    0    0    0    0 -0.00000000000E+00 -0.00000000000E+00 -0.45593999997E+02  0.45594000000E+02  0.51100000000E-03 0.  1.
         23    2    1    2    0    0  0.35527136788E-14  0.35527136788E-14 -0.17763568394E-14  0.91188000000E+02  0.91188000000E+02 0.  0.
    9900012    2    3    3    0    0 -0.28255224515E+02  0.20418072783E+02 -0.11854296955E+02  0.54367085225E+02  0.40000002388E+02 0.  0.
         12    1    3    3    0    0  0.28255224515E+02 -0.20418072783E+02  0.11854296955E+02  0.36820914775E+02  0.00000000000E+00 0. -1.
         11    1    4    4    0    0 -0.93853859933E+01  0.21745298676E+02 -0.16017873616E+01  0.23738348885E+02  0.51100000000E-03 0. -1.
        -11    1    4    4    0    0 -0.93953809832E+01  0.81970150238E+01  0.17786224705E+01  0.12594750386E+02  0.51100000000E-03 0.  1.
        -12    1    4    4    0    0 -0.94744575383E+01 -0.95242409167E+01 -0.12031132064E+02  0.18033985955E+02  0.00000000000E+00 0.  1.
</event>
<event>
 8    1  0.1271559E-006  0.9118800E+02  0.7816164E-02  0.1184000E+00
        -11   -1    0    0    0    0  0.00000000000E+00  0.00000000000E+00  0.45593999997E+02  0.45594000000E+02  0.51100000000E-03 0.  1.
         11   -1    0    0    0    0 -0.00000000000E+00 -0.00000000000E+00 -0.45593999997E+02  0.45594000000E+02  0.51100000000E-03 0. -1.
         23    2    1    2    0    0 -0.17763568394E-14  0.00000000000E+00  0.00000000000E+00  0.91188000000E+02  0.91188000000E+02 0.  0.
    9900012    2    3    3    0    0  0.84246037079E+01  0.35807154826E+02  0.16290127140E+01  0.54367082483E+02  0.39999996136E+02 0.  0.
         12    1    3    3    0    0 -0.84246037079E+01 -0.35807154826E+02 -0.16290127140E+01  0.36820917517E+02  0.00000000000E+00 0. -1.
         11    1    4    4    0    0  0.93694519615E+01  0.34411121916E+02 -0.12585950528E+02  0.37819546435E+02  0.51100000000E-03 0.  1.
        -11    1    4    4    0    0 -0.22592294313E+01  0.36577270953E+01  0.12943896324E+02  0.13639191231E+02  0.51100000000E-03 0. -1.
        -12    1    4    4    0    0  0.13143811778E+01 -0.22616941851E+01  0.12710669175E+01  0.29083448173E+01  0.00000000000E+00 0.  1.
</event>
<event>
 8    1  0.1271559E-006  0.9118800E+02  0.7816164E-02  0.1184000E+00
        -11   -1    0    0    0    0  0.00000000000E+00  0.00000000000E+00  0.45593999997E+02  0.45594000000E+02  0.51100000000E-03 0. -1.
         11   -1    0    0    0    0 -0.00000000000E+00 -0.00000000000E+00 -0.45593999997E+02  0.45594000000E+02  0.51100000000E-03 0.  1.
         23    2    1    2    0    0 -0.35527136788E-14  0.35527136788E-14 -0.35527136788E-14  0.91188000000E+02  0.91188000000E+02 0.  0.
    9900012    2    3    3    0    0 -0.21362138905E+02  0.28511968346E+02 -0.93008776374E+01  0.54367086888E+02  0.40000006179E+02 0.  0.
        -12    1    3    3    0    0  0.21362138905E+02 -0.28511968346E+02  0.93008776374E+01  0.36820913112E+02  0.00000000000E+00 0.  1.
         11    1    4    4    0    0 -0.69534327375E+01  0.10498015527E+02  0.11183942847E+02  0.16841589435E+02  0.51100000000E-03 0. -1.
        -11    1    4    4    0    0 -0.18523330508E+02  0.14889302611E+02 -0.21739375149E+02  0.32208780441E+02  0.51100000000E-03 0.  1.
        -12    1    4    4    0    0  0.41146243404E+01  0.31246502077E+01  0.12545546653E+01  0.53167170125E+01  0.00000000000E+00 0.  1.
</event>
<event>
 8    1  0.1271559E-006  0.9118800E+02  0.7816164E-02  0.1184000E+00
        -11   -1    0    0    0    0  0.00000000000E+00  0.00000000000E+00  0.45593999997E+02  0.45594000000E+02  0.51100000000E-03 0.  1.
         11   -1    0    0    0    0 -0.00000000000E+00 -0.00000000000E+00 -0.45593999997E+02  0.45594000000E+02  0.51100000000E-03 0. -1.
         23    2    1    2    0    0 -0.17763568394E-14 -0.77715611724E-15  0.00000000000E+00  0.91188000000E+02  0.91188000000E+02 0.  0.
    9900012    2    3    3    0    0  0.48667429373E+01  0.78338358116E+00  0.36489460595E+02  0.54367087312E+02  0.40000007145E+02 0.  0.
         12    1    3    3    0    0 -0.48667429373E+01 -0.78338358116E+00 -0.36489460595E+02  0.36820912688E+02  0.00000000000E+00 0. -1.
         11    1    4    4    0    0  0.77433382720E+00 -0.69790728783E+01 -0.14179294573E+01  0.71636286422E+01  0.51100000000E-03 0. -1.
        -11    1    4    4    0    0 -0.10741550430E+02  0.12929672406E+00  0.99248115984E+01  0.14625303717E+02  0.51100000000E-03 0.  1.
         12    1    4    4    0    0  0.14833959540E+02  0.76331597354E+01  0.27982578454E+02  0.32578154953E+02  0.00000000000E+00 0. -1.
</event>
<event>
 8    1  0.1271559E-006  0.9118800E+02  0.7816164E-02  0.1184000E+00
        -11   -1    0    0    0    0  0.00000000000E+00  0.00000000000E+00  0.45593999997E+02  0.45594000000E+02  0.51100000000E-03 0.  1.
         11   -1    0    0    0    0 -0.00000000000E+00 -0.00000000000E+00 -0.45593999997E+02  0.45594000000E+02  0.51100000000E-03 0. -1.
         23    2    1    2    0    0  0.00000000000E+00  0.17763568394E-14  0.00000000000E+00  0.91188000000E+02  0.91188000000E+02 0.  0.
    9900012    2    3    3    0    0  0.20215443908E+02  0.11462968450E+02 -0.28560757034E+02  0.54367073063E+02  0.39999974663E+02 0.  0.
        -12    1    3    3    0    0 -0.20215443908E+02 -0.11462968450E+02  0.28560757034E+02  0.36820926937E+02  0.00000000000E+00 0.  1.
         11    1    4    4    0    0  0.31301829800E+01  0.19937131527E+02 -0.24392772438E+02  0.31659036727E+02  0.51100000000E-03 0. -1.
        -11    1    4    4    0    0  0.14956098241E+02 -0.19605309818E+01 -0.88648199265E+00  0.15110076337E+02  0.51100000000E-03 0.  1.
        -12    1    4    4    0    0  0.21291626876E+01 -0.65136320950E+01 -0.32815026035E+01  0.75979599997E+01  0.00000000000E+00 0.  1.
</event>
<event>
 8    1  0.1271559E-006  0.9118800E+02  0.7816164E-02  0.1184000E+00
        -11   -1    0    0    0    0  0.00000000000E+00  0.00000000000E+00  0.45593999997E+02  0.45594000000E+02  0.51100000000E-03 0.  1.
         11   -1    0    0    0    0 -0.00000000000E+00 -0.00000000000E+00 -0.45593999997E+02  0.45594000000E+02  0.51100000000E-03 0. -1.
         23    2    1    2    0    0  0.88817841970E-15  0.35527136788E-14  0.00000000000E+00  0.91188000000E+02  0.91188000000E+02 0.  0.
    9900012    2    3    3    0    0  0.76527692024E+01  0.29880675547E+02 -0.20108709981E+02  0.54367083869E+02  0.39999999296E+02 0.  0.
        -12    1    3    3    0    0 -0.76527692024E+01 -0.29880675547E+02  0.20108709981E+02  0.36820916131E+02  0.00000000000E+00 0.  1.
         11    1    4    4    0    0 -0.56905134862E+01  0.23814857355E+02 -0.55244307430E+01  0.25100771101E+02  0.51100000000E-03 0. -1.
        -11    1    4    4    0    0  0.56633916497E+01 -0.49010136375E+00  0.47801910967E+01  0.74272761836E+01  0.51100000000E-03 0.  1.
         12    1    4    4    0    0  0.76798910389E+01  0.65559195560E+01 -0.19364470335E+02  0.21839036584E+02  0.00000000000E+00 0. -1.
</event>
<event>
 8    1  0.1271559E-006  0.9118800E+02  0.7816164E-02  0.1184000E+00
        -11   -1    0    0    0    0  0.00000000000E+00  0.00000000000E+00  0.45593999997E+02  0.45594000000E+02  0.51100000000E-03 0.  1.
         11   -1    0    0    0    0 -0.00000000000E+00 -0.00000000000E+00 -0.45593999997E+02  0.45594000000E+02  0.51100000000E-03 0. -1.
         23    2    1    2    0    0  0.00000000000E+00 -0.88817841970E-15  0.00000000000E+00  0.91188000000E+02  0.91188000000E+02 0.  0.
    9900012    2    3    3    0    0  0.11938979120E+02  0.64481843238E+01  0.34229475761E+02  0.54367145659E+02  0.40000140158E+02 0.  0.
         12    1    3    3    0    0 -0.11938979120E+02 -0.64481843238E+01 -0.34229475761E+02  0.36820854341E+02  0.00000000000E+00 0. -1.
         11    1    4    4    0    0  0.19378972188E+02 -0.99464100306E+01  0.95253359069E+01  0.23774096407E+02  0.51100000000E-03 0. -1.
        -11    1    4    4    0    0 -0.22849235735E+01  0.61316570293E+01  0.96125395630E+01  0.11628370942E+02  0.51100000000E-03 0.  1.
         12    1    4    4    0    0 -0.51550694939E+01  0.10262937325E+02  0.15091600292E+02  0.18964678310E+02  0.00000000000E+00 0. -1.
</event>
<event>
 8    1  0.1271559E-006  0.9118800E+02  0.7816164E-02  0.1184000E+00
        -11   -1    0    0    0    0  0.00000000000E+00  0.00000000000E+00  0.45593999997E+02  0.45594000000E+02  0.51100000000E-03 0. -1.
         11   -1    0    0    0    0 -0.00000000000E+00 -0.00000000000E+00 -0.45593999997E+02  0.45594000000E+02  0.51100000000E-03 0.  1.
         23    2    1    2    0    0 -0.71054273576E-14 -0.88817841970E-15  0.44408920985E-15  0.91188000000E+02  0.91188000000E+02 0.  0.
    9900012    2    3    3    0    0  0.36211204859E+02 -0.57842255122E+01  0.33273043643E+01  0.54367087784E+02  0.40000008221E+02 0.  0.
         12    1    3    3    0    0 -0.36211204859E+02  0.57842255122E+01 -0.33273043643E+01  0.36820912216E+02  0.00000000000E+00 0. -1.
         11    1    4    4    0    0  0.83281270985E+01 -0.19237145731E+02 -0.55636834671E+01  0.21688246836E+02  0.51100000000E-03 0. -1.
        -11    1    4    4    0    0  0.11839876570E+02  0.37151209803E+01  0.14626881647E+01  0.12494969308E+02  0.51100000000E-03 0.  1.
         12    1    4    4    0    0  0.16043201191E+02  0.97377992381E+01  0.74282996668E+01  0.20183871640E+02  0.00000000000E+00 0. -1.
</event>
<event>
 8    1  0.1271559E-006  0.9118800E+02  0.7816164E-02  0.1184000E+00
        -11   -1    0    0    0    0  0.00000000000E+00  0.00000000000E+00  0.45593999997E+02  0.45594000000E+02  0.51100000000E-03 0. -1.
         11   -1    0    0    0    0 -0.00000000000E+00 -0.00000000000E+00 -0.45593999997E+02  0.45594000000E+02  0.51100000000E-03 0.  1.
         23    2    1    2    0    0 -0.17763568394E-14 -0.35527136788E-14 -0.71054273576E-14  0.91188000000E+02  0.91188000000E+02 0.  0.
    9900012    2    3    3    0    0  0.81029224189E+01  0.29002052081E+02  0.21189599890E+02  0.54367142865E+02  0.40000133789E+02 0.  0.
        -12    1    3    3    0    0 -0.81029224189E+01 -0.29002052081E+02 -0.21189599890E+02  0.36820857135E+02  0.00000000000E+00 0.  1.
         11    1    4    4    0    0  0.39809939272E+01 -0.50719153174E+01 -0.54302514541E+00  0.64705111239E+01  0.51100000000E-03 0. -1.
        -11    1    4    4    0    0  0.80969375994E+01  0.29272720206E+01 -0.16255793757E+01  0.87619534659E+01  0.51100000000E-03 0.  1.
         12    1    4    4    0    0 -0.39750091077E+01  0.31146695378E+02  0.23358204411E+02  0.39134678275E+02  0.00000000000E+00 0. -1.
</event>
<event>
 8    1  0.1271559E-006  0.9118800E+02  0.7816164E-02  0.1184000E+00
        -11   -1    0    0    0    0  0.00000000000E+00  0.00000000000E+00  0.45593999997E+02  0.45594000000E+02  0.51100000000E-03 0.  1.
         11   -1    0    0    0    0 -0.00000000000E+00 -0.00000000000E+00 -0.45593999997E+02  0.45594000000E+02  0.51100000000E-03 0. -1.
         23    2    1    2    0    0  0.00000000000E+00 -0.17763568394E-14  0.00000000000E+00  0.91188000000E+02  0.91188000000E+02 0.  0.
    9900012    2    3    3    0    0 -0.77338701817E+01  0.12132390336E+02  0.33893542062E+02  0.54367084249E+02  0.40000000162E+02 0.  0.
         12    1    3    3    0    0  0.77338701817E+01 -0.12132390336E+02 -0.33893542062E+02  0.36820915751E+02  0.00000000000E+00 0. -1.
         11    1    4    4    0    0 -0.13334577064E+02  0.14272319301E+02  0.12523524223E+02  0.23202342617E+02  0.51100000000E-03 0. -1.
        -11    1    4    4    0    0  0.30134575061E+01  0.19339151795E+01  0.24918599323E+02  0.25174541635E+02  0.51100000000E-03 0.  1.
        -12    1    4    4    0    0  0.25872493766E+01 -0.40738441447E+01 -0.35485814836E+01  0.59901999965E+01  0.00000000000E+00 0.  1.
</event>
<event>
 8    1  0.1271559E-006  0.9118800E+02  0.7816164E-02  0.1184000E+00
        -11   -1    0    0    0    0  0.00000000000E+00  0.00000000000E+00  0.45593999997E+02  0.45594000000E+02  0.51100000000E-03 0. -1.
         11   -1    0    0    0    0 -0.00000000000E+00 -0.00000000000E+00 -0.45593999997E+02  0.45594000000E+02  0.51100000000E-03 0.  1.
         23    2    1    2    0    0  0.00000000000E+00 -0.71054273576E-14  0.00000000000E+00  0.91188000000E+02  0.91188000000E+02 0.  0.
    9900012    2    3    3    0    0  0.10127836863E+02 -0.33436539423E+02 -0.11627769478E+02  0.54367078350E+02  0.39999986714E+02 0.  0.
         12    1    3    3    0    0 -0.10127836863E+02  0.33436539423E+02  0.11627769478E+02  0.36820921650E+02  0.00000000000E+00 0. -1.
         11    1    4    4    0    0 -0.67857872681E+01 -0.34496208349E+02 -0.78443329790E+01  0.36021783125E+02  0.51100000000E-03 0.  1.
        -11    1    4    4    0    0  0.15166381119E+02  0.55823242678E+00 -0.51978338909E+01  0.16042076459E+02  0.51100000000E-03 0. -1.
        -12    1    4    4    0    0  0.17472430119E+01  0.50143649935E+00  0.14143973915E+01  0.23032187666E+01  0.00000000000E+00 0.  1.
</event>
<event>
 8    1  0.1271559E-006  0.9118800E+02  0.7816164E-02  0.1184000E+00
        -11   -1    0    0    0    0  0.00000000000E+00  0.00000000000E+00  0.45593999997E+02  0.45594000000E+02  0.51100000000E-03 0.  1.
         11   -1    0    0    0    0 -0.00000000000E+00 -0.00000000000E+00 -0.45593999997E+02  0.45594000000E+02  0.51100000000E-03 0. -1.
         23    2    1    2    0    0  0.00000000000E+00  0.00000000000E+00  0.00000000000E+00  0.91188000000E+02  0.91188000000E+02 0.  0.
    9900012    2    3    3    0    0  0.20072041890E+02 -0.28394138744E+02 -0.12110358144E+02  0.54367153255E+02  0.40000157476E+02 0.  0.
         12    1    3    3    0    0 -0.20072041890E+02  0.28394138744E+02  0.12110358144E+02  0.36820846745E+02  0.00000000000E+00 0. -1.
         11    1    4    4    0    0  0.15564134691E+02 -0.10433368023E+02 -0.86208584688E+01  0.20625631093E+02  0.51100000000E-03 0. -1.
        -11    1    4    4    0    0  0.24731794993E+01 -0.15673409436E+01 -0.13906958581E+02  0.14211849693E+02  0.51100000000E-03 0.  1.
        -12    1    4    4    0    0  0.20347276996E+01 -0.16393429777E+02  0.10417458906E+02  0.19529672469E+02  0.00000000000E+00 0.  1.
</event>
<event>
 8    1  0.1271559E-006  0.9118800E+02  0.7816164E-02  0.1184000E+00
        -11   -1    0    0    0    0  0.00000000000E+00  0.00000000000E+00  0.45593999997E+02  0.45594000000E+02  0.51100000000E-03 0.  1.
         11   -1    0    0    0    0 -0.00000000000E+00 -0.00000000000E+00 -0.45593999997E+02  0.45594000000E+02  0.51100000000E-03 0. -1.
         23    2    1    2    0    0  0.00000000000E+00  0.88817841970E-15 -0.35527136788E-14  0.91188000000E+02  0.91188000000E+02 0.  0.
    9900012    2    3    3    0    0  0.18598889581E+02  0.25222445980E+01 -0.31678054455E+02  0.54367088203E+02  0.40000009177E+02 0.  0.
        -12    1    3    3    0    0 -0.18598889581E+02 -0.25222445980E+01  0.31678054455E+02  0.36820911797E+02  0.00000000000E+00 0.  1.
         11    1    4    4    0    0 -0.64851510488E+01  0.43184901398E+00 -0.52554297351E+01  0.83584220795E+01  0.51100000000E-03 0. -1.
        -11    1    4    4    0    0  0.15238704803E+02  0.94590776468E+01 -0.12337182775E+01  0.17978162727E+02  0.51100000000E-03 0.  1.
         12    1    4    4    0    0  0.98453358269E+01 -0.73686820628E+01 -0.25188906443E+02  0.28030503397E+02  0.00000000000E+00 0. -1.
</event>
<event>
 8    1  0.1271559E-006  0.9118800E+02  0.7816164E-02  0.1184000E+00
        -11   -1    0    0    0    0  0.00000000000E+00  0.00000000000E+00  0.45593999997E+02  0.45594000000E+02  0.51100000000E-03 0.  1.
         11   -1    0    0    0    0 -0.00000000000E+00 -0.00000000000E+00 -0.45593999997E+02  0.45594000000E+02  0.51100000000E-03 0. -1.
         23    2    1    2    0    0 -0.35527136788E-14  0.00000000000E+00  0.00000000000E+00  0.91188000000E+02  0.91188000000E+02 0.  0.
    9900012    2    3    3    0    0  0.27772742495E+02  0.17705763413E+02 -0.16460867513E+02  0.54367089595E+02  0.40000012351E+02 0.  0.
        -12    1    3    3    0    0 -0.27772742495E+02 -0.17705763413E+02  0.16460867513E+02  0.36820910405E+02  0.00000000000E+00 0.  1.
         11    1    4    4    0    0  0.49684656552E+01 -0.37182721554E+01  0.96202631063E+01  0.11448172836E+02  0.51100000000E-03 0. -1.
        -11    1    4    4    0    0  0.92460178482E+01  0.81915530573E+01 -0.23859832106E+01  0.12581069258E+02  0.51100000000E-03 0.  1.
         12    1    4    4    0    0  0.13558258992E+02  0.13232482511E+02 -0.23695147409E+02  0.30337847501E+02  0.00000000000E+00 0. -1.
</event>
<event>
 8    1  0.1271559E-006  0.9118800E+02  0.7816164E-02  0.1184000E+00
        -11   -1    0    0    0    0  0.00000000000E+00  0.00000000000E+00  0.45593999997E+02  0.45594000000E+02  0.51100000000E-03 0.  1.
         11   -1    0    0    0    0 -0.00000000000E+00 -0.00000000000E+00 -0.45593999997E+02  0.45594000000E+02  0.51100000000E-03 0. -1.
         23    2    1    2    0    0  0.00000000000E+00  0.00000000000E+00  0.00000000000E+00  0.91188000000E+02  0.91188000000E+02 0.  0.
    9900012    2    3    3    0    0  0.51041798393E+01 -0.30787903175E+02 -0.19540551244E+02  0.54367071485E+02  0.39999971065E+02 0.  0.
        -12    1    3    3    0    0 -0.51041798393E+01  0.30787903175E+02  0.19540551244E+02  0.36820928515E+02  0.00000000000E+00 0.  1.
         11    1    4    4    0    0  0.21150785227E+01 -0.16507741676E+02  0.56673323791E+01  0.17581175983E+02  0.51100000000E-03 0. -1.
        -11    1    4    4    0    0  0.51063241083E+01 -0.48946435663E+01  0.24631013837E+01  0.74899232457E+01  0.51100000000E-03 0.  1.
        -12    1    4    4    0    0 -0.21172227917E+01 -0.93855179331E+01 -0.27670985007E+02  0.29295972257E+02  0.00000000000E+00 0.  1.
</event>
<event>
 8    1  0.1271559E-006  0.9118800E+02  0.7816164E-02  0.1184000E+00
        -11   -1    0    0    0    0  0.00000000000E+00  0.00000000000E+00  0.45593999997E+02  0.45594000000E+02  0.51100000000E-03 0.  1.
         11   -1    0    0    0    0 -0.00000000000E+00 -0.00000000000E+00 -0.45593999997E+02  0.45594000000E+02  0.51100000000E-03 0. -1.
         23    2    1    2    0    0  0.00000000000E+00  0.00000000000E+00  0.00000000000E+00  0.91188000000E+02  0.91188000000E+02 0.  0.
    9900012    2    3    3    0    0 -0.45243060032E+01 -0.17054474620E+02 -0.32318043763E+02  0.54367076572E+02  0.39999982662E+02 0.  0.
        -12    1    3    3    0    0  0.45243060032E+01  0.17054474620E+02  0.32318043763E+02  0.36820923428E+02  0.00000000000E+00 0.  1.
         11    1    4    4    0    0 -0.47212939150E+01 -0.89661354805E+01 -0.19776655973E+02  0.22221573378E+02  0.51100000000E-03 0. -1.
        -11    1    4    4    0    0  0.11596423593E+02 -0.82383367227E+01  0.12178524493E+01  0.14276918328E+02  0.51100000000E-03 0.  1.
        -12    1    4    4    0    0 -0.11399435681E+02  0.14999758315E+00 -0.13759240240E+02  0.17868584866E+02  0.00000000000E+00 0.  1.
</event>
<event>
 8    1  0.1271559E-006  0.9118800E+02  0.7816164E-02  0.1184000E+00
        -11   -1    0    0    0    0  0.00000000000E+00  0.00000000000E+00  0.45593999997E+02  0.45594000000E+02  0.51100000000E-03 0. -1.
         11   -1    0    0    0    0 -0.00000000000E+00 -0.00000000000E+00 -0.45593999997E+02  0.45594000000E+02  0.51100000000E-03 0.  1.
         23    2    1    2    0    0 -0.35527136788E-14  0.35527136788E-14  0.00000000000E+00  0.91188000000E+02  0.91188000000E+02 0.  0.
    9900012    2    3    3    0    0 -0.18511214032E+02  0.25910894130E+02  0.18486224599E+02  0.54367082311E+02  0.39999995744E+02 0.  0.
         12    1    3    3    0    0  0.18511214032E+02 -0.25910894130E+02 -0.18486224599E+02  0.36820917689E+02  0.00000000000E+00 0. -1.
         11    1    4    4    0    0 -0.11084937749E+02 -0.46124510224E+01  0.13640880350E+02  0.18172071051E+02  0.51100000000E-03 0. -1.
        -11    1    4    4    0    0 -0.11435825871E+02  0.14200645990E+02  0.63807045338E+01  0.19317087009E+02  0.51100000000E-03 0.  1.
        -12    1    4    4    0    0  0.40095495879E+01  0.16322699161E+02 -0.15353602841E+01  0.16877924251E+02  0.00000000000E+00 0.  1.
</event>
<event>
 8    1  0.1271559E-006  0.9118800E+02  0.7816164E-02  0.1184000E+00
        -11   -1    0    0    0    0  0.00000000000E+00  0.00000000000E+00  0.45593999997E+02  0.45594000000E+02  0.51100000000E-03 0. -1.
         11   -1    0    0    0    0 -0.00000000000E+00 -0.00000000000E+00 -0.45593999997E+02  0.45594000000E+02  0.51100000000E-03 0.  1.
         23    2    1    2    0    0  0.00000000000E+00  0.00000000000E+00  0.00000000000E+00  0.91188000000E+02  0.91188000000E+02 0.  0.
    9900012    2    3    3    0    0 -0.14088462255E+02 -0.20331118436E+02  0.27275289820E+02  0.54367074151E+02  0.39999977143E+02 0.  0.
        -12    1    3    3    0    0  0.14088462255E+02  0.20331118436E+02 -0.27275289820E+02  0.36820925849E+02  0.00000000000E+00 0.  1.
         11    1    4    4    0    0 -0.14185036484E+02 -0.44852522569E+01  0.27508539564E+02  0.31273830866E+02  0.51100000000E-03 0. -1.
        -11    1    4    4    0    0 -0.39318163126E+01  0.86696778999E+00  0.36882059441E+01  0.54601901077E+01  0.51100000000E-03 0.  1.
         12    1    4    4    0    0  0.40283905422E+01 -0.16712833969E+02 -0.39214556876E+01  0.17633053177E+02  0.00000000000E+00 0. -1.
</event>
<event>
 8    1  0.1271559E-006  0.9118800E+02  0.7816164E-02  0.1184000E+00
        -11   -1    0    0    0    0  0.00000000000E+00  0.00000000000E+00  0.45593999997E+02  0.45594000000E+02  0.51100000000E-03 0. -1.
         11   -1    0    0    0    0 -0.00000000000E+00 -0.00000000000E+00 -0.45593999997E+02  0.45594000000E+02  0.51100000000E-03 0.  1.
         23    2    1    2    0    0 -0.71054273576E-14  0.00000000000E+00 -0.17763568394E-14  0.91188000000E+02  0.91188000000E+02 0.  0.
    9900012    2    3    3    0    0 -0.32436835938E+02 -0.92753950423E+01 -0.14751227153E+02  0.54367082285E+02  0.39999995686E+02 0.  0.
         12    1    3    3    0    0  0.32436835938E+02  0.92753950423E+01  0.14751227153E+02  0.36820917715E+02  0.00000000000E+00 0. -1.
         11    1    4    4    0    0 -0.55825743246E+01 -0.52195915581E+01 -0.67679397589E+01  0.10208539610E+02  0.51100000000E-03 0. -1.
        -11    1    4    4    0    0 -0.26939114407E+01 -0.14535042887E+02 -0.98399648644E+01  0.17758083775E+02  0.51100000000E-03 0.  1.
         12    1    4    4    0    0 -0.24160350172E+02  0.10479239403E+02  0.18566774704E+01  0.26400458900E+02  0.00000000000E+00 0. -1.
</event>
<event>
 8    1  0.1271559E-006  0.9118800E+02  0.7816164E-02  0.1184000E+00
        -11   -1    0    0    0    0  0.00000000000E+00  0.00000000000E+00  0.45593999997E+02  0.45594000000E+02  0.51100000000E-03 0.  1.
         11   -1    0    0    0    0 -0.00000000000E+00 -0.00000000000E+00 -0.45593999997E+02  0.45594000000E+02  0.51100000000E-03 0. -1.
         23    2    1    2    0    0  0.00000000000E+00  0.35527136788E-14  0.00000000000E+00  0.91188000000E+02  0.91188000000E+02 0.  0.
    9900012    2    3    3    0    0 -0.29621573656E+01 -0.20919755343E+02 -0.30155722634E+02  0.54367107188E+02  0.40000052457E+02 0.  0.
        -12    1    3    3    0    0  0.29621573656E+01  0.20919755343E+02  0.30155722634E+02  0.36820892812E+02  0.00000000000E+00 0.  1.
         11    1    4    4    0    0 -0.55972517281E+01  0.10043307173E+02 -0.51995004721E+01  0.12618718291E+02  0.51100000000E-03 0. -1.
        -11    1    4    4    0    0 -0.12955549067E+01  0.67648507562E+00 -0.43012703156E+00  0.15235170160E+01  0.51100000000E-03 0.  1.
         12    1    4    4    0    0  0.39306492691E+01 -0.31639547592E+02 -0.24526095130E+02  0.40224871881E+02  0.00000000000E+00 0. -1.
</event>
<event>
 8    1  0.1271559E-006  0.9118800E+02  0.7816164E-02  0.1184000E+00
        -11   -1    0    0    0    0  0.00000000000E+00  0.00000000000E+00  0.45593999997E+02  0.45594000000E+02  0.51100000000E-03 0.  1.
         11   -1    0    0    0    0 -0.00000000000E+00 -0.00000000000E+00 -0.45593999997E+02  0.45594000000E+02  0.51100000000E-03 0. -1.
         23    2    1    2    0    0  0.00000000000E+00  0.35527136788E-14 -0.13322676296E-14  0.91188000000E+02  0.91188000000E+02 0.  0.
    9900012    2    3    3    0    0 -0.22595008924E+02  0.29069012878E+02  0.48826298304E+00  0.54367077433E+02  0.39999984624E+02 0.  0.
        -12    1    3    3    0    0  0.22595008924E+02 -0.29069012878E+02 -0.48826298304E+00  0.36820922567E+02  0.00000000000E+00 0.  1.
         11    1    4    4    0    0 -0.35558590403E+01 -0.62540316642E+01 -0.78869828578E+01  0.10675277253E+02  0.51100000000E-03 0. -1.
        -11    1    4    4    0    0 -0.12213394543E+02  0.33125237017E+02  0.46468128587E+01  0.35609566183E+02  0.51100000000E-03 0.  1.
        -12    1    4    4    0    0 -0.68257553400E+01  0.21978075248E+01  0.37284329822E+01  0.80822339969E+01  0.00000000000E+00 0.  1.
</event>
<event>
 8    1  0.1271559E-006  0.9118800E+02  0.7816164E-02  0.1184000E+00
        -11   -1    0    0    0    0  0.00000000000E+00  0.00000000000E+00  0.45593999997E+02  0.45594000000E+02  0.51100000000E-03 0.  1.
         11   -1    0    0    0    0 -0.00000000000E+00 -0.00000000000E+00 -0.45593999997E+02  0.45594000000E+02  0.51100000000E-03 0. -1.
         23    2    1    2    0    0  0.35527136788E-14  0.00000000000E+00  0.35527136788E-14  0.91188000000E+02  0.91188000000E+02 0.  0.
    9900012    2    3    3    0    0 -0.22695371571E+02 -0.14423899310E+02 -0.25152717879E+02  0.54366973687E+02  0.39999748113E+02 0.  0.
         12    1    3    3    0    0  0.22695371571E+02  0.14423899310E+02  0.25152717879E+02  0.36821026313E+02  0.00000000000E+00 0. -1.
         11    1    4    4    0    0 -0.56742873139E+01  0.32379338272E+01  0.59196718931E+00  0.65598915695E+01  0.51100000000E-03 0. -1.
        -11    1    4    4    0    0  0.63911469529E+01 -0.11644241147E+02 -0.18105792848E+02  0.22455619478E+02  0.51100000000E-03 0.  1.
        -12    1    4    4    0    0 -0.23412231210E+02 -0.60175919905E+01 -0.76388922208E+01  0.25351462639E+02  0.00000000000E+00 0.  1.
</event>
<event>
 8    1  0.1271559E-006  0.9118800E+02  0.7816164E-02  0.1184000E+00
        -11   -1    0    0    0    0  0.00000000000E+00  0.00000000000E+00  0.45593999997E+02  0.45594000000E+02  0.51100000000E-03 0. -1.
         11   -1    0    0    0    0 -0.00000000000E+00 -0.00000000000E+00 -0.45593999997E+02  0.45594000000E+02  0.51100000000E-03 0.  1.
         23    2    1    2    0    0 -0.17763568394E-14  0.44408920985E-15  0.00000000000E+00  0.91188000000E+02  0.91188000000E+02 0.  0.
    9900012    2    3    3    0    0 -0.14309847527E+02  0.24169589387E+01 -0.33840268731E+02  0.54367119857E+02  0.40000081338E+02 0.  0.
         12    1    3    3    0    0  0.14309847527E+02 -0.24169589387E+01  0.33840268731E+02  0.36820880143E+02  0.00000000000E+00 0. -1.
         11    1    4    4    0    0 -0.17520201865E+01  0.62285034205E+01  0.14060035083E+01  0.66212291698E+01  0.51100000000E-03 0. -1.
        -11    1    4    4    0    0 -0.16207373974E+02  0.90480095810E+01 -0.23534618371E+02  0.29973716998E+02  0.51100000000E-03 0.  1.
        -12    1    4    4    0    0  0.36495466338E+01 -0.12859554063E+02 -0.11711653868E+02  0.17772173690E+02  0.00000000000E+00 0.  1.
</event>
<event>
 8    1  0.1271559E-006  0.9118800E+02  0.7816164E-02  0.1184000E+00
        -11   -1    0    0    0    0  0.00000000000E+00  0.00000000000E+00  0.45593999997E+02  0.45594000000E+02  0.51100000000E-03 0.  1.
         11   -1    0    0    0    0 -0.00000000000E+00 -0.00000000000E+00 -0.45593999997E+02  0.45594000000E+02  0.51100000000E-03 0. -1.
         23    2    1    2    0    0  0.88817841970E-15  0.00000000000E+00 -0.26645352591E-14  0.91188000000E+02  0.91188000000E+02 0.  0.
    9900012    2    3    3    0    0 -0.63174615109E+01  0.35596266355E+02  0.69839128912E+01  0.54367088311E+02  0.40000009422E+02 0.  0.
         12    1    3    3    0    0  0.63174615109E+01 -0.35596266355E+02 -0.69839128912E+01  0.36820911689E+02  0.00000000000E+00 0. -1.
         11    1    4    4    0    0 -0.12288675271E+02  0.17268197789E+02 -0.50663351294E+00  0.21200445103E+02  0.51100000000E-03 0. -1.
        -11    1    4    4    0    0 -0.55508840650E+01 -0.33079928331E+01 -0.21735576244E+01  0.68175863393E+01  0.51100000000E-03 0.  1.
        -12    1    4    4    0    0  0.11522097825E+02  0.21636061399E+02  0.96641040285E+01  0.26349056868E+02  0.00000000000E+00 0.  1.
</event>
<event>
 8    1  0.1271559E-006  0.9118800E+02  0.7816164E-02  0.1184000E+00
        -11   -1    0    0    0    0  0.00000000000E+00  0.00000000000E+00  0.45593999997E+02  0.45594000000E+02  0.51100000000E-03 0.  1.
         11   -1    0    0    0    0 -0.00000000000E+00 -0.00000000000E+00 -0.45593999997E+02  0.45594000000E+02  0.51100000000E-03 0. -1.
         23    2    1    2    0    0 -0.17763568394E-14  0.00000000000E+00  0.00000000000E+00  0.91188000000E+02  0.91188000000E+02 0.  0.
    9900012    2    3    3    0    0  0.13954841612E+02  0.23003710614E+02  0.25137075815E+02  0.54367069988E+02  0.39999967651E+02 0.  0.
         12    1    3    3    0    0 -0.13954841612E+02 -0.23003710614E+02 -0.25137075815E+02  0.36820930012E+02  0.00000000000E+00 0. -1.
         11    1    4    4    0    0  0.95125896600E+01 -0.81232357207E+01 -0.38479965073E+00  0.12514966706E+02  0.51100000000E-03 0. -1.
        -11    1    4    4    0    0  0.67792606393E+00  0.19240945302E+02  0.21245352528E+02  0.28671214906E+02  0.51100000000E-03 0.  1.
        -12    1    4    4    0    0  0.37643258881E+01  0.11886001033E+02  0.42765229371E+01  0.13180888376E+02  0.00000000000E+00 0.  1.
</event>
<event>
 8    1  0.1271559E-006  0.9118800E+02  0.7816164E-02  0.1184000E+00
        -11   -1    0    0    0    0  0.00000000000E+00  0.00000000000E+00  0.45593999997E+02  0.45594000000E+02  0.51100000000E-03 0. -1.
         11   -1    0    0    0    0 -0.00000000000E+00 -0.00000000000E+00 -0.45593999997E+02  0.45594000000E+02  0.51100000000E-03 0.  1.
         23    2    1    2    0    0  0.35527136788E-14 -0.71054273576E-14 -0.17763568394E-14  0.91188000000E+02  0.91188000000E+02 0.  0.
    9900012    2    3    3    0    0 -0.18352189218E+02 -0.30022983651E+02 -0.10844232885E+02  0.54367084976E+02  0.40000001819E+02 0.  0.
         12    1    3    3    0    0  0.18352189218E+02  0.30022983651E+02  0.10844232885E+02  0.36820915024E+02  0.00000000000E+00 0. -1.
         11    1    4    4    0    0  0.35384834741E+01 -0.22717534313E+02  0.50739241777E+01  0.23544679598E+02  0.51100000000E-03 0. -1.
        -11    1    4    4    0    0 -0.85191434436E+00 -0.22394085201E+01 -0.70317916546E+01  0.74287820472E+01  0.51100000000E-03 0.  1.
        -12    1    4    4    0    0 -0.21038758347E+02 -0.50660408178E+01 -0.88863654082E+01  0.23393623331E+02  0.00000000000E+00 0.  1.
</event>
<event>
 8    1  0.1271559E-006  0.9118800E+02  0.7816164E-02  0.1184000E+00
        -11   -1    0    0    0    0  0.00000000000E+00  0.00000000000E+00  0.45593999997E+02  0.45594000000E+02  0.51100000000E-03 0. -1.
         11   -1    0    0    0    0 -0.00000000000E+00 -0.00000000000E+00 -0.45593999997E+02  0.45594000000E+02  0.51100000000E-03 0.  1.
         23    2    1    2    0    0 -0.35527136788E-14  0.00000000000E+00  0.00000000000E+00  0.91188000000E+02  0.91188000000E+02 0.  0.
    9900012    2    3    3    0    0 -0.16176981543E+02  0.76027415663E+01  0.32191348395E+02  0.54367091230E+02  0.40000016077E+02 0.  0.
        -12    1    3    3    0    0  0.16176981543E+02 -0.76027415663E+01 -0.32191348395E+02  0.36820908770E+02  0.00000000000E+00 0.  1.
         11    1    4    4    0    0  0.51687128762E+01  0.27467678411E+01 -0.42006258251E+01  0.72045530016E+01  0.51100000000E-03 0. -1.
        -11    1    4    4    0    0 -0.33676886527E+00 -0.56573653403E+01  0.12139977141E+02  0.13397695366E+02  0.51100000000E-03 0.  1.
         12    1    4    4    0    0 -0.21008925554E+02  0.10513339066E+02  0.24251997079E+02  0.33764842863E+02  0.00000000000E+00 0. -1.
</event>
<event>
 8    1  0.1271559E-006  0.9118800E+02  0.7816164E-02  0.1184000E+00
        -11   -1    0    0    0    0  0.00000000000E+00  0.00000000000E+00  0.45593999997E+02  0.45594000000E+02  0.51100000000E-03 0.  1.
         11   -1    0    0    0    0 -0.00000000000E+00 -0.00000000000E+00 -0.45593999997E+02  0.45594000000E+02  0.51100000000E-03 0. -1.
         23    2    1    2    0    0  0.11102230246E-15 -0.71054273576E-14  0.00000000000E+00  0.91188000000E+02  0.91188000000E+02 0.  0.
    9900012    2    3    3    0    0  0.60789046246E+00  0.28470122009E+02  0.23342303946E+02  0.54367074814E+02  0.39999978654E+02 0.  0.
         12    1    3    3    0    0 -0.60789046246E+00 -0.28470122009E+02 -0.23342303946E+02  0.36820925186E+02  0.00000000000E+00 0. -1.
         11    1    4    4    0    0  0.66051328641E+01 -0.12389197501E+00  0.82707109389E+00  0.66578657413E+01  0.51100000000E-03 0. -1.
        -11    1    4    4    0    0  0.61493427913E+01 -0.38999294826E+01  0.27514149128E+01  0.77842244969E+01  0.51100000000E-03 0.  1.
         12    1    4    4    0    0 -0.12146585193E+02  0.32493943466E+02  0.19763817940E+02  0.39924984576E+02  0.00000000000E+00 0. -1.
</event>
<event>
 8    1  0.1271559E-006  0.9118800E+02  0.7816164E-02  0.1184000E+00
        -11   -1    0    0    0    0  0.00000000000E+00  0.00000000000E+00  0.45593999997E+02  0.45594000000E+02  0.51100000000E-03 0.  1.
         11   -1    0    0    0    0 -0.00000000000E+00 -0.00000000000E+00 -0.45593999997E+02  0.45594000000E+02  0.51100000000E-03 0. -1.
         23    2    1    2    0    0 -0.88817841970E-15  0.00000000000E+00  0.00000000000E+00  0.91188000000E+02  0.91188000000E+02 0.  0.
    9900012    2    3    3    0    0 -0.42267057569E+01  0.25304312539E+02 -0.26412236011E+02  0.54367089015E+02  0.40000011028E+02 0.  0.
        -12    1    3    3    0    0  0.42267057569E+01 -0.25304312539E+02  0.26412236011E+02  0.36820910985E+02  0.00000000000E+00 0.  1.
         11    1    4    4    0    0 -0.43870694660E+01 -0.52694297262E+00  0.45755265423E+01  0.63607775308E+01  0.51100000000E-03 0.  1.
        -11    1    4    4    0    0  0.75576473762E+01 -0.12827844948E+01 -0.11443299259E+02  0.13773622185E+02  0.51100000000E-03 0. -1.
        -12    1    4    4    0    0 -0.73972836671E+01  0.27114040007E+02 -0.19544463295E+02  0.34232689299E+02  0.00000000000E+00 0.  1.
</event>
<event>
 8    1  0.1271559E-006  0.9118800E+02  0.7816164E-02  0.1184000E+00
        -11   -1    0    0    0    0  0.00000000000E+00  0.00000000000E+00  0.45593999997E+02  0.45594000000E+02  0.51100000000E-03 0.  1.
         11   -1    0    0    0    0 -0.00000000000E+00 -0.00000000000E+00 -0.45593999997E+02  0.45594000000E+02  0.51100000000E-03 0. -1.
         23    2    1    2    0    0  0.00000000000E+00 -0.35527136788E-14  0.88817841970E-15  0.91188000000E+02  0.91188000000E+02 0.  0.
    9900012    2    3    3    0    0 -0.22509322007E+02  0.28791266283E+02 -0.44915388350E+01  0.54367075073E+02  0.39999979243E+02 0.  0.
         12    1    3    3    0    0  0.22509322007E+02 -0.28791266283E+02  0.44915388350E+01  0.36820924927E+02  0.00000000000E+00 0. -1.
         11    1    4    4    0    0 -0.18230274068E+02  0.12552290185E+02 -0.12191425596E+02  0.25269225152E+02  0.51100000000E-03 0.  1.
        -11    1    4    4    0    0 -0.77889037207E+01  0.16539038435E+02 -0.23656013065E+01  0.18433743063E+02  0.51100000000E-03 0. -1.
         12    1    4    4    0    0  0.35098557817E+01 -0.30006233670E+00  0.10065488068E+02  0.10664106857E+02  0.00000000000E+00 0. -1.
</event>
<event>
 8    1  0.1271559E-006  0.9118800E+02  0.7816164E-02  0.1184000E+00
        -11   -1    0    0    0    0  0.00000000000E+00  0.00000000000E+00  0.45593999997E+02  0.45594000000E+02  0.51100000000E-03 0. -1.
         11   -1    0    0    0    0 -0.00000000000E+00 -0.00000000000E+00 -0.45593999997E+02  0.45594000000E+02  0.51100000000E-03 0.  1.
         23    2    1    2    0    0  0.00000000000E+00  0.35527136788E-14  0.00000000000E+00  0.91188000000E+02  0.91188000000E+02 0.  0.
    9900012    2    3    3    0    0  0.22235335182E+02 -0.22196494525E+02  0.19201177767E+02  0.54367085733E+02  0.40000003545E+02 0.  0.
        -12    1    3    3    0    0 -0.22235335182E+02  0.22196494525E+02 -0.19201177767E+02  0.36820914267E+02  0.00000000000E+00 0.  1.
         11    1    4    4    0    0 -0.33133574532E+01  0.78758570203E+01  0.69841853744E+01  0.11035683351E+02  0.51100000000E-03 0. -1.
        -11    1    4    4    0    0  0.23536966884E+01  0.10513669546E+01 -0.17875706403E+00  0.25840307512E+01  0.51100000000E-03 0.  1.
         12    1    4    4    0    0  0.23194995947E+02 -0.31123718500E+02  0.12395749456E+02  0.40747371631E+02  0.00000000000E+00 0. -1.
</event>
<event>
 8    1  0.1271559E-006  0.9118800E+02  0.7816164E-02  0.1184000E+00
        -11   -1    0    0    0    0  0.00000000000E+00  0.00000000000E+00  0.45593999997E+02  0.45594000000E+02  0.51100000000E-03 0.  1.
         11   -1    0    0    0    0 -0.00000000000E+00 -0.00000000000E+00 -0.45593999997E+02  0.45594000000E+02  0.51100000000E-03 0. -1.
         23    2    1    2    0    0  0.00000000000E+00  0.17763568394E-14  0.27755575616E-15  0.91188000000E+02  0.91188000000E+02 0.  0.
    9900012    2    3    3    0    0 -0.35924905533E+02  0.80656834218E+01  0.35333305849E+00  0.54367096550E+02  0.40000028204E+02 0.  0.
        -12    1    3    3    0    0  0.35924905533E+02 -0.80656834218E+01 -0.35333305849E+00  0.36820903450E+02  0.00000000000E+00 0.  1.
         11    1    4    4    0    0 -0.10528545673E+02  0.39605306972E+01 -0.35791299915E+00  0.11254518176E+02  0.51100000000E-03 0. -1.
        -11    1    4    4    0    0 -0.15757804609E+02 -0.81374517341E+01 -0.13292110784E+02  0.22163184252E+02  0.51100000000E-03 0.  1.
        -12    1    4    4    0    0 -0.96385552514E+01  0.12242604459E+02  0.14003356841E+02  0.20949394122E+02  0.00000000000E+00 0.  1.
</event>
<event>
 8    1  0.1271559E-006  0.9118800E+02  0.7816164E-02  0.1184000E+00
        -11   -1    0    0    0    0  0.00000000000E+00  0.00000000000E+00  0.45593999997E+02  0.45594000000E+02  0.51100000000E-03 0.  1.
         11   -1    0    0    0    0 -0.00000000000E+00 -0.00000000000E+00 -0.45593999997E+02  0.45594000000E+02  0.51100000000E-03 0. -1.
         23    2    1    2    0    0  0.35527136788E-14 -0.17763568394E-14  0.00000000000E+00  0.91188000000E+02  0.91188000000E+02 0.  0.
    9900012    2    3    3    0    0 -0.15979667701E+02  0.11383005467E+02  0.31158581532E+02  0.54367084797E+02  0.40000001411E+02 0.  0.
         12    1    3    3    0    0  0.15979667701E+02 -0.11383005467E+02 -0.31158581532E+02  0.36820915203E+02  0.00000000000E+00 0. -1.
         11    1    4    4    0    0  0.24721858287E+01 -0.94926619963E+01  0.10356465748E+02  0.14264596650E+02  0.51100000000E-03 0. -1.
        -11    1    4    4    0    0  0.38536600724E+01  0.68279599341E+01  0.59800723964E+01  0.98606794362E+01  0.51100000000E-03 0.  1.
         12    1    4    4    0    0 -0.22305513602E+02  0.14047707530E+02  0.14822043388E+02  0.30241808710E+02  0.00000000000E+00 0. -1.
</event>
<event>
 8    1  0.1271559E-006  0.9118800E+02  0.7816164E-02  0.1184000E+00
        -11   -1    0    0    0    0  0.00000000000E+00  0.00000000000E+00  0.45593999997E+02  0.45594000000E+02  0.51100000000E-03 0.  1.
         11   -1    0    0    0    0 -0.00000000000E+00 -0.00000000000E+00 -0.45593999997E+02  0.45594000000E+02  0.51100000000E-03 0. -1.
         23    2    1    2    0    0  0.00000000000E+00  0.00000000000E+00  0.00000000000E+00  0.91188000000E+02  0.91188000000E+02 0.  0.
    9900012    2    3    3    0    0  0.29508146647E+02  0.11766312217E+02  0.18617298949E+02  0.54367073316E+02  0.39999975238E+02 0.  0.
         12    1    3    3    0    0 -0.29508146647E+02 -0.11766312217E+02 -0.18617298949E+02  0.36820926684E+02  0.00000000000E+00 0. -1.
         11    1    4    4    0    0 -0.10890498134E+01  0.13492192721E+02 -0.26052460354E+01  0.13784505834E+02  0.51100000000E-03 0. -1.
        -11    1    4    4    0    0  0.47983634355E+01  0.55456077813E+01  0.74245450805E+01  0.10435608618E+02  0.51100000000E-03 0.  1.
         12    1    4    4    0    0  0.25798833025E+02 -0.72714882855E+01  0.13797999904E+02  0.30146958863E+02  0.00000000000E+00 0. -1.
</event>
<event>
 8    1  0.1271559E-006  0.9118800E+02  0.7816164E-02  0.1184000E+00
        -11   -1    0    0    0    0  0.00000000000E+00  0.00000000000E+00  0.45593999997E+02  0.45594000000E+02  0.51100000000E-03 0. -1.
         11   -1    0    0    0    0 -0.00000000000E+00 -0.00000000000E+00 -0.45593999997E+02  0.45594000000E+02  0.51100000000E-03 0.  1.
         23    2    1    2    0    0  0.00000000000E+00  0.00000000000E+00  0.00000000000E+00  0.91188000000E+02  0.91188000000E+02 0.  0.
    9900012    2    3    3    0    0  0.16151850486E+02  0.40471655240E+01 -0.32840759118E+02  0.54367118936E+02  0.40000079237E+02 0.  0.
         12    1    3    3    0    0 -0.16151850486E+02 -0.40471655240E+01  0.32840759118E+02  0.36820881064E+02  0.00000000000E+00 0. -1.
         11    1    4    4    0    0 -0.85026838788E+00  0.13375929733E+02 -0.21685512018E+02  0.25493134062E+02  0.51100000000E-03 0. -1.
        -11    1    4    4    0    0  0.10967433817E+02  0.37085522896E+01 -0.82518764915E+01  0.14217293360E+02  0.51100000000E-03 0.  1.
         12    1    4    4    0    0  0.60346850575E+01 -0.13037316498E+02 -0.29033706083E+01  0.14656691513E+02  0.00000000000E+00 0. -1.
</event>
<event>
 8    1  0.1271559E-006  0.9118800E+02  0.7816164E-02  0.1184000E+00
        -11   -1    0    0    0    0  0.00000000000E+00  0.00000000000E+00  0.45593999997E+02  0.45594000000E+02  0.51100000000E-03 0.  1.
         11   -1    0    0    0    0 -0.00000000000E+00 -0.00000000000E+00 -0.45593999997E+02  0.45594000000E+02  0.51100000000E-03 0. -1.
         23    2    1    2    0    0  0.00000000000E+00  0.00000000000E+00  0.00000000000E+00  0.91188000000E+02  0.91188000000E+02 0.  0.
    9900012    2    3    3    0    0  0.27263766813E+02  0.96149750034E+01  0.22803810026E+02  0.54367157032E+02  0.40000166086E+02 0.  0.
         12    1    3    3    0    0 -0.27263766813E+02 -0.96149750034E+01 -0.22803810026E+02  0.36820842968E+02  0.00000000000E+00 0. -1.
         11    1    4    4    0    0  0.27834931346E+02  0.73175239054E+01  0.30308817947E+01  0.28939865305E+02  0.51100000000E-03 0. -1.
        -11    1    4    4    0    0  0.22982677373E+01  0.16511449588E+00  0.21382773705E+02  0.21506564322E+02  0.51100000000E-03 0.  1.
         12    1    4    4    0    0 -0.28694322707E+01  0.21323366020E+01 -0.16098454728E+01  0.39207274053E+01  0.00000000000E+00 0. -1.
</event>
<event>
 8    1  0.1271559E-006  0.9118800E+02  0.7816164E-02  0.1184000E+00
        -11   -1    0    0    0    0  0.00000000000E+00  0.00000000000E+00  0.45593999997E+02  0.45594000000E+02  0.51100000000E-03 0.  1.
         11   -1    0    0    0    0 -0.00000000000E+00 -0.00000000000E+00 -0.45593999997E+02  0.45594000000E+02  0.51100000000E-03 0. -1.
         23    2    1    2    0    0  0.00000000000E+00  0.00000000000E+00 -0.17763568394E-14  0.91188000000E+02  0.91188000000E+02 0.  0.
    9900012    2    3    3    0    0 -0.13872488441E+01 -0.34166707295E+02  0.13656197111E+02  0.54367081132E+02  0.39999993058E+02 0.  0.
         12    1    3    3    0    0  0.13872488441E+01  0.34166707295E+02 -0.13656197111E+02  0.36820918868E+02  0.00000000000E+00 0. -1.
         11    1    4    4    0    0  0.42525623595E+01 -0.85015621180E+01 -0.11278407533E+02  0.14750027858E+02  0.51100000000E-03 0. -1.
        -11    1    4    4    0    0  0.35178358136E+01 -0.76511428310E+01  0.14757053992E+02  0.16990756258E+02  0.51100000000E-03 0.  1.
        -12    1    4    4    0    0 -0.91576470172E+01 -0.18014002346E+02  0.10177550653E+02  0.22626297017E+02  0.00000000000E+00 0.  1.
</event>
<event>
 8    1  0.1271559E-006  0.9118800E+02  0.7816164E-02  0.1184000E+00
        -11   -1    0    0    0    0  0.00000000000E+00  0.00000000000E+00  0.45593999997E+02  0.45594000000E+02  0.51100000000E-03 0.  1.
         11   -1    0    0    0    0 -0.00000000000E+00 -0.00000000000E+00 -0.45593999997E+02  0.45594000000E+02  0.51100000000E-03 0. -1.
         23    2    1    2    0    0  0.17763568394E-14 -0.71054273576E-14  0.00000000000E+00  0.91188000000E+02  0.91188000000E+02 0.  0.
    9900012    2    3    3    0    0 -0.97749578415E+01  0.34337084691E+02 -0.90108537715E+01  0.54367072912E+02  0.39999974318E+02 0.  0.
        -12    1    3    3    0    0  0.97749578415E+01 -0.34337084691E+02  0.90108537715E+01  0.36820927088E+02  0.00000000000E+00 0.  1.
         11    1    4    4    0    0 -0.10666578968E+02 -0.54885466294E+01 -0.30415765028E+01  0.12375428835E+02  0.51100000000E-03 0.  1.
        -11    1    4    4    0    0  0.55579875759E+01  0.10614007995E+02 -0.15321282161E+01  0.12078733739E+02  0.51100000000E-03 0. -1.
         12    1    4    4    0    0 -0.46663664497E+01  0.29211623326E+02 -0.44371490526E+01  0.29912910338E+02  0.00000000000E+00 0. -1.
</event>
<event>
 8    1  0.1271559E-006  0.9118800E+02  0.7816164E-02  0.1184000E+00
        -11   -1    0    0    0    0  0.00000000000E+00  0.00000000000E+00  0.45593999997E+02  0.45594000000E+02  0.51100000000E-03 0.  1.
         11   -1    0    0    0    0 -0.00000000000E+00 -0.00000000000E+00 -0.45593999997E+02  0.45594000000E+02  0.51100000000E-03 0. -1.
         23    2    1    2    0    0 -0.88817841970E-15  0.00000000000E+00  0.00000000000E+00  0.91188000000E+02  0.91188000000E+02 0.  0.
    9900012    2    3    3    0    0 -0.52706656223E+01 -0.33244396261E+02  0.14926778566E+02  0.54367102167E+02  0.40000041010E+02 0.  0.
         12    1    3    3    0    0  0.52706656223E+01  0.33244396261E+02 -0.14926778566E+02  0.36820897833E+02  0.00000000000E+00 0. -1.
         11    1    4    4    0    0  0.40210678836E+01 -0.66479919932E+01  0.11721292948E+02  0.14062485310E+02  0.51100000000E-03 0. -1.
        -11    1    4    4    0    0 -0.11305209923E+02 -0.30188987356E+02  0.87454469886E+01  0.33401580386E+02  0.51100000000E-03 0.  1.
         12    1    4    4    0    0  0.20134764174E+01  0.35925830879E+01 -0.55399613707E+01  0.69030364707E+01  0.00000000000E+00 0. -1.
</event>
<event>
 8    1  0.1271559E-006  0.9118800E+02  0.7816164E-02  0.1184000E+00
        -11   -1    0    0    0    0  0.00000000000E+00  0.00000000000E+00  0.45593999997E+02  0.45594000000E+02  0.51100000000E-03 0.  1.
         11   -1    0    0    0    0 -0.00000000000E+00 -0.00000000000E+00 -0.45593999997E+02  0.45594000000E+02  0.51100000000E-03 0. -1.
         23    2    1    2    0    0 -0.35527136788E-14 -0.35527136788E-14  0.00000000000E+00  0.91188000000E+02  0.91188000000E+02 0.  0.
    9900012    2    3    3    0    0 -0.25653068942E+02 -0.18537361551E+02  0.18816617553E+02  0.54367098116E+02  0.40000031774E+02 0.  0.
         12    1    3    3    0    0  0.25653068942E+02  0.18537361551E+02 -0.18816617553E+02  0.36820901884E+02  0.00000000000E+00 0. -1.
         11    1    4    4    0    0 -0.13616006931E+01  0.42082159692E+01 -0.36207449192E+01  0.57160154060E+01  0.51100000000E-03 0. -1.
        -11    1    4    4    0    0 -0.88539598350E+01  0.47827005242E+01  0.11421982070E+02  0.15222631302E+02  0.51100000000E-03 0.  1.
         12    1    4    4    0    0 -0.15437508414E+02 -0.27528278044E+02  0.11015380402E+02  0.33428451408E+02  0.00000000000E+00 0. -1.
</event>
<event>
 8    1  0.1271559E-006  0.9118800E+02  0.7816164E-02  0.1184000E+00
        -11   -1    0    0    0    0  0.00000000000E+00  0.00000000000E+00  0.45593999997E+02  0.45594000000E+02  0.51100000000E-03 0.  1.
         11   -1    0    0    0    0 -0.00000000000E+00 -0.00000000000E+00 -0.45593999997E+02  0.45594000000E+02  0.51100000000E-03 0. -1.
         23    2    1    2    0    0  0.00000000000E+00  0.35527136788E-14 -0.35527136788E-14  0.91188000000E+02  0.91188000000E+02 0.  0.
    9900012    2    3    3    0    0 -0.18571830763E+02  0.19227284461E+02  0.25321498528E+02  0.54367086739E+02  0.40000005840E+02 0.  0.
         12    1    3    3    0    0  0.18571830763E+02 -0.19227284461E+02 -0.25321498528E+02  0.36820913261E+02  0.00000000000E+00 0. -1.
         11    1    4    4    0    0 -0.94217446434E+01  0.10210336588E+02 -0.88404339580E+00  0.13921270716E+02  0.51100000000E-03 0. -1.
        -11    1    4    4    0    0 -0.11665085384E+02 -0.75673853400E+01  0.13731124479E+02  0.19541835062E+02  0.51100000000E-03 0.  1.
         12    1    4    4    0    0  0.25149992637E+01  0.16584333213E+02  0.12474417445E+02  0.20903980961E+02  0.00000000000E+00 0. -1.
</event>
<event>
 8    1  0.1271559E-006  0.9118800E+02  0.7816164E-02  0.1184000E+00
        -11   -1    0    0    0    0  0.00000000000E+00  0.00000000000E+00  0.45593999997E+02  0.45594000000E+02  0.51100000000E-03 0. -1.
         11   -1    0    0    0    0 -0.00000000000E+00 -0.00000000000E+00 -0.45593999997E+02  0.45594000000E+02  0.51100000000E-03 0.  1.
         23    2    1    2    0    0  0.35527136788E-14  0.00000000000E+00  0.00000000000E+00  0.91188000000E+02  0.91188000000E+02 0.  0.
    9900012    2    3    3    0    0  0.20469270833E+02 -0.17433433566E+02 -0.25156759772E+02  0.54367106250E+02  0.40000050318E+02 0.  0.
         12    1    3    3    0    0 -0.20469270833E+02  0.17433433566E+02  0.25156759772E+02  0.36820893750E+02  0.00000000000E+00 0. -1.
         11    1    4    4    0    0  0.17470581810E+02 -0.88611711895E+01 -0.70058135542E+00  0.19601846804E+02  0.51100000000E-03 0. -1.
        -11    1    4    4    0    0  0.11892529257E+02 -0.88862880106E+01 -0.19721631676E+02  0.24684835891E+02  0.51100000000E-03 0.  1.
        -12    1    4    4    0    0 -0.88938402341E+01  0.31402563380E+00 -0.47345467403E+01  0.10080423555E+02  0.00000000000E+00 0.  1.
</event>
<event>
 8    1  0.1271559E-006  0.9118800E+02  0.7816164E-02  0.1184000E+00
        -11   -1    0    0    0    0  0.00000000000E+00  0.00000000000E+00  0.45593999997E+02  0.45594000000E+02  0.51100000000E-03 0.  1.
         11   -1    0    0    0    0 -0.00000000000E+00 -0.00000000000E+00 -0.45593999997E+02  0.45594000000E+02  0.51100000000E-03 0. -1.
         23    2    1    2    0    0  0.00000000000E+00  0.00000000000E+00  0.35527136788E-14  0.91188000000E+02  0.91188000000E+02 0.  0.
    9900012    2    3    3    0    0 -0.30118493244E+01  0.32117467999E+02  0.17753244512E+02  0.54367072829E+02  0.39999974129E+02 0.  0.
         12    1    3    3    0    0  0.30118493244E+01 -0.32117467999E+02 -0.17753244512E+02  0.36820927171E+02  0.00000000000E+00 0. -1.
         11    1    4    4    0    0  0.82453120264E+01  0.15879121926E+02  0.16384501280E+01  0.17967086648E+02  0.51100000000E-03 0. -1.
        -11    1    4    4    0    0 -0.39333674742E+01  0.22588040729E+02  0.11866678194E+02  0.25816835888E+02  0.51100000000E-03 0.  1.
         12    1    4    4    0    0 -0.73237938765E+01 -0.63496946556E+01  0.42481161899E+01  0.10583150293E+02  0.00000000000E+00 0. -1.
</event>
<event>
 8    1  0.1271559E-006  0.9118800E+02  0.7816164E-02  0.1184000E+00
        -11   -1    0    0    0    0  0.00000000000E+00  0.00000000000E+00  0.45593999997E+02  0.45594000000E+02  0.51100000000E-03 0.  1.
         11   -1    0    0    0    0 -0.00000000000E+00 -0.00000000000E+00 -0.45593999997E+02  0.45594000000E+02  0.51100000000E-03 0. -1.
         23    2    1    2    0    0  0.17763568394E-14  0.17763568394E-14  0.00000000000E+00  0.91188000000E+02  0.91188000000E+02 0.  0.
    9900012    2    3    3    0    0 -0.14373873685E+02  0.84401824144E+01 -0.32831922467E+02  0.54367081261E+02  0.39999993351E+02 0.  0.
        -12    1    3    3    0    0  0.14373873685E+02 -0.84401824144E+01  0.32831922467E+02  0.36820918739E+02  0.00000000000E+00 0.  1.
         11    1    4    4    0    0  0.15843582015E+01  0.17790459273E+02 -0.44728249847E+01  0.18412408741E+02  0.51100000000E-03 0. -1.
        -11    1    4    4    0    0 -0.37671146315E+01 -0.37196559003E+01 -0.87562977744E+00  0.53659780499E+01  0.51100000000E-03 0.  1.
         12    1    4    4    0    0 -0.12191117255E+02 -0.56306209580E+01 -0.27483467705E+02  0.30588694470E+02  0.00000000000E+00 0. -1.
</event>
<event>
 8    1  0.1271559E-006  0.9118800E+02  0.7816164E-02  0.1184000E+00
        -11   -1    0    0    0    0  0.00000000000E+00  0.00000000000E+00  0.45593999997E+02  0.45594000000E+02  0.51100000000E-03 0.  1.
         11   -1    0    0    0    0 -0.00000000000E+00 -0.00000000000E+00 -0.45593999997E+02  0.45594000000E+02  0.51100000000E-03 0. -1.
         23    2    1    2    0    0  0.00000000000E+00  0.00000000000E+00  0.00000000000E+00  0.91188000000E+02  0.91188000000E+02 0.  0.
    9900012    2    3    3    0    0 -0.23883734340E+02 -0.27018668655E+02 -0.74401136748E+01  0.54366857793E+02  0.39999483908E+02 0.  0.
         12    1    3    3    0    0  0.23883734340E+02  0.27018668655E+02  0.74401136748E+01  0.36821142207E+02  0.00000000000E+00 0. -1.
         11    1    4    4    0    0 -0.75631285066E+01 -0.30448419899E+02 -0.34627646501E+01  0.31564187404E+02  0.51100000000E-03 0. -1.
        -11    1    4    4    0    0 -0.52739305878E+01  0.22486106261E+01 -0.89516350199E+01  0.10630256976E+02  0.51100000000E-03 0.  1.
        -12    1    4    4    0    0 -0.11046675246E+02  0.11811406177E+01  0.49742859952E+01  0.12172413413E+02  0.00000000000E+00 0.  1.
</event>
<event>
 8    1  0.1271559E-006  0.9118800E+02  0.7816164E-02  0.1184000E+00
        -11   -1    0    0    0    0  0.00000000000E+00  0.00000000000E+00  0.45593999997E+02  0.45594000000E+02  0.51100000000E-03 0. -1.
         11   -1    0    0    0    0 -0.00000000000E+00 -0.00000000000E+00 -0.45593999997E+02  0.45594000000E+02  0.51100000000E-03 0.  1.
         23    2    1    2    0    0  0.00000000000E+00  0.00000000000E+00  0.00000000000E+00  0.91188000000E+02  0.91188000000E+02 0.  0.
    9900012    2    3    3    0    0  0.19229777690E+02 -0.23460026684E+02  0.20871622087E+02  0.54367057446E+02  0.39999939060E+02 0.  0.
        -12    1    3    3    0    0 -0.19229777690E+02  0.23460026684E+02 -0.20871622087E+02  0.36820942554E+02  0.00000000000E+00 0.  1.
         11    1    4    4    0    0 -0.76989129611E-01  0.23984336366E+01  0.37751995650E+01  0.44733145711E+01  0.51100000000E-03 0. -1.
        -11    1    4    4    0    0  0.19765173646E+02 -0.15596399260E+02  0.26077922200E+02  0.36248693572E+02  0.51100000000E-03 0.  1.
        -12    1    4    4    0    0 -0.45840682700E+00 -0.10262061060E+02 -0.89814996776E+01  0.13645049303E+02  0.00000000000E+00 0.  1.
</event>
<event>
 8    1  0.1271559E-006  0.9118800E+02  0.7816164E-02  0.1184000E+00
        -11   -1    0    0    0    0  0.00000000000E+00  0.00000000000E+00  0.45593999997E+02  0.45594000000E+02  0.51100000000E-03 0.  1.
         11   -1    0    0    0    0 -0.00000000000E+00 -0.00000000000E+00 -0.45593999997E+02  0.45594000000E+02  0.51100000000E-03 0. -1.
         23    2    1    2    0    0 -0.17763568394E-14  0.00000000000E+00  0.00000000000E+00  0.91188000000E+02  0.91188000000E+02 0.  0.
    9900012    2    3    3    0    0  0.58898454585E+01 -0.11728487605E+02 -0.34402527115E+02  0.54367060673E+02  0.39999946417E+02 0.  0.
        -12    1    3    3    0    0 -0.58898454585E+01  0.11728487605E+02  0.34402527115E+02  0.36820939327E+02  0.00000000000E+00 0.  1.
         11    1    4    4    0    0 -0.35535408222E+01 -0.42628122929E+01 -0.15021943979E+02  0.16014306797E+02  0.51100000000E-03 0. -1.
        -11    1    4    4    0    0 -0.49149681112E+01  0.94796340977E+01 -0.43266151921E+01  0.11521283498E+02  0.51100000000E-03 0.  1.
        -12    1    4    4    0    0  0.14358354392E+02 -0.16945309410E+02 -0.15053967944E+02  0.26831470379E+02  0.00000000000E+00 0.  1.
</event>
<event>
 8    1  0.1271559E-006  0.9118800E+02  0.7816164E-02  0.1184000E+00
        -11   -1    0    0    0    0  0.00000000000E+00  0.00000000000E+00  0.45593999997E+02  0.45594000000E+02  0.51100000000E-03 0.  1.
         11   -1    0    0    0    0 -0.00000000000E+00 -0.00000000000E+00 -0.45593999997E+02  0.45594000000E+02  0.51100000000E-03 0. -1.
         23    2    1    2    0    0  0.00000000000E+00  0.00000000000E+00  0.00000000000E+00  0.91188000000E+02  0.91188000000E+02 0.  0.
    9900012    2    3    3    0    0  0.83827182606E+01 -0.17013269916E+02  0.31560418339E+02  0.54367064047E+02  0.39999954109E+02 0.  0.
         12    1    3    3    0    0 -0.83827182606E+01  0.17013269916E+02 -0.31560418339E+02  0.36820935953E+02  0.00000000000E+00 0. -1.
         11    1    4    4    0    0  0.85492729509E+01 -0.46494133156E+01  0.28346567641E+02  0.29970569054E+02  0.51100000000E-03 0. -1.
        -11    1    4    4    0    0 -0.26029018743E+01 -0.84967663904E+00  0.10300693140E+02  0.10658392373E+02  0.51100000000E-03 0.  1.
         12    1    4    4    0    0  0.24363471840E+01 -0.11514179962E+02 -0.70868424417E+01  0.13738102620E+02  0.00000000000E+00 0. -1.
</event>
<event>
 8    1  0.1271559E-006  0.9118800E+02  0.7816164E-02  0.1184000E+00
        -11   -1    0    0    0    0  0.00000000000E+00  0.00000000000E+00  0.45593999997E+02  0.45594000000E+02  0.51100000000E-03 0.  1.
         11   -1    0    0    0    0 -0.00000000000E+00 -0.00000000000E+00 -0.45593999997E+02  0.45594000000E+02  0.51100000000E-03 0. -1.
         23    2    1    2    0    0  0.17763568394E-14  0.00000000000E+00  0.00000000000E+00  0.91188000000E+02  0.91188000000E+02 0.  0.
    9900012    2    3    3    0    0 -0.87025333111E+01  0.31461860276E+02  0.17034696535E+02  0.54367304406E+02  0.40000502050E+02 0.  0.
        -12    1    3    3    0    0  0.87025333111E+01 -0.31461860276E+02 -0.17034696535E+02  0.36820695594E+02  0.00000000000E+00 0.  1.
         11    1    4    4    0    0 -0.93043969175E+01  0.35975144938E+02  0.28265664792E+01  0.37266235839E+02  0.51100000000E-03 0. -1.
        -11    1    4    4    0    0  0.40047592905E+01 -0.35605276102E+01  0.11367095834E+02  0.12566873987E+02  0.51100000000E-03 0.  1.
         12    1    4    4    0    0 -0.34028956841E+01 -0.95275705209E+00  0.28410342213E+01  0.45341945793E+01  0.00000000000E+00 0. -1.
</event>
<event>
 8    1  0.1271559E-006  0.9118800E+02  0.7816164E-02  0.1184000E+00
        -11   -1    0    0    0    0  0.00000000000E+00  0.00000000000E+00  0.45593999997E+02  0.45594000000E+02  0.51100000000E-03 0.  1.
         11   -1    0    0    0    0 -0.00000000000E+00 -0.00000000000E+00 -0.45593999997E+02  0.45594000000E+02  0.51100000000E-03 0. -1.
         23    2    1    2    0    0 -0.35527136788E-14  0.35527136788E-14  0.13322676296E-14  0.91188000000E+02  0.91188000000E+02 0.  0.
    9900012    2    3    3    0    0  0.29228710133E+02 -0.22122033962E+02 -0.34755744648E+01  0.54367061656E+02  0.39999948658E+02 0.  0.
        -12    1    3    3    0    0 -0.29228710133E+02  0.22122033962E+02  0.34755744648E+01  0.36820938344E+02  0.00000000000E+00 0.  1.
         11    1    4    4    0    0  0.21286335393E+02 -0.21752993392E+02 -0.77179230817E+01  0.31398521190E+02  0.51100000000E-03 0. -1.
        -11    1    4    4    0    0  0.13379024186E+02 -0.44001546403E+01  0.69172687607E+01  0.15691024708E+02  0.51100000000E-03 0.  1.
         12    1    4    4    0    0 -0.54366494453E+01  0.40311140700E+01 -0.26749201437E+01  0.72775157583E+01  0.00000000000E+00 0. -1.
</event>
<event>
 8    1  0.1271559E-006  0.9118800E+02  0.7816164E-02  0.1184000E+00
        -11   -1    0    0    0    0  0.00000000000E+00  0.00000000000E+00  0.45593999997E+02  0.45594000000E+02  0.51100000000E-03 0.  1.
         11   -1    0    0    0    0 -0.00000000000E+00 -0.00000000000E+00 -0.45593999997E+02  0.45594000000E+02  0.51100000000E-03 0. -1.
         23    2    1    2    0    0  0.00000000000E+00  0.35527136788E-14  0.00000000000E+00  0.91188000000E+02  0.91188000000E+02 0.  0.
    9900012    2    3    3    0    0 -0.44895699187E+01  0.17476797725E+02  0.32096486276E+02  0.54367093873E+02  0.40000022102E+02 0.  0.
         12    1    3    3    0    0  0.44895699187E+01 -0.17476797725E+02 -0.32096486276E+02  0.36820906127E+02  0.00000000000E+00 0. -1.
         11    1    4    4    0    0 -0.40717910700E+01  0.71534903273E+00  0.17142435222E+01  0.44754706871E+01  0.51100000000E-03 0.  1.
        -11    1    4    4    0    0  0.12318142712E+02 -0.57240883438E+01  0.84477101619E+01  0.15995800526E+02  0.51100000000E-03 0. -1.
         12    1    4    4    0    0 -0.12735921560E+02  0.22485537036E+02  0.21934532592E+02  0.33895822660E+02  0.00000000000E+00 0. -1.
</event>
<event>
 8    1  0.1271559E-006  0.9118800E+02  0.7816164E-02  0.1184000E+00
        -11   -1    0    0    0    0  0.00000000000E+00  0.00000000000E+00  0.45593999997E+02  0.45594000000E+02  0.51100000000E-03 0.  1.
         11   -1    0    0    0    0 -0.00000000000E+00 -0.00000000000E+00 -0.45593999997E+02  0.45594000000E+02  0.51100000000E-03 0. -1.
         23    2    1    2    0    0  0.35527136788E-14 -0.35527136788E-14  0.00000000000E+00  0.91188000000E+02  0.91188000000E+02 0.  0.
    9900012    2    3    3    0    0  0.16627193916E+02 -0.23755316596E+02  0.22693661437E+02  0.54367069627E+02  0.39999966829E+02 0.  0.
         12    1    3    3    0    0 -0.16627193916E+02  0.23755316596E+02 -0.22693661437E+02  0.36820930373E+02  0.00000000000E+00 0. -1.
         11    1    4    4    0    0  0.25146917302E+02 -0.11771853062E+02  0.80826392230E+01  0.28918385698E+02  0.51100000000E-03 0. -1.
        -11    1    4    4    0    0  0.15162465174E+01 -0.10074418845E+02  0.98751049793E+01  0.14188397273E+02  0.51100000000E-03 0.  1.
         12    1    4    4    0    0 -0.10035969903E+02 -0.19090446894E+01  0.47359172350E+01  0.11260286656E+02  0.00000000000E+00 0. -1.
</event>
<event>
 8    1  0.1271559E-006  0.9118800E+02  0.7816164E-02  0.1184000E+00
        -11   -1    0    0    0    0  0.00000000000E+00  0.00000000000E+00  0.45593999997E+02  0.45594000000E+02  0.51100000000E-03 0. -1.
         11   -1    0    0    0    0 -0.00000000000E+00 -0.00000000000E+00 -0.45593999997E+02  0.45594000000E+02  0.51100000000E-03 0.  1.
         23    2    1    2    0    0 -0.35527136788E-14  0.00000000000E+00  0.00000000000E+00  0.91188000000E+02  0.91188000000E+02 0.  0.
    9900012    2    3    3    0    0 -0.15295039351E+02 -0.22852857472E+02  0.24486504724E+02  0.54367078814E+02  0.39999987772E+02 0.  0.
        -12    1    3    3    0    0  0.15295039351E+02  0.22852857472E+02 -0.24486504724E+02  0.36820921186E+02  0.00000000000E+00 0.  1.
         11    1    4    4    0    0  0.27266224541E+01 -0.22269406780E+02  0.18386078030E+02  0.29007047660E+02  0.51100000000E-03 0. -1.
        -11    1    4    4    0    0  0.91948768482E+00 -0.41486093455E+01  0.42299330722E+01  0.59957277424E+01  0.51100000000E-03 0.  1.
        -12    1    4    4    0    0 -0.18941149490E+02  0.35651586540E+01  0.18704936215E+01  0.19364303412E+02  0.00000000000E+00 0.  1.
</event>
<event>
 8    1  0.1271559E-006  0.9118800E+02  0.7816164E-02  0.1184000E+00
        -11   -1    0    0    0    0  0.00000000000E+00  0.00000000000E+00  0.45593999997E+02  0.45594000000E+02  0.51100000000E-03 0. -1.
         11   -1    0    0    0    0 -0.00000000000E+00 -0.00000000000E+00 -0.45593999997E+02  0.45594000000E+02  0.51100000000E-03 0.  1.
         23    2    1    2    0    0  0.00000000000E+00 -0.88817841970E-15  0.71054273576E-14  0.91188000000E+02  0.91188000000E+02 0.  0.
    9900012    2    3    3    0    0  0.17916205353E+02  0.64448233011E+01 -0.31515932147E+02  0.54367080121E+02  0.39999990751E+02 0.  0.
         12    1    3    3    0    0 -0.17916205353E+02 -0.64448233011E+01  0.31515932147E+02  0.36820919879E+02  0.00000000000E+00 0. -1.
         11    1    4    4    0    0  0.67399795321E+01 -0.22382693943E+01  0.49426195013E+01  0.86525523269E+01  0.51100000000E-03 0. -1.
        -11    1    4    4    0    0  0.16138462828E+02 -0.15361558181E+01 -0.20924176969E+02  0.26469434056E+02  0.51100000000E-03 0.  1.
         12    1    4    4    0    0 -0.49622370063E+01  0.10219248514E+02 -0.15534374680E+02  0.19245093738E+02  0.00000000000E+00 0. -1.
</event>
<event>
 8    1  0.1271559E-006  0.9118800E+02  0.7816164E-02  0.1184000E+00
        -11   -1    0    0    0    0  0.00000000000E+00  0.00000000000E+00  0.45593999997E+02  0.45594000000E+02  0.51100000000E-03 0. -1.
         11   -1    0    0    0    0 -0.00000000000E+00 -0.00000000000E+00 -0.45593999997E+02  0.45594000000E+02  0.51100000000E-03 0.  1.
         23    2    1    2    0    0 -0.35527136788E-14  0.26645352591E-14  0.00000000000E+00  0.91188000000E+02  0.91188000000E+02 0.  0.
    9900012    2    3    3    0    0 -0.13344694565E+02  0.79962795130E+01 -0.33373030665E+02  0.54367074769E+02  0.39999978552E+02 0.  0.
         12    1    3    3    0    0  0.13344694565E+02 -0.79962795130E+01  0.33373030665E+02  0.36820925231E+02  0.00000000000E+00 0. -1.
         11    1    4    4    0    0  0.25230343573E+00 -0.88054311754E+01 -0.26032881044E+02  0.27482906886E+02  0.51100000000E-03 0. -1.
        -11    1    4    4    0    0 -0.16707898385E+01 -0.25625931124E+01 -0.14835747364E+01  0.33999141759E+01  0.51100000000E-03 0.  1.
         12    1    4    4    0    0 -0.11926208162E+02  0.19364303801E+02 -0.58565748845E+01  0.23484253707E+02  0.00000000000E+00 0. -1.
</event>
<event>
 8    1  0.1271559E-006  0.9118800E+02  0.7816164E-02  0.1184000E+00
        -11   -1    0    0    0    0  0.00000000000E+00  0.00000000000E+00  0.45593999997E+02  0.45594000000E+02  0.51100000000E-03 0.  1.
         11   -1    0    0    0    0 -0.00000000000E+00 -0.00000000000E+00 -0.45593999997E+02  0.45594000000E+02  0.51100000000E-03 0. -1.
         23    2    1    2    0    0  0.35527136788E-14 -0.35527136788E-14  0.17763568394E-14  0.91188000000E+02  0.91188000000E+02 0.  0.
    9900012    2    3    3    0    0 -0.30299166558E+02 -0.16610422918E+02 -0.12721438708E+02  0.54367073254E+02  0.39999975096E+02 0.  0.
        -12    1    3    3    0    0  0.30299166558E+02  0.16610422918E+02  0.12721438708E+02  0.36820926746E+02  0.00000000000E+00 0.  1.
         11    1    4    4    0    0 -0.42937096723E+01  0.71172786202E+01 -0.10376996423E+02  0.13295625323E+02  0.51100000000E-03 0. -1.
        -11    1    4    4    0    0  0.34828543343E+01 -0.63590380169E+00 -0.46028666092E+00  0.35702257674E+01  0.51100000000E-03 0.  1.
         12    1    4    4    0    0 -0.29488311220E+02 -0.23091797736E+02 -0.18841556247E+01  0.37501222163E+02  0.00000000000E+00 0. -1.
</event>
<event>
 8    1  0.1271559E-006  0.9118800E+02  0.7816164E-02  0.1184000E+00
        -11   -1    0    0    0    0  0.00000000000E+00  0.00000000000E+00  0.45593999997E+02  0.45594000000E+02  0.51100000000E-03 0.  1.
         11   -1    0    0    0    0 -0.00000000000E+00 -0.00000000000E+00 -0.45593999997E+02  0.45594000000E+02  0.51100000000E-03 0. -1.
         23    2    1    2    0    0  0.33306690739E-14  0.00000000000E+00  0.00000000000E+00  0.91188000000E+02  0.91188000000E+02 0.  0.
    9900012    2    3    3    0    0 -0.80096887106E+00 -0.10268065466E+02 -0.35351171851E+02  0.54367081071E+02  0.39999992918E+02 0.  0.
        -12    1    3    3    0    0  0.80096887106E+00  0.10268065466E+02  0.35351171851E+02  0.36820918929E+02  0.00000000000E+00 0.  1.
         11    1    4    4    0    0  0.84207506960E+00 -0.87865564873E+00 -0.24121921393E+01  0.27018137148E+01  0.51100000000E-03 0. -1.
        -11    1    4    4    0    0  0.12600469396E+02  0.12460057335E+00 -0.32135380929E+02  0.34517677529E+02  0.51100000000E-03 0.  1.
        -12    1    4    4    0    0 -0.14243513337E+02 -0.95140103906E+01 -0.80359878285E+00  0.17147589827E+02  0.00000000000E+00 0.  1.
</event>
<event>
 8    1  0.1271559E-006  0.9118800E+02  0.7816164E-02  0.1184000E+00
        -11   -1    0    0    0    0  0.00000000000E+00  0.00000000000E+00  0.45593999997E+02  0.45594000000E+02  0.51100000000E-03 0.  1.
         11   -1    0    0    0    0 -0.00000000000E+00 -0.00000000000E+00 -0.45593999997E+02  0.45594000000E+02  0.51100000000E-03 0. -1.
         23    2    1    2    0    0  0.35527136788E-14  0.88817841970E-15  0.35527136788E-14  0.91188000000E+02  0.91188000000E+02 0.  0.
    9900012    2    3    3    0    0  0.18467373763E+02 -0.30669443515E+01  0.31706936927E+02  0.54367083517E+02  0.39999998494E+02 0.  0.
         12    1    3    3    0    0 -0.18467373763E+02  0.30669443515E+01 -0.31706936927E+02  0.36820916483E+02  0.00000000000E+00 0. -1.
         11    1    4    4    0    0  0.45723929605E+01  0.74888252604E+01 -0.13770496810E+01  0.88817536135E+01  0.51100000000E-03 0. -1.
        -11    1    4    4    0    0 -0.35318881718E+01  0.49206961937E+01  0.15128546333E+01  0.62430933432E+01  0.51100000000E-03 0.  1.
         12    1    4    4    0    0  0.17426868974E+02 -0.15476465806E+02  0.31571131975E+02  0.39242236560E+02  0.00000000000E+00 0. -1.
</event>
<event>
 8    1  0.1271559E-006  0.9118800E+02  0.7816164E-02  0.1184000E+00
        -11   -1    0    0    0    0  0.00000000000E+00  0.00000000000E+00  0.45593999997E+02  0.45594000000E+02  0.51100000000E-03 0.  1.
         11   -1    0    0    0    0 -0.00000000000E+00 -0.00000000000E+00 -0.45593999997E+02  0.45594000000E+02  0.51100000000E-03 0. -1.
         23    2    1    2    0    0  0.88817841970E-15  0.10658141036E-13  0.35527136788E-14  0.91188000000E+02  0.91188000000E+02 0.  0.
    9900012    2    3    3    0    0 -0.22397126244E+01 -0.31074024567E+02 -0.19625736793E+02  0.54367070352E+02  0.39999968482E+02 0.  0.
        -12    1    3    3    0    0  0.22397126244E+01  0.31074024567E+02  0.19625736793E+02  0.36820929648E+02  0.00000000000E+00 0.  1.
         11    1    4    4    0    0  0.47466641240E+01  0.31019826558E+01  0.38687414466E+01  0.68644211223E+01  0.51100000000E-03 0. -1.
        -11    1    4    4    0    0 -0.50220228437E+01  0.68383868022E+00  0.56636972536E+00  0.50999140885E+01  0.51100000000E-03 0.  1.
         12    1    4    4    0    0 -0.19643539047E+01 -0.34859845903E+02 -0.24060847965E+02  0.42402735141E+02  0.00000000000E+00 0. -1.
</event>
<event>
 8    1  0.1271559E-006  0.9118800E+02  0.7816164E-02  0.1184000E+00
        -11   -1    0    0    0    0  0.00000000000E+00  0.00000000000E+00  0.45593999997E+02  0.45594000000E+02  0.51100000000E-03 0. -1.
         11   -1    0    0    0    0 -0.00000000000E+00 -0.00000000000E+00 -0.45593999997E+02  0.45594000000E+02  0.51100000000E-03 0.  1.
         23    2    1    2    0    0 -0.35527136788E-14  0.35527136788E-14  0.00000000000E+00  0.91188000000E+02  0.91188000000E+02 0.  0.
    9900012    2    3    3    0    0  0.28632164018E+02 -0.22899166927E+02 -0.34069499259E+01  0.54367082438E+02  0.39999996034E+02 0.  0.
        -12    1    3    3    0    0 -0.28632164018E+02  0.22899166927E+02  0.34069499259E+01  0.36820917562E+02  0.00000000000E+00 0.  1.
         11    1    4    4    0    0  0.29713272906E+02 -0.73607522253E+01 -0.19092228434E+01  0.30670904653E+02  0.51100000000E-03 0. -1.
        -11    1    4    4    0    0 -0.29131744362E+01 -0.73692417468E+01 -0.93235257665E+01  0.12236030492E+02  0.51100000000E-03 0.  1.
        -12    1    4    4    0    0  0.18320655488E+01 -0.81691729548E+01  0.78257986840E+01  0.11460147293E+02  0.00000000000E+00 0.  1.
</event>
<event>
 8    1  0.1271559E-006  0.9118800E+02  0.7816164E-02  0.1184000E+00
        -11   -1    0    0    0    0  0.00000000000E+00  0.00000000000E+00  0.45593999997E+02  0.45594000000E+02  0.51100000000E-03 0.  1.
         11   -1    0    0    0    0 -0.00000000000E+00 -0.00000000000E+00 -0.45593999997E+02  0.45594000000E+02  0.51100000000E-03 0. -1.
         23    2    1    2    0    0  0.00000000000E+00  0.00000000000E+00  0.00000000000E+00  0.91188000000E+02  0.91188000000E+02 0.  0.
    9900012    2    3    3    0    0  0.21265324688E+02 -0.10654555252E+02 -0.28107770411E+02  0.54367077426E+02  0.39999984609E+02 0.  0.
        -12    1    3    3    0    0 -0.21265324688E+02  0.10654555252E+02  0.28107770411E+02  0.36820922574E+02  0.00000000000E+00 0.  1.
         11    1    4    4    0    0  0.65661515260E+00  0.56444257690E+01 -0.24709237321E+01  0.61964627064E+01  0.51100000000E-03 0. -1.
        -11    1    4    4    0    0 -0.75522148499E+01 -0.64538581736E+01 -0.20576340841E+01  0.10145052624E+02  0.51100000000E-03 0.  1.
        -12    1    4    4    0    0  0.28160924385E+02 -0.98451228470E+01 -0.23579212595E+02  0.38025562096E+02  0.00000000000E+00 0.  1.
</event>
<event>
 8    1  0.1271559E-006  0.9118800E+02  0.7816164E-02  0.1184000E+00
        -11   -1    0    0    0    0  0.00000000000E+00  0.00000000000E+00  0.45593999997E+02  0.45594000000E+02  0.51100000000E-03 0.  1.
         11   -1    0    0    0    0 -0.00000000000E+00 -0.00000000000E+00 -0.45593999997E+02  0.45594000000E+02  0.51100000000E-03 0. -1.
         23    2    1    2    0    0 -0.22204460493E-15  0.00000000000E+00  0.00000000000E+00  0.91188000000E+02  0.91188000000E+02 0.  0.
    9900012    2    3    3    0    0  0.75438256105E+00 -0.12955644590E+02 -0.34458109211E+02  0.54367094115E+02  0.40000022654E+02 0.  0.
        -12    1    3    3    0    0 -0.75438256105E+00  0.12955644590E+02  0.34458109211E+02  0.36820905885E+02  0.00000000000E+00 0.  1.
         11    1    4    4    0    0  0.24630876994E+00 -0.13155923864E+02  0.87827468637E+00  0.13187508006E+02  0.51100000000E-03 0. -1.
        -11    1    4    4    0    0 -0.13553496288E+01  0.32359426861E+01  0.17513726647E+01  0.39211738237E+01  0.51100000000E-03 0.  1.
         12    1    4    4    0    0  0.18634234199E+01 -0.30356634125E+01 -0.37087756562E+02  0.37258412285E+02  0.00000000000E+00 0. -1.
</event>
<event>
 8    1  0.1271559E-006  0.9118800E+02  0.7816164E-02  0.1184000E+00
        -11   -1    0    0    0    0  0.00000000000E+00  0.00000000000E+00  0.45593999997E+02  0.45594000000E+02  0.51100000000E-03 0.  1.
         11   -1    0    0    0    0 -0.00000000000E+00 -0.00000000000E+00 -0.45593999997E+02  0.45594000000E+02  0.51100000000E-03 0. -1.
         23    2    1    2    0    0  0.00000000000E+00 -0.17763568394E-14  0.66613381478E-15  0.91188000000E+02  0.91188000000E+02 0.  0.
    9900012    2    3    3    0    0 -0.35725201695E+02 -0.87618654861E+01 -0.16491460639E+01  0.54367081955E+02  0.39999994932E+02 0.  0.
         12    1    3    3    0    0  0.35725201695E+02  0.87618654861E+01  0.16491460639E+01  0.36820918045E+02  0.00000000000E+00 0. -1.
         11    1    4    4    0    0  0.62472391168E-01 -0.58202116149E+01  0.55120233819E+01  0.80163063855E+01  0.51100000000E-03 0. -1.
        -11    1    4    4    0    0 -0.37402354106E+02  0.24579829798E+01 -0.11533919179E+02  0.39217458674E+02  0.51100000000E-03 0.  1.
        -12    1    4    4    0    0  0.16146800193E+01 -0.53996368510E+01  0.43727497335E+01  0.71333168947E+01  0.00000000000E+00 0.  1.
</event>
<event>
 8    1  0.1271559E-006  0.9118800E+02  0.7816164E-02  0.1184000E+00
        -11   -1    0    0    0    0  0.00000000000E+00  0.00000000000E+00  0.45593999997E+02  0.45594000000E+02  0.51100000000E-03 0.  1.
         11   -1    0    0    0    0 -0.00000000000E+00 -0.00000000000E+00 -0.45593999997E+02  0.45594000000E+02  0.51100000000E-03 0. -1.
         23    2    1    2    0    0  0.00000000000E+00 -0.33306690739E-15 -0.71054273576E-14  0.91188000000E+02  0.91188000000E+02 0.  0.
    9900012    2    3    3    0    0  0.15741541438E+02 -0.81524092764E+00 -0.33276413126E+02  0.54367076395E+02  0.39999982257E+02 0.  0.
        -12    1    3    3    0    0 -0.15741541438E+02  0.81524092764E+00  0.33276413126E+02  0.36820923605E+02  0.00000000000E+00 0.  1.
         11    1    4    4    0    0 -0.15913789095E+01 -0.31652690622E+01 -0.47924150081E+01  0.59597530940E+01  0.51100000000E-03 0. -1.
        -11    1    4    4    0    0  0.15999512438E+02  0.10358974308E+02 -0.33728572683E+02  0.38741571502E+02  0.51100000000E-03 0.  1.
        -12    1    4    4    0    0  0.13334079088E+01 -0.80089461735E+01  0.52445745649E+01  0.96657517984E+01  0.00000000000E+00 0.  1.
</event>
<event>
 8    1  0.1271559E-006  0.9118800E+02  0.7816164E-02  0.1184000E+00
        -11   -1    0    0    0    0  0.00000000000E+00  0.00000000000E+00  0.45593999997E+02  0.45594000000E+02  0.51100000000E-03 0.  1.
         11   -1    0    0    0    0 -0.00000000000E+00 -0.00000000000E+00 -0.45593999997E+02  0.45594000000E+02  0.51100000000E-03 0. -1.
         23    2    1    2    0    0  0.17763568394E-14  0.00000000000E+00  0.00000000000E+00  0.91188000000E+02  0.91188000000E+02 0.  0.
    9900012    2    3    3    0    0  0.41291509334E+01 -0.14787641011E+02  0.33467220520E+02  0.54367094750E+02  0.40000024102E+02 0.  0.
         12    1    3    3    0    0 -0.41291509334E+01  0.14787641011E+02 -0.33467220520E+02  0.36820905250E+02  0.00000000000E+00 0. -1.
         11    1    4    4    0    0  0.24451233189E+01  0.45077776842E+01 -0.23588226305E+01  0.56447083324E+01  0.51100000000E-03 0. -1.
        -11    1    4    4    0    0  0.96943146627E+01 -0.22416980480E+02  0.26408225707E+02  0.35970753896E+02  0.51100000000E-03 0.  1.
         12    1    4    4    0    0 -0.80102870482E+01  0.31215617845E+01  0.94178174430E+01  0.12751632521E+02  0.00000000000E+00 0. -1.
</event>
<event>
 8    1  0.1271559E-006  0.9118800E+02  0.7816164E-02  0.1184000E+00
        -11   -1    0    0    0    0  0.00000000000E+00  0.00000000000E+00  0.45593999997E+02  0.45594000000E+02  0.51100000000E-03 0. -1.
         11   -1    0    0    0    0 -0.00000000000E+00 -0.00000000000E+00 -0.45593999997E+02  0.45594000000E+02  0.51100000000E-03 0.  1.
         23    2    1    2    0    0  0.00000000000E+00 -0.35527136788E-14 -0.35527136788E-14  0.91188000000E+02  0.91188000000E+02 0.  0.
    9900012    2    3    3    0    0  0.19932129656E+02  0.22573025850E+02  0.21188417260E+02  0.54367077760E+02  0.39999985369E+02 0.  0.
        -12    1    3    3    0    0 -0.19932129656E+02 -0.22573025850E+02 -0.21188417260E+02  0.36820922240E+02  0.00000000000E+00 0.  1.
         11    1    4    4    0    0  0.15220202130E+02  0.85941998876E+01  0.32556738420E+00  0.17482014156E+02  0.51100000000E-03 0.  1.
        -11    1    4    4    0    0  0.90244112148E+01 -0.49624779942E+01  0.36386871840E+01  0.10922739139E+02  0.51100000000E-03 0. -1.
         12    1    4    4    0    0 -0.43124836887E+01  0.18941303957E+02  0.17224162691E+02  0.25962324464E+02  0.00000000000E+00 0. -1.
</event>
<event>
 8    1  0.1271559E-006  0.9118800E+02  0.7816164E-02  0.1184000E+00
        -11   -1    0    0    0    0  0.00000000000E+00  0.00000000000E+00  0.45593999997E+02  0.45594000000E+02  0.51100000000E-03 0.  1.
         11   -1    0    0    0    0 -0.00000000000E+00 -0.00000000000E+00 -0.45593999997E+02  0.45594000000E+02  0.51100000000E-03 0. -1.
         23    2    1    2    0    0 -0.35527136788E-14  0.00000000000E+00  0.00000000000E+00  0.91188000000E+02  0.91188000000E+02 0.  0.
    9900012    2    3    3    0    0 -0.30313818268E+02 -0.13672829808E+02  0.15808519556E+02  0.54367039346E+02  0.39999897796E+02 0.  0.
         12    1    3    3    0    0  0.30313818268E+02  0.13672829808E+02 -0.15808519556E+02  0.36820960654E+02  0.00000000000E+00 0. -1.
         11    1    4    4    0    0 -0.20296812081E+00 -0.46991017770E+01  0.10553309520E+02  0.11554007774E+02  0.51100000000E-03 0. -1.
        -11    1    4    4    0    0 -0.45759734689E+01  0.19311190449E+00  0.13662546971E+02  0.14409788874E+02  0.51100000000E-03 0.  1.
        -12    1    4    4    0    0 -0.25534876679E+02 -0.91668399359E+01 -0.84073369350E+01  0.28403242698E+02  0.00000000000E+00 0.  1.
</event>
<event>
 8    1  0.1271559E-006  0.9118800E+02  0.7816164E-02  0.1184000E+00
        -11   -1    0    0    0    0  0.00000000000E+00  0.00000000000E+00  0.45593999997E+02  0.45594000000E+02  0.51100000000E-03 0.  1.
         11   -1    0    0    0    0 -0.00000000000E+00 -0.00000000000E+00 -0.45593999997E+02  0.45594000000E+02  0.51100000000E-03 0. -1.
         23    2    1    2    0    0  0.00000000000E+00  0.35527136788E-14  0.00000000000E+00  0.91188000000E+02  0.91188000000E+02 0.  0.
    9900012    2    3    3    0    0  0.16852629310E+02 -0.18770337391E+02  0.26822440062E+02  0.54367082422E+02  0.39999995997E+02 0.  0.
         12    1    3    3    0    0 -0.16852629310E+02  0.18770337391E+02 -0.26822440062E+02  0.36820917578E+02  0.00000000000E+00 0. -1.
         11    1    4    4    0    0 -0.16627623446E+01  0.20681386830E+01 -0.27680678486E+01  0.38346024699E+01  0.51100000000E-03 0. -1.
        -11    1    4    4    0    0  0.13131933224E+00 -0.15642104443E+02  0.27067189175E+02  0.31262204117E+02  0.51100000000E-03 0.  1.
         12    1    4    4    0    0  0.18384072323E+02 -0.51963716308E+01  0.25233187353E+01  0.19270275834E+02  0.00000000000E+00 0. -1.
</event>
<event>
 8    1  0.1271559E-006  0.9118800E+02  0.7816164E-02  0.1184000E+00
        -11   -1    0    0    0    0  0.00000000000E+00  0.00000000000E+00  0.45593999997E+02  0.45594000000E+02  0.51100000000E-03 0.  1.
         11   -1    0    0    0    0 -0.00000000000E+00 -0.00000000000E+00 -0.45593999997E+02  0.45594000000E+02  0.51100000000E-03 0. -1.
         23    2    1    2    0    0  0.00000000000E+00  0.00000000000E+00 -0.35527136788E-14  0.91188000000E+02  0.91188000000E+02 0.  0.
    9900012    2    3    3    0    0  0.77065522525E+01 -0.29075215476E+02  0.21237208453E+02  0.54367107487E+02  0.40000053139E+02 0.  0.
         12    1    3    3    0    0 -0.77065522525E+01  0.29075215476E+02 -0.21237208453E+02  0.36820892513E+02  0.00000000000E+00 0. -1.
         11    1    4    4    0    0 -0.47911067788E+01 -0.60890187857E+01  0.77366726822E+01  0.10949290314E+02  0.51100000000E-03 0. -1.
        -11    1    4    4    0    0  0.11444207917E+01 -0.11557843549E+02  0.22240504709E+02  0.25090506102E+02  0.51100000000E-03 0.  1.
         12    1    4    4    0    0  0.11353238240E+02 -0.11428353141E+02 -0.87399689389E+01  0.18327311071E+02  0.00000000000E+00 0. -1.
</event>
<event>
 8    1  0.1271559E-006  0.9118800E+02  0.7816164E-02  0.1184000E+00
        -11   -1    0    0    0    0  0.00000000000E+00  0.00000000000E+00  0.45593999997E+02  0.45594000000E+02  0.51100000000E-03 0. -1.
         11   -1    0    0    0    0 -0.00000000000E+00 -0.00000000000E+00 -0.45593999997E+02  0.45594000000E+02  0.51100000000E-03 0.  1.
         23    2    1    2    0    0  0.00000000000E+00  0.00000000000E+00  0.00000000000E+00  0.91188000000E+02  0.91188000000E+02 0.  0.
    9900012    2    3    3    0    0 -0.21450928934E+02  0.21864266643E+02  0.20435021575E+02  0.54367100843E+02  0.40000037992E+02 0.  0.
        -12    1    3    3    0    0  0.21450928934E+02 -0.21864266643E+02 -0.20435021575E+02  0.36820899157E+02  0.00000000000E+00 0.  1.
         11    1    4    4    0    0 -0.26182651935E+02  0.22784522840E+02  0.24785233692E+01  0.34796678315E+02  0.51100000000E-03 0. -1.
        -11    1    4    4    0    0  0.59794573644E+01 -0.13771193746E+01  0.12121722055E+02  0.13586261957E+02  0.51100000000E-03 0.  1.
         12    1    4    4    0    0 -0.12477343634E+01  0.45686317687E+00  0.58347761510E+01  0.59841605707E+01  0.00000000000E+00 0. -1.
</event>
<event>
 8    1  0.1271559E-006  0.9118800E+02  0.7816164E-02  0.1184000E+00
        -11   -1    0    0    0    0  0.00000000000E+00  0.00000000000E+00  0.45593999997E+02  0.45594000000E+02  0.51100000000E-03 0.  1.
         11   -1    0    0    0    0 -0.00000000000E+00 -0.00000000000E+00 -0.45593999997E+02  0.45594000000E+02  0.51100000000E-03 0. -1.
         23    2    1    2    0    0  0.00000000000E+00  0.00000000000E+00 -0.35527136788E-14  0.91188000000E+02  0.91188000000E+02 0.  0.
    9900012    2    3    3    0    0  0.14420888878E+02  0.22295510182E+02  0.25509374462E+02  0.54367082090E+02  0.39999995240E+02 0.  0.
         12    1    3    3    0    0 -0.14420888878E+02 -0.22295510182E+02 -0.25509374462E+02  0.36820917910E+02  0.00000000000E+00 0. -1.
         11    1    4    4    0    0  0.14283990838E+02  0.13217448618E+01  0.12658226264E+02  0.19131390336E+02  0.51100000000E-03 0. -1.
        -11    1    4    4    0    0  0.12510421746E+02  0.88204174486E+01  0.43074617457E+01  0.15901718246E+02  0.51100000000E-03 0.  1.
        -12    1    4    4    0    0 -0.12373523707E+02  0.12153347872E+02  0.85436864520E+01  0.19333973508E+02  0.00000000000E+00 0.  1.
</event>
<event>
 8    1  0.1271559E-006  0.9118800E+02  0.7816164E-02  0.1184000E+00
        -11   -1    0    0    0    0  0.00000000000E+00  0.00000000000E+00  0.45593999997E+02  0.45594000000E+02  0.51100000000E-03 0. -1.
         11   -1    0    0    0    0 -0.00000000000E+00 -0.00000000000E+00 -0.45593999997E+02  0.45594000000E+02  0.51100000000E-03 0.  1.
         23    2    1    2    0    0  0.00000000000E+00  0.35527136788E-14  0.17763568394E-14  0.91188000000E+02  0.91188000000E+02 0.  0.
    9900012    2    3    3    0    0 -0.20702019012E+02  0.28022867293E+02 -0.11913279542E+02  0.54367069649E+02  0.39999966878E+02 0.  0.
         12    1    3    3    0    0  0.20702019012E+02 -0.28022867293E+02  0.11913279542E+02  0.36820930351E+02  0.00000000000E+00 0. -1.
         11    1    4    4    0    0 -0.11248708123E+02  0.32925929815E+01 -0.80274578202E+01  0.14206149453E+02  0.51100000000E-03 0. -1.
        -11    1    4    4    0    0  0.95097876479E+01  0.42771827061E+01  0.40125554301E+01  0.11172777379E+02  0.51100000000E-03 0.  1.
        -12    1    4    4    0    0 -0.18963098537E+02  0.20453091606E+02 -0.78983771516E+01  0.28988142817E+02  0.00000000000E+00 0.  1.
</event>
<event>
 8    1  0.1271559E-006  0.9118800E+02  0.7816164E-02  0.1184000E+00
        -11   -1    0    0    0    0  0.00000000000E+00  0.00000000000E+00  0.45593999997E+02  0.45594000000E+02  0.51100000000E-03 0. -1.
         11   -1    0    0    0    0 -0.00000000000E+00 -0.00000000000E+00 -0.45593999997E+02  0.45594000000E+02  0.51100000000E-03 0.  1.
         23    2    1    2    0    0 -0.35527136788E-14  0.00000000000E+00  0.35527136788E-14  0.91188000000E+02  0.91188000000E+02 0.  0.
    9900012    2    3    3    0    0 -0.22968672772E+02  0.18007713431E+02  0.22448651444E+02  0.54367087144E+02  0.40000006763E+02 0.  0.
        -12    1    3    3    0    0  0.22968672772E+02 -0.18007713431E+02 -0.22448651444E+02  0.36820912856E+02  0.00000000000E+00 0.  1.
         11    1    4    4    0    0 -0.21621393394E+01 -0.62240978419E+01  0.10566153627E+00  0.65897955272E+01  0.51100000000E-03 0. -1.
        -11    1    4    4    0    0  0.14622336289E+01 -0.13461011232E+01 -0.42427478492E+01  0.46851920977E+01  0.51100000000E-03 0.  1.
         12    1    4    4    0    0 -0.22268767061E+02  0.25577912396E+02  0.26585737756E+02  0.43092099520E+02  0.00000000000E+00 0. -1.
</event>
<event>
 8    1  0.1271559E-006  0.9118800E+02  0.7816164E-02  0.1184000E+00
        -11   -1    0    0    0    0  0.00000000000E+00  0.00000000000E+00  0.45593999997E+02  0.45594000000E+02  0.51100000000E-03 0. -1.
         11   -1    0    0    0    0 -0.00000000000E+00 -0.00000000000E+00 -0.45593999997E+02  0.45594000000E+02  0.51100000000E-03 0.  1.
         23    2    1    2    0    0  0.00000000000E+00  0.00000000000E+00  0.00000000000E+00  0.91188000000E+02  0.91188000000E+02 0.  0.
    9900012    2    3    3    0    0 -0.28425189847E+01  0.96507456154E+01 -0.35419799279E+02  0.54367095801E+02  0.40000026496E+02 0.  0.
         12    1    3    3    0    0  0.28425189847E+01 -0.96507456154E+01  0.35419799279E+02  0.36820904199E+02  0.00000000000E+00 0. -1.
         11    1    4    4    0    0 -0.36845730165E+01 -0.11497215771E+02 -0.23011809383E+01  0.12290544446E+02  0.51100000000E-03 0. -1.
        -11    1    4    4    0    0  0.49946881380E+01  0.80869300902E+01 -0.48727090923E+01  0.10681228489E+02  0.51100000000E-03 0.  1.
        -12    1    4    4    0    0 -0.41526341063E+01  0.13061031297E+02 -0.28245909248E+02  0.31395322865E+02  0.00000000000E+00 0.  1.
</event>
<event>
 8    1  0.1271559E-006  0.9118800E+02  0.7816164E-02  0.1184000E+00
        -11   -1    0    0    0    0  0.00000000000E+00  0.00000000000E+00  0.45593999997E+02  0.45594000000E+02  0.51100000000E-03 0. -1.
         11   -1    0    0    0    0 -0.00000000000E+00 -0.00000000000E+00 -0.45593999997E+02  0.45594000000E+02  0.51100000000E-03 0.  1.
         23    2    1    2    0    0  0.00000000000E+00  0.35527136788E-14  0.17763568394E-14  0.91188000000E+02  0.91188000000E+02 0.  0.
    9900012    2    3    3    0    0  0.19409652126E+02  0.30238491163E+02 -0.80423152516E+01  0.54367085046E+02  0.40000001979E+02 0.  0.
        -12    1    3    3    0    0 -0.19409652126E+02 -0.30238491163E+02  0.80423152516E+01  0.36820914954E+02  0.00000000000E+00 0.  1.
         11    1    4    4    0    0 -0.53992208843E+01  0.93052254937E+01 -0.94325308536E+01  0.14307740779E+02  0.51100000000E-03 0.  1.
        -11    1    4    4    0    0  0.21571236174E+02  0.20976058734E+02 -0.71496793279E+01  0.30926221638E+02  0.51100000000E-03 0. -1.
         12    1    4    4    0    0  0.32376368368E+01 -0.42793064473E-01  0.85398949298E+01  0.91331226284E+01  0.00000000000E+00 0. -1.
</event>
<event>
 8    1  0.1271559E-006  0.9118800E+02  0.7816164E-02  0.1184000E+00
        -11   -1    0    0    0    0  0.00000000000E+00  0.00000000000E+00  0.45593999997E+02  0.45594000000E+02  0.51100000000E-03 0.  1.
         11   -1    0    0    0    0 -0.00000000000E+00 -0.00000000000E+00 -0.45593999997E+02  0.45594000000E+02  0.51100000000E-03 0. -1.
         23    2    1    2    0    0  0.35527136788E-14  0.22204460493E-14  0.00000000000E+00  0.91188000000E+02  0.91188000000E+02 0.  0.
    9900012    2    3    3    0    0  0.19142171445E+02  0.13610097271E+01  0.31424602335E+02  0.54367072431E+02  0.39999973222E+02 0.  0.
         12    1    3    3    0    0 -0.19142171445E+02 -0.13610097271E+01 -0.31424602335E+02  0.36820927569E+02  0.00000000000E+00 0. -1.
         11    1    4    4    0    0  0.27319185808E+01 -0.30916762438E+01  0.24026110281E+02  0.24377773004E+02  0.51100000000E-03 0. -1.
        -11    1    4    4    0    0  0.97779294366E+01 -0.54894718421E+01  0.12676486540E+02  0.16924405940E+02  0.51100000000E-03 0.  1.
         12    1    4    4    0    0  0.66323234276E+01  0.99421578131E+01 -0.52779944863E+01  0.13064893487E+02  0.00000000000E+00 0. -1.
</event>
<event>
 8    1  0.1271559E-006  0.9118800E+02  0.7816164E-02  0.1184000E+00
        -11   -1    0    0    0    0  0.00000000000E+00  0.00000000000E+00  0.45593999997E+02  0.45594000000E+02  0.51100000000E-03 0.  1.
         11   -1    0    0    0    0 -0.00000000000E+00 -0.00000000000E+00 -0.45593999997E+02  0.45594000000E+02  0.51100000000E-03 0. -1.
         23    2    1    2    0    0  0.44408920985E-15 -0.74940054162E-15  0.00000000000E+00  0.91188000000E+02  0.91188000000E+02 0.  0.
    9900012    2    3    3    0    0  0.32729583308E+01 -0.20685088103E+00  0.36674586386E+02  0.54367077549E+02  0.39999984890E+02 0.  0.
         12    1    3    3    0    0 -0.32729583308E+01  0.20685088103E+00 -0.36674586386E+02  0.36820922451E+02  0.00000000000E+00 0. -1.
         11    1    4    4    0    0  0.12049631759E+02 -0.16103311492E+02  0.12878965587E+02  0.23882588247E+02  0.51100000000E-03 0. -1.
        -11    1    4    4    0    0 -0.52821563345E+01  0.10259184046E+02  0.19250622581E+02  0.22444119560E+02  0.51100000000E-03 0.  1.
         12    1    4    4    0    0 -0.34945170936E+01  0.56372765643E+01  0.45449982180E+01  0.80403697416E+01  0.00000000000E+00 0. -1.
</event>
<event>
 8    1  0.1271559E-006  0.9118800E+02  0.7816164E-02  0.1184000E+00
        -11   -1    0    0    0    0  0.00000000000E+00  0.00000000000E+00  0.45593999997E+02  0.45594000000E+02  0.51100000000E-03 0.  1.
         11   -1    0    0    0    0 -0.00000000000E+00 -0.00000000000E+00 -0.45593999997E+02  0.45594000000E+02  0.51100000000E-03 0. -1.
         23    2    1    2    0    0  0.71054273576E-14  0.00000000000E+00  0.00000000000E+00  0.91188000000E+02  0.91188000000E+02 0.  0.
    9900012    2    3    3    0    0 -0.23997877997E+02 -0.25540123616E+02 -0.11295271802E+02  0.54367092518E+02  0.40000019014E+02 0.  0.
        -12    1    3    3    0    0  0.23997877997E+02  0.25540123616E+02  0.11295271802E+02  0.36820907482E+02  0.00000000000E+00 0.  1.
         11    1    4    4    0    0 -0.29329034619E+02 -0.16295460004E+02 -0.10158411620E+02  0.35056063888E+02  0.51100000000E-03 0. -1.
        -11    1    4    4    0    0  0.18156233607E+01 -0.48148608848E+01 -0.85548231930E+01  0.99832045783E+01  0.51100000000E-03 0.  1.
        -12    1    4    4    0    0  0.35155332613E+01 -0.44298027273E+01  0.74179630104E+01  0.93278240516E+01  0.00000000000E+00 0.  1.
</event>
<event>
 8    1  0.1271559E-006  0.9118800E+02  0.7816164E-02  0.1184000E+00
        -11   -1    0    0    0    0  0.00000000000E+00  0.00000000000E+00  0.45593999997E+02  0.45594000000E+02  0.51100000000E-03 0.  1.
         11   -1    0    0    0    0 -0.00000000000E+00 -0.00000000000E+00 -0.45593999997E+02  0.45594000000E+02  0.51100000000E-03 0. -1.
         23    2    1    2    0    0  0.00000000000E+00  0.35527136788E-14  0.00000000000E+00  0.91188000000E+02  0.91188000000E+02 0.  0.
    9900012    2    3    3    0    0  0.16133473796E+02  0.31726203132E+02 -0.94308101598E+01  0.54367066794E+02  0.39999960370E+02 0.  0.
        -12    1    3    3    0    0 -0.16133473796E+02 -0.31726203132E+02  0.94308101598E+01  0.36820933206E+02  0.00000000000E+00 0.  1.
         11    1    4    4    0    0  0.22644977470E+01  0.14210797831E+02 -0.31575363815E+01  0.14732439082E+02  0.51100000000E-03 0. -1.
        -11    1    4    4    0    0 -0.91417422750E+01  0.11113581437E+02 -0.64006217615E+01  0.15749638198E+02  0.51100000000E-03 0.  1.
         12    1    4    4    0    0  0.23010718324E+02  0.64018238635E+01  0.12734798318E+00  0.23884989514E+02  0.00000000000E+00 0. -1.
</event>
<event>
 8    1  0.1271559E-006  0.9118800E+02  0.7816164E-02  0.1184000E+00
        -11   -1    0    0    0    0  0.00000000000E+00  0.00000000000E+00  0.45593999997E+02  0.45594000000E+02  0.51100000000E-03 0.  1.
         11   -1    0    0    0    0 -0.00000000000E+00 -0.00000000000E+00 -0.45593999997E+02  0.45594000000E+02  0.51100000000E-03 0. -1.
         23    2    1    2    0    0  0.00000000000E+00  0.00000000000E+00  0.00000000000E+00  0.91188000000E+02  0.91188000000E+02 0.  0.
    9900012    2    3    3    0    0  0.93149580554E+01 -0.32676690200E+02 -0.14186121470E+02  0.54367074314E+02  0.39999977514E+02 0.  0.
        -12    1    3    3    0    0 -0.93149580554E+01  0.32676690200E+02  0.14186121470E+02  0.36820925686E+02  0.00000000000E+00 0.  1.
         11    1    4    4    0    0 -0.54009225336E+00 -0.36088912132E+01 -0.12758991482E+02  0.13270556105E+02  0.51100000000E-03 0. -1.
        -11    1    4    4    0    0 -0.52595185647E+01 -0.19851073118E+01  0.69800451624E+01  0.89623778821E+01  0.51100000000E-03 0.  1.
         12    1    4    4    0    0  0.15114568873E+02 -0.27082691675E+02 -0.84071751509E+01  0.32134140327E+02  0.00000000000E+00 0. -1.
</event>
<event>
 8    1  0.1271559E-006  0.9118800E+02  0.7816164E-02  0.1184000E+00
        -11   -1    0    0    0    0  0.00000000000E+00  0.00000000000E+00  0.45593999997E+02  0.45594000000E+02  0.51100000000E-03 0.  1.
         11   -1    0    0    0    0 -0.00000000000E+00 -0.00000000000E+00 -0.45593999997E+02  0.45594000000E+02  0.51100000000E-03 0. -1.
         23    2    1    2    0    0  0.00000000000E+00 -0.88817841970E-15 -0.71054273576E-14  0.91188000000E+02  0.91188000000E+02 0.  0.
    9900012    2    3    3    0    0  0.16252427779E+02 -0.13139779873E+01 -0.33013804015E+02  0.54367092863E+02  0.40000019800E+02 0.  0.
        -12    1    3    3    0    0 -0.16252427779E+02  0.13139779873E+01  0.33013804015E+02  0.36820907137E+02  0.00000000000E+00 0.  1.
         11    1    4    4    0    0  0.63710340855E+01 -0.13717149427E+02 -0.94479985346E+01  0.17832973400E+02  0.51100000000E-03 0.  1.
        -11    1    4    4    0    0 -0.19225579399E+01  0.10667811826E+02 -0.21968010285E+02  0.24496773550E+02  0.51100000000E-03 0. -1.
         12    1    4    4    0    0  0.11803951634E+02  0.17353596131E+01 -0.15977951946E+01  0.12037345913E+02  0.00000000000E+00 0. -1.
</event>
<event>
 8    1  0.1271559E-006  0.9118800E+02  0.7816164E-02  0.1184000E+00
        -11   -1    0    0    0    0  0.00000000000E+00  0.00000000000E+00  0.45593999997E+02  0.45594000000E+02  0.51100000000E-03 0.  1.
         11   -1    0    0    0    0 -0.00000000000E+00 -0.00000000000E+00 -0.45593999997E+02  0.45594000000E+02  0.51100000000E-03 0. -1.
         23    2    1    2    0    0 -0.17763568394E-14  0.00000000000E+00  0.35527136788E-14  0.91188000000E+02  0.91188000000E+02 0.  0.
    9900012    2    3    3    0    0  0.15644481972E+02  0.20845545224E+02 -0.26009445383E+02  0.54367111622E+02  0.40000062564E+02 0.  0.
        -12    1    3    3    0    0 -0.15644481972E+02 -0.20845545224E+02  0.26009445383E+02  0.36820888378E+02  0.00000000000E+00 0.  1.
         11    1    4    4    0    0 -0.53946381398E+00  0.16368700865E+02 -0.12272520850E+02  0.20465584709E+02  0.51100000000E-03 0. -1.
        -11    1    4    4    0    0  0.78300639866E+01 -0.10914198561E+02 -0.69128729528E+01  0.15106867478E+02  0.51100000000E-03 0.  1.
        -12    1    4    4    0    0  0.83538817992E+01  0.15391042920E+02 -0.68240515799E+01  0.18794659434E+02  0.00000000000E+00 0.  1.
</event>
<event>
 8    1  0.1271559E-006  0.9118800E+02  0.7816164E-02  0.1184000E+00
        -11   -1    0    0    0    0  0.00000000000E+00  0.00000000000E+00  0.45593999997E+02  0.45594000000E+02  0.51100000000E-03 0. -1.
         11   -1    0    0    0    0 -0.00000000000E+00 -0.00000000000E+00 -0.45593999997E+02  0.45594000000E+02  0.51100000000E-03 0.  1.
         23    2    1    2    0    0  0.00000000000E+00 -0.17763568394E-14  0.00000000000E+00  0.91188000000E+02  0.91188000000E+02 0.  0.
    9900012    2    3    3    0    0 -0.19023443596E+02  0.14783424506E+02  0.27844938265E+02  0.54367059853E+02  0.39999944546E+02 0.  0.
        -12    1    3    3    0    0  0.19023443596E+02 -0.14783424506E+02 -0.27844938265E+02  0.36820940147E+02  0.00000000000E+00 0.  1.
         11    1    4    4    0    0  0.68113936862E+01 -0.15826016651E+01 -0.16335728461E+01  0.71811052411E+01  0.51100000000E-03 0.  1.
        -11    1    4    4    0    0 -0.16955000663E+01 -0.25804512118E+01  0.10865202621E+02  0.11295400710E+02  0.51100000000E-03 0. -1.
        -12    1    4    4    0    0 -0.24139337216E+02  0.18946477382E+02  0.18613308490E+02  0.35890553902E+02  0.00000000000E+00 0.  1.
</event>
<event>
 8    1  0.1271559E-006  0.9118800E+02  0.7816164E-02  0.1184000E+00
        -11   -1    0    0    0    0  0.00000000000E+00  0.00000000000E+00  0.45593999997E+02  0.45594000000E+02  0.51100000000E-03 0.  1.
         11   -1    0    0    0    0 -0.00000000000E+00 -0.00000000000E+00 -0.45593999997E+02  0.45594000000E+02  0.51100000000E-03 0. -1.
         23    2    1    2    0    0  0.17763568394E-14  0.00000000000E+00  0.35527136788E-14  0.91188000000E+02  0.91188000000E+02 0.  0.
    9900012    2    3    3    0    0 -0.13526749077E+02 -0.24968512578E+02 -0.23438850601E+02  0.54367091830E+02  0.40000017445E+02 0.  0.
        -12    1    3    3    0    0  0.13526749077E+02  0.24968512578E+02  0.23438850601E+02  0.36820908170E+02  0.00000000000E+00 0.  1.
         11    1    4    4    0    0 -0.85765947890E+01 -0.51411185476E+01 -0.30168838661E+02  0.31782824048E+02  0.51100000000E-03 0. -1.
        -11    1    4    4    0    0 -0.31797081688E+01 -0.27668191071E+01  0.16360248771E+00  0.42181273150E+01  0.51100000000E-03 0.  1.
         12    1    4    4    0    0 -0.17704461192E+01 -0.17060574923E+02  0.65663855718E+01  0.18366140467E+02  0.00000000000E+00 0. -1.
</event>
<event>
 8    1  0.1271559E-006  0.9118800E+02  0.7816164E-02  0.1184000E+00
        -11   -1    0    0    0    0  0.00000000000E+00  0.00000000000E+00  0.45593999997E+02  0.45594000000E+02  0.51100000000E-03 0. -1.
         11   -1    0    0    0    0 -0.00000000000E+00 -0.00000000000E+00 -0.45593999997E+02  0.45594000000E+02  0.51100000000E-03 0.  1.
         23    2    1    2    0    0  0.00000000000E+00  0.66613381478E-15  0.00000000000E+00  0.91188000000E+02  0.91188000000E+02 0.  0.
    9900012    2    3    3    0    0  0.22782426934E+02 -0.13499383164E+01  0.28894956465E+02  0.54367084482E+02  0.40000000694E+02 0.  0.
        -12    1    3    3    0    0 -0.22782426934E+02  0.13499383164E+01 -0.28894956465E+02  0.36820915518E+02  0.00000000000E+00 0.  1.
         11    1    4    4    0    0  0.34817482233E+01 -0.82291498692E+01  0.73318096523E+01  0.11558413010E+02  0.51100000000E-03 0. -1.
        -11    1    4    4    0    0 -0.17968248324E+01 -0.83290855546E+01  0.12775982125E+02  0.15356691218E+02  0.51100000000E-03 0.  1.
        -12    1    4    4    0    0  0.21097503543E+02  0.15208297107E+02  0.87871646883E+01  0.27451980255E+02  0.00000000000E+00 0.  1.
</event>
<event>
 8    1  0.1271559E-006  0.9118800E+02  0.7816164E-02  0.1184000E+00
        -11   -1    0    0    0    0  0.00000000000E+00  0.00000000000E+00  0.45593999997E+02  0.45594000000E+02  0.51100000000E-03 0. -1.
         11   -1    0    0    0    0 -0.00000000000E+00 -0.00000000000E+00 -0.45593999997E+02  0.45594000000E+02  0.51100000000E-03 0.  1.
         23    2    1    2    0    0  0.71054273576E-14 -0.88817841970E-15  0.35527136788E-14  0.91188000000E+02  0.91188000000E+02 0.  0.
    9900012    2    3    3    0    0 -0.29172653596E+02  0.66266843874E+01 -0.21466807870E+02  0.54367075189E+02  0.39999979509E+02 0.  0.
         12    1    3    3    0    0  0.29172653596E+02 -0.66266843874E+01  0.21466807870E+02  0.36820924811E+02  0.00000000000E+00 0. -1.
         11    1    4    4    0    0 -0.25485650709E+02 -0.30547510479E+01 -0.59411504243E+01  0.26346672744E+02  0.51100000000E-03 0. -1.
        -11    1    4    4    0    0 -0.11264088017E+02  0.70190551438E+00 -0.54059119352E+01  0.12513841709E+02  0.51100000000E-03 0.  1.
        -12    1    4    4    0    0  0.75770851304E+01  0.89795299209E+01 -0.10119745511E+02  0.15506560736E+02  0.00000000000E+00 0.  1.
</event>
<event>
 8    1  0.1271559E-006  0.9118800E+02  0.7816164E-02  0.1184000E+00
        -11   -1    0    0    0    0  0.00000000000E+00  0.00000000000E+00  0.45593999997E+02  0.45594000000E+02  0.51100000000E-03 0.  1.
         11   -1    0    0    0    0 -0.00000000000E+00 -0.00000000000E+00 -0.45593999997E+02  0.45594000000E+02  0.51100000000E-03 0. -1.
         23    2    1    2    0    0  0.16653345369E-15 -0.71054273576E-14  0.35527136788E-14  0.91188000000E+02  0.91188000000E+02 0.  0.
    9900012    2    3    3    0    0  0.38083249217E+00 -0.34376833653E+02  0.13185828078E+02  0.54367112076E+02  0.40000063600E+02 0.  0.
        -12    1    3    3    0    0 -0.38083249217E+00  0.34376833653E+02 -0.13185828078E+02  0.36820887924E+02  0.00000000000E+00 0.  1.
         11    1    4    4    0    0 -0.24325793164E+01  0.71772439086E+00  0.90438812772E+01  0.93927822954E+01  0.51100000000E-03 0.  1.
        -11    1    4    4    0    0  0.17373361132E+01 -0.11126724550E+01 -0.84653984359E+01  0.87131709327E+01  0.51100000000E-03 0. -1.
        -12    1    4    4    0    0  0.10760756953E+01 -0.33981885589E+02  0.12607345237E+02  0.36261158848E+02  0.00000000000E+00 0.  1.
</event>
<event>
 8    1  0.1271559E-006  0.9118800E+02  0.7816164E-02  0.1184000E+00
        -11   -1    0    0    0    0  0.00000000000E+00  0.00000000000E+00  0.45593999997E+02  0.45594000000E+02  0.51100000000E-03 0.  1.
         11   -1    0    0    0    0 -0.00000000000E+00 -0.00000000000E+00 -0.45593999997E+02  0.45594000000E+02  0.51100000000E-03 0. -1.
         23    2    1    2    0    0  0.00000000000E+00  0.00000000000E+00  0.44408920985E-15  0.91188000000E+02  0.91188000000E+02 0.  0.
    9900012    2    3    3    0    0 -0.33088587986E+02 -0.15709544795E+02 -0.37597548189E+01  0.54367079196E+02  0.39999988643E+02 0.  0.
         12    1    3    3    0    0  0.33088587986E+02  0.15709544795E+02  0.37597548189E+01  0.36820920804E+02  0.00000000000E+00 0. -1.
         11    1    4    4    0    0 -0.52980979894E+01  0.99179423752E+01 -0.43827884105E+01  0.12068316278E+02  0.51100000000E-03 0. -1.
        -11    1    4    4    0    0 -0.27780933569E+02 -0.22333502609E+02  0.58486059033E+01  0.36121625102E+02  0.51100000000E-03 0.  1.
        -12    1    4    4    0    0 -0.95564269263E-02 -0.32939845611E+01 -0.52255723117E+01  0.61771378161E+01  0.00000000000E+00 0.  1.
</event>
<event>
 8    1  0.1271559E-006  0.9118800E+02  0.7816164E-02  0.1184000E+00
        -11   -1    0    0    0    0  0.00000000000E+00  0.00000000000E+00  0.45593999997E+02  0.45594000000E+02  0.51100000000E-03 0.  1.
         11   -1    0    0    0    0 -0.00000000000E+00 -0.00000000000E+00 -0.45593999997E+02  0.45594000000E+02  0.51100000000E-03 0. -1.
         23    2    1    2    0    0  0.00000000000E+00  0.88817841970E-15  0.17763568394E-14  0.91188000000E+02  0.91188000000E+02 0.  0.
    9900012    2    3    3    0    0  0.34457220033E+02  0.59930779504E+01  0.11513630079E+02  0.54367072889E+02  0.39999974264E+02 0.  0.
         12    1    3    3    0    0 -0.34457220033E+02 -0.59930779504E+01 -0.11513630079E+02  0.36820927111E+02  0.00000000000E+00 0. -1.
         11    1    4    4    0    0  0.14564688712E+02 -0.13264734476E+01  0.18530562461E+02  0.23606597266E+02  0.51100000000E-03 0. -1.
        -11    1    4    4    0    0  0.59099336770E+00 -0.58657780295E+01 -0.41509153324E+01  0.72101819263E+01  0.51100000000E-03 0.  1.
         12    1    4    4    0    0  0.19301537953E+02  0.13185329427E+02 -0.28660170494E+01  0.23550293697E+02  0.00000000000E+00 0. -1.
</event>
<event>
 8    1  0.1271559E-006  0.9118800E+02  0.7816164E-02  0.1184000E+00
        -11   -1    0    0    0    0  0.00000000000E+00  0.00000000000E+00  0.45593999997E+02  0.45594000000E+02  0.51100000000E-03 0. -1.
         11   -1    0    0    0    0 -0.00000000000E+00 -0.00000000000E+00 -0.45593999997E+02  0.45594000000E+02  0.51100000000E-03 0.  1.
         23    2    1    2    0    0  0.00000000000E+00  0.00000000000E+00  0.00000000000E+00  0.91188000000E+02  0.91188000000E+02 0.  0.
    9900012    2    3    3    0    0 -0.19477667554E+02  0.27889087692E+02 -0.14092467013E+02  0.54367104137E+02  0.40000045501E+02 0.  0.
         12    1    3    3    0    0  0.19477667554E+02 -0.27889087692E+02  0.14092467013E+02  0.36820895863E+02  0.00000000000E+00 0. -1.
         11    1    4    4    0    0 -0.41281686881E+00  0.47637621894E+01  0.11698698549E+02  0.12638172177E+02  0.51100000000E-03 0. -1.
        -11    1    4    4    0    0 -0.11239771453E+02  0.19159169249E+02 -0.11636684852E+02  0.25076256962E+02  0.51100000000E-03 0.  1.
        -12    1    4    4    0    0 -0.78250792322E+01  0.39661562543E+01 -0.14154480710E+02  0.16652674998E+02  0.00000000000E+00 0.  1.
</event>
<event>
 8    1  0.1271559E-006  0.9118800E+02  0.7816164E-02  0.1184000E+00
        -11   -1    0    0    0    0  0.00000000000E+00  0.00000000000E+00  0.45593999997E+02  0.45594000000E+02  0.51100000000E-03 0. -1.
         11   -1    0    0    0    0 -0.00000000000E+00 -0.00000000000E+00 -0.45593999997E+02  0.45594000000E+02  0.51100000000E-03 0.  1.
         23    2    1    2    0    0  0.44408920985E-15 -0.71054273576E-14 -0.88817841970E-15  0.91188000000E+02  0.91188000000E+02 0.  0.
    9900012    2    3    3    0    0  0.16301064681E+01 -0.35946900285E+02 -0.78066962233E+01  0.54367063114E+02  0.39999951982E+02 0.  0.
         12    1    3    3    0    0 -0.16301064681E+01  0.35946900285E+02  0.78066962233E+01  0.36820936886E+02  0.00000000000E+00 0. -1.
         11    1    4    4    0    0  0.60082144667E+01  0.92785934715E+00 -0.80903722814E+01  0.10119964820E+02  0.51100000000E-03 0. -1.
        -11    1    4    4    0    0  0.78853443726E+01 -0.27316196642E+02 -0.21346443775E+01  0.28511575925E+02  0.51100000000E-03 0.  1.
         12    1    4    4    0    0 -0.12263452371E+02 -0.95585629901E+01  0.24183204356E+01  0.15735522369E+02  0.00000000000E+00 0. -1.
</event>
<event>
 8    1  0.1271559E-006  0.9118800E+02  0.7816164E-02  0.1184000E+00
        -11   -1    0    0    0    0  0.00000000000E+00  0.00000000000E+00  0.45593999997E+02  0.45594000000E+02  0.51100000000E-03 0. -1.
         11   -1    0    0    0    0 -0.00000000000E+00 -0.00000000000E+00 -0.45593999997E+02  0.45594000000E+02  0.51100000000E-03 0.  1.
         23    2    1    2    0    0  0.00000000000E+00  0.17763568394E-14 -0.17763568394E-14  0.91188000000E+02  0.91188000000E+02 0.  0.
    9900012    2    3    3    0    0 -0.32748618854E+02  0.12464201489E+02 -0.11311318216E+02  0.54367159768E+02  0.40000172322E+02 0.  0.
         12    1    3    3    0    0  0.32748618854E+02 -0.12464201489E+02  0.11311318216E+02  0.36820840232E+02  0.00000000000E+00 0. -1.
         11    1    4    4    0    0 -0.27188725068E+01 -0.11939601358E+02 -0.44255046555E+00  0.12253252608E+02  0.51100000000E-03 0.  1.
        -11    1    4    4    0    0 -0.15036904175E+02  0.20055959164E+02 -0.71461670486E+01  0.26065641924E+02  0.51100000000E-03 0. -1.
        -12    1    4    4    0    0 -0.14992842172E+02  0.43478436824E+01 -0.37226007023E+01  0.16048265236E+02  0.00000000000E+00 0.  1.
</event>
<event>
 8    1  0.1271559E-006  0.9118800E+02  0.7816164E-02  0.1184000E+00
        -11   -1    0    0    0    0  0.00000000000E+00  0.00000000000E+00  0.45593999997E+02  0.45594000000E+02  0.51100000000E-03 0. -1.
         11   -1    0    0    0    0 -0.00000000000E+00 -0.00000000000E+00 -0.45593999997E+02  0.45594000000E+02  0.51100000000E-03 0.  1.
         23    2    1    2    0    0 -0.17763568394E-14  0.00000000000E+00  0.00000000000E+00  0.91188000000E+02  0.91188000000E+02 0.  0.
    9900012    2    3    3    0    0  0.41058650770E+01  0.11280187339E+02  0.34809188273E+02  0.54367077379E+02  0.39999984500E+02 0.  0.
        -12    1    3    3    0    0 -0.41058650770E+01 -0.11280187339E+02 -0.34809188273E+02  0.36820922621E+02  0.00000000000E+00 0.  1.
         11    1    4    4    0    0 -0.11434068928E+02  0.15248338755E+02  0.19889391227E+02  0.27547008016E+02  0.51100000000E-03 0. -1.
        -11    1    4    4    0    0  0.69198268001E+00  0.37863673765E+01 -0.70500522058E+00  0.39131126436E+01  0.51100000000E-03 0.  1.
         12    1    4    4    0    0  0.14847951325E+02 -0.77545187918E+01  0.15624802267E+02  0.22906956719E+02  0.00000000000E+00 0. -1.
</event>
<event>
 8    1  0.1271559E-006  0.9118800E+02  0.7816164E-02  0.1184000E+00
        -11   -1    0    0    0    0  0.00000000000E+00  0.00000000000E+00  0.45593999997E+02  0.45594000000E+02  0.51100000000E-03 0.  1.
         11   -1    0    0    0    0 -0.00000000000E+00 -0.00000000000E+00 -0.45593999997E+02  0.45594000000E+02  0.51100000000E-03 0. -1.
         23    2    1    2    0    0  0.00000000000E+00  0.35527136788E-14  0.00000000000E+00  0.91188000000E+02  0.91188000000E+02 0.  0.
    9900012    2    3    3    0    0 -0.18934632978E+02 -0.24394484997E+02  0.20054144703E+02  0.54367082792E+02  0.39999996841E+02 0.  0.
         12    1    3    3    0    0  0.18934632978E+02  0.24394484997E+02 -0.20054144703E+02  0.36820917208E+02  0.00000000000E+00 0. -1.
         11    1    4    4    0    0  0.91386837551E+00 -0.53291616805E+01  0.33775008332E+01  0.63751573913E+01  0.51100000000E-03 0.  1.
        -11    1    4    4    0    0  0.98315836935E+01 -0.98483951375E+01  0.47635305649E+01  0.14708573976E+02  0.51100000000E-03 0. -1.
         12    1    4    4    0    0 -0.29680085047E+02 -0.92169281788E+01  0.11913113305E+02  0.33283351425E+02  0.00000000000E+00 0. -1.
</event>
<event>
 8    1  0.1271559E-006  0.9118800E+02  0.7816164E-02  0.1184000E+00
        -11   -1    0    0    0    0  0.00000000000E+00  0.00000000000E+00  0.45593999997E+02  0.45594000000E+02  0.51100000000E-03 0.  1.
         11   -1    0    0    0    0 -0.00000000000E+00 -0.00000000000E+00 -0.45593999997E+02  0.45594000000E+02  0.51100000000E-03 0. -1.
         23    2    1    2    0    0  0.00000000000E+00  0.00000000000E+00  0.35527136788E-14  0.91188000000E+02  0.91188000000E+02 0.  0.
    9900012    2    3    3    0    0 -0.17324932663E+02 -0.20837684606E+02  0.24928250327E+02  0.54367081273E+02  0.39999993378E+02 0.  0.
         12    1    3    3    0    0  0.17324932663E+02  0.20837684606E+02 -0.24928250327E+02  0.36820918727E+02  0.00000000000E+00 0. -1.
         11    1    4    4    0    0 -0.12059932016E+00 -0.50662068781E+00 -0.50819819579E+01  0.51085956582E+01  0.51100000000E-03 0. -1.
        -11    1    4    4    0    0  0.32654617039E+01  0.21641926926E+01 -0.25721900985E+01  0.46864840034E+01  0.51100000000E-03 0.  1.
        -12    1    4    4    0    0 -0.20469795047E+02 -0.22495256611E+02  0.32582422384E+02  0.44572001611E+02  0.00000000000E+00 0.  1.
</event>
<event>
 8    1  0.1271559E-006  0.9118800E+02  0.7816164E-02  0.1184000E+00
        -11   -1    0    0    0    0  0.00000000000E+00  0.00000000000E+00  0.45593999997E+02  0.45594000000E+02  0.51100000000E-03 0.  1.
         11   -1    0    0    0    0 -0.00000000000E+00 -0.00000000000E+00 -0.45593999997E+02  0.45594000000E+02  0.51100000000E-03 0. -1.
         23    2    1    2    0    0  0.22204460493E-15  0.35527136788E-14  0.00000000000E+00  0.91188000000E+02  0.91188000000E+02 0.  0.
    9900012    2    3    3    0    0 -0.19680503377E+01 -0.24719076188E+02  0.27218998118E+02  0.54367084636E+02  0.40000001044E+02 0.  0.
         12    1    3    3    0    0  0.19680503377E+01  0.24719076188E+02 -0.27218998118E+02  0.36820915364E+02  0.00000000000E+00 0. -1.
         11    1    4    4    0    0  0.32506482540E+01 -0.17547452880E+02  0.28040867863E+02  0.33238081885E+02  0.51100000000E-03 0. -1.
        -11    1    4    4    0    0 -0.51213155233E+01 -0.77304599364E+01  0.80254031835E+01  0.12263563105E+02  0.51100000000E-03 0.  1.
         12    1    4    4    0    0 -0.97383068327E-01  0.55883662871E+00 -0.88472729279E+01  0.88654396451E+01  0.00000000000E+00 0. -1.
</event>
<event>
 8    1  0.1271559E-006  0.9118800E+02  0.7816164E-02  0.1184000E+00
        -11   -1    0    0    0    0  0.00000000000E+00  0.00000000000E+00  0.45593999997E+02  0.45594000000E+02  0.51100000000E-03 0. -1.
         11   -1    0    0    0    0 -0.00000000000E+00 -0.00000000000E+00 -0.45593999997E+02  0.45594000000E+02  0.51100000000E-03 0.  1.
         23    2    1    2    0    0 -0.88817841970E-15  0.00000000000E+00  0.35527136788E-14  0.91188000000E+02  0.91188000000E+02 0.  0.
    9900012    2    3    3    0    0 -0.72241012213E+01 -0.17220714519E+02  0.31733867815E+02  0.54367095428E+02  0.40000025648E+02 0.  0.
        -12    1    3    3    0    0  0.72241012213E+01  0.17220714519E+02 -0.31733867815E+02  0.36820904572E+02  0.00000000000E+00 0.  1.
         11    1    4    4    0    0  0.14602703907E+01 -0.54561473576E+01  0.11838493639E+02  0.13116854254E+02  0.51100000000E-03 0. -1.
        -11    1    4    4    0    0 -0.22738019610E+00 -0.21308035602E+02  0.54763574251E+01  0.22001694795E+02  0.51100000000E-03 0.  1.
        -12    1    4    4    0    0 -0.84569914159E+01  0.95434684404E+01  0.14419016750E+02  0.19248546380E+02  0.00000000000E+00 0.  1.
</event>
<event>
 8    1  0.1271559E-006  0.9118800E+02  0.7816164E-02  0.1184000E+00
        -11   -1    0    0    0    0  0.00000000000E+00  0.00000000000E+00  0.45593999997E+02  0.45594000000E+02  0.51100000000E-03 0.  1.
         11   -1    0    0    0    0 -0.00000000000E+00 -0.00000000000E+00 -0.45593999997E+02  0.45594000000E+02  0.51100000000E-03 0. -1.
         23    2    1    2    0    0  0.35527136788E-14 -0.35527136788E-14 -0.17763568394E-14  0.91188000000E+02  0.91188000000E+02 0.  0.
    9900012    2    3    3    0    0  0.22221157033E+02  0.28525831050E+02 -0.69482436403E+01  0.54367069177E+02  0.39999965802E+02 0.  0.
        -12    1    3    3    0    0 -0.22221157033E+02 -0.28525831050E+02  0.69482436403E+01  0.36820930823E+02  0.00000000000E+00 0.  1.
         11    1    4    4    0    0  0.85613711344E+01 -0.58061483817E+01 -0.15058001501E+01  0.10453509893E+02  0.51100000000E-03 0. -1.
        -11    1    4    4    0    0 -0.16128772171E+01  0.62123891863E+01  0.70753757740E+01  0.95528056048E+01  0.51100000000E-03 0.  1.
         12    1    4    4    0    0  0.15272663116E+02  0.28119590246E+02 -0.12517819264E+02  0.34360753679E+02  0.00000000000E+00 0. -1.
</event>
<event>
 8    1  0.1271559E-006  0.9118800E+02  0.7816164E-02  0.1184000E+00
        -11   -1    0    0    0    0  0.00000000000E+00  0.00000000000E+00  0.45593999997E+02  0.45594000000E+02  0.51100000000E-03 0.  1.
         11   -1    0    0    0    0 -0.00000000000E+00 -0.00000000000E+00 -0.45593999997E+02  0.45594000000E+02  0.51100000000E-03 0. -1.
         23    2    1    2    0    0 -0.17763568394E-14  0.00000000000E+00  0.00000000000E+00  0.91188000000E+02  0.91188000000E+02 0.  0.
    9900012    2    3    3    0    0 -0.14559277951E+02 -0.19620020333E+02  0.27547486416E+02  0.54367057859E+02  0.39999940001E+02 0.  0.
         12    1    3    3    0    0  0.14559277951E+02  0.19620020333E+02 -0.27547486416E+02  0.36820942141E+02  0.00000000000E+00 0. -1.
         11    1    4    4    0    0  0.59806340808E+00 -0.31776242269E+01  0.19280683342E+01  0.37646279139E+01  0.51100000000E-03 0. -1.
        -11    1    4    4    0    0  0.89057109909E+01 -0.16665393964E+02  0.15727392255E+02  0.24584505520E+02  0.51100000000E-03 0.  1.
         12    1    4    4    0    0 -0.24063052350E+02  0.22299785802E+00  0.98920258264E+01  0.26017924425E+02  0.00000000000E+00 0. -1.
</event>
<event>
 8    1  0.1271559E-006  0.9118800E+02  0.7816164E-02  0.1184000E+00
        -11   -1    0    0    0    0  0.00000000000E+00  0.00000000000E+00  0.45593999997E+02  0.45594000000E+02  0.51100000000E-03 0.  1.
         11   -1    0    0    0    0 -0.00000000000E+00 -0.00000000000E+00 -0.45593999997E+02  0.45594000000E+02  0.51100000000E-03 0. -1.
         23    2    1    2    0    0  0.35527136788E-14 -0.18873791419E-14  0.00000000000E+00  0.91188000000E+02  0.91188000000E+02 0.  0.
    9900012    2    3    3    0    0  0.27524115936E+02  0.21220168124E+00 -0.24457255369E+02  0.54367091160E+02  0.40000015917E+02 0.  0.
        -12    1    3    3    0    0 -0.27524115936E+02 -0.21220168124E+00  0.24457255369E+02  0.36820908840E+02  0.00000000000E+00 0.  1.
         11    1    4    4    0    0  0.10917830455E+02  0.18301681914E+02 -0.86382702253E+01  0.22995005880E+02  0.51100000000E-03 0. -1.
        -11    1    4    4    0    0 -0.15245785217E+01 -0.14556399083E+01  0.23124882775E-01  0.21080232999E+01  0.51100000000E-03 0.  1.
         12    1    4    4    0    0  0.18130864004E+02 -0.16633840324E+02 -0.15842110026E+02  0.29264061979E+02  0.00000000000E+00 0. -1.
</event>
<event>
 8    1  0.1271559E-006  0.9118800E+02  0.7816164E-02  0.1184000E+00
        -11   -1    0    0    0    0  0.00000000000E+00  0.00000000000E+00  0.45593999997E+02  0.45594000000E+02  0.51100000000E-03 0. -1.
         11   -1    0    0    0    0 -0.00000000000E+00 -0.00000000000E+00 -0.45593999997E+02  0.45594000000E+02  0.51100000000E-03 0.  1.
         23    2    1    2    0    0  0.00000000000E+00  0.00000000000E+00  0.35527136788E-14  0.91188000000E+02  0.91188000000E+02 0.  0.
    9900012    2    3    3    0    0 -0.17789181875E+02  0.27721125613E+02  0.16458020859E+02  0.54367051511E+02  0.39999925529E+02 0.  0.
        -12    1    3    3    0    0  0.17789181875E+02 -0.27721125613E+02 -0.16458020859E+02  0.36820948489E+02  0.00000000000E+00 0.  1.
         11    1    4    4    0    0 -0.49989368493E+01  0.14738989836E+02 -0.14410657194E+01  0.15630222701E+02  0.51100000000E-03 0. -1.
        -11    1    4    4    0    0 -0.12844893758E+02  0.14322711103E+02 -0.14946199507E+01  0.19296767554E+02  0.51100000000E-03 0.  1.
         12    1    4    4    0    0  0.54648732182E-01 -0.13405753259E+01  0.19393706529E+02  0.19440061255E+02  0.00000000000E+00 0. -1.
</event>
<event>
 8    1  0.1271559E-006  0.9118800E+02  0.7816164E-02  0.1184000E+00
        -11   -1    0    0    0    0  0.00000000000E+00  0.00000000000E+00  0.45593999997E+02  0.45594000000E+02  0.51100000000E-03 0.  1.
         11   -1    0    0    0    0 -0.00000000000E+00 -0.00000000000E+00 -0.45593999997E+02  0.45594000000E+02  0.51100000000E-03 0. -1.
         23    2    1    2    0    0  0.00000000000E+00 -0.17763568394E-14 -0.35527136788E-14  0.91188000000E+02  0.91188000000E+02 0.  0.
    9900012    2    3    3    0    0  0.22140175602E+02  0.15216636809E+02  0.25180262947E+02  0.54367094884E+02  0.40000024408E+02 0.  0.
         12    1    3    3    0    0 -0.22140175602E+02 -0.15216636809E+02 -0.25180262947E+02  0.36820905116E+02  0.00000000000E+00 0. -1.
         11    1    4    4    0    0  0.93055399636E+01  0.10747187889E+02  0.47591142719E+01  0.14991473925E+02  0.51100000000E-03 0. -1.
        -11    1    4    4    0    0 -0.86566385324E+01  0.63599855553E+01  0.12283064168E+02  0.16317489775E+02  0.51100000000E-03 0.  1.
         12    1    4    4    0    0  0.21491274171E+02 -0.18905366355E+01  0.81380845068E+01  0.23058131184E+02  0.00000000000E+00 0. -1.
</event>
<event>
 8    1  0.1271559E-006  0.9118800E+02  0.7816164E-02  0.1184000E+00
        -11   -1    0    0    0    0  0.00000000000E+00  0.00000000000E+00  0.45593999997E+02  0.45594000000E+02  0.51100000000E-03 0.  1.
         11   -1    0    0    0    0 -0.00000000000E+00 -0.00000000000E+00 -0.45593999997E+02  0.45594000000E+02  0.51100000000E-03 0. -1.
         23    2    1    2    0    0  0.35527136788E-14  0.00000000000E+00  0.00000000000E+00  0.91188000000E+02  0.91188000000E+02 0.  0.
    9900012    2    3    3    0    0  0.28035403153E+02 -0.10464338050E+02  0.21454424415E+02  0.54367102024E+02  0.40000040683E+02 0.  0.
         12    1    3    3    0    0 -0.28035403153E+02  0.10464338050E+02 -0.21454424415E+02  0.36820897976E+02  0.00000000000E+00 0. -1.
         11    1    4    4    0    0  0.23656680588E+02 -0.15757445747E+02  0.17692059652E+02  0.33480510867E+02  0.51100000000E-03 0.  1.
        -11    1    4    4    0    0  0.17668573709E+01  0.80823377620E+01  0.10362563402E+02  0.13260041071E+02  0.51100000000E-03 0. -1.
         12    1    4    4    0    0  0.26118651940E+01 -0.27892300650E+01 -0.66001986386E+01  0.76265500861E+01  0.00000000000E+00 0. -1.
</event>
<event>
 8    1  0.1271559E-006  0.9118800E+02  0.7816164E-02  0.1184000E+00
        -11   -1    0    0    0    0  0.00000000000E+00  0.00000000000E+00  0.45593999997E+02  0.45594000000E+02  0.51100000000E-03 0. -1.
         11   -1    0    0    0    0 -0.00000000000E+00 -0.00000000000E+00 -0.45593999997E+02  0.45594000000E+02  0.51100000000E-03 0.  1.
         23    2    1    2    0    0 -0.88817841970E-15  0.00000000000E+00  0.00000000000E+00  0.91188000000E+02  0.91188000000E+02 0.  0.
    9900012    2    3    3    0    0  0.51996275052E+01  0.33150348349E+02  0.15159137939E+02  0.54367065942E+02  0.39999958429E+02 0.  0.
        -12    1    3    3    0    0 -0.51996275052E+01 -0.33150348349E+02 -0.15159137939E+02  0.36820934058E+02  0.00000000000E+00 0.  1.
         11    1    4    4    0    0  0.41269268196E+01 -0.29480929228E+00  0.27414914056E+01  0.49632865000E+01  0.51100000000E-03 0.  1.
        -11    1    4    4    0    0  0.61498504156E+01  0.31739371234E+02  0.21523848868E+02  0.38839212361E+02  0.51100000000E-03 0. -1.
        -12    1    4    4    0    0 -0.50771497300E+01  0.17057864073E+01 -0.91062023352E+01  0.10564567081E+02  0.00000000000E+00 0.  1.
</event>
<event>
 8    1  0.1271559E-006  0.9118800E+02  0.7816164E-02  0.1184000E+00
        -11   -1    0    0    0    0  0.00000000000E+00  0.00000000000E+00  0.45593999997E+02  0.45594000000E+02  0.51100000000E-03 0. -1.
         11   -1    0    0    0    0 -0.00000000000E+00 -0.00000000000E+00 -0.45593999997E+02  0.45594000000E+02  0.51100000000E-03 0.  1.
         23    2    1    2    0    0 -0.17763568394E-14 -0.17763568394E-14  0.71054273576E-14  0.91188000000E+02  0.91188000000E+02 0.  0.
    9900012    2    3    3    0    0 -0.15479365265E+02 -0.10542242140E+02  0.31702216898E+02  0.54367079662E+02  0.39999989705E+02 0.  0.
        -12    1    3    3    0    0  0.15479365265E+02  0.10542242140E+02 -0.31702216898E+02  0.36820920338E+02  0.00000000000E+00 0.  1.
         11    1    4    4    0    0  0.82986604916E+00 -0.76030431488E+01  0.28134335051E+02  0.29155372606E+02  0.51100000000E-03 0. -1.
        -11    1    4    4    0    0 -0.15274072520E+02 -0.74452292874E+01  0.80232118536E+01  0.18790972812E+02  0.51100000000E-03 0.  1.
        -12    1    4    4    0    0 -0.10351587935E+01  0.45060302960E+01 -0.44553300070E+01  0.64207342437E+01  0.00000000000E+00 0.  1.
</event>
<event>
 8    1  0.1271559E-006  0.9118800E+02  0.7816164E-02  0.1184000E+00
        -11   -1    0    0    0    0  0.00000000000E+00  0.00000000000E+00  0.45593999997E+02  0.45594000000E+02  0.51100000000E-03 0.  1.
         11   -1    0    0    0    0 -0.00000000000E+00 -0.00000000000E+00 -0.45593999997E+02  0.45594000000E+02  0.51100000000E-03 0. -1.
         23    2    1    2    0    0  0.00000000000E+00  0.00000000000E+00  0.17763568394E-14  0.91188000000E+02  0.91188000000E+02 0.  0.
    9900012    2    3    3    0    0  0.10960462096E+02 -0.34178484365E+02  0.82144370782E+01  0.54367115989E+02  0.40000072520E+02 0.  0.
         12    1    3    3    0    0 -0.10960462096E+02  0.34178484365E+02 -0.82144370782E+01  0.36820884011E+02  0.00000000000E+00 0. -1.
         11    1    4    4    0    0  0.14777084048E+01 -0.30188873640E+02 -0.37886801044E+01  0.30461546431E+02  0.51100000000E-03 0.  1.
        -11    1    4    4    0    0  0.58743611593E+00  0.63533248716E+01  0.67468934556E+01  0.92860319662E+01  0.51100000000E-03 0. -1.
         12    1    4    4    0    0  0.88953175752E+01 -0.10342935597E+02  0.52562237271E+01  0.14619537591E+02  0.00000000000E+00 0. -1.
</event>
<event>
 8    1  0.1271559E-006  0.9118800E+02  0.7816164E-02  0.1184000E+00
        -11   -1    0    0    0    0  0.00000000000E+00  0.00000000000E+00  0.45593999997E+02  0.45594000000E+02  0.51100000000E-03 0. -1.
         11   -1    0    0    0    0 -0.00000000000E+00 -0.00000000000E+00 -0.45593999997E+02  0.45594000000E+02  0.51100000000E-03 0.  1.
         23    2    1    2    0    0 -0.35527136788E-14 -0.17763568394E-14  0.35527136788E-14  0.91188000000E+02  0.91188000000E+02 0.  0.
    9900012    2    3    3    0    0 -0.22183682094E+02 -0.14865768440E+02  0.25350937617E+02  0.54367124662E+02  0.40000092293E+02 0.  0.
         12    1    3    3    0    0  0.22183682094E+02  0.14865768440E+02 -0.25350937617E+02  0.36820875338E+02  0.00000000000E+00 0. -1.
         11    1    4    4    0    0 -0.55019426064E+01 -0.15823332454E+02  0.16530280437E+02  0.23535067325E+02  0.51100000000E-03 0. -1.
        -11    1    4    4    0    0 -0.13983586153E+02  0.11803053839E+02  0.44542374090E+01  0.18833294794E+02  0.51100000000E-03 0.  1.
         12    1    4    4    0    0 -0.26981533342E+01 -0.10845489825E+02  0.43664197715E+01  0.11998762544E+02  0.00000000000E+00 0. -1.
</event>
<event>
 8    1  0.1271559E-006  0.9118800E+02  0.7816164E-02  0.1184000E+00
        -11   -1    0    0    0    0  0.00000000000E+00  0.00000000000E+00  0.45593999997E+02  0.45594000000E+02  0.51100000000E-03 0. -1.
         11   -1    0    0    0    0 -0.00000000000E+00 -0.00000000000E+00 -0.45593999997E+02  0.45594000000E+02  0.51100000000E-03 0.  1.
         23    2    1    2    0    0 -0.35527136788E-14  0.17763568394E-14  0.35527136788E-14  0.91188000000E+02  0.91188000000E+02 0.  0.
    9900012    2    3    3    0    0  0.21179604488E+02 -0.15064871984E+02  0.26081670431E+02  0.54367088189E+02  0.40000009144E+02 0.  0.
        -12    1    3    3    0    0 -0.21179604488E+02  0.15064871984E+02 -0.26081670431E+02  0.36820911811E+02  0.00000000000E+00 0.  1.
         11    1    4    4    0    0  0.86519938554E+01 -0.93717479477E+01  0.23406942156E+02  0.26656548888E+02  0.51100000000E-03 0. -1.
        -11    1    4    4    0    0 -0.21173398585E+01 -0.10097696948E+02 -0.39457153659E+01  0.11046052767E+02  0.51100000000E-03 0.  1.
        -12    1    4    4    0    0  0.14644950491E+02  0.44045729121E+01  0.66204436410E+01  0.16664486534E+02  0.00000000000E+00 0.  1.
</event>
<event>
 8    1  0.1271559E-006  0.9118800E+02  0.7816164E-02  0.1184000E+00
        -11   -1    0    0    0    0  0.00000000000E+00  0.00000000000E+00  0.45593999997E+02  0.45594000000E+02  0.51100000000E-03 0.  1.
         11   -1    0    0    0    0 -0.00000000000E+00 -0.00000000000E+00 -0.45593999997E+02  0.45594000000E+02  0.51100000000E-03 0. -1.
         23    2    1    2    0    0  0.00000000000E+00 -0.88817841970E-15  0.00000000000E+00  0.91188000000E+02  0.91188000000E+02 0.  0.
    9900012    2    3    3    0    0  0.35292662400E+02 -0.47322541733E+01  0.93707053555E+01  0.54367131356E+02  0.40000107551E+02 0.  0.
         12    1    3    3    0    0 -0.35292662400E+02  0.47322541733E+01 -0.93707053555E+01  0.36820868644E+02  0.00000000000E+00 0. -1.
         11    1    4    4    0    0  0.85360122329E+01  0.35640868882E+01 -0.36534305766E+01  0.99455404794E+01  0.51100000000E-03 0. -1.
        -11    1    4    4    0    0 -0.26641554950E+01  0.50090097412E+01  0.10622725861E+02  0.12042848835E+02  0.51100000000E-03 0.  1.
        -12    1    4    4    0    0  0.29420805662E+02 -0.13305350803E+02  0.24014100709E+01  0.32378742041E+02  0.00000000000E+00 0.  1.
</event>
<event>
 8    1  0.1271559E-006  0.9118800E+02  0.7816164E-02  0.1184000E+00
        -11   -1    0    0    0    0  0.00000000000E+00  0.00000000000E+00  0.45593999997E+02  0.45594000000E+02  0.51100000000E-03 0.  1.
         11   -1    0    0    0    0 -0.00000000000E+00 -0.00000000000E+00 -0.45593999997E+02  0.45594000000E+02  0.51100000000E-03 0. -1.
         23    2    1    2    0    0 -0.71054273576E-14 -0.88817841970E-15 -0.35527136788E-14  0.91188000000E+02  0.91188000000E+02 0.  0.
    9900012    2    3    3    0    0  0.31705595279E+02  0.46725102384E+01  0.18130136290E+02  0.54367096076E+02  0.40000027124E+02 0.  0.
         12    1    3    3    0    0 -0.31705595279E+02 -0.46725102384E+01 -0.18130136290E+02  0.36820903924E+02  0.00000000000E+00 0. -1.
         11    1    4    4    0    0  0.21794518153E+01  0.20092630892E+01  0.94185412276E+01  0.98740096968E+01  0.51100000000E-03 0. -1.
        -11    1    4    4    0    0  0.13458264863E+02  0.16460192945E+02  0.95273840382E+01  0.23298795930E+02  0.51100000000E-03 0.  1.
         12    1    4    4    0    0  0.16067878601E+02 -0.13796945795E+02 -0.81578897607E+00  0.21194290449E+02  0.00000000000E+00 0. -1.
</event>
<event>
 8    1  0.1271559E-006  0.9118800E+02  0.7816164E-02  0.1184000E+00
        -11   -1    0    0    0    0  0.00000000000E+00  0.00000000000E+00  0.45593999997E+02  0.45594000000E+02  0.51100000000E-03 0.  1.
         11   -1    0    0    0    0 -0.00000000000E+00 -0.00000000000E+00 -0.45593999997E+02  0.45594000000E+02  0.51100000000E-03 0. -1.
         23    2    1    2    0    0  0.00000000000E+00  0.00000000000E+00  0.88817841970E-15  0.91188000000E+02  0.91188000000E+02 0.  0.
    9900012    2    3    3    0    0  0.34943603223E+02 -0.10162993674E+02 -0.56069949673E+01  0.54367078784E+02  0.39999987704E+02 0.  0.
        -12    1    3    3    0    0 -0.34943603223E+02  0.10162993674E+02  0.56069949673E+01  0.36820921216E+02  0.00000000000E+00 0.  1.
         11    1    4    4    0    0  0.87458847164E+01 -0.11672417579E+02 -0.77881119865E+01  0.16534525097E+02  0.51100000000E-03 0. -1.
        -11    1    4    4    0    0  0.36496695992E+00  0.27782235671E+01 -0.91691396604E+01  0.95877447528E+01  0.51100000000E-03 0.  1.
        -12    1    4    4    0    0  0.25832751546E+02 -0.12687996620E+01  0.11350256680E+02  0.28244808934E+02  0.00000000000E+00 0.  1.
</event>
<event>
 8    1  0.1271559E-006  0.9118800E+02  0.7816164E-02  0.1184000E+00
        -11   -1    0    0    0    0  0.00000000000E+00  0.00000000000E+00  0.45593999997E+02  0.45594000000E+02  0.51100000000E-03 0. -1.
         11   -1    0    0    0    0 -0.00000000000E+00 -0.00000000000E+00 -0.45593999997E+02  0.45594000000E+02  0.51100000000E-03 0.  1.
         23    2    1    2    0    0  0.00000000000E+00  0.71054273576E-14  0.35527136788E-14  0.91188000000E+02  0.91188000000E+02 0.  0.
    9900012    2    3    3    0    0  0.12952875919E+02 -0.29883292122E+02 -0.17175351047E+02  0.54367070812E+02  0.39999969531E+02 0.  0.
         12    1    3    3    0    0 -0.12952875919E+02  0.29883292122E+02  0.17175351047E+02  0.36820929188E+02  0.00000000000E+00 0. -1.
         11    1    4    4    0    0  0.54922767992E+00 -0.29110685902E+02 -0.94480953716E+01  0.30610458852E+02  0.51100000000E-03 0. -1.
        -11    1    4    4    0    0  0.33463010010E+01 -0.88507119713E+01 -0.17797522735E+00  0.94638527160E+01  0.51100000000E-03 0.  1.
        -12    1    4    4    0    0  0.90573472384E+01  0.80781057509E+01 -0.75492804484E+01  0.14292759244E+02  0.00000000000E+00 0.  1.
</event>
<event>
 8    1  0.1271559E-006  0.9118800E+02  0.7816164E-02  0.1184000E+00
        -11   -1    0    0    0    0  0.00000000000E+00  0.00000000000E+00  0.45593999997E+02  0.45594000000E+02  0.51100000000E-03 0. -1.
         11   -1    0    0    0    0 -0.00000000000E+00 -0.00000000000E+00 -0.45593999997E+02  0.45594000000E+02  0.51100000000E-03 0.  1.
         23    2    1    2    0    0  0.00000000000E+00  0.00000000000E+00  0.00000000000E+00  0.91188000000E+02  0.91188000000E+02 0.  0.
    9900012    2    3    3    0    0 -0.19193536598E+02  0.12429659733E+02  0.28859827412E+02  0.54367110189E+02  0.40000059298E+02 0.  0.
        -12    1    3    3    0    0  0.19193536598E+02 -0.12429659733E+02 -0.28859827412E+02  0.36820889811E+02  0.00000000000E+00 0.  1.
         11    1    4    4    0    0  0.75033075231E+01 -0.76887639718E+00  0.16110866947E+02  0.17789064864E+02  0.51100000000E-03 0. -1.
        -11    1    4    4    0    0 -0.68567706693E+01 -0.32695175466E+00 -0.33805184759E+01  0.76518041590E+01  0.51100000000E-03 0.  1.
         12    1    4    4    0    0 -0.19840073451E+02  0.13525487885E+02  0.16129478941E+02  0.28926241166E+02  0.00000000000E+00 0. -1.
</event>
<event>
 8    1  0.1271559E-006  0.9118800E+02  0.7816164E-02  0.1184000E+00
        -11   -1    0    0    0    0  0.00000000000E+00  0.00000000000E+00  0.45593999997E+02  0.45594000000E+02  0.51100000000E-03 0. -1.
         11   -1    0    0    0    0 -0.00000000000E+00 -0.00000000000E+00 -0.45593999997E+02  0.45594000000E+02  0.51100000000E-03 0.  1.
         23    2    1    2    0    0  0.00000000000E+00  0.11102230246E-14  0.44408920985E-15  0.91188000000E+02  0.91188000000E+02 0.  0.
    9900012    2    3    3    0    0 -0.36669656618E+02  0.19607602385E+01 -0.26964134651E+01  0.54367096389E+02  0.40000027837E+02 0.  0.
        -12    1    3    3    0    0  0.36669656618E+02 -0.19607602385E+01  0.26964134651E+01  0.36820903611E+02  0.00000000000E+00 0.  1.
         11    1    4    4    0    0 -0.11778568308E+02  0.19303085208E+02  0.19212733406E+01  0.22694383918E+02  0.51100000000E-03 0. -1.
        -11    1    4    4    0    0 -0.12101473488E+01 -0.39314271256E+01 -0.81878502203E+00  0.41941608247E+01  0.51100000000E-03 0.  1.
         12    1    4    4    0    0 -0.23680940961E+02 -0.13410897844E+02 -0.37989017837E+01  0.27478551645E+02  0.00000000000E+00 0. -1.
</event>
<event>
 8    1  0.1271559E-006  0.9118800E+02  0.7816164E-02  0.1184000E+00
        -11   -1    0    0    0    0  0.00000000000E+00  0.00000000000E+00  0.45593999997E+02  0.45594000000E+02  0.51100000000E-03 0.  1.
         11   -1    0    0    0    0 -0.00000000000E+00 -0.00000000000E+00 -0.45593999997E+02  0.45594000000E+02  0.51100000000E-03 0. -1.
         23    2    1    2    0    0  0.00000000000E+00  0.00000000000E+00  0.00000000000E+00  0.91188000000E+02  0.91188000000E+02 0.  0.
    9900012    2    3    3    0    0  0.28216122656E+02 -0.22528900507E+02 -0.72167875201E+01  0.54367041866E+02  0.39999903543E+02 0.  0.
        -12    1    3    3    0    0 -0.28216122656E+02  0.22528900507E+02  0.72167875201E+01  0.36820958134E+02  0.00000000000E+00 0.  1.
         11    1    4    4    0    0  0.29525553366E+02 -0.16014177030E+02 -0.92791317581E+01  0.34847014994E+02  0.51100000000E-03 0. -1.
        -11    1    4    4    0    0 -0.27942858402E+01  0.56474849710E+01 -0.20014100430E+01  0.66111846348E+01  0.51100000000E-03 0.  1.
         12    1    4    4    0    0  0.14848551302E+01 -0.12162208447E+02  0.40637542810E+01  0.12908842238E+02  0.00000000000E+00 0. -1.
</event>
<event>
 8    1  0.1271559E-006  0.9118800E+02  0.7816164E-02  0.1184000E+00
        -11   -1    0    0    0    0  0.00000000000E+00  0.00000000000E+00  0.45593999997E+02  0.45594000000E+02  0.51100000000E-03 0.  1.
         11   -1    0    0    0    0 -0.00000000000E+00 -0.00000000000E+00 -0.45593999997E+02  0.45594000000E+02  0.51100000000E-03 0. -1.
         23    2    1    2    0    0  0.00000000000E+00  0.00000000000E+00  0.00000000000E+00  0.91188000000E+02  0.91188000000E+02 0.  0.
    9900012    2    3    3    0    0  0.13292625491E+02  0.10894938229E+02  0.32563600523E+02  0.54367059620E+02  0.39999944015E+02 0.  0.
         12    1    3    3    0    0 -0.13292625491E+02 -0.10894938229E+02 -0.32563600523E+02  0.36820940380E+02  0.00000000000E+00 0. -1.
         11    1    4    4    0    0  0.12799912322E+02  0.75815871188E+01  0.17930517097E+02  0.23298533480E+02  0.51100000000E-03 0. -1.
        -11    1    4    4    0    0  0.46537487871E+01  0.67475143010E+01  0.21106137662E+02  0.22641894229E+02  0.51100000000E-03 0.  1.
         12    1    4    4    0    0 -0.41610356184E+01 -0.34341631907E+01 -0.64730542350E+01  0.84266319112E+01  0.00000000000E+00 0. -1.
</event>
<event>
 8    1  0.1271559E-006  0.9118800E+02  0.7816164E-02  0.1184000E+00
        -11   -1    0    0    0    0  0.00000000000E+00  0.00000000000E+00  0.45593999997E+02  0.45594000000E+02  0.51100000000E-03 0.  1.
         11   -1    0    0    0    0 -0.00000000000E+00 -0.00000000000E+00 -0.45593999997E+02  0.45594000000E+02  0.51100000000E-03 0. -1.
         23    2    1    2    0    0 -0.17763568394E-14  0.00000000000E+00  0.00000000000E+00  0.91188000000E+02  0.91188000000E+02 0.  0.
    9900012    2    3    3    0    0 -0.13657103072E+02  0.12627788228E+02 -0.31777330122E+02  0.54367133504E+02  0.40000112449E+02 0.  0.
        -12    1    3    3    0    0  0.13657103072E+02 -0.12627788228E+02  0.31777330122E+02  0.36820866496E+02  0.00000000000E+00 0.  1.
         11    1    4    4    0    0  0.99960757333E+01  0.62081867282E+01 -0.25868416108E+02  0.28418973675E+02  0.51100000000E-03 0. -1.
        -11    1    4    4    0    0 -0.12225675956E+02  0.65675364553E+00 -0.46163261740E+01  0.13084683624E+02  0.51100000000E-03 0.  1.
         12    1    4    4    0    0 -0.11427502849E+02  0.57628478547E+01 -0.12925878396E+01  0.12863476205E+02  0.00000000000E+00 0. -1.
</event>
<event>
 8    1  0.1271559E-006  0.9118800E+02  0.7816164E-02  0.1184000E+00
        -11   -1    0    0    0    0  0.00000000000E+00  0.00000000000E+00  0.45593999997E+02  0.45594000000E+02  0.51100000000E-03 0. -1.
         11   -1    0    0    0    0 -0.00000000000E+00 -0.00000000000E+00 -0.45593999997E+02  0.45594000000E+02  0.51100000000E-03 0.  1.
         23    2    1    2    0    0  0.00000000000E+00  0.00000000000E+00 -0.35527136788E-14  0.91188000000E+02  0.91188000000E+02 0.  0.
    9900012    2    3    3    0    0  0.22225721505E+02 -0.13613936739E+02  0.26008821097E+02  0.54367071918E+02  0.39999972051E+02 0.  0.
        -12    1    3    3    0    0 -0.22225721505E+02  0.13613936739E+02 -0.26008821097E+02  0.36820928082E+02  0.00000000000E+00 0.  1.
         11    1    4    4    0    0  0.92592027378E+01 -0.57539388869E+01  0.27379202040E+01  0.11239966875E+02  0.51100000000E-03 0. -1.
        -11    1    4    4    0    0  0.25347373462E+01 -0.19304219274E+02  0.70645344586E+01  0.20711963272E+02  0.51100000000E-03 0.  1.
         12    1    4    4    0    0  0.10431781421E+02  0.11444221422E+02  0.16206366434E+02  0.22415141771E+02  0.00000000000E+00 0. -1.
</event>
<event>
 8    1  0.1271559E-006  0.9118800E+02  0.7816164E-02  0.1184000E+00
        -11   -1    0    0    0    0  0.00000000000E+00  0.00000000000E+00  0.45593999997E+02  0.45594000000E+02  0.51100000000E-03 0. -1.
         11   -1    0    0    0    0 -0.00000000000E+00 -0.00000000000E+00 -0.45593999997E+02  0.45594000000E+02  0.51100000000E-03 0.  1.
         23    2    1    2    0    0  0.17763568394E-14  0.00000000000E+00  0.71054273576E-14  0.91188000000E+02  0.91188000000E+02 0.  0.
    9900012    2    3    3    0    0  0.15940505062E+02 -0.48894068624E+01 -0.32829473659E+02  0.54367077391E+02  0.39999984528E+02 0.  0.
         12    1    3    3    0    0 -0.15940505062E+02  0.48894068624E+01  0.32829473659E+02  0.36820922609E+02  0.00000000000E+00 0. -1.
         11    1    4    4    0    0 -0.10600885216E+02  0.46417055545E+01 -0.87805817563E+00  0.11605825444E+02  0.51100000000E-03 0. -1.
        -11    1    4    4    0    0  0.13283838739E+02 -0.61564729622E+01 -0.18281860743E+02  0.23421976079E+02  0.51100000000E-03 0.  1.
         12    1    4    4    0    0  0.13257551539E+02 -0.33746394548E+01 -0.13669554740E+02  0.19339275867E+02  0.00000000000E+00 0. -1.
</event>
<event>
 8    1  0.1271559E-006  0.9118800E+02  0.7816164E-02  0.1184000E+00
        -11   -1    0    0    0    0  0.00000000000E+00  0.00000000000E+00  0.45593999997E+02  0.45594000000E+02  0.51100000000E-03 0.  1.
         11   -1    0    0    0    0 -0.00000000000E+00 -0.00000000000E+00 -0.45593999997E+02  0.45594000000E+02  0.51100000000E-03 0. -1.
         23    2    1    2    0    0  0.00000000000E+00  0.00000000000E+00  0.00000000000E+00  0.91188000000E+02  0.91188000000E+02 0.  0.
    9900012    2    3    3    0    0  0.25347960218E+02 -0.14140677700E+02 -0.22656150330E+02  0.54367095601E+02  0.40000026040E+02 0.  0.
        -12    1    3    3    0    0 -0.25347960218E+02  0.14140677700E+02  0.22656150330E+02  0.36820904399E+02  0.00000000000E+00 0.  1.
         11    1    4    4    0    0 -0.65913699896E+01 -0.81397923840E+00 -0.86188219110E+00  0.66971308568E+01  0.51100000000E-03 0. -1.
        -11    1    4    4    0    0  0.12303295558E+02 -0.57473069531E+01  0.42079017384E+01  0.14216506466E+02  0.51100000000E-03 0.  1.
        -12    1    4    4    0    0  0.19636034649E+02 -0.75793915084E+01 -0.26002169878E+02  0.33453458278E+02  0.00000000000E+00 0.  1.
</event>
<event>
 8    1  0.1271559E-006  0.9118800E+02  0.7816164E-02  0.1184000E+00
        -11   -1    0    0    0    0  0.00000000000E+00  0.00000000000E+00  0.45593999997E+02  0.45594000000E+02  0.51100000000E-03 0.  1.
         11   -1    0    0    0    0 -0.00000000000E+00 -0.00000000000E+00 -0.45593999997E+02  0.45594000000E+02  0.51100000000E-03 0. -1.
         23    2    1    2    0    0  0.00000000000E+00 -0.35527136788E-14  0.88817841970E-15  0.91188000000E+02  0.91188000000E+02 0.  0.
    9900012    2    3    3    0    0 -0.32528960257E+02 -0.16767688201E+02 -0.40609000777E+01  0.54367088381E+02  0.40000009582E+02 0.  0.
        -12    1    3    3    0    0  0.32528960257E+02  0.16767688201E+02  0.40609000777E+01  0.36820911619E+02  0.00000000000E+00 0.  1.
         11    1    4    4    0    0 -0.60722354984E+01 -0.53328515484E+01 -0.84989074584E+01  0.11727863311E+02  0.51100000000E-03 0. -1.
        -11    1    4    4    0    0 -0.12385682231E+02  0.53091272076E+01  0.13399064720E+02  0.19003338961E+02  0.51100000000E-03 0.  1.
        -12    1    4    4    0    0 -0.14071042528E+02 -0.16743963860E+02 -0.89610573390E+01  0.23635886110E+02  0.00000000000E+00 0.  1.
</event>
<event>
 8    1  0.1271559E-006  0.9118800E+02  0.7816164E-02  0.1184000E+00
        -11   -1    0    0    0    0  0.00000000000E+00  0.00000000000E+00  0.45593999997E+02  0.45594000000E+02  0.51100000000E-03 0.  1.
         11   -1    0    0    0    0 -0.00000000000E+00 -0.00000000000E+00 -0.45593999997E+02  0.45594000000E+02  0.51100000000E-03 0. -1.
         23    2    1    2    0    0  0.00000000000E+00  0.00000000000E+00  0.00000000000E+00  0.91188000000E+02  0.91188000000E+02 0.  0.
    9900012    2    3    3    0    0 -0.43185215642E+01 -0.25658373783E+02  0.26053381514E+02  0.54367075759E+02  0.39999980807E+02 0.  0.
         12    1    3    3    0    0  0.43185215642E+01  0.25658373783E+02 -0.26053381514E+02  0.36820924241E+02  0.00000000000E+00 0. -1.
         11    1    4    4    0    0 -0.74935729687E+01 -0.20750576456E+02  0.73349634963E+00  0.22074376011E+02  0.51100000000E-03 0.  1.
        -11    1    4    4    0    0  0.40933242846E+01  0.61352889181E+01  0.16691619134E+02  0.18248485509E+02  0.51100000000E-03 0. -1.
         12    1    4    4    0    0 -0.91827288013E+00 -0.11043086245E+02  0.86282660304E+01  0.14044214239E+02  0.00000000000E+00 0. -1.
</event>
<event>
 8    1  0.1271559E-006  0.9118800E+02  0.7816164E-02  0.1184000E+00
        -11   -1    0    0    0    0  0.00000000000E+00  0.00000000000E+00  0.45593999997E+02  0.45594000000E+02  0.51100000000E-03 0.  1.
         11   -1    0    0    0    0 -0.00000000000E+00 -0.00000000000E+00 -0.45593999997E+02  0.45594000000E+02  0.51100000000E-03 0. -1.
         23    2    1    2    0    0  0.00000000000E+00 -0.17763568394E-14 -0.71054273576E-14  0.91188000000E+02  0.91188000000E+02 0.  0.
    9900012    2    3    3    0    0 -0.28807184386E+02  0.87794079361E+01  0.21185984132E+02  0.54367111912E+02  0.40000063226E+02 0.  0.
        -12    1    3    3    0    0  0.28807184386E+02 -0.87794079361E+01 -0.21185984132E+02  0.36820888088E+02  0.00000000000E+00 0.  1.
         11    1    4    4    0    0 -0.11741975196E+02 -0.15107586760E+01  0.10187987864E+02  0.15618945875E+02  0.51100000000E-03 0. -1.
        -11    1    4    4    0    0 -0.20412553739E+02  0.10851284295E+02  0.19085095931E+02  0.29977718525E+02  0.51100000000E-03 0.  1.
         12    1    4    4    0    0  0.33473445491E+01 -0.56111768303E+00 -0.80870996637E+01  0.87704475117E+01  0.00000000000E+00 0. -1.
</event>
<event>
 8    1  0.1271559E-006  0.9118800E+02  0.7816164E-02  0.1184000E+00
        -11   -1    0    0    0    0  0.00000000000E+00  0.00000000000E+00  0.45593999997E+02  0.45594000000E+02  0.51100000000E-03 0. -1.
         11   -1    0    0    0    0 -0.00000000000E+00 -0.00000000000E+00 -0.45593999997E+02  0.45594000000E+02  0.51100000000E-03 0.  1.
         23    2    1    2    0    0  0.00000000000E+00  0.00000000000E+00  0.00000000000E+00  0.91188000000E+02  0.91188000000E+02 0.  0.
    9900012    2    3    3    0    0 -0.11745314890E+02 -0.70099796668E+01 -0.34186069318E+02  0.54367087842E+02  0.40000008352E+02 0.  0.
         12    1    3    3    0    0  0.11745314890E+02  0.70099796668E+01  0.34186069318E+02  0.36820912158E+02  0.00000000000E+00 0. -1.
         11    1    4    4    0    0  0.66340201625E+00  0.37239317407E+00 -0.19851838813E+02  0.19866410935E+02  0.51100000000E-03 0. -1.
        -11    1    4    4    0    0  0.14827227974E+01  0.10653395462E+01 -0.17786352348E+02  0.17879813907E+02  0.51100000000E-03 0.  1.
         12    1    4    4    0    0 -0.13891439703E+02 -0.84477123870E+01  0.34521218440E+01  0.16620862999E+02  0.00000000000E+00 0. -1.
</event>
<event>
 8    1  0.1271559E-006  0.9118800E+02  0.7816164E-02  0.1184000E+00
        -11   -1    0    0    0    0  0.00000000000E+00  0.00000000000E+00  0.45593999997E+02  0.45594000000E+02  0.51100000000E-03 0. -1.
         11   -1    0    0    0    0 -0.00000000000E+00 -0.00000000000E+00 -0.45593999997E+02  0.45594000000E+02  0.51100000000E-03 0.  1.
         23    2    1    2    0    0  0.00000000000E+00 -0.35527136788E-14  0.35527136788E-14  0.91188000000E+02  0.91188000000E+02 0.  0.
    9900012    2    3    3    0    0 -0.17228015887E+02 -0.26466148518E+02  0.18934587330E+02  0.54367080048E+02  0.39999990586E+02 0.  0.
         12    1    3    3    0    0  0.17228015887E+02  0.26466148518E+02 -0.18934587330E+02  0.36820919952E+02  0.00000000000E+00 0. -1.
         11    1    4    4    0    0 -0.50427371695E+01  0.31964307732E+01 -0.38014008980E-01  0.59705789648E+01  0.51100000000E-03 0.  1.
        -11    1    4    4    0    0  0.52419547345E+01  0.38701116257E+01  0.45490176417E+01  0.79466606320E+01  0.51100000000E-03 0. -1.
        -12    1    4    4    0    0 -0.17427233452E+02 -0.33532690916E+02  0.14423583697E+02  0.40449840451E+02  0.00000000000E+00 0.  1.
</event>
<event>
 8    1  0.1271559E-006  0.9118800E+02  0.7816164E-02  0.1184000E+00
        -11   -1    0    0    0    0  0.00000000000E+00  0.00000000000E+00  0.45593999997E+02  0.45594000000E+02  0.51100000000E-03 0. -1.
         11   -1    0    0    0    0 -0.00000000000E+00 -0.00000000000E+00 -0.45593999997E+02  0.45594000000E+02  0.51100000000E-03 0.  1.
         23    2    1    2    0    0  0.00000000000E+00  0.88817841970E-15  0.35527136788E-14  0.91188000000E+02  0.91188000000E+02 0.  0.
    9900012    2    3    3    0    0 -0.18283978864E+02 -0.40010057673E+01 -0.31709056151E+02  0.54367134010E+02  0.40000113603E+02 0.  0.
         12    1    3    3    0    0  0.18283978864E+02  0.40010057673E+01  0.31709056151E+02  0.36820865990E+02  0.00000000000E+00 0. -1.
         11    1    4    4    0    0 -0.50014675725E+01 -0.77634819843E+01 -0.11092581264E+02  0.14433699795E+02  0.51100000000E-03 0. -1.
        -11    1    4    4    0    0 -0.46639571162E+01  0.75152428694E+01 -0.27104832235E+02  0.28511459137E+02  0.51100000000E-03 0.  1.
         12    1    4    4    0    0 -0.86185541751E+01 -0.37527666525E+01  0.64883573484E+01  0.11421975079E+02  0.00000000000E+00 0. -1.
</event>
<event>
 8    1  0.1271559E-006  0.9118800E+02  0.7816164E-02  0.1184000E+00
        -11   -1    0    0    0    0  0.00000000000E+00  0.00000000000E+00  0.45593999997E+02  0.45594000000E+02  0.51100000000E-03 0. -1.
         11   -1    0    0    0    0 -0.00000000000E+00 -0.00000000000E+00 -0.45593999997E+02  0.45594000000E+02  0.51100000000E-03 0.  1.
         23    2    1    2    0    0  0.17763568394E-14  0.00000000000E+00  0.00000000000E+00  0.91188000000E+02  0.91188000000E+02 0.  0.
    9900012    2    3    3    0    0  0.14551636539E+02 -0.30869921232E+02 -0.13823073594E+02  0.54367088463E+02  0.40000009768E+02 0.  0.
         12    1    3    3    0    0 -0.14551636539E+02  0.30869921232E+02  0.13823073594E+02  0.36820911537E+02  0.00000000000E+00 0. -1.
         11    1    4    4    0    0 -0.82312859406E+00  0.78256850439E+01 -0.67646234576E+00  0.78978787440E+01  0.51100000000E-03 0. -1.
        -11    1    4    4    0    0  0.78931655886E+01 -0.20625780971E+02 -0.15191792594E+02  0.26805138801E+02  0.51100000000E-03 0.  1.
        -12    1    4    4    0    0  0.74815995444E+01 -0.18069825306E+02  0.20451813454E+01  0.19664070918E+02  0.00000000000E+00 0.  1.
</event>
<event>
 8    1  0.1271559E-006  0.9118800E+02  0.7816164E-02  0.1184000E+00
        -11   -1    0    0    0    0  0.00000000000E+00  0.00000000000E+00  0.45593999997E+02  0.45594000000E+02  0.51100000000E-03 0.  1.
         11   -1    0    0    0    0 -0.00000000000E+00 -0.00000000000E+00 -0.45593999997E+02  0.45594000000E+02  0.51100000000E-03 0. -1.
         23    2    1    2    0    0  0.00000000000E+00 -0.35527136788E-14 -0.17763568394E-14  0.91188000000E+02  0.91188000000E+02 0.  0.
    9900012    2    3    3    0    0  0.31463682874E+02 -0.16283517520E+02 -0.10033148792E+02  0.54367077178E+02  0.39999984042E+02 0.  0.
        -12    1    3    3    0    0 -0.31463682874E+02  0.16283517520E+02  0.10033148792E+02  0.36820922822E+02  0.00000000000E+00 0.  1.
         11    1    4    4    0    0  0.23188020304E+01 -0.11761510881E+02  0.75412795899E+01  0.14162657913E+02  0.51100000000E-03 0. -1.
        -11    1    4    4    0    0  0.46616601900E+01 -0.99933268631E+01 -0.63046265833E+01  0.12702203515E+02  0.51100000000E-03 0.  1.
        -12    1    4    4    0    0  0.24483220653E+02  0.54713202239E+01 -0.11269801799E+02  0.27502215750E+02  0.00000000000E+00 0.  1.
</event>
<event>
 8    1  0.1271559E-006  0.9118800E+02  0.7816164E-02  0.1184000E+00
        -11   -1    0    0    0    0  0.00000000000E+00  0.00000000000E+00  0.45593999997E+02  0.45594000000E+02  0.51100000000E-03 0.  1.
         11   -1    0    0    0    0 -0.00000000000E+00 -0.00000000000E+00 -0.45593999997E+02  0.45594000000E+02  0.51100000000E-03 0. -1.
         23    2    1    2    0    0  0.00000000000E+00  0.00000000000E+00 -0.17763568394E-14  0.91188000000E+02  0.91188000000E+02 0.  0.
    9900012    2    3    3    0    0  0.17228860584E+02 -0.32400108908E+02  0.30298453845E+01  0.54367073106E+02  0.39999974759E+02 0.  0.
         12    1    3    3    0    0 -0.17228860584E+02  0.32400108908E+02 -0.30298453845E+01  0.36820926894E+02  0.00000000000E+00 0. -1.
         11    1    4    4    0    0  0.61080403344E+01 -0.27041822989E+02  0.16823405298E+02  0.32428310368E+02  0.51100000000E-03 0. -1.
        -11    1    4    4    0    0  0.24559724835E+01 -0.75116609393E+01 -0.82747310040E+01  0.11442378440E+02  0.51100000000E-03 0.  1.
         12    1    4    4    0    0  0.86648477665E+01  0.21533750196E+01 -0.55188289091E+01  0.10496384297E+02  0.00000000000E+00 0. -1.
</event>
<event>
 8    1  0.1271559E-006  0.9118800E+02  0.7816164E-02  0.1184000E+00
        -11   -1    0    0    0    0  0.00000000000E+00  0.00000000000E+00  0.45593999997E+02  0.45594000000E+02  0.51100000000E-03 0. -1.
         11   -1    0    0    0    0 -0.00000000000E+00 -0.00000000000E+00 -0.45593999997E+02  0.45594000000E+02  0.51100000000E-03 0.  1.
         23    2    1    2    0    0  0.17763568394E-14  0.83266726847E-15 -0.71054273576E-14  0.91188000000E+02  0.91188000000E+02 0.  0.
    9900012    2    3    3    0    0 -0.11624070864E+02  0.34887465172E-01  0.34937873821E+02  0.54367146293E+02  0.40000141603E+02 0.  0.
        -12    1    3    3    0    0  0.11624070864E+02 -0.34887465172E-01 -0.34937873821E+02  0.36820853707E+02  0.00000000000E+00 0.  1.
         11    1    4    4    0    0  0.55256552843E+01  0.67586173496E+01  0.97794544624E+01  0.13109138211E+02  0.51100000000E-03 0. -1.
        -11    1    4    4    0    0 -0.23484354052E+02 -0.85266961107E+01  0.23855338742E+02  0.34544125674E+02  0.51100000000E-03 0.  1.
        -12    1    4    4    0    0  0.63346279035E+01  0.18029662263E+01  0.13030806163E+01  0.67138824074E+01  0.00000000000E+00 0.  1.
</event>
<event>
 8    1  0.1271559E-006  0.9118800E+02  0.7816164E-02  0.1184000E+00
        -11   -1    0    0    0    0  0.00000000000E+00  0.00000000000E+00  0.45593999997E+02  0.45594000000E+02  0.51100000000E-03 0.  1.
         11   -1    0    0    0    0 -0.00000000000E+00 -0.00000000000E+00 -0.45593999997E+02  0.45594000000E+02  0.51100000000E-03 0. -1.
         23    2    1    2    0    0  0.00000000000E+00 -0.71054273576E-14  0.00000000000E+00  0.91188000000E+02  0.91188000000E+02 0.  0.
    9900012    2    3    3    0    0  0.13030247525E+02 -0.33784704497E+02  0.66772062735E+01  0.54367099792E+02  0.40000035596E+02 0.  0.
        -12    1    3    3    0    0 -0.13030247525E+02  0.33784704497E+02 -0.66772062735E+01  0.36820900208E+02  0.00000000000E+00 0.  1.
         11    1    4    4    0    0  0.44760402035E+00 -0.33456964428E+02  0.33734940653E+01  0.33629589361E+02  0.51100000000E-03 0. -1.
        -11    1    4    4    0    0  0.12193627100E+02 -0.43420443044E+01 -0.29692951292E+01  0.13279857093E+02  0.51100000000E-03 0.  1.
         12    1    4    4    0    0  0.38901640473E+00  0.40143042355E+01  0.62730073374E+01  0.74576533382E+01  0.00000000000E+00 0. -1.
</event>
<event>
 8    1  0.1271559E-006  0.9118800E+02  0.7816164E-02  0.1184000E+00
        -11   -1    0    0    0    0  0.00000000000E+00  0.00000000000E+00  0.45593999997E+02  0.45594000000E+02  0.51100000000E-03 0. -1.
         11   -1    0    0    0    0 -0.00000000000E+00 -0.00000000000E+00 -0.45593999997E+02  0.45594000000E+02  0.51100000000E-03 0.  1.
         23    2    1    2    0    0 -0.88817841970E-15  0.00000000000E+00  0.00000000000E+00  0.91188000000E+02  0.91188000000E+02 0.  0.
    9900012    2    3    3    0    0  0.65695177326E+01  0.10756172104E+02 -0.34596637354E+02  0.54367066853E+02  0.39999960505E+02 0.  0.
         12    1    3    3    0    0 -0.65695177326E+01 -0.10756172104E+02  0.34596637354E+02  0.36820933147E+02  0.00000000000E+00 0. -1.
         11    1    4    4    0    0 -0.85484947580E+01 -0.27199713817E+01 -0.12659299562E+02  0.15515568717E+02  0.51100000000E-03 0. -1.
        -11    1    4    4    0    0  0.58783553261E+01  0.59749448959E+01  0.47475433791E+01  0.96329744237E+01  0.51100000000E-03 0.  1.
        -12    1    4    4    0    0  0.92396571644E+01  0.75011985901E+01 -0.26684881171E+02  0.29218523712E+02  0.00000000000E+00 0.  1.
</event>
<event>
 8    1  0.1271559E-006  0.9118800E+02  0.7816164E-02  0.1184000E+00
        -11   -1    0    0    0    0  0.00000000000E+00  0.00000000000E+00  0.45593999997E+02  0.45594000000E+02  0.51100000000E-03 0.  1.
         11   -1    0    0    0    0 -0.00000000000E+00 -0.00000000000E+00 -0.45593999997E+02  0.45594000000E+02  0.51100000000E-03 0. -1.
         23    2    1    2    0    0 -0.17763568394E-14  0.00000000000E+00  0.71054273576E-14  0.91188000000E+02  0.91188000000E+02 0.  0.
    9900012    2    3    3    0    0 -0.11021659622E+02 -0.84750162762E+01  0.34095109676E+02  0.54367090376E+02  0.40000014130E+02 0.  0.
         12    1    3    3    0    0  0.11021659622E+02  0.84750162762E+01 -0.34095109676E+02  0.36820909624E+02  0.00000000000E+00 0. -1.
         11    1    4    4    0    0  0.93360400506E+01  0.10246952303E+00  0.39055014342E+01  0.10120527928E+02  0.51100000000E-03 0. -1.
        -11    1    4    4    0    0 -0.10580562861E+01 -0.28820289547E+01 -0.37154877231E+01  0.48197949419E+01  0.51100000000E-03 0.  1.
        -12    1    4    4    0    0 -0.19299643387E+02 -0.56954568445E+01  0.33905095965E+02  0.39426767506E+02  0.00000000000E+00 0.  1.
</event>
<event>
 8    1  0.1271559E-006  0.9118800E+02  0.7816164E-02  0.1184000E+00
        -11   -1    0    0    0    0  0.00000000000E+00  0.00000000000E+00  0.45593999997E+02  0.45594000000E+02  0.51100000000E-03 0.  1.
         11   -1    0    0    0    0 -0.00000000000E+00 -0.00000000000E+00 -0.45593999997E+02  0.45594000000E+02  0.51100000000E-03 0. -1.
         23    2    1    2    0    0 -0.17763568394E-14  0.44408920985E-15  0.00000000000E+00  0.91188000000E+02  0.91188000000E+02 0.  0.
    9900012    2    3    3    0    0  0.14980665250E+02  0.11126263594E+01  0.33617257586E+02  0.54367105438E+02  0.40000048467E+02 0.  0.
         12    1    3    3    0    0 -0.14980665250E+02 -0.11126263594E+01 -0.33617257586E+02  0.36820894562E+02  0.00000000000E+00 0. -1.
         11    1    4    4    0    0  0.64929453108E+01  0.49722852415E+01  0.35660690335E+02  0.36586429106E+02  0.51100000000E-03 0. -1.
        -11    1    4    4    0    0  0.10082349301E+02 -0.15962470069E+01  0.41323637655E+01  0.11012638307E+02  0.51100000000E-03 0.  1.
         12    1    4    4    0    0 -0.15946293617E+01 -0.22634118752E+01 -0.61757965142E+01  0.67680380246E+01  0.00000000000E+00 0. -1.
</event>
<event>
 8    1  0.1271559E-006  0.9118800E+02  0.7816164E-02  0.1184000E+00
        -11   -1    0    0    0    0  0.00000000000E+00  0.00000000000E+00  0.45593999997E+02  0.45594000000E+02  0.51100000000E-03 0.  1.
         11   -1    0    0    0    0 -0.00000000000E+00 -0.00000000000E+00 -0.45593999997E+02  0.45594000000E+02  0.51100000000E-03 0. -1.
         23    2    1    2    0    0  0.35527136788E-14  0.00000000000E+00 -0.26645352591E-14  0.91188000000E+02  0.91188000000E+02 0.  0.
    9900012    2    3    3    0    0 -0.23182406530E+02 -0.28564691182E+02  0.15532662177E+01  0.54367106599E+02  0.40000051115E+02 0.  0.
        -12    1    3    3    0    0  0.23182406530E+02  0.28564691182E+02 -0.15532662177E+01  0.36820893401E+02  0.00000000000E+00 0.  1.
         11    1    4    4    0    0 -0.21906723950E+02 -0.21007536926E+02 -0.12854889496E+02  0.32961634458E+02  0.51100000000E-03 0. -1.
        -11    1    4    4    0    0  0.48587960926E+01  0.27624672647E+00  0.86086495241E+01  0.98890372946E+01  0.51100000000E-03 0.  1.
         12    1    4    4    0    0 -0.61344786729E+01 -0.78334009831E+01  0.57995061893E+01  0.11516434847E+02  0.00000000000E+00 0. -1.
</event>
<event>
 8    1  0.1271559E-006  0.9118800E+02  0.7816164E-02  0.1184000E+00
        -11   -1    0    0    0    0  0.00000000000E+00  0.00000000000E+00  0.45593999997E+02  0.45594000000E+02  0.51100000000E-03 0. -1.
         11   -1    0    0    0    0 -0.00000000000E+00 -0.00000000000E+00 -0.45593999997E+02  0.45594000000E+02  0.51100000000E-03 0.  1.
         23    2    1    2    0    0  0.00000000000E+00 -0.17763568394E-14 -0.44408920985E-15  0.91188000000E+02  0.91188000000E+02 0.  0.
    9900012    2    3    3    0    0 -0.35343687131E+02 -0.10114549723E+02  0.20735511514E+01  0.54367082705E+02  0.39999996642E+02 0.  0.
        -12    1    3    3    0    0  0.35343687131E+02  0.10114549723E+02 -0.20735511514E+01  0.36820917295E+02  0.00000000000E+00 0.  1.
         11    1    4    4    0    0 -0.27495525905E+01  0.13346914443E+02 -0.14468163193E+01  0.13703774747E+02  0.51100000000E-03 0. -1.
        -11    1    4    4    0    0 -0.13538909505E+02 -0.70292615624E+01 -0.10511048865E-01  0.15254923777E+02  0.51100000000E-03 0.  1.
         12    1    4    4    0    0 -0.19055225035E+02 -0.16432202603E+02  0.35308785196E+01  0.25408384180E+02  0.00000000000E+00 0. -1.
</event>
<event>
 8    1  0.1271559E-006  0.9118800E+02  0.7816164E-02  0.1184000E+00
        -11   -1    0    0    0    0  0.00000000000E+00  0.00000000000E+00  0.45593999997E+02  0.45594000000E+02  0.51100000000E-03 0.  1.
         11   -1    0    0    0    0 -0.00000000000E+00 -0.00000000000E+00 -0.45593999997E+02  0.45594000000E+02  0.51100000000E-03 0. -1.
         23    2    1    2    0    0  0.44408920985E-15  0.00000000000E+00 -0.35527136788E-14  0.91188000000E+02  0.91188000000E+02 0.  0.
    9900012    2    3    3    0    0 -0.11970013575E+01  0.18952390974E+02 -0.31546047053E+02  0.54367095332E+02  0.40000025429E+02 0.  0.
        -12    1    3    3    0    0  0.11970013575E+01 -0.18952390974E+02  0.31546047053E+02  0.36820904668E+02  0.00000000000E+00 0.  1.
         11    1    4    4    0    0 -0.11552185951E+02  0.34246456646E+01  0.46994044956E+00  0.12058276927E+02  0.51100000000E-03 0.  1.
        -11    1    4    4    0    0  0.85862452890E+01  0.67798282321E+01 -0.31526090527E+02  0.33370406998E+02  0.51100000000E-03 0. -1.
        -12    1    4    4    0    0  0.17689393041E+01  0.87479170769E+01 -0.48989697594E+00  0.89384114077E+01  0.00000000000E+00 0.  1.
</event>
<event>
 8    1  0.1271559E-006  0.9118800E+02  0.7816164E-02  0.1184000E+00
        -11   -1    0    0    0    0  0.00000000000E+00  0.00000000000E+00  0.45593999997E+02  0.45594000000E+02  0.51100000000E-03 0.  1.
         11   -1    0    0    0    0 -0.00000000000E+00 -0.00000000000E+00 -0.45593999997E+02  0.45594000000E+02  0.51100000000E-03 0. -1.
         23    2    1    2    0    0  0.44408920985E-15  0.17763568394E-14  0.00000000000E+00  0.91188000000E+02  0.91188000000E+02 0.  0.
    9900012    2    3    3    0    0  0.32538633712E+01 -0.89840563982E+01 -0.35559519443E+02  0.54367077697E+02  0.39999985226E+02 0.  0.
        -12    1    3    3    0    0 -0.32538633712E+01  0.89840563982E+01  0.35559519443E+02  0.36820922303E+02  0.00000000000E+00 0.  1.
         11    1    4    4    0    0  0.10627423199E+02 -0.14353056180E+00 -0.39080238663E+02  0.40499725667E+02  0.51100000000E-03 0. -1.
        -11    1    4    4    0    0 -0.83100476471E+01 -0.65679790241E+01  0.15254496395E+01  0.10701506306E+02  0.51100000000E-03 0.  1.
         12    1    4    4    0    0  0.93648781906E+00 -0.22725468123E+01  0.19952695805E+01  0.31658457240E+01  0.00000000000E+00 0. -1.
</event>
<event>
 8    1  0.1271559E-006  0.9118800E+02  0.7816164E-02  0.1184000E+00
        -11   -1    0    0    0    0  0.00000000000E+00  0.00000000000E+00  0.45593999997E+02  0.45594000000E+02  0.51100000000E-03 0.  1.
         11   -1    0    0    0    0 -0.00000000000E+00 -0.00000000000E+00 -0.45593999997E+02  0.45594000000E+02  0.51100000000E-03 0. -1.
         23    2    1    2    0    0  0.00000000000E+00  0.88817841970E-15  0.35527136788E-14  0.91188000000E+02  0.91188000000E+02 0.  0.
    9900012    2    3    3    0    0 -0.20473850984E+02  0.69956900763E+01  0.29793640094E+02  0.54367092301E+02  0.40000018518E+02 0.  0.
         12    1    3    3    0    0  0.20473850984E+02 -0.69956900763E+01 -0.29793640094E+02  0.36820907699E+02  0.00000000000E+00 0. -1.
         11    1    4    4    0    0 -0.26502795085E+02 -0.75903903222E+00  0.20664336472E+02  0.33615310346E+02  0.51100000000E-03 0. -1.
        -11    1    4    4    0    0 -0.42522641051E+01  0.70577370776E+01  0.30422178862E+01  0.87834214634E+01  0.51100000000E-03 0.  1.
        -12    1    4    4    0    0  0.10281208207E+02  0.69699203094E+00  0.60870857360E+01  0.11968360491E+02  0.00000000000E+00 0.  1.
</event>
<event>
 8    1  0.1271559E-006  0.9118800E+02  0.7816164E-02  0.1184000E+00
        -11   -1    0    0    0    0  0.00000000000E+00  0.00000000000E+00  0.45593999997E+02  0.45594000000E+02  0.51100000000E-03 0. -1.
         11   -1    0    0    0    0 -0.00000000000E+00 -0.00000000000E+00 -0.45593999997E+02  0.45594000000E+02  0.51100000000E-03 0.  1.
         23    2    1    2    0    0  0.35527136788E-14  0.00000000000E+00 -0.33306690739E-15  0.91188000000E+02  0.91188000000E+02 0.  0.
    9900012    2    3    3    0    0  0.31493649843E+02 -0.19055223356E+02  0.90970375143E+00  0.54367094545E+02  0.40000023635E+02 0.  0.
         12    1    3    3    0    0 -0.31493649843E+02  0.19055223356E+02 -0.90970375143E+00  0.36820905455E+02  0.00000000000E+00 0. -1.
         11    1    4    4    0    0  0.10267174319E+02 -0.12900234708E+02  0.12853432200E+02  0.20905540979E+02  0.51100000000E-03 0. -1.
        -11    1    4    4    0    0 -0.11579285144E+01  0.28287750474E+01 -0.85800506102E+01  0.91082399753E+01  0.51100000000E-03 0.  1.
        -12    1    4    4    0    0  0.22384404038E+02 -0.89837636949E+01 -0.33636778387E+01  0.24353313591E+02  0.00000000000E+00 0.  1.
</event>
<event>
 8    1  0.1271559E-006  0.9118800E+02  0.7816164E-02  0.1184000E+00
        -11   -1    0    0    0    0  0.00000000000E+00  0.00000000000E+00  0.45593999997E+02  0.45594000000E+02  0.51100000000E-03 0.  1.
         11   -1    0    0    0    0 -0.00000000000E+00 -0.00000000000E+00 -0.45593999997E+02  0.45594000000E+02  0.51100000000E-03 0. -1.
         23    2    1    2    0    0  0.88817841970E-15 -0.35527136788E-14 -0.35527136788E-14  0.91188000000E+02  0.91188000000E+02 0.  0.
    9900012    2    3    3    0    0  0.58329303044E+01 -0.26846080568E+02 -0.24516208485E+02  0.54367087514E+02  0.40000007606E+02 0.  0.
        -12    1    3    3    0    0 -0.58329303044E+01  0.26846080568E+02  0.24516208485E+02  0.36820912486E+02  0.00000000000E+00 0.  1.
         11    1    4    4    0    0  0.13165705778E+02 -0.28710136526E+02 -0.14529385204E+02  0.34766518126E+02  0.51100000000E-03 0. -1.
        -11    1    4    4    0    0 -0.49969961437E+01 -0.80223609179E+00  0.31718693392E+01  0.59727973825E+01  0.51100000000E-03 0.  1.
        -12    1    4    4    0    0 -0.23357793299E+01  0.26662920490E+01 -0.13158692620E+02  0.13627772005E+02  0.00000000000E+00 0.  1.
</event>
<event>
 8    1  0.1271559E-006  0.9118800E+02  0.7816164E-02  0.1184000E+00
        -11   -1    0    0    0    0  0.00000000000E+00  0.00000000000E+00  0.45593999997E+02  0.45594000000E+02  0.51100000000E-03 0.  1.
         11   -1    0    0    0    0 -0.00000000000E+00 -0.00000000000E+00 -0.45593999997E+02  0.45594000000E+02  0.51100000000E-03 0. -1.
         23    2    1    2    0    0 -0.35527136788E-14  0.00000000000E+00  0.88817841970E-15  0.91188000000E+02  0.91188000000E+02 0.  0.
    9900012    2    3    3    0    0 -0.11500821404E+02  0.34504598271E+02 -0.57394773235E+01  0.54367111977E+02  0.40000063375E+02 0.  0.
         12    1    3    3    0    0  0.11500821404E+02 -0.34504598271E+02  0.57394773235E+01  0.36820888023E+02  0.00000000000E+00 0. -1.
         11    1    4    4    0    0  0.35215896263E+01  0.46872544020E+01 -0.92283139565E+01  0.10933148040E+02  0.51100000000E-03 0. -1.
        -11    1    4    4    0    0 -0.57063399651E+01 -0.17738630794E+01  0.82169963054E+01  0.10160114889E+02  0.51100000000E-03 0.  1.
         12    1    4    4    0    0 -0.93160710652E+01  0.31591206949E+02 -0.47281596723E+01  0.33273849048E+02  0.00000000000E+00 0. -1.
</event>
<event>
 8    1  0.1271559E-006  0.9118800E+02  0.7816164E-02  0.1184000E+00
        -11   -1    0    0    0    0  0.00000000000E+00  0.00000000000E+00  0.45593999997E+02  0.45594000000E+02  0.51100000000E-03 0.  1.
         11   -1    0    0    0    0 -0.00000000000E+00 -0.00000000000E+00 -0.45593999997E+02  0.45594000000E+02  0.51100000000E-03 0. -1.
         23    2    1    2    0    0  0.00000000000E+00  0.00000000000E+00  0.00000000000E+00  0.91188000000E+02  0.91188000000E+02 0.  0.
    9900012    2    3    3    0    0  0.23345355121E+02  0.23727500440E+02  0.15741035398E+02  0.54367080969E+02  0.39999992686E+02 0.  0.
         12    1    3    3    0    0 -0.23345355121E+02 -0.23727500440E+02 -0.15741035398E+02  0.36820919031E+02  0.00000000000E+00 0. -1.
         11    1    4    4    0    0  0.30025760962E+01 -0.41205691421E+01 -0.25230584346E+01  0.56886182324E+01  0.51100000000E-03 0. -1.
        -11    1    4    4    0    0  0.21804981276E+02  0.33117154798E+02  0.15866303325E+02  0.42707642546E+02  0.51100000000E-03 0.  1.
        -12    1    4    4    0    0 -0.14622022514E+01 -0.52690852158E+01  0.23977905075E+01  0.59708201910E+01  0.00000000000E+00 0.  1.
</event>
<event>
 8    1  0.1271559E-006  0.9118800E+02  0.7816164E-02  0.1184000E+00
        -11   -1    0    0    0    0  0.00000000000E+00  0.00000000000E+00  0.45593999997E+02  0.45594000000E+02  0.51100000000E-03 0.  1.
         11   -1    0    0    0    0 -0.00000000000E+00 -0.00000000000E+00 -0.45593999997E+02  0.45594000000E+02  0.51100000000E-03 0. -1.
         23    2    1    2    0    0  0.71054273576E-14  0.00000000000E+00 -0.26645352591E-14  0.91188000000E+02  0.91188000000E+02 0.  0.
    9900012    2    3    3    0    0  0.33179317966E+02  0.15944652968E+02 -0.82513554056E+00  0.54367082743E+02  0.39999996730E+02 0.  0.
         12    1    3    3    0    0 -0.33179317966E+02 -0.15944652968E+02  0.82513554056E+00  0.36820917257E+02  0.00000000000E+00 0. -1.
         11    1    4    4    0    0  0.37673672181E+01  0.12085938583E+02 -0.12248640559E+02  0.17615111779E+02  0.51100000000E-03 0. -1.
        -11    1    4    4    0    0  0.14580516229E+02 -0.23582918667E+01 -0.30896463785E+01  0.15089695458E+02  0.51100000000E-03 0.  1.
         12    1    4    4    0    0  0.14831434519E+02  0.62170062516E+01  0.14513151397E+02  0.21662275506E+02  0.00000000000E+00 0. -1.
</event>
<event>
 8    1  0.1271559E-006  0.9118800E+02  0.7816164E-02  0.1184000E+00
        -11   -1    0    0    0    0  0.00000000000E+00  0.00000000000E+00  0.45593999997E+02  0.45594000000E+02  0.51100000000E-03 0. -1.
         11   -1    0    0    0    0 -0.00000000000E+00 -0.00000000000E+00 -0.45593999997E+02  0.45594000000E+02  0.51100000000E-03 0.  1.
         23    2    1    2    0    0  0.00000000000E+00  0.00000000000E+00  0.00000000000E+00  0.91188000000E+02  0.91188000000E+02 0.  0.
    9900012    2    3    3    0    0 -0.10973470978E+02 -0.11116544245E+02  0.33343512390E+02  0.54367021744E+02  0.39999857669E+02 0.  0.
        -12    1    3    3    0    0  0.10973470978E+02  0.11116544245E+02 -0.33343512390E+02  0.36820978256E+02  0.00000000000E+00 0.  1.
         11    1    4    4    0    0 -0.12523275138E+01  0.44822826428E+01  0.16581249367E+02  0.17221992125E+02  0.51100000000E-03 0.  1.
        -11    1    4    4    0    0 -0.99326140931E+01 -0.13037185881E+02  0.24226991170E+02  0.29250164783E+02  0.51100000000E-03 0. -1.
        -12    1    4    4    0    0  0.21147062857E+00 -0.25616410066E+01 -0.74647281474E+01  0.78948648366E+01  0.00000000000E+00 0.  1.
</event>
<event>
 8    1  0.1271559E-006  0.9118800E+02  0.7816164E-02  0.1184000E+00
        -11   -1    0    0    0    0  0.00000000000E+00  0.00000000000E+00  0.45593999997E+02  0.45594000000E+02  0.51100000000E-03 0.  1.
         11   -1    0    0    0    0 -0.00000000000E+00 -0.00000000000E+00 -0.45593999997E+02  0.45594000000E+02  0.51100000000E-03 0. -1.
         23    2    1    2    0    0  0.00000000000E+00  0.00000000000E+00  0.17763568394E-14  0.91188000000E+02  0.91188000000E+02 0.  0.
    9900012    2    3    3    0    0 -0.35364685263E+02  0.82630984434E+01 -0.60696055816E+01  0.54367083776E+02  0.39999999085E+02 0.  0.
         12    1    3    3    0    0  0.35364685263E+02 -0.82630984434E+01  0.60696055816E+01  0.36820916224E+02  0.00000000000E+00 0. -1.
         11    1    4    4    0    0 -0.39345915261E+02  0.59833370033E+01 -0.14624999362E+02  0.42400377074E+02  0.51100000000E-03 0. -1.
        -11    1    4    4    0    0 -0.50945164440E+00 -0.69996322354E+00  0.58918191262E+01  0.59550837416E+01  0.51100000000E-03 0.  1.
         12    1    4    4    0    0  0.44906816424E+01  0.29797246637E+01  0.26635746544E+01  0.60116229609E+01  0.00000000000E+00 0. -1.
</event>
<event>
 8    1  0.1271559E-006  0.9118800E+02  0.7816164E-02  0.1184000E+00
        -11   -1    0    0    0    0  0.00000000000E+00  0.00000000000E+00  0.45593999997E+02  0.45594000000E+02  0.51100000000E-03 0. -1.
         11   -1    0    0    0    0 -0.00000000000E+00 -0.00000000000E+00 -0.45593999997E+02  0.45594000000E+02  0.51100000000E-03 0.  1.
         23    2    1    2    0    0  0.00000000000E+00  0.44408920985E-15 -0.35527136788E-14  0.91188000000E+02  0.91188000000E+02 0.  0.
    9900012    2    3    3    0    0  0.19029379739E+02  0.16538730270E+01  0.31478898106E+02  0.54367168733E+02  0.40000192760E+02 0.  0.
        -12    1    3    3    0    0 -0.19029379739E+02 -0.16538730270E+01 -0.31478898106E+02  0.36820831267E+02  0.00000000000E+00 0.  1.
         11    1    4    4    0    0  0.17090397142E+02  0.49837256367E+01  0.10830920782E+02  0.20838139094E+02  0.51100000000E-03 0. -1.
        -11    1    4    4    0    0  0.74337890263E+01 -0.66879749469E+01  0.24192975936E+02  0.26178050215E+02  0.51100000000E-03 0.  1.
         12    1    4    4    0    0 -0.54948064293E+01  0.33581223372E+01 -0.35449986113E+01  0.73509794233E+01  0.00000000000E+00 0. -1.
</event>
<event>
 8    1  0.1271559E-006  0.9118800E+02  0.7816164E-02  0.1184000E+00
        -11   -1    0    0    0    0  0.00000000000E+00  0.00000000000E+00  0.45593999997E+02  0.45594000000E+02  0.51100000000E-03 0.  1.
         11   -1    0    0    0    0 -0.00000000000E+00 -0.00000000000E+00 -0.45593999997E+02  0.45594000000E+02  0.51100000000E-03 0. -1.
         23    2    1    2    0    0  0.35527136788E-14  0.00000000000E+00 -0.35527136788E-14  0.91188000000E+02  0.91188000000E+02 0.  0.
    9900012    2    3    3    0    0 -0.24699286081E+02  0.21041847388E+02 -0.17405925575E+02  0.54367077693E+02  0.39999985216E+02 0.  0.
        -12    1    3    3    0    0  0.24699286081E+02 -0.21041847388E+02  0.17405925575E+02  0.36820922307E+02  0.00000000000E+00 0.  1.
         11    1    4    4    0    0 -0.28150682311E+02  0.66947720799E+01 -0.10447405449E+02  0.30764088945E+02  0.51100000000E-03 0. -1.
        -11    1    4    4    0    0 -0.20030291674E+01  0.31839183247E+01  0.50678872875E+01  0.63113345311E+01  0.51100000000E-03 0.  1.
         12    1    4    4    0    0  0.54544253965E+01  0.11163156984E+02 -0.12026407414E+02  0.17291654216E+02  0.00000000000E+00 0. -1.
</event>
<event>
 8    1  0.1271559E-006  0.9118800E+02  0.7816164E-02  0.1184000E+00
        -11   -1    0    0    0    0  0.00000000000E+00  0.00000000000E+00  0.45593999997E+02  0.45594000000E+02  0.51100000000E-03 0.  1.
         11   -1    0    0    0    0 -0.00000000000E+00 -0.00000000000E+00 -0.45593999997E+02  0.45594000000E+02  0.51100000000E-03 0. -1.
         23    2    1    2    0    0 -0.35527136788E-14 -0.35527136788E-14 -0.71054273576E-14  0.91188000000E+02  0.91188000000E+02 0.  0.
    9900012    2    3    3    0    0  0.30820046737E+02  0.11797714698E+02  0.16331506873E+02  0.54367089233E+02  0.40000011524E+02 0.  0.
         12    1    3    3    0    0 -0.30820046737E+02 -0.11797714698E+02 -0.16331506873E+02  0.36820910767E+02  0.00000000000E+00 0. -1.
         11    1    4    4    0    0 -0.12881517267E+01  0.37655422829E+00 -0.49808343388E+01  0.51584725384E+01  0.51100000000E-03 0. -1.
        -11    1    4    4    0    0  0.18085762695E+02 -0.27309691857E+01  0.22800598825E+02  0.29230468897E+02  0.51100000000E-03 0.  1.
         12    1    4    4    0    0  0.14022435769E+02  0.14152129655E+02 -0.14882576129E+01  0.19978147797E+02  0.00000000000E+00 0. -1.
</event>
<event>
 8    1  0.1271559E-006  0.9118800E+02  0.7816164E-02  0.1184000E+00
        -11   -1    0    0    0    0  0.00000000000E+00  0.00000000000E+00  0.45593999997E+02  0.45594000000E+02  0.51100000000E-03 0.  1.
         11   -1    0    0    0    0 -0.00000000000E+00 -0.00000000000E+00 -0.45593999997E+02  0.45594000000E+02  0.51100000000E-03 0. -1.
         23    2    1    2    0    0 -0.35527136788E-14 -0.17763568394E-14  0.00000000000E+00  0.91188000000E+02  0.91188000000E+02 0.  0.
    9900012    2    3    3    0    0 -0.30011195330E+02  0.11702138880E+02  0.17837283375E+02  0.54367074187E+02  0.39999977224E+02 0.  0.
         12    1    3    3    0    0  0.30011195330E+02 -0.11702138880E+02 -0.17837283375E+02  0.36820925813E+02  0.00000000000E+00 0. -1.
         11    1    4    4    0    0 -0.51867730417E+01 -0.12712293240E+01  0.65041406092E+01  0.84156095386E+01  0.51100000000E-03 0. -1.
        -11    1    4    4    0    0  0.49402341842E+01 -0.25598558202E+01 -0.59868448376E+01  0.81731931939E+01  0.51100000000E-03 0.  1.
        -12    1    4    4    0    0 -0.29764656473E+02  0.15533224024E+02  0.17319987604E+02  0.37778271455E+02  0.00000000000E+00 0.  1.
</event>
<event>
 8    1  0.1271559E-006  0.9118800E+02  0.7816164E-02  0.1184000E+00
        -11   -1    0    0    0    0  0.00000000000E+00  0.00000000000E+00  0.45593999997E+02  0.45594000000E+02  0.51100000000E-03 0.  1.
         11   -1    0    0    0    0 -0.00000000000E+00 -0.00000000000E+00 -0.45593999997E+02  0.45594000000E+02  0.51100000000E-03 0. -1.
         23    2    1    2    0    0  0.00000000000E+00  0.66613381478E-15  0.17763568394E-14  0.91188000000E+02  0.91188000000E+02 0.  0.
    9900012    2    3    3    0    0 -0.36202264864E+02 -0.13054803423E+01  0.65932489567E+01  0.54367093004E+02  0.40000020121E+02 0.  0.
         12    1    3    3    0    0  0.36202264864E+02  0.13054803423E+01 -0.65932489567E+01  0.36820906996E+02  0.00000000000E+00 0. -1.
         11    1    4    4    0    0 -0.15913001942E+02 -0.64218119547E+01 -0.51297127025E+01  0.17910255505E+02  0.51100000000E-03 0. -1.
        -11    1    4    4    0    0 -0.23772504511E+02  0.14460025031E+01  0.16911075062E+02  0.29209713350E+02  0.51100000000E-03 0.  1.
        -12    1    4    4    0    0  0.34832415889E+01  0.36703291093E+01 -0.51881134033E+01  0.72471241484E+01  0.00000000000E+00 0.  1.
</event>
<event>
 8    1  0.1271559E-006  0.9118800E+02  0.7816164E-02  0.1184000E+00
        -11   -1    0    0    0    0  0.00000000000E+00  0.00000000000E+00  0.45593999997E+02  0.45594000000E+02  0.51100000000E-03 0. -1.
         11   -1    0    0    0    0 -0.00000000000E+00 -0.00000000000E+00 -0.45593999997E+02  0.45594000000E+02  0.51100000000E-03 0.  1.
         23    2    1    2    0    0  0.00000000000E+00 -0.35527136788E-14  0.00000000000E+00  0.91188000000E+02  0.91188000000E+02 0.  0.
    9900012    2    3    3    0    0  0.19715356207E+02  0.23190991836E+02  0.20718642662E+02  0.54367088462E+02  0.40000009767E+02 0.  0.
        -12    1    3    3    0    0 -0.19715356207E+02 -0.23190991836E+02 -0.20718642662E+02  0.36820911538E+02  0.00000000000E+00 0.  1.
         11    1    4    4    0    0  0.10356531187E+02 -0.57607848417E+01  0.99674535337E+01  0.15485299817E+02  0.51100000000E-03 0. -1.
        -11    1    4    4    0    0 -0.49271495045E+01  0.84908983153E+01  0.98562305893E+01  0.13911054530E+02  0.51100000000E-03 0.  1.
        -12    1    4    4    0    0  0.14285974524E+02  0.20460878362E+02  0.89495853930E+00  0.24970734115E+02  0.00000000000E+00 0.  1.
</event>
<event>
 8    1  0.1271559E-006  0.9118800E+02  0.7816164E-02  0.1184000E+00
        -11   -1    0    0    0    0  0.00000000000E+00  0.00000000000E+00  0.45593999997E+02  0.45594000000E+02  0.51100000000E-03 0. -1.
         11   -1    0    0    0    0 -0.00000000000E+00 -0.00000000000E+00 -0.45593999997E+02  0.45594000000E+02  0.51100000000E-03 0.  1.
         23    2    1    2    0    0 -0.35527136788E-14  0.00000000000E+00  0.17763568394E-14  0.91188000000E+02  0.91188000000E+02 0.  0.
    9900012    2    3    3    0    0 -0.27881043259E+02  0.21126044192E+02  0.11494145043E+02  0.54367113446E+02  0.40000066722E+02 0.  0.
        -12    1    3    3    0    0  0.27881043259E+02 -0.21126044192E+02 -0.11494145043E+02  0.36820886554E+02  0.00000000000E+00 0.  1.
         11    1    4    4    0    0 -0.26584456870E+02  0.12275521070E+02  0.15146610193E+02  0.32967280221E+02  0.51100000000E-03 0. -1.
        -11    1    4    4    0    0 -0.41175279493E+01 -0.31329818806E+01 -0.69409320301E+01  0.86571444244E+01  0.51100000000E-03 0.  1.
         12    1    4    4    0    0  0.28209415605E+01  0.11983505002E+02  0.32884668797E+01  0.12742688800E+02  0.00000000000E+00 0. -1.
</event>
<event>
 8    1  0.1271559E-006  0.9118800E+02  0.7816164E-02  0.1184000E+00
        -11   -1    0    0    0    0  0.00000000000E+00  0.00000000000E+00  0.45593999997E+02  0.45594000000E+02  0.51100000000E-03 0. -1.
         11   -1    0    0    0    0 -0.00000000000E+00 -0.00000000000E+00 -0.45593999997E+02  0.45594000000E+02  0.51100000000E-03 0.  1.
         23    2    1    2    0    0 -0.17763568394E-14  0.00000000000E+00  0.00000000000E+00  0.91188000000E+02  0.91188000000E+02 0.  0.
    9900012    2    3    3    0    0  0.71096454996E+01  0.15391735030E+02 -0.32685279871E+02  0.54367080856E+02  0.39999992428E+02 0.  0.
         12    1    3    3    0    0 -0.71096454996E+01 -0.15391735030E+02  0.32685279871E+02  0.36820919144E+02  0.00000000000E+00 0. -1.
         11    1    4    4    0    0  0.50320233660E+01  0.51248703373E+01 -0.34399437608E+02  0.35141241628E+02  0.51100000000E-03 0.  1.
        -11    1    4    4    0    0  0.13618183070E+01 -0.31843159736E+01  0.42880012309E+01  0.55119299831E+01  0.51100000000E-03 0. -1.
        -12    1    4    4    0    0  0.71580382655E+00  0.13451180667E+02 -0.25738434932E+01  0.13713909245E+02  0.00000000000E+00 0.  1.
</event>
<event>
 8    1  0.1271559E-006  0.9118800E+02  0.7816164E-02  0.1184000E+00
        -11   -1    0    0    0    0  0.00000000000E+00  0.00000000000E+00  0.45593999997E+02  0.45594000000E+02  0.51100000000E-03 0.  1.
         11   -1    0    0    0    0 -0.00000000000E+00 -0.00000000000E+00 -0.45593999997E+02  0.45594000000E+02  0.51100000000E-03 0. -1.
         23    2    1    2    0    0  0.35527136788E-14  0.22204460493E-14 -0.35527136788E-14  0.91188000000E+02  0.91188000000E+02 0.  0.
    9900012    2    3    3    0    0 -0.28551783543E+02 -0.32547686507E+01  0.23021341903E+02  0.54367081415E+02  0.39999993701E+02 0.  0.
        -12    1    3    3    0    0  0.28551783543E+02  0.32547686507E+01 -0.23021341903E+02  0.36820918585E+02  0.00000000000E+00 0.  1.
         11    1    4    4    0    0  0.67064163869E+00 -0.86962511104E+01  0.14088632874E+02  0.16569976466E+02  0.51100000000E-03 0. -1.
        -11    1    4    4    0    0 -0.83812180954E+01  0.89918281344E+01 -0.41041284037E+01  0.12959230694E+02  0.51100000000E-03 0.  1.
        -12    1    4    4    0    0 -0.20841207086E+02 -0.35503456746E+01  0.13036837433E+02  0.24837874254E+02  0.00000000000E+00 0.  1.
</event>
<event>
 8    1  0.1271559E-006  0.9118800E+02  0.7816164E-02  0.1184000E+00
        -11   -1    0    0    0    0  0.00000000000E+00  0.00000000000E+00  0.45593999997E+02  0.45594000000E+02  0.51100000000E-03 0.  1.
         11   -1    0    0    0    0 -0.00000000000E+00 -0.00000000000E+00 -0.45593999997E+02  0.45594000000E+02  0.51100000000E-03 0. -1.
         23    2    1    2    0    0 -0.27755575616E-15  0.35527136788E-14  0.35527136788E-14  0.91188000000E+02  0.91188000000E+02 0.  0.
    9900012    2    3    3    0    0  0.86223415398E-01  0.31217774104E+02 -0.19525000837E+02  0.54367047918E+02  0.39999917340E+02 0.  0.
        -12    1    3    3    0    0 -0.86223415398E-01 -0.31217774104E+02  0.19525000837E+02  0.36820952082E+02  0.00000000000E+00 0.  1.
         11    1    4    4    0    0  0.39038059123E+01  0.19866357259E+01 -0.27842386756E+01  0.51902222854E+01  0.51100000000E-03 0. -1.
        -11    1    4    4    0    0  0.42402293945E+01 -0.42952217055E+01 -0.13200000117E+02  0.14514423108E+02  0.51100000000E-03 0.  1.
        -12    1    4    4    0    0 -0.80578118914E+01  0.33526360084E+02 -0.35407620447E+01  0.34662402525E+02  0.00000000000E+00 0.  1.
</event>
<event>
 8    1  0.1271559E-006  0.9118800E+02  0.7816164E-02  0.1184000E+00
        -11   -1    0    0    0    0  0.00000000000E+00  0.00000000000E+00  0.45593999997E+02  0.45594000000E+02  0.51100000000E-03 0. -1.
         11   -1    0    0    0    0 -0.00000000000E+00 -0.00000000000E+00 -0.45593999997E+02  0.45594000000E+02  0.51100000000E-03 0.  1.
         23    2    1    2    0    0  0.00000000000E+00 -0.71054273576E-14 -0.17763568394E-14  0.91188000000E+02  0.91188000000E+02 0.  0.
    9900012    2    3    3    0    0  0.16487042090E+02 -0.32615130723E+02  0.44953055193E+01  0.54367121674E+02  0.40000085480E+02 0.  0.
         12    1    3    3    0    0 -0.16487042090E+02  0.32615130723E+02 -0.44953055193E+01  0.36820878326E+02  0.00000000000E+00 0. -1.
         11    1    4    4    0    0 -0.66022209425E+01 -0.36859429053E+01  0.42590860503E+00  0.75734334932E+01  0.51100000000E-03 0. -1.
        -11    1    4    4    0    0 -0.30378822291E+01 -0.36752201481E+01  0.89394388745E+01  0.10131610890E+02  0.51100000000E-03 0.  1.
        -12    1    4    4    0    0  0.26127145261E+02 -0.25253967670E+02 -0.48700419602E+01  0.36662077291E+02  0.00000000000E+00 0.  1.
</event>
<event>
 8    1  0.1271559E-006  0.9118800E+02  0.7816164E-02  0.1184000E+00
        -11   -1    0    0    0    0  0.00000000000E+00  0.00000000000E+00  0.45593999997E+02  0.45594000000E+02  0.51100000000E-03 0.  1.
         11   -1    0    0    0    0 -0.00000000000E+00 -0.00000000000E+00 -0.45593999997E+02  0.45594000000E+02  0.51100000000E-03 0. -1.
         23    2    1    2    0    0  0.35527136788E-14 -0.35527136788E-14 -0.17763568394E-14  0.91188000000E+02  0.91188000000E+02 0.  0.
    9900012    2    3    3    0    0 -0.18587553369E+02  0.30304664972E+02  0.95869795711E+01  0.54367081535E+02  0.39999993975E+02 0.  0.
         12    1    3    3    0    0  0.18587553369E+02 -0.30304664972E+02 -0.95869795711E+01  0.36820918465E+02  0.00000000000E+00 0. -1.
         11    1    4    4    0    0 -0.86491447722E+01  0.79044456058E+01  0.17718689111E+02  0.21242408284E+02  0.51100000000E-03 0. -1.
        -11    1    4    4    0    0 -0.42472212747E+01 -0.28402478064E+01 -0.48473543133E+01  0.70429212872E+01  0.51100000000E-03 0.  1.
        -12    1    4    4    0    0 -0.56911873219E+01  0.25240467173E+02 -0.32843552264E+01  0.26081751964E+02  0.00000000000E+00 0.  1.
</event>
<event>
 8    1  0.1271559E-006  0.9118800E+02  0.7816164E-02  0.1184000E+00
        -11   -1    0    0    0    0  0.00000000000E+00  0.00000000000E+00  0.45593999997E+02  0.45594000000E+02  0.51100000000E-03 0.  1.
         11   -1    0    0    0    0 -0.00000000000E+00 -0.00000000000E+00 -0.45593999997E+02  0.45594000000E+02  0.51100000000E-03 0. -1.
         23    2    1    2    0    0 -0.35527136788E-14 -0.35527136788E-14  0.17763568394E-14  0.91188000000E+02  0.91188000000E+02 0.  0.
    9900012    2    3    3    0    0 -0.25070789643E+02  0.24613310185E+02 -0.11019143802E+02  0.54367067615E+02  0.39999962241E+02 0.  0.
        -12    1    3    3    0    0  0.25070789643E+02 -0.24613310185E+02  0.11019143802E+02  0.36820932385E+02  0.00000000000E+00 0.  1.
         11    1    4    4    0    0 -0.15928492511E+02  0.10257195676E+02 -0.29583874887E+01  0.19174957460E+02  0.51100000000E-03 0. -1.
        -11    1    4    4    0    0 -0.57148779590E+01  0.23660301488E+02 -0.56487258775E+01  0.24987552919E+02  0.51100000000E-03 0.  1.
        -12    1    4    4    0    0 -0.34274191737E+01 -0.93041869795E+01 -0.24120304362E+01  0.10204557235E+02  0.00000000000E+00 0.  1.
</event>
<event>
 8    1  0.1271559E-006  0.9118800E+02  0.7816164E-02  0.1184000E+00
        -11   -1    0    0    0    0  0.00000000000E+00  0.00000000000E+00  0.45593999997E+02  0.45594000000E+02  0.51100000000E-03 0.  1.
         11   -1    0    0    0    0 -0.00000000000E+00 -0.00000000000E+00 -0.45593999997E+02  0.45594000000E+02  0.51100000000E-03 0. -1.
         23    2    1    2    0    0 -0.17763568394E-14  0.00000000000E+00  0.35527136788E-14  0.91188000000E+02  0.91188000000E+02 0.  0.
    9900012    2    3    3    0    0 -0.14936632514E+02 -0.14690325246E+02  0.30279878439E+02  0.54367086310E+02  0.40000004860E+02 0.  0.
         12    1    3    3    0    0  0.14936632514E+02  0.14690325246E+02 -0.30279878439E+02  0.36820913690E+02  0.00000000000E+00 0. -1.
         11    1    4    4    0    0 -0.93916733444E+01  0.62777678249E+01 -0.37537087473E+01  0.11903958446E+02  0.51100000000E-03 0.  1.
        -11    1    4    4    0    0 -0.29648375634E+01 -0.16903902368E+02  0.14881978369E+02  0.22715753509E+02  0.51100000000E-03 0. -1.
        -12    1    4    4    0    0 -0.25801216059E+01 -0.40641907026E+01  0.19151608818E+02  0.19747374354E+02  0.00000000000E+00 0.  1.
</event>
<event>
 8    1  0.1271559E-006  0.9118800E+02  0.7816164E-02  0.1184000E+00
        -11   -1    0    0    0    0  0.00000000000E+00  0.00000000000E+00  0.45593999997E+02  0.45594000000E+02  0.51100000000E-03 0.  1.
         11   -1    0    0    0    0 -0.00000000000E+00 -0.00000000000E+00 -0.45593999997E+02  0.45594000000E+02  0.51100000000E-03 0. -1.
         23    2    1    2    0    0  0.17763568394E-14  0.00000000000E+00  0.00000000000E+00  0.91188000000E+02  0.91188000000E+02 0.  0.
    9900012    2    3    3    0    0  0.11445503372E+02  0.32105806242E+02  0.13928260669E+02  0.54367098502E+02  0.40000032654E+02 0.  0.
         12    1    3    3    0    0 -0.11445503372E+02 -0.32105806242E+02 -0.13928260669E+02  0.36820901498E+02  0.00000000000E+00 0. -1.
         11    1    4    4    0    0 -0.52235913996E+01 -0.15579884338E+01  0.54493311464E+01  0.77076874141E+01  0.51100000000E-03 0. -1.
        -11    1    4    4    0    0 -0.15907615503E+01  0.16140630358E+01  0.94923064039E+01  0.97590779749E+01  0.51100000000E-03 0.  1.
         12    1    4    4    0    0  0.18259856322E+02  0.32049731640E+02 -0.10133768817E+01  0.36900333113E+02  0.00000000000E+00 0. -1.
</event>
<event>
 8    1  0.1271559E-006  0.9118800E+02  0.7816164E-02  0.1184000E+00
        -11   -1    0    0    0    0  0.00000000000E+00  0.00000000000E+00  0.45593999997E+02  0.45594000000E+02  0.51100000000E-03 0.  1.
         11   -1    0    0    0    0 -0.00000000000E+00 -0.00000000000E+00 -0.45593999997E+02  0.45594000000E+02  0.51100000000E-03 0. -1.
         23    2    1    2    0    0  0.35527136788E-14  0.00000000000E+00  0.00000000000E+00  0.91188000000E+02  0.91188000000E+02 0.  0.
    9900012    2    3    3    0    0 -0.31379329740E+02 -0.17567490276E+02  0.79057880459E+01  0.54367074779E+02  0.39999978573E+02 0.  0.
         12    1    3    3    0    0  0.31379329740E+02  0.17567490276E+02 -0.79057880459E+01  0.36820925221E+02  0.00000000000E+00 0. -1.
         11    1    4    4    0    0  0.23873599396E+01  0.43889101194E+01  0.31124985172E+01  0.58863967585E+01  0.51100000000E-03 0. -1.
        -11    1    4    4    0    0 -0.16134609109E+02 -0.19757756944E+02 -0.78313114800E+01  0.26683778037E+02  0.51100000000E-03 0.  1.
        -12    1    4    4    0    0 -0.17632080571E+02 -0.21986434517E+01  0.12624601009E+02  0.21796899984E+02  0.00000000000E+00 0.  1.
</event>
<event>
 8    1  0.1271559E-006  0.9118800E+02  0.7816164E-02  0.1184000E+00
        -11   -1    0    0    0    0  0.00000000000E+00  0.00000000000E+00  0.45593999997E+02  0.45594000000E+02  0.51100000000E-03 0.  1.
         11   -1    0    0    0    0 -0.00000000000E+00 -0.00000000000E+00 -0.45593999997E+02  0.45594000000E+02  0.51100000000E-03 0. -1.
         23    2    1    2    0    0  0.00000000000E+00  0.00000000000E+00  0.00000000000E+00  0.91188000000E+02  0.91188000000E+02 0.  0.
    9900012    2    3    3    0    0  0.87556431217E+01  0.20092108242E+02 -0.29587599861E+02  0.54367079783E+02  0.39999989981E+02 0.  0.
        -12    1    3    3    0    0 -0.87556431217E+01 -0.20092108242E+02  0.29587599861E+02  0.36820920217E+02  0.00000000000E+00 0.  1.
         11    1    4    4    0    0  0.22202193046E+01  0.12664200049E+02 -0.24475520354E+02  0.27647105337E+02  0.51100000000E-03 0. -1.
        -11    1    4    4    0    0  0.93260600917E+01  0.15244752586E+02 -0.26802583945E+01  0.18071017226E+02  0.51100000000E-03 0.  1.
         12    1    4    4    0    0 -0.27906362746E+01 -0.78168443930E+01 -0.24318211128E+01  0.86489572207E+01  0.00000000000E+00 0. -1.
</event>
<event>
 8    1  0.1271559E-006  0.9118800E+02  0.7816164E-02  0.1184000E+00
        -11   -1    0    0    0    0  0.00000000000E+00  0.00000000000E+00  0.45593999997E+02  0.45594000000E+02  0.51100000000E-03 0.  1.
         11   -1    0    0    0    0 -0.00000000000E+00 -0.00000000000E+00 -0.45593999997E+02  0.45594000000E+02  0.51100000000E-03 0. -1.
         23    2    1    2    0    0 -0.88817841970E-15  0.71054273576E-14 -0.17763568394E-14  0.91188000000E+02  0.91188000000E+02 0.  0.
    9900012    2    3    3    0    0  0.51073500710E+01  0.36231121207E+02 -0.41231300455E+01  0.54367090587E+02  0.40000014610E+02 0.  0.
        -12    1    3    3    0    0 -0.51073500710E+01 -0.36231121207E+02  0.41231300455E+01  0.36820909413E+02  0.00000000000E+00 0.  1.
         11    1    4    4    0    0 -0.34322203267E+00  0.96414585291E+01 -0.10000003741E+02  0.13895164591E+02  0.51100000000E-03 0. -1.
        -11    1    4    4    0    0 -0.16993424647E+01  0.14095384119E+02 -0.11238752899E+02  0.18107379304E+02  0.51100000000E-03 0.  1.
        -12    1    4    4    0    0  0.71499145684E+01  0.12494278559E+02  0.17115626594E+02  0.22364546692E+02  0.00000000000E+00 0.  1.
</event>
<event>
 8    1  0.1271559E-006  0.9118800E+02  0.7816164E-02  0.1184000E+00
        -11   -1    0    0    0    0  0.00000000000E+00  0.00000000000E+00  0.45593999997E+02  0.45594000000E+02  0.51100000000E-03 0. -1.
         11   -1    0    0    0    0 -0.00000000000E+00 -0.00000000000E+00 -0.45593999997E+02  0.45594000000E+02  0.51100000000E-03 0.  1.
         23    2    1    2    0    0  0.00000000000E+00  0.00000000000E+00  0.00000000000E+00  0.91188000000E+02  0.91188000000E+02 0.  0.
    9900012    2    3    3    0    0 -0.16230940739E+02  0.11959931883E+02  0.30810653194E+02  0.54367085316E+02  0.40000002595E+02 0.  0.
        -12    1    3    3    0    0  0.16230940739E+02 -0.11959931883E+02 -0.30810653194E+02  0.36820914684E+02  0.00000000000E+00 0.  1.
         11    1    4    4    0    0 -0.82642393118E+01  0.11406163078E+02  0.19795086307E+02  0.24294930535E+02  0.51100000000E-03 0. -1.
        -11    1    4    4    0    0  0.29106972345E+01  0.93609303354E+01  0.12625022498E+02  0.15984066080E+02  0.51100000000E-03 0.  1.
        -12    1    4    4    0    0 -0.10877398662E+02 -0.88071615306E+01 -0.16094556105E+01  0.14088088700E+02  0.00000000000E+00 0.  1.
</event>
<event>
 8    1  0.1271559E-006  0.9118800E+02  0.7816164E-02  0.1184000E+00
        -11   -1    0    0    0    0  0.00000000000E+00  0.00000000000E+00  0.45593999997E+02  0.45594000000E+02  0.51100000000E-03 0. -1.
         11   -1    0    0    0    0 -0.00000000000E+00 -0.00000000000E+00 -0.45593999997E+02  0.45594000000E+02  0.51100000000E-03 0.  1.
         23    2    1    2    0    0  0.00000000000E+00  0.17763568394E-14  0.00000000000E+00  0.91188000000E+02  0.91188000000E+02 0.  0.
    9900012    2    3    3    0    0  0.17901744660E+02  0.11245336318E+02  0.30147108868E+02  0.54367106151E+02  0.40000050091E+02 0.  0.
        -12    1    3    3    0    0 -0.17901744660E+02 -0.11245336318E+02 -0.30147108868E+02  0.36820893849E+02  0.00000000000E+00 0.  1.
         11    1    4    4    0    0  0.52451810245E+00  0.20803185453E+01  0.14931131446E+01  0.26138537857E+01  0.51100000000E-03 0. -1.
        -11    1    4    4    0    0  0.17800809937E+01  0.22454613208E+02  0.13419687470E+02  0.26219579606E+02  0.51100000000E-03 0.  1.
        -12    1    4    4    0    0  0.15597145564E+02 -0.13289595436E+02  0.15234308254E+02  0.25533672759E+02  0.00000000000E+00 0.  1.
</event>
<event>
 8    1  0.1271559E-006  0.9118800E+02  0.7816164E-02  0.1184000E+00
        -11   -1    0    0    0    0  0.00000000000E+00  0.00000000000E+00  0.45593999997E+02  0.45594000000E+02  0.51100000000E-03 0.  1.
         11   -1    0    0    0    0 -0.00000000000E+00 -0.00000000000E+00 -0.45593999997E+02  0.45594000000E+02  0.51100000000E-03 0. -1.
         23    2    1    2    0    0 -0.71054273576E-14 -0.88817841970E-15  0.22204460493E-14  0.91188000000E+02  0.91188000000E+02 0.  0.
    9900012    2    3    3    0    0  0.35934374680E+02  0.73842981578E+01 -0.31562489797E+01  0.54367230718E+02  0.40000334067E+02 0.  0.
         12    1    3    3    0    0 -0.35934374680E+02 -0.73842981578E+01  0.31562489797E+01  0.36820769282E+02  0.00000000000E+00 0. -1.
         11    1    4    4    0    0 -0.22403967827E+01 -0.28096613092E+01 -0.33062898060E+01  0.48831472391E+01  0.51100000000E-03 0. -1.
        -11    1    4    4    0    0  0.25424614074E+02  0.50688102659E+01 -0.14246870952E+02  0.29581703307E+02  0.51100000000E-03 0.  1.
        -12    1    4    4    0    0  0.12750157388E+02  0.51251492011E+01  0.14396911779E+02  0.19902380172E+02  0.00000000000E+00 0.  1.
</event>
<event>
 8    1  0.1271559E-006  0.9118800E+02  0.7816164E-02  0.1184000E+00
        -11   -1    0    0    0    0  0.00000000000E+00  0.00000000000E+00  0.45593999997E+02  0.45594000000E+02  0.51100000000E-03 0. -1.
         11   -1    0    0    0    0 -0.00000000000E+00 -0.00000000000E+00 -0.45593999997E+02  0.45594000000E+02  0.51100000000E-03 0.  1.
         23    2    1    2    0    0 -0.44408920985E-15  0.00000000000E+00  0.00000000000E+00  0.91188000000E+02  0.91188000000E+02 0.  0.
    9900012    2    3    3    0    0 -0.11460548897E+01  0.33682046036E+02 -0.14831864953E+02  0.54367110752E+02  0.40000060582E+02 0.  0.
         12    1    3    3    0    0  0.11460548897E+01 -0.33682046036E+02  0.14831864953E+02  0.36820889248E+02  0.00000000000E+00 0. -1.
         11    1    4    4    0    0  0.74774222833E+00  0.10400661807E+02  0.56997862696E+00  0.10443072362E+02  0.51100000000E-03 0. -1.
        -11    1    4    4    0    0  0.73756725648E+01  0.28458519848E+02 -0.65945496079E+01  0.30129320976E+02  0.51100000000E-03 0.  1.
         12    1    4    4    0    0 -0.92694696828E+01 -0.51771356184E+01 -0.88072939722E+01  0.13794717414E+02  0.00000000000E+00 0. -1.
</event>
<event>
 8    1  0.1271559E-006  0.9118800E+02  0.7816164E-02  0.1184000E+00
        -11   -1    0    0    0    0  0.00000000000E+00  0.00000000000E+00  0.45593999997E+02  0.45594000000E+02  0.51100000000E-03 0.  1.
         11   -1    0    0    0    0 -0.00000000000E+00 -0.00000000000E+00 -0.45593999997E+02  0.45594000000E+02  0.51100000000E-03 0. -1.
         23    2    1    2    0    0 -0.17763568394E-14 -0.17763568394E-14  0.00000000000E+00  0.91188000000E+02  0.91188000000E+02 0.  0.
    9900012    2    3    3    0    0 -0.11047235978E+02 -0.99342066764E+01 -0.33690473334E+02  0.54367110840E+02  0.40000060783E+02 0.  0.
        -12    1    3    3    0    0  0.11047235978E+02  0.99342066764E+01  0.33690473334E+02  0.36820889160E+02  0.00000000000E+00 0.  1.
         11    1    4    4    0    0 -0.16938833514E+02 -0.23182703404E+01 -0.32606008952E+02  0.36816440325E+02  0.51100000000E-03 0. -1.
        -11    1    4    4    0    0  0.16793829047E+01 -0.49718435526E+01  0.65785384785E+01  0.84152673176E+01  0.51100000000E-03 0.  1.
        -12    1    4    4    0    0  0.42122146312E+01 -0.26440927835E+01 -0.76630028605E+01  0.91354031978E+01  0.00000000000E+00 0.  1.
</event>
<event>
 8    1  0.1271559E-006  0.9118800E+02  0.7816164E-02  0.1184000E+00
        -11   -1    0    0    0    0  0.00000000000E+00  0.00000000000E+00  0.45593999997E+02  0.45594000000E+02  0.51100000000E-03 0.  1.
         11   -1    0    0    0    0 -0.00000000000E+00 -0.00000000000E+00 -0.45593999997E+02  0.45594000000E+02  0.51100000000E-03 0. -1.
         23    2    1    2    0    0  0.88817841970E-15  0.00000000000E+00  0.00000000000E+00  0.91188000000E+02  0.91188000000E+02 0.  0.
    9900012    2    3    3    0    0  0.62784310391E+01 -0.21568343592E+01 -0.36217529416E+02  0.54367081112E+02  0.39999993012E+02 0.  0.
        -12    1    3    3    0    0 -0.62784310391E+01  0.21568343592E+01  0.36217529416E+02  0.36820918888E+02  0.00000000000E+00 0.  1.
         11    1    4    4    0    0  0.78261493176E+01 -0.12836458220E+02 -0.24749402582E+02  0.28957834885E+02  0.51100000000E-03 0.  1.
        -11    1    4    4    0    0 -0.89205938857E+01  0.10423313224E+02 -0.11696174464E+02  0.18028392918E+02  0.51100000000E-03 0. -1.
        -12    1    4    4    0    0  0.73728756073E+01  0.25631063627E+00  0.22804763022E+00  0.73808533100E+01  0.00000000000E+00 0.  1.
</event>
<event>
 8    1  0.1271559E-006  0.9118800E+02  0.7816164E-02  0.1184000E+00
        -11   -1    0    0    0    0  0.00000000000E+00  0.00000000000E+00  0.45593999997E+02  0.45594000000E+02  0.51100000000E-03 0.  1.
         11   -1    0    0    0    0 -0.00000000000E+00 -0.00000000000E+00 -0.45593999997E+02  0.45594000000E+02  0.51100000000E-03 0. -1.
         23    2    1    2    0    0 -0.71054273576E-14  0.00000000000E+00  0.13322676296E-14  0.91188000000E+02  0.91188000000E+02 0.  0.
    9900012    2    3    3    0    0  0.21445169241E+02  0.29743221775E+02 -0.33503145962E+01  0.54367093803E+02  0.40000021942E+02 0.  0.
        -12    1    3    3    0    0 -0.21445169241E+02 -0.29743221775E+02  0.33503145962E+01  0.36820906197E+02  0.00000000000E+00 0.  1.
         11    1    4    4    0    0  0.52555163633E+01  0.17739312073E+02  0.10691721597E+02  0.21368588069E+02  0.51100000000E-03 0. -1.
        -11    1    4    4    0    0  0.11320801898E+02 -0.32918186774E+01 -0.18240798387E+00  0.11791094044E+02  0.51100000000E-03 0.  1.
         12    1    4    4    0    0  0.48688509791E+01  0.15295728379E+02 -0.13859628209E+02  0.21207411690E+02  0.00000000000E+00 0. -1.
</event>
<event>
 8    1  0.1271559E-006  0.9118800E+02  0.7816164E-02  0.1184000E+00
        -11   -1    0    0    0    0  0.00000000000E+00  0.00000000000E+00  0.45593999997E+02  0.45594000000E+02  0.51100000000E-03 0.  1.
         11   -1    0    0    0    0 -0.00000000000E+00 -0.00000000000E+00 -0.45593999997E+02  0.45594000000E+02  0.51100000000E-03 0. -1.
         23    2    1    2    0    0 -0.88817841970E-15  0.00000000000E+00  0.35527136788E-14  0.91188000000E+02  0.91188000000E+02 0.  0.
    9900012    2    3    3    0    0  0.38606429927E+01 -0.18879922346E+02  0.31375573110E+02  0.54367046453E+02  0.39999913998E+02 0.  0.
         12    1    3    3    0    0 -0.38606429927E+01  0.18879922346E+02 -0.31375573110E+02  0.36820953547E+02  0.00000000000E+00 0. -1.
         11    1    4    4    0    0  0.88644548444E+01 -0.22672404062E+02  0.17175269954E+02  0.29792723338E+02  0.51100000000E-03 0. -1.
        -11    1    4    4    0    0 -0.50987888280E+01 -0.30700031347E+01  0.16336117446E+02  0.17386526399E+02  0.51100000000E-03 0.  1.
         12    1    4    4    0    0  0.94976976251E-01  0.68624848503E+01 -0.21358142897E+01  0.71877967158E+01  0.00000000000E+00 0. -1.
</event>
<event>
 8    1  0.1271559E-006  0.9118800E+02  0.7816164E-02  0.1184000E+00
        -11   -1    0    0    0    0  0.00000000000E+00  0.00000000000E+00  0.45593999997E+02  0.45594000000E+02  0.51100000000E-03 0. -1.
         11   -1    0    0    0    0 -0.00000000000E+00 -0.00000000000E+00 -0.45593999997E+02  0.45594000000E+02  0.51100000000E-03 0.  1.
         23    2    1    2    0    0 -0.22204460493E-14  0.35527136788E-14  0.00000000000E+00  0.91188000000E+02  0.91188000000E+02 0.  0.
    9900012    2    3    3    0    0 -0.18673840368E+01 -0.29781128061E+02  0.21572656795E+02  0.54367051711E+02  0.39999925984E+02 0.  0.
        -12    1    3    3    0    0  0.18673840368E+01  0.29781128061E+02 -0.21572656795E+02  0.36820948289E+02  0.00000000000E+00 0.  1.
         11    1    4    4    0    0 -0.43224957221E+01 -0.34478177660E+01  0.14290257084E+01  0.57108258029E+01  0.51100000000E-03 0. -1.
        -11    1    4    4    0    0  0.15700635360E+02 -0.25117263233E+02  0.19247249584E+02  0.35324828093E+02  0.51100000000E-03 0.  1.
        -12    1    4    4    0    0 -0.13245523675E+02 -0.12160470622E+01  0.89638150302E+00  0.13331397814E+02  0.00000000000E+00 0.  1.
</event>
<event>
 8    1  0.1271559E-006  0.9118800E+02  0.7816164E-02  0.1184000E+00
        -11   -1    0    0    0    0  0.00000000000E+00  0.00000000000E+00  0.45593999997E+02  0.45594000000E+02  0.51100000000E-03 0. -1.
         11   -1    0    0    0    0 -0.00000000000E+00 -0.00000000000E+00 -0.45593999997E+02  0.45594000000E+02  0.51100000000E-03 0.  1.
         23    2    1    2    0    0 -0.66613381478E-15  0.35527136788E-14  0.35527136788E-14  0.91188000000E+02  0.91188000000E+02 0.  0.
    9900012    2    3    3    0    0  0.31694895712E+00 -0.29919538921E+02  0.21459265434E+02  0.54367091010E+02  0.40000015576E+02 0.  0.
        -12    1    3    3    0    0 -0.31694895712E+00  0.29919538921E+02 -0.21459265434E+02  0.36820908990E+02  0.00000000000E+00 0.  1.
         11    1    4    4    0    0 -0.36781404694E+01  0.37056493537E+01  0.59691673662E+01  0.79304169974E+01  0.51100000000E-03 0. -1.
        -11    1    4    4    0    0  0.97461633555E+01 -0.16785943379E+02 -0.42397697551E+01  0.19867844451E+02  0.51100000000E-03 0.  1.
         12    1    4    4    0    0 -0.57510739290E+01 -0.16839244896E+02  0.19729867823E+02  0.26568829562E+02  0.00000000000E+00 0. -1.
</event>
<event>
 8    1  0.1271559E-006  0.9118800E+02  0.7816164E-02  0.1184000E+00
        -11   -1    0    0    0    0  0.00000000000E+00  0.00000000000E+00  0.45593999997E+02  0.45594000000E+02  0.51100000000E-03 0. -1.
         11   -1    0    0    0    0 -0.00000000000E+00 -0.00000000000E+00 -0.45593999997E+02  0.45594000000E+02  0.51100000000E-03 0.  1.
         23    2    1    2    0    0 -0.22204460493E-14  0.00000000000E+00  0.00000000000E+00  0.91188000000E+02  0.91188000000E+02 0.  0.
    9900012    2    3    3    0    0  0.78708211382E+00 -0.26430336978E+02  0.25624201644E+02  0.54367055948E+02  0.39999935644E+02 0.  0.
        -12    1    3    3    0    0 -0.78708211382E+00  0.26430336978E+02 -0.25624201644E+02  0.36820944052E+02  0.00000000000E+00 0.  1.
         11    1    4    4    0    0  0.57189640786E+01 -0.15771560781E+02  0.12948388247E+02  0.21192202293E+02  0.51100000000E-03 0. -1.
        -11    1    4    4    0    0 -0.16324263158E+02 -0.95312820013E+01  0.10133371236E+02  0.21447893069E+02  0.51100000000E-03 0.  1.
         12    1    4    4    0    0  0.11392381193E+02 -0.11274941957E+01  0.25424421608E+01  0.11726960585E+02  0.00000000000E+00 0. -1.
</event>
<event>
 8    1  0.1271559E-006  0.9118800E+02  0.7816164E-02  0.1184000E+00
        -11   -1    0    0    0    0  0.00000000000E+00  0.00000000000E+00  0.45593999997E+02  0.45594000000E+02  0.51100000000E-03 0.  1.
         11   -1    0    0    0    0 -0.00000000000E+00 -0.00000000000E+00 -0.45593999997E+02  0.45594000000E+02  0.51100000000E-03 0. -1.
         23    2    1    2    0    0  0.00000000000E+00  0.00000000000E+00  0.00000000000E+00  0.91188000000E+02  0.91188000000E+02 0.  0.
    9900012    2    3    3    0    0  0.23106757723E+02 -0.21407736111E+02  0.19067363531E+02  0.54367112315E+02  0.40000064145E+02 0.  0.
         12    1    3    3    0    0 -0.23106757723E+02  0.21407736111E+02 -0.19067363531E+02  0.36820887685E+02  0.00000000000E+00 0. -1.
         11    1    4    4    0    0 -0.92594294664E+01 -0.10458238529E+02  0.66457870600E+01  0.15468622210E+02  0.51100000000E-03 0. -1.
        -11    1    4    4    0    0  0.85734352440E+01 -0.95284813751E+01  0.63382881529E+01  0.14299288310E+02  0.51100000000E-03 0.  1.
        -12    1    4    4    0    0  0.23792751945E+02 -0.14210162062E+01  0.60832883185E+01  0.24599201795E+02  0.00000000000E+00 0.  1.
</event>
<event>
 8    1  0.1271559E-006  0.9118800E+02  0.7816164E-02  0.1184000E+00
        -11   -1    0    0    0    0  0.00000000000E+00  0.00000000000E+00  0.45593999997E+02  0.45594000000E+02  0.51100000000E-03 0. -1.
         11   -1    0    0    0    0 -0.00000000000E+00 -0.00000000000E+00 -0.45593999997E+02  0.45594000000E+02  0.51100000000E-03 0.  1.
         23    2    1    2    0    0 -0.35527136788E-14  0.35527136788E-14 -0.13045120539E-14  0.91188000000E+02  0.91188000000E+02 0.  0.
    9900012    2    3    3    0    0 -0.25082121539E+02 -0.26956506803E+02  0.11792544293E+00  0.54367082217E+02  0.39999995531E+02 0.  0.
        -12    1    3    3    0    0  0.25082121539E+02  0.26956506803E+02 -0.11792544293E+00  0.36820917783E+02  0.00000000000E+00 0.  1.
         11    1    4    4    0    0 -0.43204398494E+01 -0.41668171341E+01  0.13882813813E+02  0.15124849921E+02  0.51100000000E-03 0.  1.
        -11    1    4    4    0    0 -0.29184923293E+01 -0.12617238262E+02 -0.13491613446E+02  0.18701228100E+02  0.51100000000E-03 0. -1.
        -12    1    4    4    0    0 -0.17843189360E+02 -0.10172451408E+02 -0.27327492425E+00  0.20541004196E+02  0.00000000000E+00 0.  1.
</event>
<event>
 8    1  0.1271559E-006  0.9118800E+02  0.7816164E-02  0.1184000E+00
        -11   -1    0    0    0    0  0.00000000000E+00  0.00000000000E+00  0.45593999997E+02  0.45594000000E+02  0.51100000000E-03 0. -1.
         11   -1    0    0    0    0 -0.00000000000E+00 -0.00000000000E+00 -0.45593999997E+02  0.45594000000E+02  0.51100000000E-03 0.  1.
         23    2    1    2    0    0 -0.17763568394E-14 -0.35527136788E-14  0.35527136788E-14  0.91188000000E+02  0.91188000000E+02 0.  0.
    9900012    2    3    3    0    0  0.14450352834E+02  0.15105895569E+02  0.30311374691E+02  0.54367079131E+02  0.39999988495E+02 0.  0.
        -12    1    3    3    0    0 -0.14450352834E+02 -0.15105895569E+02 -0.30311374691E+02  0.36820920869E+02  0.00000000000E+00 0.  1.
         11    1    4    4    0    0  0.63277941116E+01  0.23194601544E+02  0.29031933071E+02  0.37694610453E+02  0.51100000000E-03 0. -1.
        -11    1    4    4    0    0 -0.21723412618E+01 -0.48992226205E+01 -0.14552041820E+01  0.55532934657E+01  0.51100000000E-03 0.  1.
        -12    1    4    4    0    0  0.10294899984E+02 -0.31894833540E+01  0.27346458025E+01  0.11119175213E+02  0.00000000000E+00 0.  1.
</event>
<event>
 8    1  0.1271559E-006  0.9118800E+02  0.7816164E-02  0.1184000E+00
        -11   -1    0    0    0    0  0.00000000000E+00  0.00000000000E+00  0.45593999997E+02  0.45594000000E+02  0.51100000000E-03 0.  1.
         11   -1    0    0    0    0 -0.00000000000E+00 -0.00000000000E+00 -0.45593999997E+02  0.45594000000E+02  0.51100000000E-03 0. -1.
         23    2    1    2    0    0  0.71054273576E-14 -0.17763568394E-14  0.00000000000E+00  0.91188000000E+02  0.91188000000E+02 0.  0.
    9900012    2    3    3    0    0  0.30703458878E+02  0.11275154384E+02 -0.16909942273E+02  0.54367114064E+02  0.40000068131E+02 0.  0.
        -12    1    3    3    0    0 -0.30703458878E+02 -0.11275154384E+02  0.16909942273E+02  0.36820885936E+02  0.00000000000E+00 0.  1.
         11    1    4    4    0    0  0.13210593003E+02 -0.76536504339E+01 -0.74689183322E+01  0.16996554762E+02  0.51100000000E-03 0. -1.
        -11    1    4    4    0    0  0.18590163506E+02  0.12259277274E+02  0.37183709779E+01  0.22576765523E+02  0.51100000000E-03 0.  1.
        -12    1    4    4    0    0 -0.10972976315E+01  0.66695275434E+01 -0.13159394919E+02  0.14793793779E+02  0.00000000000E+00 0.  1.
</event>
<event>
 8    1  0.1271559E-006  0.9118800E+02  0.7816164E-02  0.1184000E+00
        -11   -1    0    0    0    0  0.00000000000E+00  0.00000000000E+00  0.45593999997E+02  0.45594000000E+02  0.51100000000E-03 0.  1.
         11   -1    0    0    0    0 -0.00000000000E+00 -0.00000000000E+00 -0.45593999997E+02  0.45594000000E+02  0.51100000000E-03 0. -1.
         23    2    1    2    0    0 -0.17763568394E-14  0.00000000000E+00 -0.35527136788E-14  0.91188000000E+02  0.91188000000E+02 0.  0.
    9900012    2    3    3    0    0 -0.14823872379E+02  0.20950621275E+02  0.26402731539E+02  0.54367082618E+02  0.39999996445E+02 0.  0.
         12    1    3    3    0    0  0.14823872379E+02 -0.20950621275E+02 -0.26402731539E+02  0.36820917382E+02  0.00000000000E+00 0. -1.
         11    1    4    4    0    0 -0.71014900210E+01 -0.74442219983E+01  0.12843613355E+02  0.16456184429E+02  0.51100000000E-03 0. -1.
        -11    1    4    4    0    0 -0.13293032176E+02  0.24625452683E+02  0.13754864563E+02  0.31181948683E+02  0.51100000000E-03 0.  1.
         12    1    4    4    0    0  0.55706498182E+01  0.37693905898E+01 -0.19574637839E+00  0.67289495064E+01  0.00000000000E+00 0. -1.
</event>
<event>
 8    1  0.1271559E-006  0.9118800E+02  0.7816164E-02  0.1184000E+00
        -11   -1    0    0    0    0  0.00000000000E+00  0.00000000000E+00  0.45593999997E+02  0.45594000000E+02  0.51100000000E-03 0. -1.
         11   -1    0    0    0    0 -0.00000000000E+00 -0.00000000000E+00 -0.45593999997E+02  0.45594000000E+02  0.51100000000E-03 0.  1.
         23    2    1    2    0    0  0.00000000000E+00  0.00000000000E+00 -0.44408920985E-15  0.91188000000E+02  0.91188000000E+02 0.  0.
    9900012    2    3    3    0    0 -0.25292582996E+02 -0.26626176065E+02 -0.26666059220E+01  0.54367098414E+02  0.40000032455E+02 0.  0.
         12    1    3    3    0    0  0.25292582996E+02  0.26626176065E+02  0.26666059220E+01  0.36820901586E+02  0.00000000000E+00 0. -1.
         11    1    4    4    0    0  0.25689428651E+00 -0.22064493045E+01  0.25333989426E+01  0.33693506305E+01  0.51100000000E-03 0. -1.
        -11    1    4    4    0    0 -0.12455656462E+02 -0.29930952461E+02 -0.12837578696E+02  0.34868448777E+02  0.51100000000E-03 0.  1.
        -12    1    4    4    0    0 -0.13093820821E+02  0.55112257000E+01  0.76375738318E+01  0.16129299006E+02  0.00000000000E+00 0.  1.
</event>
<event>
 8    1  0.1271559E-006  0.9118800E+02  0.7816164E-02  0.1184000E+00
        -11   -1    0    0    0    0  0.00000000000E+00  0.00000000000E+00  0.45593999997E+02  0.45594000000E+02  0.51100000000E-03 0.  1.
         11   -1    0    0    0    0 -0.00000000000E+00 -0.00000000000E+00 -0.45593999997E+02  0.45594000000E+02  0.51100000000E-03 0. -1.
         23    2    1    2    0    0 -0.17763568394E-14 -0.88817841970E-15  0.00000000000E+00  0.91188000000E+02  0.91188000000E+02 0.  0.
    9900012    2    3    3    0    0 -0.11642585872E+02  0.56997554969E+01 -0.34463737322E+02  0.54366997722E+02  0.39999802907E+02 0.  0.
        -12    1    3    3    0    0  0.11642585872E+02 -0.56997554969E+01  0.34463737322E+02  0.36821002278E+02  0.00000000000E+00 0.  1.
         11    1    4    4    0    0 -0.99494902294E+01 -0.48189272328E+01 -0.25232416985E+02  0.27547945162E+02  0.51100000000E-03 0. -1.
        -11    1    4    4    0    0 -0.94129487277E+01  0.13716645940E+01 -0.11194097616E+02  0.14689890715E+02  0.51100000000E-03 0.  1.
        -12    1    4    4    0    0  0.77198530849E+01  0.91470181358E+01  0.19627772784E+01  0.12129161845E+02  0.00000000000E+00 0.  1.
</event>
<event>
 8    1  0.1271559E-006  0.9118800E+02  0.7816164E-02  0.1184000E+00
        -11   -1    0    0    0    0  0.00000000000E+00  0.00000000000E+00  0.45593999997E+02  0.45594000000E+02  0.51100000000E-03 0.  1.
         11   -1    0    0    0    0 -0.00000000000E+00 -0.00000000000E+00 -0.45593999997E+02  0.45594000000E+02  0.51100000000E-03 0. -1.
         23    2    1    2    0    0 -0.35527136788E-14  0.00000000000E+00  0.00000000000E+00  0.91188000000E+02  0.91188000000E+02 0.  0.
    9900012    2    3    3    0    0  0.16667165275E+02 -0.11188009109E+02  0.30867775469E+02  0.54367007231E+02  0.39999824583E+02 0.  0.
         12    1    3    3    0    0 -0.16667165275E+02  0.11188009109E+02 -0.30867775469E+02  0.36820992769E+02  0.00000000000E+00 0. -1.
         11    1    4    4    0    0  0.48993516867E+01  0.64877092913E+01 -0.34833752981E+01  0.88446550260E+01  0.51100000000E-03 0. -1.
        -11    1    4    4    0    0  0.10018800151E+02 -0.20119964234E+02  0.17719047798E+02  0.28620866031E+02  0.51100000000E-03 0.  1.
         12    1    4    4    0    0  0.17490134372E+01  0.24442458336E+01  0.16632102969E+02  0.16901486174E+02  0.00000000000E+00 0. -1.
</event>
<event>
 8    1  0.1271559E-006  0.9118800E+02  0.7816164E-02  0.1184000E+00
        -11   -1    0    0    0    0  0.00000000000E+00  0.00000000000E+00  0.45593999997E+02  0.45594000000E+02  0.51100000000E-03 0. -1.
         11   -1    0    0    0    0 -0.00000000000E+00 -0.00000000000E+00 -0.45593999997E+02  0.45594000000E+02  0.51100000000E-03 0.  1.
         23    2    1    2    0    0  0.00000000000E+00  0.00000000000E+00  0.00000000000E+00  0.91188000000E+02  0.91188000000E+02 0.  0.
    9900012    2    3    3    0    0  0.80281191806E+00  0.14487408847E+02 -0.33841590225E+02  0.54367044675E+02  0.39999909945E+02 0.  0.
         12    1    3    3    0    0 -0.80281191806E+00 -0.14487408847E+02  0.33841590225E+02  0.36820955325E+02  0.00000000000E+00 0. -1.
         11    1    4    4    0    0 -0.34381616970E+00  0.11992166969E+02  0.66404823318E+01  0.13712267648E+02  0.51100000000E-03 0. -1.
        -11    1    4    4    0    0 -0.34887146460E+00  0.18057480191E+01 -0.13811532332E+02  0.13933444040E+02  0.51100000000E-03 0.  1.
         12    1    4    4    0    0  0.14954995524E+01  0.68949385870E+00 -0.26670540225E+02  0.26721332987E+02  0.00000000000E+00 0. -1.
</event>
<event>
 8    1  0.1271559E-006  0.9118800E+02  0.7816164E-02  0.1184000E+00
        -11   -1    0    0    0    0  0.00000000000E+00  0.00000000000E+00  0.45593999997E+02  0.45594000000E+02  0.51100000000E-03 0.  1.
         11   -1    0    0    0    0 -0.00000000000E+00 -0.00000000000E+00 -0.45593999997E+02  0.45594000000E+02  0.51100000000E-03 0. -1.
         23    2    1    2    0    0 -0.22204460493E-14  0.00000000000E+00 -0.71054273576E-14  0.91188000000E+02  0.91188000000E+02 0.  0.
    9900012    2    3    3    0    0 -0.20994021484E+01 -0.13957083587E+02  0.34008412533E+02  0.54367084821E+02  0.40000001466E+02 0.  0.
         12    1    3    3    0    0  0.20994021484E+01  0.13957083587E+02 -0.34008412533E+02  0.36820915179E+02  0.00000000000E+00 0. -1.
         11    1    4    4    0    0  0.31718229160E+01  0.57989336235E+00  0.17642244391E+02  0.17934478646E+02  0.51100000000E-03 0. -1.
        -11    1    4    4    0    0  0.83645900151E+01 -0.16691000691E+02  0.10626541551E+02  0.21482068238E+02  0.51100000000E-03 0.  1.
        -12    1    4    4    0    0 -0.13635815080E+02  0.21540237421E+01  0.57396265910E+01  0.14950537936E+02  0.00000000000E+00 0.  1.
</event>
<event>
 8    1  0.1271559E-006  0.9118800E+02  0.7816164E-02  0.1184000E+00
        -11   -1    0    0    0    0  0.00000000000E+00  0.00000000000E+00  0.45593999997E+02  0.45594000000E+02  0.51100000000E-03 0. -1.
         11   -1    0    0    0    0 -0.00000000000E+00 -0.00000000000E+00 -0.45593999997E+02  0.45594000000E+02  0.51100000000E-03 0.  1.
         23    2    1    2    0    0  0.71054273576E-14  0.00000000000E+00  0.88817841970E-15  0.91188000000E+02  0.91188000000E+02 0.  0.
    9900012    2    3    3    0    0 -0.30584516488E+02 -0.19779387338E+02 -0.53985165192E+01  0.54367071265E+02  0.39999970564E+02 0.  0.
        -12    1    3    3    0    0  0.30584516488E+02  0.19779387338E+02  0.53985165192E+01  0.36820928735E+02  0.00000000000E+00 0.  1.
         11    1    4    4    0    0  0.67289064425E+01  0.18339373476E+01  0.17416086330E+01  0.71885122939E+01  0.51100000000E-03 0.  1.
        -11    1    4    4    0    0 -0.20877308541E+02 -0.21632501935E+02 -0.63273763752E+01  0.30722350885E+02  0.51100000000E-03 0. -1.
        -12    1    4    4    0    0 -0.16436114390E+02  0.19177249239E-01 -0.81274877697E+00  0.16456208086E+02  0.00000000000E+00 0.  1.
</event>
<event>
 8    1  0.1271559E-006  0.9118800E+02  0.7816164E-02  0.1184000E+00
        -11   -1    0    0    0    0  0.00000000000E+00  0.00000000000E+00  0.45593999997E+02  0.45594000000E+02  0.51100000000E-03 0. -1.
         11   -1    0    0    0    0 -0.00000000000E+00 -0.00000000000E+00 -0.45593999997E+02  0.45594000000E+02  0.51100000000E-03 0.  1.
         23    2    1    2    0    0  0.35527136788E-14  0.35527136788E-14  0.00000000000E+00  0.91188000000E+02  0.91188000000E+02 0.  0.
    9900012    2    3    3    0    0  0.26078706903E+02 -0.23690612232E+02 -0.10697687323E+02  0.54367019897E+02  0.39999853459E+02 0.  0.
        -12    1    3    3    0    0 -0.26078706903E+02  0.23690612232E+02  0.10697687323E+02  0.36820980103E+02  0.00000000000E+00 0.  1.
         11    1    4    4    0    0  0.11269641819E+02 -0.15645658665E+02  0.41666992555E+01  0.19726957311E+02  0.51100000000E-03 0. -1.
        -11    1    4    4    0    0 -0.31089559634E+01  0.63177070242E+01 -0.80317798252E+01  0.10681222620E+02  0.51100000000E-03 0.  1.
        -12    1    4    4    0    0  0.17918021047E+02 -0.14362660591E+02 -0.68326067535E+01  0.23958839967E+02  0.00000000000E+00 0.  1.
</event>
<event>
 8    1  0.1271559E-006  0.9118800E+02  0.7816164E-02  0.1184000E+00
        -11   -1    0    0    0    0  0.00000000000E+00  0.00000000000E+00  0.45593999997E+02  0.45594000000E+02  0.51100000000E-03 0.  1.
         11   -1    0    0    0    0 -0.00000000000E+00 -0.00000000000E+00 -0.45593999997E+02  0.45594000000E+02  0.51100000000E-03 0. -1.
         23    2    1    2    0    0  0.00000000000E+00  0.17763568394E-14  0.00000000000E+00  0.91188000000E+02  0.91188000000E+02 0.  0.
    9900012    2    3    3    0    0 -0.33863001770E+02  0.12361972940E+02  0.75007869107E+01  0.54367040369E+02  0.39999900130E+02 0.  0.
        -12    1    3    3    0    0  0.33863001770E+02 -0.12361972940E+02 -0.75007869107E+01  0.36820959631E+02  0.00000000000E+00 0.  1.
         11    1    4    4    0    0 -0.15159216317E+02  0.95539860606E+01  0.51187599908E+01  0.18635508930E+02  0.51100000000E-03 0. -1.
        -11    1    4    4    0    0  0.56283453347E+01  0.71842333838E+00  0.88090975658E+01  0.10478292012E+02  0.51100000000E-03 0.  1.
         12    1    4    4    0    0 -0.24332130788E+02  0.20895635413E+01 -0.64270706459E+01  0.25253239427E+02  0.00000000000E+00 0. -1.
</event>
<event>
 8    1  0.1271559E-006  0.9118800E+02  0.7816164E-02  0.1184000E+00
        -11   -1    0    0    0    0  0.00000000000E+00  0.00000000000E+00  0.45593999997E+02  0.45594000000E+02  0.51100000000E-03 0.  1.
         11   -1    0    0    0    0 -0.00000000000E+00 -0.00000000000E+00 -0.45593999997E+02  0.45594000000E+02  0.51100000000E-03 0. -1.
         23    2    1    2    0    0  0.00000000000E+00 -0.35527136788E-14  0.35527136788E-14  0.91188000000E+02  0.91188000000E+02 0.  0.
    9900012    2    3    3    0    0 -0.10931166468E+02 -0.23596218066E+02 -0.26067372782E+02  0.54367084325E+02  0.40000000336E+02 0.  0.
        -12    1    3    3    0    0  0.10931166468E+02  0.23596218066E+02  0.26067372782E+02  0.36820915675E+02  0.00000000000E+00 0.  1.
         11    1    4    4    0    0 -0.64142280868E+01  0.33333073595E+00 -0.17138714124E+02  0.18302703446E+02  0.51100000000E-03 0. -1.
        -11    1    4    4    0    0 -0.69926749876E+01 -0.24883821771E+02  0.92053848133E+00  0.25864057701E+02  0.51100000000E-03 0.  1.
         12    1    4    4    0    0  0.24757366062E+01  0.95427296901E+00 -0.98491971395E+01  0.10200323178E+02  0.00000000000E+00 0. -1.
</event>
<event>
 8    1  0.1271559E-006  0.9118800E+02  0.7816164E-02  0.1184000E+00
        -11   -1    0    0    0    0  0.00000000000E+00  0.00000000000E+00  0.45593999997E+02  0.45594000000E+02  0.51100000000E-03 0.  1.
         11   -1    0    0    0    0 -0.00000000000E+00 -0.00000000000E+00 -0.45593999997E+02  0.45594000000E+02  0.51100000000E-03 0. -1.
         23    2    1    2    0    0  0.00000000000E+00  0.00000000000E+00  0.00000000000E+00  0.91188000000E+02  0.91188000000E+02 0.  0.
    9900012    2    3    3    0    0 -0.19204420472E+02 -0.83473445582E+01 -0.30286824999E+02  0.54367086169E+02  0.40000004540E+02 0.  0.
        -12    1    3    3    0    0  0.19204420472E+02  0.83473445582E+01  0.30286824999E+02  0.36820913831E+02  0.00000000000E+00 0.  1.
         11    1    4    4    0    0 -0.10325302556E+02 -0.26028682758E+00 -0.18225504633E+02  0.20948714555E+02  0.51100000000E-03 0. -1.
        -11    1    4    4    0    0  0.13830985182E+01 -0.12569939095E+02 -0.16992908106E+02  0.21181955918E+02  0.51100000000E-03 0.  1.
        -12    1    4    4    0    0 -0.10262216434E+02  0.44828813640E+01  0.49315877400E+01  0.12236415697E+02  0.00000000000E+00 0.  1.
</event>
<event>
 8    1  0.1271559E-006  0.9118800E+02  0.7816164E-02  0.1184000E+00
        -11   -1    0    0    0    0  0.00000000000E+00  0.00000000000E+00  0.45593999997E+02  0.45594000000E+02  0.51100000000E-03 0. -1.
         11   -1    0    0    0    0 -0.00000000000E+00 -0.00000000000E+00 -0.45593999997E+02  0.45594000000E+02  0.51100000000E-03 0.  1.
         23    2    1    2    0    0 -0.17763568394E-14  0.00000000000E+00  0.00000000000E+00  0.91188000000E+02  0.91188000000E+02 0.  0.
    9900012    2    3    3    0    0  0.10108486086E+02  0.82720440125E+01  0.34426309527E+02  0.54367095737E+02  0.40000026351E+02 0.  0.
        -12    1    3    3    0    0 -0.10108486086E+02 -0.82720440125E+01 -0.34426309527E+02  0.36820904263E+02  0.00000000000E+00 0.  1.
         11    1    4    4    0    0 -0.69203496995E+01 -0.34279860588E+01  0.12631418570E+02  0.14805237713E+02  0.51100000000E-03 0. -1.
        -11    1    4    4    0    0  0.19361078215E+02  0.17911675801E+02  0.17719710388E+02  0.31775267365E+02  0.51100000000E-03 0.  1.
        -12    1    4    4    0    0 -0.23322424294E+01 -0.62116457294E+01  0.40751805697E+01  0.77865906591E+01  0.00000000000E+00 0.  1.
</event>
<event>
 8    1  0.1271559E-006  0.9118800E+02  0.7816164E-02  0.1184000E+00
        -11   -1    0    0    0    0  0.00000000000E+00  0.00000000000E+00  0.45593999997E+02  0.45594000000E+02  0.51100000000E-03 0.  1.
         11   -1    0    0    0    0 -0.00000000000E+00 -0.00000000000E+00 -0.45593999997E+02  0.45594000000E+02  0.51100000000E-03 0. -1.
         23    2    1    2    0    0  0.35527136788E-14 -0.35527136788E-14 -0.35527136788E-14  0.91188000000E+02  0.91188000000E+02 0.  0.
    9900012    2    3    3    0    0 -0.12670998727E+02 -0.15466917054E+02  0.30919234761E+02  0.54367098190E+02  0.40000031944E+02 0.  0.
         12    1    3    3    0    0  0.12670998727E+02  0.15466917054E+02 -0.30919234761E+02  0.36820901810E+02  0.00000000000E+00 0. -1.
         11    1    4    4    0    0 -0.17095783368E+01  0.15449439609E+01 -0.20906807701E+01  0.31113431626E+01  0.51100000000E-03 0. -1.
        -11    1    4    4    0    0 -0.18840594243E+02 -0.16113461096E+02  0.35176544549E+02  0.43034880116E+02  0.51100000000E-03 0.  1.
         12    1    4    4    0    0  0.78791738525E+01 -0.89839991800E+00 -0.21666290178E+01  0.82208749115E+01  0.00000000000E+00 0. -1.
</event>
<event>
 8    1  0.1271559E-006  0.9118800E+02  0.7816164E-02  0.1184000E+00
        -11   -1    0    0    0    0  0.00000000000E+00  0.00000000000E+00  0.45593999997E+02  0.45594000000E+02  0.51100000000E-03 0.  1.
         11   -1    0    0    0    0 -0.00000000000E+00 -0.00000000000E+00 -0.45593999997E+02  0.45594000000E+02  0.51100000000E-03 0. -1.
         23    2    1    2    0    0  0.00000000000E+00  0.00000000000E+00  0.00000000000E+00  0.91188000000E+02  0.91188000000E+02 0.  0.
    9900012    2    3    3    0    0 -0.12677031022E+01  0.50721476246E+01 -0.36447855318E+02  0.54367083255E+02  0.39999997896E+02 0.  0.
        -12    1    3    3    0    0  0.12677031022E+01 -0.50721476246E+01  0.36447855318E+02  0.36820916745E+02  0.00000000000E+00 0.  1.
         11    1    4    4    0    0  0.98422451106E+00 -0.40444530720E+01 -0.26916292252E+01  0.49569311763E+01  0.51100000000E-03 0. -1.
        -11    1    4    4    0    0 -0.10540155578E+01 -0.12521718941E+02 -0.52917658551E+01  0.13634778332E+02  0.51100000000E-03 0.  1.
         12    1    4    4    0    0 -0.11979120555E+01  0.21638319638E+02 -0.28464460238E+02  0.35775373746E+02  0.00000000000E+00 0. -1.
</event>
<event>
 8    1  0.1271559E-006  0.9118800E+02  0.7816164E-02  0.1184000E+00
        -11   -1    0    0    0    0  0.00000000000E+00  0.00000000000E+00  0.45593999997E+02  0.45594000000E+02  0.51100000000E-03 0.  1.
         11   -1    0    0    0    0 -0.00000000000E+00 -0.00000000000E+00 -0.45593999997E+02  0.45594000000E+02  0.51100000000E-03 0. -1.
         23    2    1    2    0    0 -0.17763568394E-14  0.00000000000E+00  0.00000000000E+00  0.91188000000E+02  0.91188000000E+02 0.  0.
    9900012    2    3    3    0    0  0.15208562962E+02 -0.38602690376E+01  0.33310350808E+02  0.54367061183E+02  0.39999947579E+02 0.  0.
         12    1    3    3    0    0 -0.15208562962E+02  0.38602690376E+01 -0.33310350808E+02  0.36820938817E+02  0.00000000000E+00 0. -1.
         11    1    4    4    0    0  0.83949320161E+01 -0.10973294176E+02 -0.38103667761E+00  0.13821478135E+02  0.51100000000E-03 0. -1.
        -11    1    4    4    0    0  0.13337500240E+02  0.79802554297E+01  0.19779678734E+02  0.25155696780E+02  0.51100000000E-03 0.  1.
         12    1    4    4    0    0 -0.65238692948E+01 -0.86723029138E+00  0.13911708752E+02  0.15389886268E+02  0.00000000000E+00 0. -1.
</event>
<event>
 8    1  0.1271559E-006  0.9118800E+02  0.7816164E-02  0.1184000E+00
        -11   -1    0    0    0    0  0.00000000000E+00  0.00000000000E+00  0.45593999997E+02  0.45594000000E+02  0.51100000000E-03 0.  1.
         11   -1    0    0    0    0 -0.00000000000E+00 -0.00000000000E+00 -0.45593999997E+02  0.45594000000E+02  0.51100000000E-03 0. -1.
         23    2    1    2    0    0  0.35527136788E-14  0.00000000000E+00  0.17763568394E-14  0.91188000000E+02  0.91188000000E+02 0.  0.
    9900012    2    3    3    0    0  0.22852533314E+02  0.28737747539E+02  0.27716513043E+01  0.54367102897E+02  0.40000042675E+02 0.  0.
        -12    1    3    3    0    0 -0.22852533314E+02 -0.28737747539E+02 -0.27716513043E+01  0.36820897103E+02  0.00000000000E+00 0.  1.
         11    1    4    4    0    0  0.43784470837E+01  0.95527913632E+01  0.69737362099E+01  0.12611884026E+02  0.51100000000E-03 0. -1.
        -11    1    4    4    0    0  0.23927120370E+02  0.22057158180E+02 -0.92023216993E+01  0.33818752802E+02  0.51100000000E-03 0.  1.
        -12    1    4    4    0    0 -0.54530341395E+01 -0.28722020037E+01  0.50002367937E+01  0.79364660693E+01  0.00000000000E+00 0.  1.
</event>
<event>
 8    1  0.1271559E-006  0.9118800E+02  0.7816164E-02  0.1184000E+00
        -11   -1    0    0    0    0  0.00000000000E+00  0.00000000000E+00  0.45593999997E+02  0.45594000000E+02  0.51100000000E-03 0.  1.
         11   -1    0    0    0    0 -0.00000000000E+00 -0.00000000000E+00 -0.45593999997E+02  0.45594000000E+02  0.51100000000E-03 0. -1.
         23    2    1    2    0    0  0.00000000000E+00  0.35527136788E-14  0.00000000000E+00  0.91188000000E+02  0.91188000000E+02 0.  0.
    9900012    2    3    3    0    0 -0.91124474804E+01 -0.20741278166E+02 -0.29026585366E+02  0.54367082344E+02  0.39999995820E+02 0.  0.
        -12    1    3    3    0    0  0.91124474804E+01  0.20741278166E+02  0.29026585366E+02  0.36820917656E+02  0.00000000000E+00 0.  1.
         11    1    4    4    0    0 -0.10568681341E+02 -0.89501816526E+01 -0.51345021484E+01  0.14770439718E+02  0.51100000000E-03 0. -1.
        -11    1    4    4    0    0 -0.12913223142E+02 -0.10220776451E+02 -0.16688478759E+02  0.23446128181E+02  0.51100000000E-03 0.  1.
        -12    1    4    4    0    0  0.14369457002E+02 -0.15703200623E+01 -0.72036044586E+01  0.16150514445E+02  0.00000000000E+00 0.  1.
</event>
<event>
 8    1  0.1271559E-006  0.9118800E+02  0.7816164E-02  0.1184000E+00
        -11   -1    0    0    0    0  0.00000000000E+00  0.00000000000E+00  0.45593999997E+02  0.45594000000E+02  0.51100000000E-03 0.  1.
         11   -1    0    0    0    0 -0.00000000000E+00 -0.00000000000E+00 -0.45593999997E+02  0.45594000000E+02  0.51100000000E-03 0. -1.
         23    2    1    2    0    0  0.44408920985E-15  0.15543122345E-14  0.00000000000E+00  0.91188000000E+02  0.91188000000E+02 0.  0.
    9900012    2    3    3    0    0 -0.36098086580E+01 -0.19720835890E+01 -0.36590436385E+02  0.54367083837E+02  0.39999999223E+02 0.  0.
        -12    1    3    3    0    0  0.36098086580E+01  0.19720835890E+01  0.36590436385E+02  0.36820916163E+02  0.00000000000E+00 0.  1.
         11    1    4    4    0    0  0.75250254751E+01  0.16858223712E+01 -0.17783980183E+01  0.79139563583E+01  0.51100000000E-03 0.  1.
        -11    1    4    4    0    0 -0.96633336411E+01  0.11583500570E+02 -0.13735400334E+02  0.20401439290E+02  0.51100000000E-03 0. -1.
         12    1    4    4    0    0 -0.14715004920E+01 -0.15241406530E+02 -0.21076638032E+02  0.26051688188E+02  0.00000000000E+00 0. -1.
</event>
<event>
 8    1  0.1271559E-006  0.9118800E+02  0.7816164E-02  0.1184000E+00
        -11   -1    0    0    0    0  0.00000000000E+00  0.00000000000E+00  0.45593999997E+02  0.45594000000E+02  0.51100000000E-03 0.  1.
         11   -1    0    0    0    0 -0.00000000000E+00 -0.00000000000E+00 -0.45593999997E+02  0.45594000000E+02  0.51100000000E-03 0. -1.
         23    2    1    2    0    0 -0.17763568394E-14  0.00000000000E+00  0.35527136788E-14  0.91188000000E+02  0.91188000000E+02 0.  0.
    9900012    2    3    3    0    0 -0.14095162817E+02 -0.29598485142E+02 -0.16764532200E+02  0.54366899019E+02  0.39999577892E+02 0.  0.
        -12    1    3    3    0    0  0.14095162817E+02  0.29598485142E+02  0.16764532200E+02  0.36821100981E+02  0.00000000000E+00 0.  1.
         11    1    4    4    0    0 -0.90041683112E+01 -0.19598455289E+02  0.23561737069E+01  0.21696222055E+02  0.51100000000E-03 0. -1.
        -11    1    4    4    0    0  0.60068751996E+01  0.32870941799E+01 -0.12271954914E+02  0.14053057158E+02  0.51100000000E-03 0.  1.
         12    1    4    4    0    0 -0.11097869706E+02 -0.13287124033E+02 -0.68487509929E+01  0.18617619806E+02  0.00000000000E+00 0. -1.
</event>
<event>
 8    1  0.1271559E-006  0.9118800E+02  0.7816164E-02  0.1184000E+00
        -11   -1    0    0    0    0  0.00000000000E+00  0.00000000000E+00  0.45593999997E+02  0.45594000000E+02  0.51100000000E-03 0.  1.
         11   -1    0    0    0    0 -0.00000000000E+00 -0.00000000000E+00 -0.45593999997E+02  0.45594000000E+02  0.51100000000E-03 0. -1.
         23    2    1    2    0    0 -0.35527136788E-14  0.00000000000E+00  0.40245584643E-15  0.91188000000E+02  0.91188000000E+02 0.  0.
    9900012    2    3    3    0    0 -0.31293108106E+02  0.19403858484E+02  0.10887736900E+00  0.54367079407E+02  0.39999989125E+02 0.  0.
        -12    1    3    3    0    0  0.31293108106E+02 -0.19403858484E+02 -0.10887736900E+00  0.36820920593E+02  0.00000000000E+00 0.  1.
         11    1    4    4    0    0 -0.34754749050E+02  0.10878097117E+02 -0.18146514532E+01  0.36462563521E+02  0.51100000000E-03 0. -1.
        -11    1    4    4    0    0 -0.13342146798E+01 -0.15328092062E+01 -0.45740481796E+01  0.50051523338E+01  0.51100000000E-03 0.  1.
        -12    1    4    4    0    0  0.47958556236E+01  0.10058570574E+02  0.64975770018E+01  0.12899363552E+02  0.00000000000E+00 0.  1.
</event>
<event>
 8    1  0.1271559E-006  0.9118800E+02  0.7816164E-02  0.1184000E+00
        -11   -1    0    0    0    0  0.00000000000E+00  0.00000000000E+00  0.45593999997E+02  0.45594000000E+02  0.51100000000E-03 0.  1.
         11   -1    0    0    0    0 -0.00000000000E+00 -0.00000000000E+00 -0.45593999997E+02  0.45594000000E+02  0.51100000000E-03 0. -1.
         23    2    1    2    0    0  0.35527136788E-14  0.00000000000E+00  0.00000000000E+00  0.91188000000E+02  0.91188000000E+02 0.  0.
    9900012    2    3    3    0    0  0.31113351694E+02  0.17666188820E+02 -0.86974181974E+01  0.54367082516E+02  0.39999996212E+02 0.  0.
        -12    1    3    3    0    0 -0.31113351694E+02 -0.17666188820E+02  0.86974181974E+01  0.36820917484E+02  0.00000000000E+00 0.  1.
         11    1    4    4    0    0  0.28243964701E+02  0.12589304067E+02 -0.76810602878E+01  0.31862372892E+02  0.51100000000E-03 0. -1.
        -11    1    4    4    0    0  0.38869227447E+01  0.13342062509E+02 -0.22777233197E+01  0.14082145582E+02  0.51100000000E-03 0.  1.
        -12    1    4    4    0    0 -0.10175357515E+01 -0.82651777561E+01  0.12613654101E+01  0.84225640421E+01  0.00000000000E+00 0.  1.
</event>
<event>
 8    1  0.1271559E-006  0.9118800E+02  0.7816164E-02  0.1184000E+00
        -11   -1    0    0    0    0  0.00000000000E+00  0.00000000000E+00  0.45593999997E+02  0.45594000000E+02  0.51100000000E-03 0.  1.
         11   -1    0    0    0    0 -0.00000000000E+00 -0.00000000000E+00 -0.45593999997E+02  0.45594000000E+02  0.51100000000E-03 0. -1.
         23    2    1    2    0    0  0.00000000000E+00  0.00000000000E+00  0.00000000000E+00  0.91188000000E+02  0.91188000000E+02 0.  0.
    9900012    2    3    3    0    0  0.12550087308E+02  0.21956975062E+02  0.26761295518E+02  0.54367076830E+02  0.39999983250E+02 0.  0.
         12    1    3    3    0    0 -0.12550087308E+02 -0.21956975062E+02 -0.26761295518E+02  0.36820923170E+02  0.00000000000E+00 0. -1.
         11    1    4    4    0    0  0.73643819813E+01 -0.19495966850E+01  0.52472857766E+01  0.92503544517E+01  0.51100000000E-03 0. -1.
        -11    1    4    4    0    0  0.15116303990E+02  0.23240019411E+02  0.90436144193E+01  0.29161414757E+02  0.51100000000E-03 0.  1.
        -12    1    4    4    0    0 -0.99305986635E+01  0.66655233519E+00  0.12470395322E+02  0.15955307622E+02  0.00000000000E+00 0.  1.
</event>
<event>
 8    1  0.1271559E-006  0.9118800E+02  0.7816164E-02  0.1184000E+00
        -11   -1    0    0    0    0  0.00000000000E+00  0.00000000000E+00  0.45593999997E+02  0.45594000000E+02  0.51100000000E-03 0. -1.
         11   -1    0    0    0    0 -0.00000000000E+00 -0.00000000000E+00 -0.45593999997E+02  0.45594000000E+02  0.51100000000E-03 0.  1.
         23    2    1    2    0    0  0.00000000000E+00 -0.17763568394E-14 -0.17763568394E-14  0.91188000000E+02  0.91188000000E+02 0.  0.
    9900012    2    3    3    0    0 -0.31530750051E+02  0.10994472765E+02 -0.15514950311E+02  0.54367077777E+02  0.39999985408E+02 0.  0.
         12    1    3    3    0    0  0.31530750051E+02 -0.10994472765E+02  0.15514950311E+02  0.36820922223E+02  0.00000000000E+00 0. -1.
         11    1    4    4    0    0 -0.20041501288E+02 -0.73144828131E+01 -0.19615046671E+02  0.28981260995E+02  0.51100000000E-03 0. -1.
        -11    1    4    4    0    0 -0.65616349364E+01  0.95631269487E+01 -0.42260548306E+01  0.12343742940E+02  0.51100000000E-03 0.  1.
         12    1    4    4    0    0 -0.49276138270E+01  0.87458286298E+01  0.83261511905E+01  0.13042073842E+02  0.00000000000E+00 0. -1.
</event>
<event>
 8    1  0.1271559E-006  0.9118800E+02  0.7816164E-02  0.1184000E+00
        -11   -1    0    0    0    0  0.00000000000E+00  0.00000000000E+00  0.45593999997E+02  0.45594000000E+02  0.51100000000E-03 0.  1.
         11   -1    0    0    0    0 -0.00000000000E+00 -0.00000000000E+00 -0.45593999997E+02  0.45594000000E+02  0.51100000000E-03 0. -1.
         23    2    1    2    0    0  0.17763568394E-14 -0.88817841970E-15  0.00000000000E+00  0.91188000000E+02  0.91188000000E+02 0.  0.
    9900012    2    3    3    0    0  0.10376391636E+02 -0.56311476215E+01 -0.34876932033E+02  0.54367085903E+02  0.40000003933E+02 0.  0.
        -12    1    3    3    0    0 -0.10376391636E+02  0.56311476215E+01  0.34876932033E+02  0.36820914097E+02  0.00000000000E+00 0.  1.
         11    1    4    4    0    0  0.28524488317E+01 -0.11448108984E+02 -0.15582014939E+02  0.19544688626E+02  0.51100000000E-03 0. -1.
        -11    1    4    4    0    0  0.41384118594E+01 -0.10997576907E+02 -0.65415443912E+01  0.13448604159E+02  0.51100000000E-03 0.  1.
        -12    1    4    4    0    0  0.33855309452E+01  0.16814538269E+02 -0.12753372702E+02  0.21373793118E+02  0.00000000000E+00 0.  1.
</event>
<event>
 8    1  0.1271559E-006  0.9118800E+02  0.7816164E-02  0.1184000E+00
        -11   -1    0    0    0    0  0.00000000000E+00  0.00000000000E+00  0.45593999997E+02  0.45594000000E+02  0.51100000000E-03 0.  1.
         11   -1    0    0    0    0 -0.00000000000E+00 -0.00000000000E+00 -0.45593999997E+02  0.45594000000E+02  0.51100000000E-03 0. -1.
         23    2    1    2    0    0  0.71054273576E-14 -0.26645352591E-14  0.00000000000E+00  0.91188000000E+02  0.91188000000E+02 0.  0.
    9900012    2    3    3    0    0 -0.26070315383E+02  0.71111934907E+01 -0.25010993144E+02  0.54367079383E+02  0.39999989069E+02 0.  0.
        -12    1    3    3    0    0  0.26070315383E+02 -0.71111934907E+01  0.25010993144E+02  0.36820920617E+02  0.00000000000E+00 0.  1.
         11    1    4    4    0    0 -0.10841844032E+02  0.80269506880E+01 -0.84023947548E+00  0.13516046833E+02  0.51100000000E-03 0. -1.
        -11    1    4    4    0    0 -0.93814522882E+01 -0.14621064806E+02 -0.89153445381E+01  0.19526150455E+02  0.51100000000E-03 0.  1.
        -12    1    4    4    0    0 -0.58470190625E+01  0.13705307609E+02 -0.15255409131E+02  0.21324882094E+02  0.00000000000E+00 0.  1.
</event>
<event>
 8    1  0.1271559E-006  0.9118800E+02  0.7816164E-02  0.1184000E+00
        -11   -1    0    0    0    0  0.00000000000E+00  0.00000000000E+00  0.45593999997E+02  0.45594000000E+02  0.51100000000E-03 0.  1.
         11   -1    0    0    0    0 -0.00000000000E+00 -0.00000000000E+00 -0.45593999997E+02  0.45594000000E+02  0.51100000000E-03 0. -1.
         23    2    1    2    0    0  0.00000000000E+00  0.00000000000E+00  0.88817841970E-15  0.91188000000E+02  0.91188000000E+02 0.  0.
    9900012    2    3    3    0    0  0.27795271937E+02 -0.23058258138E+02 -0.71772565733E+01  0.54367171351E+02  0.40000198729E+02 0.  0.
        -12    1    3    3    0    0 -0.27795271937E+02  0.23058258138E+02  0.71772565733E+01  0.36820828649E+02  0.00000000000E+00 0.  1.
         11    1    4    4    0    0  0.86128189659E+01 -0.40170911480E+01 -0.13730164175E+02  0.16698355618E+02  0.51100000000E-03 0. -1.
        -11    1    4    4    0    0  0.20974709504E+01 -0.19160561102E+02 -0.25578822532E+00  0.19276719483E+02  0.51100000000E-03 0.  1.
         12    1    4    4    0    0  0.17084982021E+02  0.11939411196E+00  0.68086958266E+01  0.18392096250E+02  0.00000000000E+00 0. -1.
</event>
<event>
 8    1  0.1271559E-006  0.9118800E+02  0.7816164E-02  0.1184000E+00
        -11   -1    0    0    0    0  0.00000000000E+00  0.00000000000E+00  0.45593999997E+02  0.45594000000E+02  0.51100000000E-03 0. -1.
         11   -1    0    0    0    0 -0.00000000000E+00 -0.00000000000E+00 -0.45593999997E+02  0.45594000000E+02  0.51100000000E-03 0.  1.
         23    2    1    2    0    0 -0.17763568394E-14  0.71054273576E-14  0.35527136788E-14  0.91188000000E+02  0.91188000000E+02 0.  0.
    9900012    2    3    3    0    0  0.10264185497E+02 -0.32318245467E+02 -0.14351161074E+02  0.54367104871E+02  0.40000047174E+02 0.  0.
         12    1    3    3    0    0 -0.10264185497E+02  0.32318245467E+02  0.14351161074E+02  0.36820895129E+02  0.00000000000E+00 0. -1.
         11    1    4    4    0    0  0.42847929180E+01 -0.18872568209E+01  0.95431630423E+01  0.10629823600E+02  0.51100000000E-03 0. -1.
        -11    1    4    4    0    0  0.11980313800E+02 -0.20068073402E+02 -0.20992681394E+02  0.31415731110E+02  0.51100000000E-03 0.  1.
         12    1    4    4    0    0 -0.60009212217E+01 -0.10362915244E+02 -0.29016427221E+01  0.12321550160E+02  0.00000000000E+00 0. -1.
</event>
<event>
 8    1  0.1271559E-006  0.9118800E+02  0.7816164E-02  0.1184000E+00
        -11   -1    0    0    0    0  0.00000000000E+00  0.00000000000E+00  0.45593999997E+02  0.45594000000E+02  0.51100000000E-03 0. -1.
         11   -1    0    0    0    0 -0.00000000000E+00 -0.00000000000E+00 -0.45593999997E+02  0.45594000000E+02  0.51100000000E-03 0.  1.
         23    2    1    2    0    0  0.17763568394E-14 -0.35527136788E-14  0.00000000000E+00  0.91188000000E+02  0.91188000000E+02 0.  0.
    9900012    2    3    3    0    0 -0.11009443612E+02  0.23554234589E+02  0.26072395247E+02  0.54367087332E+02  0.40000007192E+02 0.  0.
        -12    1    3    3    0    0  0.11009443612E+02 -0.23554234589E+02 -0.26072395247E+02  0.36820912668E+02  0.00000000000E+00 0.  1.
         11    1    4    4    0    0  0.29771436311E+01  0.87397494980E+01  0.19113489967E+02  0.21226683784E+02  0.51100000000E-03 0. -1.
        -11    1    4    4    0    0  0.54848687248E+01  0.15292531978E+01 -0.41854212273E+01  0.70668346084E+01  0.51100000000E-03 0.  1.
        -12    1    4    4    0    0 -0.19471455968E+02  0.13285231894E+02  0.11144326508E+02  0.26073568940E+02  0.00000000000E+00 0.  1.
</event>
<event>
 8    1  0.1271559E-006  0.9118800E+02  0.7816164E-02  0.1184000E+00
        -11   -1    0    0    0    0  0.00000000000E+00  0.00000000000E+00  0.45593999997E+02  0.45594000000E+02  0.51100000000E-03 0. -1.
         11   -1    0    0    0    0 -0.00000000000E+00 -0.00000000000E+00 -0.45593999997E+02  0.45594000000E+02  0.51100000000E-03 0.  1.
         23    2    1    2    0    0  0.00000000000E+00  0.00000000000E+00  0.00000000000E+00  0.91188000000E+02  0.91188000000E+02 0.  0.
    9900012    2    3    3    0    0  0.26040099268E+02  0.25721119770E+02  0.40146649927E+01  0.54367077861E+02  0.39999985601E+02 0.  0.
         12    1    3    3    0    0 -0.26040099268E+02 -0.25721119770E+02 -0.40146649927E+01  0.36820922139E+02  0.00000000000E+00 0. -1.
         11    1    4    4    0    0  0.19238913719E+02  0.38924879169E+01  0.75420911210E+01  0.21027848250E+02  0.51100000000E-03 0. -1.
        -11    1    4    4    0    0  0.11973006362E+02  0.59447442077E+01  0.53781878775E+01  0.14408947573E+02  0.51100000000E-03 0.  1.
         12    1    4    4    0    0 -0.51718208130E+01  0.15883887645E+02 -0.89056140059E+01  0.18930282039E+02  0.00000000000E+00 0. -1.
</event>
<event>
 8    1  0.1271559E-006  0.9118800E+02  0.7816164E-02  0.1184000E+00
        -11   -1    0    0    0    0  0.00000000000E+00  0.00000000000E+00  0.45593999997E+02  0.45594000000E+02  0.51100000000E-03 0. -1.
         11   -1    0    0    0    0 -0.00000000000E+00 -0.00000000000E+00 -0.45593999997E+02  0.45594000000E+02  0.51100000000E-03 0.  1.
         23    2    1    2    0    0  0.71054273576E-14  0.35527136788E-14  0.99920072216E-15  0.91188000000E+02  0.91188000000E+02 0.  0.
    9900012    2    3    3    0    0 -0.34710797436E+02 -0.12271652062E+02 -0.58960637770E+00  0.54367074717E+02  0.39999978433E+02 0.  0.
        -12    1    3    3    0    0  0.34710797436E+02  0.12271652062E+02  0.58960637770E+00  0.36820925283E+02  0.00000000000E+00 0.  1.
         11    1    4    4    0    0 -0.26739178625E+02 -0.13952625352E+02 -0.30221116619E+01  0.30311591626E+02  0.51100000000E-03 0. -1.
        -11    1    4    4    0    0 -0.30656809067E+00  0.94272973910E+01 -0.51811782856E+01  0.10761622962E+02  0.51100000000E-03 0.  1.
        -12    1    4    4    0    0 -0.76650507204E+01 -0.77463241008E+01  0.76136835698E+01  0.13293860129E+02  0.00000000000E+00 0.  1.
</event>
<event>
 8    1  0.1271559E-006  0.9118800E+02  0.7816164E-02  0.1184000E+00
        -11   -1    0    0    0    0  0.00000000000E+00  0.00000000000E+00  0.45593999997E+02  0.45594000000E+02  0.51100000000E-03 0.  1.
         11   -1    0    0    0    0 -0.00000000000E+00 -0.00000000000E+00 -0.45593999997E+02  0.45594000000E+02  0.51100000000E-03 0. -1.
         23    2    1    2    0    0  0.00000000000E+00  0.35527136788E-14 -0.17763568394E-14  0.91188000000E+02  0.91188000000E+02 0.  0.
    9900012    2    3    3    0    0  0.13041822579E+02  0.31978926902E+02  0.12768653971E+02  0.54367089823E+02  0.40000012870E+02 0.  0.
         12    1    3    3    0    0 -0.13041822579E+02 -0.31978926902E+02 -0.12768653971E+02  0.36820910177E+02  0.00000000000E+00 0. -1.
         11    1    4    4    0    0  0.15861256243E+02 -0.10259820664E+01  0.20807982868E+01  0.16030028402E+02  0.51100000000E-03 0. -1.
        -11    1    4    4    0    0 -0.68051352353E+01  0.23492024892E+02  0.13099237696E+02  0.27744821635E+02  0.51100000000E-03 0.  1.
         12    1    4    4    0    0  0.39857015714E+01  0.95128840765E+01 -0.24113820115E+01  0.10592239786E+02  0.00000000000E+00 0. -1.
</event>
<event>
 8    1  0.1271559E-006  0.9118800E+02  0.7816164E-02  0.1184000E+00
        -11   -1    0    0    0    0  0.00000000000E+00  0.00000000000E+00  0.45593999997E+02  0.45594000000E+02  0.51100000000E-03 0.  1.
         11   -1    0    0    0    0 -0.00000000000E+00 -0.00000000000E+00 -0.45593999997E+02  0.45594000000E+02  0.51100000000E-03 0. -1.
         23    2    1    2    0    0  0.00000000000E+00  0.00000000000E+00 -0.35527136788E-14  0.91188000000E+02  0.91188000000E+02 0.  0.
    9900012    2    3    3    0    0 -0.60901661804E+01  0.18054055552E+02  0.31507766137E+02  0.54367104126E+02  0.40000045477E+02 0.  0.
         12    1    3    3    0    0  0.60901661804E+01 -0.18054055552E+02 -0.31507766137E+02  0.36820895874E+02  0.00000000000E+00 0. -1.
         11    1    4    4    0    0 -0.14010013143E+00  0.57336754108E+01 -0.52741168464E+01  0.77917244904E+01  0.51100000000E-03 0. -1.
        -11    1    4    4    0    0 -0.11957320254E+02  0.13132113975E+02  0.36399744075E+02  0.40501497430E+02  0.51100000000E-03 0.  1.
        -12    1    4    4    0    0  0.60072542050E+01 -0.81173383395E+00  0.38213890857E+00  0.60738822055E+01  0.00000000000E+00 0.  1.
</event>
<event>
 8    1  0.1271559E-006  0.9118800E+02  0.7816164E-02  0.1184000E+00
        -11   -1    0    0    0    0  0.00000000000E+00  0.00000000000E+00  0.45593999997E+02  0.45594000000E+02  0.51100000000E-03 0.  1.
         11   -1    0    0    0    0 -0.00000000000E+00 -0.00000000000E+00 -0.45593999997E+02  0.45594000000E+02  0.51100000000E-03 0. -1.
         23    2    1    2    0    0 -0.17763568394E-14  0.00000000000E+00  0.00000000000E+00  0.91188000000E+02  0.91188000000E+02 0.  0.
    9900012    2    3    3    0    0 -0.11777246985E+02 -0.25786504792E+02 -0.23497490668E+02  0.54367089587E+02  0.40000012332E+02 0.  0.
        -12    1    3    3    0    0  0.11777246985E+02  0.25786504792E+02  0.23497490668E+02  0.36820910413E+02  0.00000000000E+00 0.  1.
         11    1    4    4    0    0  0.10618559712E+02 -0.18416559246E+02 -0.11456027860E+02  0.24148789605E+02  0.51100000000E-03 0.  1.
        -11    1    4    4    0    0 -0.15443836213E+02 -0.11242769851E+02 -0.11374051508E+02  0.22232431240E+02  0.51100000000E-03 0. -1.
         12    1    4    4    0    0 -0.69519704844E+01  0.38728243051E+01 -0.66741129957E+00  0.79858687415E+01  0.00000000000E+00 0. -1.
</event>
<event>
 8    1  0.1271559E-006  0.9118800E+02  0.7816164E-02  0.1184000E+00
        -11   -1    0    0    0    0  0.00000000000E+00  0.00000000000E+00  0.45593999997E+02  0.45594000000E+02  0.51100000000E-03 0.  1.
         11   -1    0    0    0    0 -0.00000000000E+00 -0.00000000000E+00 -0.45593999997E+02  0.45594000000E+02  0.51100000000E-03 0. -1.
         23    2    1    2    0    0 -0.44408920985E-15 -0.71054273576E-14 -0.88817841970E-15  0.91188000000E+02  0.91188000000E+02 0.  0.
    9900012    2    3    3    0    0 -0.21738169555E+01 -0.36595280928E+02 -0.34407802931E+01  0.54367095130E+02  0.40000024969E+02 0.  0.
        -12    1    3    3    0    0  0.21738169555E+01  0.36595280928E+02  0.34407802931E+01  0.36820904870E+02  0.00000000000E+00 0.  1.
         11    1    4    4    0    0 -0.60784811962E+01 -0.13873673812E+02 -0.25109003181E+01  0.15353546150E+02  0.51100000000E-03 0. -1.
        -11    1    4    4    0    0 -0.10766366836E+02 -0.80293150293E+01  0.88276213087E+01  0.16072070586E+02  0.51100000000E-03 0.  1.
         12    1    4    4    0    0  0.14671031077E+02 -0.14692292087E+02 -0.97575012837E+01  0.22941478395E+02  0.00000000000E+00 0. -1.
</event>
<event>
 8    1  0.1271559E-006  0.9118800E+02  0.7816164E-02  0.1184000E+00
        -11   -1    0    0    0    0  0.00000000000E+00  0.00000000000E+00  0.45593999997E+02  0.45594000000E+02  0.51100000000E-03 0.  1.
         11   -1    0    0    0    0 -0.00000000000E+00 -0.00000000000E+00 -0.45593999997E+02  0.45594000000E+02  0.51100000000E-03 0. -1.
         23    2    1    2    0    0  0.00000000000E+00 -0.33306690739E-15  0.35527136788E-14  0.91188000000E+02  0.91188000000E+02 0.  0.
    9900012    2    3    3    0    0  0.22424968671E+02  0.79987845266E+00 -0.29193501937E+02  0.54367087725E+02  0.40000008086E+02 0.  0.
        -12    1    3    3    0    0 -0.22424968671E+02 -0.79987845266E+00  0.29193501937E+02  0.36820912275E+02  0.00000000000E+00 0.  1.
         11    1    4    4    0    0  0.31955788987E+01  0.26554545120E+01 -0.99542833861E+01  0.10786608418E+02  0.51100000000E-03 0. -1.
        -11    1    4    4    0    0  0.15198551729E+02  0.10512430376E+02 -0.23496727840E+02  0.29893199670E+02  0.51100000000E-03 0.  1.
        -12    1    4    4    0    0  0.40308380441E+01 -0.12368006436E+02  0.42575092890E+01  0.13687279637E+02  0.00000000000E+00 0.  1.
</event>
<event>
 8    1  0.1271559E-006  0.9118800E+02  0.7816164E-02  0.1184000E+00
        -11   -1    0    0    0    0  0.00000000000E+00  0.00000000000E+00  0.45593999997E+02  0.45594000000E+02  0.51100000000E-03 0. -1.
         11   -1    0    0    0    0 -0.00000000000E+00 -0.00000000000E+00 -0.45593999997E+02  0.45594000000E+02  0.51100000000E-03 0.  1.
         23    2    1    2    0    0  0.00000000000E+00  0.00000000000E+00  0.71054273576E-14  0.91188000000E+02  0.91188000000E+02 0.  0.
    9900012    2    3    3    0    0 -0.93456976714E+01 -0.76536662144E+01  0.34783109412E+02  0.54367009086E+02  0.39999828814E+02 0.  0.
        -12    1    3    3    0    0  0.93456976714E+01  0.76536662144E+01 -0.34783109412E+02  0.36820990914E+02  0.00000000000E+00 0.  1.
         11    1    4    4    0    0 -0.74963728567E+01 -0.36593753131E+01  0.11933483722E+02  0.14560036665E+02  0.51100000000E-03 0. -1.
        -11    1    4    4    0    0 -0.47862421780E+01 -0.11090415661E+02 -0.33254259101E+01  0.12528523116E+02  0.51100000000E-03 0.  1.
        -12    1    4    4    0    0  0.29369173632E+01  0.70961247600E+01  0.26175051600E+02  0.27278449305E+02  0.00000000000E+00 0.  1.
</event>
<event>
 8    1  0.1271559E-006  0.9118800E+02  0.7816164E-02  0.1184000E+00
        -11   -1    0    0    0    0  0.00000000000E+00  0.00000000000E+00  0.45593999997E+02  0.45594000000E+02  0.51100000000E-03 0. -1.
         11   -1    0    0    0    0 -0.00000000000E+00 -0.00000000000E+00 -0.45593999997E+02  0.45594000000E+02  0.51100000000E-03 0.  1.
         23    2    1    2    0    0  0.00000000000E+00  0.17763568394E-14 -0.35527136788E-14  0.91188000000E+02  0.91188000000E+02 0.  0.
    9900012    2    3    3    0    0  0.18360419608E+02  0.11455043399E+02 -0.29790198685E+02  0.54367096085E+02  0.40000027145E+02 0.  0.
         12    1    3    3    0    0 -0.18360419608E+02 -0.11455043399E+02  0.29790198685E+02  0.36820903915E+02  0.00000000000E+00 0. -1.
         11    1    4    4    0    0  0.22044150074E+01  0.62983775222E+01  0.11624328350E+01  0.67734965338E+01  0.51100000000E-03 0. -1.
        -11    1    4    4    0    0  0.22623052105E+02  0.12460791126E+02 -0.18476943384E+02  0.31756436184E+02  0.51100000000E-03 0.  1.
        -12    1    4    4    0    0 -0.64670475041E+01 -0.73041252490E+01 -0.12475688135E+02  0.15837163367E+02  0.00000000000E+00 0.  1.
</event>
<event>
 8    1  0.1271559E-006  0.9118800E+02  0.7816164E-02  0.1184000E+00
        -11   -1    0    0    0    0  0.00000000000E+00  0.00000000000E+00  0.45593999997E+02  0.45594000000E+02  0.51100000000E-03 0.  1.
         11   -1    0    0    0    0 -0.00000000000E+00 -0.00000000000E+00 -0.45593999997E+02  0.45594000000E+02  0.51100000000E-03 0. -1.
         23    2    1    2    0    0  0.00000000000E+00 -0.88817841970E-15  0.55511151231E-16  0.91188000000E+02  0.91188000000E+02 0.  0.
    9900012    2    3    3    0    0 -0.36239528674E+02  0.64993505887E+01 -0.48463760007E+00  0.54367083795E+02  0.39999999127E+02 0.  0.
         12    1    3    3    0    0  0.36239528674E+02 -0.64993505887E+01  0.48463760007E+00  0.36820916205E+02  0.00000000000E+00 0. -1.
         11    1    4    4    0    0  0.51781926697E+01  0.38333280383E+00 -0.39689973891E+01  0.65355614831E+01  0.51100000000E-03 0. -1.
        -11    1    4    4    0    0 -0.70822317666E+00 -0.36441256763E+01 -0.38303600979E+01  0.53341251160E+01  0.51100000000E-03 0.  1.
        -12    1    4    4    0    0 -0.40709498167E+02  0.97601434611E+01  0.73147198869E+01  0.42497397196E+02  0.00000000000E+00 0.  1.
</event>
<event>
 8    1  0.1271559E-006  0.9118800E+02  0.7816164E-02  0.1184000E+00
        -11   -1    0    0    0    0  0.00000000000E+00  0.00000000000E+00  0.45593999997E+02  0.45594000000E+02  0.51100000000E-03 0. -1.
         11   -1    0    0    0    0 -0.00000000000E+00 -0.00000000000E+00 -0.45593999997E+02  0.45594000000E+02  0.51100000000E-03 0.  1.
         23    2    1    2    0    0  0.00000000000E+00 -0.88817841970E-15  0.00000000000E+00  0.91188000000E+02  0.91188000000E+02 0.  0.
    9900012    2    3    3    0    0  0.44929602158E+01 -0.41418373884E+01 -0.36310303925E+02  0.54367086383E+02  0.40000005027E+02 0.  0.
         12    1    3    3    0    0 -0.44929602158E+01  0.41418373884E+01  0.36310303925E+02  0.36820913617E+02  0.00000000000E+00 0. -1.
         11    1    4    4    0    0  0.20305465945E+01  0.97971180038E+01  0.29405960891E+01  0.10428506426E+02  0.51100000000E-03 0. -1.
        -11    1    4    4    0    0 -0.52443874274E+01 -0.92887210844E+01 -0.23236819206E+02  0.25568216714E+02  0.51100000000E-03 0.  1.
         12    1    4    4    0    0  0.77068010487E+01 -0.46502343078E+01 -0.16014080809E+02  0.18370363243E+02  0.00000000000E+00 0. -1.
</event>
<event>
 8    1  0.1271559E-006  0.9118800E+02  0.7816164E-02  0.1184000E+00
        -11   -1    0    0    0    0  0.00000000000E+00  0.00000000000E+00  0.45593999997E+02  0.45594000000E+02  0.51100000000E-03 0.  1.
         11   -1    0    0    0    0 -0.00000000000E+00 -0.00000000000E+00 -0.45593999997E+02  0.45594000000E+02  0.51100000000E-03 0. -1.
         23    2    1    2    0    0 -0.22204460493E-15  0.35527136788E-14 -0.35527136788E-14  0.91188000000E+02  0.91188000000E+02 0.  0.
    9900012    2    3    3    0    0  0.16140757976E+01  0.31841463509E+02 -0.18419984434E+02  0.54367083856E+02  0.39999999267E+02 0.  0.
        -12    1    3    3    0    0 -0.16140757976E+01 -0.31841463509E+02  0.18419984434E+02  0.36820916144E+02  0.00000000000E+00 0.  1.
         11    1    4    4    0    0 -0.91757982055E+01  0.27867424249E+01 -0.17279245090E+02  0.19761920888E+02  0.51100000000E-03 0. -1.
        -11    1    4    4    0    0 -0.15030159919E+01 -0.51975106517E+00 -0.20133824270E+01  0.25657176969E+01  0.51100000000E-03 0.  1.
         12    1    4    4    0    0  0.12292889995E+02  0.29574472150E+02  0.87264308244E+00  0.32039445272E+02  0.00000000000E+00 0. -1.
</event>
<event>
 8    1  0.1271559E-006  0.9118800E+02  0.7816164E-02  0.1184000E+00
        -11   -1    0    0    0    0  0.00000000000E+00  0.00000000000E+00  0.45593999997E+02  0.45594000000E+02  0.51100000000E-03 0. -1.
         11   -1    0    0    0    0 -0.00000000000E+00 -0.00000000000E+00 -0.45593999997E+02  0.45594000000E+02  0.51100000000E-03 0.  1.
         23    2    1    2    0    0 -0.88817841970E-15  0.00000000000E+00  0.35527136788E-14  0.91188000000E+02  0.91188000000E+02 0.  0.
    9900012    2    3    3    0    0 -0.78263126181E+01 -0.18344299260E+02 -0.30951815006E+02  0.54367091039E+02  0.40000015641E+02 0.  0.
         12    1    3    3    0    0  0.78263126181E+01  0.18344299260E+02  0.30951815006E+02  0.36820908961E+02  0.00000000000E+00 0. -1.
         11    1    4    4    0    0  0.10871026834E+02 -0.36037064041E+01 -0.20527145693E+00  0.11454608719E+02  0.51100000000E-03 0. -1.
        -11    1    4    4    0    0 -0.29621911992E+01  0.25422999358E+01  0.45226084406E+00  0.39296826585E+01  0.51100000000E-03 0.  1.
        -12    1    4    4    0    0 -0.15735148253E+02 -0.17282892792E+02 -0.31198804394E+02  0.38982799661E+02  0.00000000000E+00 0.  1.
</event>
<event>
 8    1  0.1271559E-006  0.9118800E+02  0.7816164E-02  0.1184000E+00
        -11   -1    0    0    0    0  0.00000000000E+00  0.00000000000E+00  0.45593999997E+02  0.45594000000E+02  0.51100000000E-03 0. -1.
         11   -1    0    0    0    0 -0.00000000000E+00 -0.00000000000E+00 -0.45593999997E+02  0.45594000000E+02  0.51100000000E-03 0.  1.
         23    2    1    2    0    0  0.00000000000E+00  0.71054273576E-14 -0.44408920985E-15  0.91188000000E+02  0.91188000000E+02 0.  0.
    9900012    2    3    3    0    0  0.47499869982E+01 -0.36438007363E+02  0.23424735853E+01  0.54367110011E+02  0.40000058893E+02 0.  0.
        -12    1    3    3    0    0 -0.47499869982E+01  0.36438007363E+02 -0.23424735853E+01  0.36820889989E+02  0.00000000000E+00 0.  1.
         11    1    4    4    0    0 -0.17259082122E+01 -0.77127271898E+01 -0.18272822494E+01  0.81119591062E+01  0.51100000000E-03 0. -1.
        -11    1    4    4    0    0 -0.14510450768E+02 -0.15640568225E+02  0.20466638308E+01  0.21432904353E+02  0.51100000000E-03 0.  1.
         12    1    4    4    0    0  0.20986345978E+02 -0.13084711948E+02  0.21230920038E+01  0.24822246553E+02  0.00000000000E+00 0. -1.
</event>
<event>
 8    1  0.1271559E-006  0.9118800E+02  0.7816164E-02  0.1184000E+00
        -11   -1    0    0    0    0  0.00000000000E+00  0.00000000000E+00  0.45593999997E+02  0.45594000000E+02  0.51100000000E-03 0.  1.
         11   -1    0    0    0    0 -0.00000000000E+00 -0.00000000000E+00 -0.45593999997E+02  0.45594000000E+02  0.51100000000E-03 0. -1.
         23    2    1    2    0    0  0.00000000000E+00 -0.17763568394E-14  0.17763568394E-14  0.91188000000E+02  0.91188000000E+02 0.  0.
    9900012    2    3    3    0    0  0.31960599734E+02  0.15197036172E+02 -0.10166125800E+02  0.54367082608E+02  0.39999996422E+02 0.  0.
         12    1    3    3    0    0 -0.31960599734E+02 -0.15197036172E+02  0.10166125800E+02  0.36820917392E+02  0.00000000000E+00 0. -1.
         11    1    4    4    0    0  0.18553363656E+02  0.11455012227E+01  0.85767766388E+01  0.20471946018E+02  0.51100000000E-03 0. -1.
        -11    1    4    4    0    0  0.17083973980E+02  0.41391781845E+01 -0.13005605726E+02  0.21866429603E+02  0.51100000000E-03 0.  1.
         12    1    4    4    0    0 -0.36767379013E+01  0.99123567649E+01 -0.57372967123E+01  0.12028706988E+02  0.00000000000E+00 0. -1.
</event>
<event>
 8    1  0.1271559E-006  0.9118800E+02  0.7816164E-02  0.1184000E+00
        -11   -1    0    0    0    0  0.00000000000E+00  0.00000000000E+00  0.45593999997E+02  0.45594000000E+02  0.51100000000E-03 0.  1.
         11   -1    0    0    0    0 -0.00000000000E+00 -0.00000000000E+00 -0.45593999997E+02  0.45594000000E+02  0.51100000000E-03 0. -1.
         23    2    1    2    0    0  0.35527136788E-14  0.00000000000E+00  0.00000000000E+00  0.91188000000E+02  0.91188000000E+02 0.  0.
    9900012    2    3    3    0    0  0.19265698552E+02  0.29429836474E+02 -0.10885668218E+02  0.54367079477E+02  0.39999989284E+02 0.  0.
        -12    1    3    3    0    0 -0.19265698552E+02 -0.29429836474E+02  0.10885668218E+02  0.36820920523E+02  0.00000000000E+00 0.  1.
         11    1    4    4    0    0  0.97896926275E+01 -0.62686805688E+01  0.79654601564E+00  0.11651992260E+02  0.51100000000E-03 0. -1.
        -11    1    4    4    0    0 -0.11150309103E+01  0.23844068060E+02 -0.16703187798E+01  0.23928494325E+02  0.51100000000E-03 0.  1.
         12    1    4    4    0    0  0.10591036834E+02  0.11854448983E+02 -0.10011895453E+02  0.18786592892E+02  0.00000000000E+00 0. -1.
</event>
<event>
 8    1  0.1271559E-006  0.9118800E+02  0.7816164E-02  0.1184000E+00
        -11   -1    0    0    0    0  0.00000000000E+00  0.00000000000E+00  0.45593999997E+02  0.45594000000E+02  0.51100000000E-03 0. -1.
         11   -1    0    0    0    0 -0.00000000000E+00 -0.00000000000E+00 -0.45593999997E+02  0.45594000000E+02  0.51100000000E-03 0.  1.
         23    2    1    2    0    0  0.00000000000E+00  0.00000000000E+00  0.00000000000E+00  0.91188000000E+02  0.91188000000E+02 0.  0.
    9900012    2    3    3    0    0 -0.26760189115E+02  0.12957250779E+02 -0.21720556987E+02  0.54367073001E+02  0.39999974521E+02 0.  0.
         12    1    3    3    0    0  0.26760189115E+02 -0.12957250779E+02  0.21720556987E+02  0.36820926999E+02  0.00000000000E+00 0. -1.
         11    1    4    4    0    0 -0.23730741040E+02 -0.33395092073E+01 -0.56787613544E+01  0.24628209899E+02  0.51100000000E-03 0. -1.
        -11    1    4    4    0    0  0.38951285188E+01  0.10099061473E+02  0.42304910577E+00  0.10832453075E+02  0.51100000000E-03 0.  1.
         12    1    4    4    0    0 -0.69245765943E+01  0.61976985133E+01 -0.16464844738E+02  0.18906410027E+02  0.00000000000E+00 0. -1.
</event>
<event>
 8    1  0.1271559E-006  0.9118800E+02  0.7816164E-02  0.1184000E+00
        -11   -1    0    0    0    0  0.00000000000E+00  0.00000000000E+00  0.45593999997E+02  0.45594000000E+02  0.51100000000E-03 0. -1.
         11   -1    0    0    0    0 -0.00000000000E+00 -0.00000000000E+00 -0.45593999997E+02  0.45594000000E+02  0.51100000000E-03 0.  1.
         23    2    1    2    0    0  0.00000000000E+00  0.35527136788E-14  0.00000000000E+00  0.91188000000E+02  0.91188000000E+02 0.  0.
    9900012    2    3    3    0    0 -0.15704852208E+02  0.31353093829E+02  0.11230292643E+02  0.54367104460E+02  0.40000046238E+02 0.  0.
        -12    1    3    3    0    0  0.15704852208E+02 -0.31353093829E+02 -0.11230292643E+02  0.36820895540E+02  0.00000000000E+00 0.  1.
         11    1    4    4    0    0  0.76341007022E+00 -0.12589404890E+01  0.14457894773E+02  0.14532668290E+02  0.51100000000E-03 0.  1.
        -11    1    4    4    0    0 -0.41535392815E+01  0.10166831550E+02  0.61286058473E+01  0.12576810495E+02  0.51100000000E-03 0. -1.
         12    1    4    4    0    0 -0.12314722997E+02  0.22445202767E+02 -0.93562079775E+01  0.27257625676E+02  0.00000000000E+00 0. -1.
</event>
<event>
 8    1  0.1271559E-006  0.9118800E+02  0.7816164E-02  0.1184000E+00
        -11   -1    0    0    0    0  0.00000000000E+00  0.00000000000E+00  0.45593999997E+02  0.45594000000E+02  0.51100000000E-03 0. -1.
         11   -1    0    0    0    0 -0.00000000000E+00 -0.00000000000E+00 -0.45593999997E+02  0.45594000000E+02  0.51100000000E-03 0.  1.
         23    2    1    2    0    0  0.00000000000E+00 -0.35527136788E-14  0.00000000000E+00  0.91188000000E+02  0.91188000000E+02 0.  0.
    9900012    2    3    3    0    0 -0.11521336706E+02 -0.16334326449E+02  0.30922942043E+02  0.54367085228E+02  0.40000002394E+02 0.  0.
        -12    1    3    3    0    0  0.11521336706E+02  0.16334326449E+02 -0.30922942043E+02  0.36820914772E+02  0.00000000000E+00 0.  1.
         11    1    4    4    0    0  0.22464943992E+01  0.62476989356E+01  0.21113762223E+01  0.69669497550E+01  0.51100000000E-03 0. -1.
        -11    1    4    4    0    0 -0.64647505480E+01 -0.19167157509E+02  0.31123877219E+01  0.20466066653E+02  0.51100000000E-03 0.  1.
         12    1    4    4    0    0 -0.73030805572E+01 -0.34148678753E+01  0.25699178099E+02  0.26934068820E+02  0.00000000000E+00 0. -1.
</event>
<event>
 8    1  0.1271559E-006  0.9118800E+02  0.7816164E-02  0.1184000E+00
        -11   -1    0    0    0    0  0.00000000000E+00  0.00000000000E+00  0.45593999997E+02  0.45594000000E+02  0.51100000000E-03 0.  1.
         11   -1    0    0    0    0 -0.00000000000E+00 -0.00000000000E+00 -0.45593999997E+02  0.45594000000E+02  0.51100000000E-03 0. -1.
         23    2    1    2    0    0  0.35527136788E-14  0.00000000000E+00 -0.35527136788E-14  0.91188000000E+02  0.91188000000E+02 0.  0.
    9900012    2    3    3    0    0 -0.22450339339E+02 -0.13020887601E+02 -0.26119318763E+02  0.54367081177E+02  0.39999993160E+02 0.  0.
        -12    1    3    3    0    0  0.22450339339E+02  0.13020887601E+02  0.26119318763E+02  0.36820918823E+02  0.00000000000E+00 0.  1.
         11    1    4    4    0    0 -0.23922720630E+02 -0.49266117029E+01 -0.10684563640E+02  0.26659481722E+02  0.51100000000E-03 0. -1.
        -11    1    4    4    0    0  0.96719030622E+01 -0.76714083248E+01 -0.28307822282E+01  0.12665288896E+02  0.51100000000E-03 0.  1.
        -12    1    4    4    0    0 -0.81995217704E+01 -0.42286757295E+00 -0.12603972894E+02  0.15042310560E+02  0.00000000000E+00 0.  1.
</event>
<event>
 8    1  0.1271559E-006  0.9118800E+02  0.7816164E-02  0.1184000E+00
        -11   -1    0    0    0    0  0.00000000000E+00  0.00000000000E+00  0.45593999997E+02  0.45594000000E+02  0.51100000000E-03 0.  1.
         11   -1    0    0    0    0 -0.00000000000E+00 -0.00000000000E+00 -0.45593999997E+02  0.45594000000E+02  0.51100000000E-03 0. -1.
         23    2    1    2    0    0  0.35527136788E-14  0.00000000000E+00  0.00000000000E+00  0.91188000000E+02  0.91188000000E+02 0.  0.
    9900012    2    3    3    0    0  0.24793047353E+02 -0.11815088305E+02  0.24525208299E+02  0.54367118006E+02  0.40000077118E+02 0.  0.
         12    1    3    3    0    0 -0.24793047353E+02  0.11815088305E+02 -0.24525208299E+02  0.36820881994E+02  0.00000000000E+00 0. -1.
         11    1    4    4    0    0 -0.44047262603E+01 -0.12133711447E+02 -0.85369091290E+00  0.12936667088E+02  0.51100000000E-03 0. -1.
        -11    1    4    4    0    0  0.81777236228E+01  0.54854131753E+01  0.29951250883E+01  0.10292506785E+02  0.51100000000E-03 0.  1.
        -12    1    4    4    0    0  0.21020049990E+02 -0.51667900334E+01  0.22383774124E+02  0.31137944134E+02  0.00000000000E+00 0.  1.
</event>
<event>
 8    1  0.1271559E-006  0.9118800E+02  0.7816164E-02  0.1184000E+00
        -11   -1    0    0    0    0  0.00000000000E+00  0.00000000000E+00  0.45593999997E+02  0.45594000000E+02  0.51100000000E-03 0.  1.
         11   -1    0    0    0    0 -0.00000000000E+00 -0.00000000000E+00 -0.45593999997E+02  0.45594000000E+02  0.51100000000E-03 0. -1.
         23    2    1    2    0    0  0.00000000000E+00 -0.35527136788E-14  0.00000000000E+00  0.91188000000E+02  0.91188000000E+02 0.  0.
    9900012    2    3    3    0    0 -0.20455438000E+02 -0.29891618828E+02  0.66217276491E+01  0.54367067136E+02  0.39999961149E+02 0.  0.
         12    1    3    3    0    0  0.20455438000E+02  0.29891618828E+02 -0.66217276491E+01  0.36820932864E+02  0.00000000000E+00 0. -1.
         11    1    4    4    0    0  0.40551364269E+01  0.40907307271E+01 -0.59037736473E+01  0.82481969462E+01  0.51100000000E-03 0. -1.
        -11    1    4    4    0    0 -0.20543963709E+02 -0.25024531160E+02  0.15478340422E+02  0.35886775101E+02  0.51100000000E-03 0.  1.
        -12    1    4    4    0    0 -0.39666107174E+01 -0.89578183953E+01 -0.29528391260E+01  0.10232095088E+02  0.00000000000E+00 0.  1.
</event>
<event>
 8    1  0.1271559E-006  0.9118800E+02  0.7816164E-02  0.1184000E+00
        -11   -1    0    0    0    0  0.00000000000E+00  0.00000000000E+00  0.45593999997E+02  0.45594000000E+02  0.51100000000E-03 0. -1.
         11   -1    0    0    0    0 -0.00000000000E+00 -0.00000000000E+00 -0.45593999997E+02  0.45594000000E+02  0.51100000000E-03 0.  1.
         23    2    1    2    0    0  0.35527136788E-14 -0.35527136788E-14 -0.44408920985E-15  0.91188000000E+02  0.91188000000E+02 0.  0.
    9900012    2    3    3    0    0  0.27109758544E+02 -0.24615126852E+02  0.38648787172E+01  0.54367071634E+02  0.39999971404E+02 0.  0.
        -12    1    3    3    0    0 -0.27109758544E+02  0.24615126852E+02 -0.38648787172E+01  0.36820928366E+02  0.00000000000E+00 0.  1.
         11    1    4    4    0    0 -0.27579689515E+00 -0.49543641628E+01 -0.94305766609E+01  0.10656339175E+02  0.51100000000E-03 0. -1.
        -11    1    4    4    0    0  0.14232598999E+02  0.35459035371E+01  0.22491127975E+01  0.14839097507E+02  0.51100000000E-03 0.  1.
         12    1    4    4    0    0  0.13152956440E+02 -0.23206666226E+02  0.11046342581E+02  0.28871634953E+02  0.00000000000E+00 0. -1.
</event>
<event>
 8    1  0.1271559E-006  0.9118800E+02  0.7816164E-02  0.1184000E+00
        -11   -1    0    0    0    0  0.00000000000E+00  0.00000000000E+00  0.45593999997E+02  0.45594000000E+02  0.51100000000E-03 0.  1.
         11   -1    0    0    0    0 -0.00000000000E+00 -0.00000000000E+00 -0.45593999997E+02  0.45594000000E+02  0.51100000000E-03 0. -1.
         23    2    1    2    0    0  0.00000000000E+00 -0.17763568394E-14  0.35527136788E-14  0.91188000000E+02  0.91188000000E+02 0.  0.
    9900012    2    3    3    0    0 -0.13354595456E+02  0.12635349562E+02 -0.31902685664E+02  0.54367100623E+02  0.40000037491E+02 0.  0.
        -12    1    3    3    0    0  0.13354595456E+02 -0.12635349562E+02  0.31902685664E+02  0.36820899377E+02  0.00000000000E+00 0.  1.
         11    1    4    4    0    0 -0.15606177519E+02 -0.55911966627E+01 -0.60732828194E+01  0.17654999896E+02  0.51100000000E-03 0. -1.
        -11    1    4    4    0    0  0.58782085326E+01 -0.14711916086E+01 -0.60823888146E+01  0.85856388379E+01  0.51100000000E-03 0.  1.
        -12    1    4    4    0    0 -0.36266264698E+01  0.19697737834E+02 -0.19747014030E+02  0.28126461889E+02  0.00000000000E+00 0.  1.
</event>
<event>
 8    1  0.1271559E-006  0.9118800E+02  0.7816164E-02  0.1184000E+00
        -11   -1    0    0    0    0  0.00000000000E+00  0.00000000000E+00  0.45593999997E+02  0.45594000000E+02  0.51100000000E-03 0. -1.
         11   -1    0    0    0    0 -0.00000000000E+00 -0.00000000000E+00 -0.45593999997E+02  0.45594000000E+02  0.51100000000E-03 0.  1.
         23    2    1    2    0    0  0.00000000000E+00  0.88817841970E-15  0.00000000000E+00  0.91188000000E+02  0.91188000000E+02 0.  0.
    9900012    2    3    3    0    0 -0.10784974790E+02 -0.58398757030E+01 -0.34718304377E+02  0.54367075402E+02  0.39999979993E+02 0.  0.
         12    1    3    3    0    0  0.10784974790E+02  0.58398757030E+01  0.34718304377E+02  0.36820924598E+02  0.00000000000E+00 0. -1.
         11    1    4    4    0    0 -0.10757008716E+02 -0.22754432372E+01 -0.14013272819E+02  0.17811869464E+02  0.51100000000E-03 0. -1.
        -11    1    4    4    0    0 -0.13334391748E+02 -0.62536088951E+01 -0.16981143404E+02  0.22478275269E+02  0.51100000000E-03 0.  1.
         12    1    4    4    0    0  0.13306425673E+02  0.26891764293E+01 -0.37238881536E+01  0.14076930669E+02  0.00000000000E+00 0. -1.
</event>
<event>
 8    1  0.1271559E-006  0.9118800E+02  0.7816164E-02  0.1184000E+00
        -11   -1    0    0    0    0  0.00000000000E+00  0.00000000000E+00  0.45593999997E+02  0.45594000000E+02  0.51100000000E-03 0. -1.
         11   -1    0    0    0    0 -0.00000000000E+00 -0.00000000000E+00 -0.45593999997E+02  0.45594000000E+02  0.51100000000E-03 0.  1.
         23    2    1    2    0    0  0.00000000000E+00 -0.35527136788E-14  0.35527136788E-14  0.91188000000E+02  0.91188000000E+02 0.  0.
    9900012    2    3    3    0    0  0.18984127391E+02  0.26612547734E+02 -0.16945659346E+02  0.54367079854E+02  0.39999990144E+02 0.  0.
        -12    1    3    3    0    0 -0.18984127391E+02 -0.26612547734E+02  0.16945659346E+02  0.36820920146E+02  0.00000000000E+00 0.  1.
         11    1    4    4    0    0  0.72129976841E+01  0.13418399606E+02  0.54867600632E+01  0.16192137593E+02  0.51100000000E-03 0. -1.
        -11    1    4    4    0    0  0.31391359156E+01  0.88670488973E+01  0.38585055709E+01  0.10166946245E+02  0.51100000000E-03 0.  1.
        -12    1    4    4    0    0  0.86319937915E+01  0.43270992305E+01 -0.26290924980E+02  0.28007996017E+02  0.00000000000E+00 0.  1.
</event>
<event>
 8    1  0.1271559E-006  0.9118800E+02  0.7816164E-02  0.1184000E+00
        -11   -1    0    0    0    0  0.00000000000E+00  0.00000000000E+00  0.45593999997E+02  0.45594000000E+02  0.51100000000E-03 0.  1.
         11   -1    0    0    0    0 -0.00000000000E+00 -0.00000000000E+00 -0.45593999997E+02  0.45594000000E+02  0.51100000000E-03 0. -1.
         23    2    1    2    0    0 -0.17763568394E-14 -0.88817841970E-15  0.71054273576E-14  0.91188000000E+02  0.91188000000E+02 0.  0.
    9900012    2    3    3    0    0  0.14799268125E+02  0.65965375435E+01 -0.33064286294E+02  0.54367086476E+02  0.40000005239E+02 0.  0.
        -12    1    3    3    0    0 -0.14799268125E+02 -0.65965375435E+01  0.33064286294E+02  0.36820913524E+02  0.00000000000E+00 0.  1.
         11    1    4    4    0    0  0.13021982241E+02 -0.26151988668E+01 -0.27974991748E+01  0.13573403718E+02  0.51100000000E-03 0. -1.
        -11    1    4    4    0    0  0.44225416331E+01  0.15298317565E+02 -0.85280214379E+01  0.18064455285E+02  0.51100000000E-03 0.  1.
         12    1    4    4    0    0 -0.26452557494E+01 -0.60865811551E+01 -0.21738765682E+02  0.22729227473E+02  0.00000000000E+00 0. -1.
</event>
<event>
 8    1  0.1271559E-006  0.9118800E+02  0.7816164E-02  0.1184000E+00
        -11   -1    0    0    0    0  0.00000000000E+00  0.00000000000E+00  0.45593999997E+02  0.45594000000E+02  0.51100000000E-03 0.  1.
         11   -1    0    0    0    0 -0.00000000000E+00 -0.00000000000E+00 -0.45593999997E+02  0.45594000000E+02  0.51100000000E-03 0. -1.
         23    2    1    2    0    0 -0.22204460493E-15  0.00000000000E+00  0.00000000000E+00  0.91188000000E+02  0.91188000000E+02 0.  0.
    9900012    2    3    3    0    0 -0.94872204469E+00  0.11248483837E+02 -0.35047848050E+02  0.54367080469E+02  0.39999991545E+02 0.  0.
        -12    1    3    3    0    0  0.94872204469E+00 -0.11248483837E+02  0.35047848050E+02  0.36820919531E+02  0.00000000000E+00 0.  1.
         11    1    4    4    0    0 -0.31297519158E+01  0.10193644557E+02 -0.16598197627E+02  0.19728302034E+02  0.51100000000E-03 0. -1.
        -11    1    4    4    0    0  0.13463971193E+02 -0.54347129081E+01 -0.37324731547E+01  0.14991530302E+02  0.51100000000E-03 0.  1.
        -12    1    4    4    0    0 -0.11282941322E+02  0.64895521876E+01 -0.14717177269E+02  0.19647248133E+02  0.00000000000E+00 0.  1.
</event>
<event>
 8    1  0.1271559E-006  0.9118800E+02  0.7816164E-02  0.1184000E+00
        -11   -1    0    0    0    0  0.00000000000E+00  0.00000000000E+00  0.45593999997E+02  0.45594000000E+02  0.51100000000E-03 0. -1.
         11   -1    0    0    0    0 -0.00000000000E+00 -0.00000000000E+00 -0.45593999997E+02  0.45594000000E+02  0.51100000000E-03 0.  1.
         23    2    1    2    0    0  0.00000000000E+00  0.00000000000E+00 -0.44408920985E-15  0.91188000000E+02  0.91188000000E+02 0.  0.
    9900012    2    3    3    0    0 -0.27504563050E+02 -0.24392920876E+02 -0.20651244284E+01  0.54367077736E+02  0.39999985316E+02 0.  0.
         12    1    3    3    0    0  0.27504563050E+02  0.24392920876E+02  0.20651244284E+01  0.36820922264E+02  0.00000000000E+00 0. -1.
         11    1    4    4    0    0 -0.11592468248E+02  0.55413610336E+01 -0.43425307123E+01  0.13562801165E+02  0.51100000000E-03 0. -1.
        -11    1    4    4    0    0 -0.21477891417E+02 -0.19976267782E+02  0.17701022093E+01  0.29385104327E+02  0.51100000000E-03 0.  1.
        -12    1    4    4    0    0  0.55657966151E+01 -0.99580141282E+01  0.50730407463E+00  0.11419172245E+02  0.00000000000E+00 0.  1.
</event>
<event>
 8    1  0.1271559E-006  0.9118800E+02  0.7816164E-02  0.1184000E+00
        -11   -1    0    0    0    0  0.00000000000E+00  0.00000000000E+00  0.45593999997E+02  0.45594000000E+02  0.51100000000E-03 0.  1.
         11   -1    0    0    0    0 -0.00000000000E+00 -0.00000000000E+00 -0.45593999997E+02  0.45594000000E+02  0.51100000000E-03 0. -1.
         23    2    1    2    0    0  0.13322676296E-14 -0.12212453271E-14  0.00000000000E+00  0.91188000000E+02  0.91188000000E+02 0.  0.
    9900012    2    3    3    0    0 -0.42615578554E+00  0.52562522667E+00 -0.36814690359E+02  0.54367091309E+02  0.40000016256E+02 0.  0.
        -12    1    3    3    0    0  0.42615578554E+00 -0.52562522667E+00  0.36814690359E+02  0.36820908691E+02  0.00000000000E+00 0.  1.
         11    1    4    4    0    0 -0.11772039017E+01 -0.10741136002E+02 -0.11417257156E+02  0.15719782850E+02  0.51100000000E-03 0.  1.
        -11    1    4    4    0    0  0.11381746004E+02 -0.20976642869E+01 -0.69080171387E+01  0.13478317351E+02  0.51100000000E-03 0. -1.
        -12    1    4    4    0    0 -0.10630697888E+02  0.13364425515E+02 -0.18489416064E+02  0.25168991107E+02  0.00000000000E+00 0.  1.
</event>
<event>
 8    1  0.1271559E-006  0.9118800E+02  0.7816164E-02  0.1184000E+00
        -11   -1    0    0    0    0  0.00000000000E+00  0.00000000000E+00  0.45593999997E+02  0.45594000000E+02  0.51100000000E-03 0.  1.
         11   -1    0    0    0    0 -0.00000000000E+00 -0.00000000000E+00 -0.45593999997E+02  0.45594000000E+02  0.51100000000E-03 0. -1.
         23    2    1    2    0    0  0.00000000000E+00  0.35527136788E-14  0.00000000000E+00  0.91188000000E+02  0.91188000000E+02 0.  0.
    9900012    2    3    3    0    0  0.15373101314E+02 -0.30665530635E+02 -0.13381747934E+02  0.54367106598E+02  0.40000051112E+02 0.  0.
        -12    1    3    3    0    0 -0.15373101314E+02  0.30665530635E+02  0.13381747934E+02  0.36820893402E+02  0.00000000000E+00 0.  1.
         11    1    4    4    0    0  0.99745340732E+01 -0.25479114968E+01 -0.11108437390E+02  0.15145314935E+02  0.51100000000E-03 0. -1.
        -11    1    4    4    0    0  0.15634144153E+02 -0.12592129353E+02 -0.42551076837E+01  0.20520578128E+02  0.51100000000E-03 0.  1.
        -12    1    4    4    0    0 -0.10235576912E+02 -0.15525489785E+02  0.19817971396E+01  0.18701213535E+02  0.00000000000E+00 0.  1.
</event>
<event>
 8    1  0.1271559E-006  0.9118800E+02  0.7816164E-02  0.1184000E+00
        -11   -1    0    0    0    0  0.00000000000E+00  0.00000000000E+00  0.45593999997E+02  0.45594000000E+02  0.51100000000E-03 0. -1.
         11   -1    0    0    0    0 -0.00000000000E+00 -0.00000000000E+00 -0.45593999997E+02  0.45594000000E+02  0.51100000000E-03 0.  1.
         23    2    1    2    0    0 -0.88817841970E-15  0.00000000000E+00  0.71054273576E-14  0.91188000000E+02  0.91188000000E+02 0.  0.
    9900012    2    3    3    0    0  0.76780710360E+01  0.52984810369E+01 -0.35619556357E+02  0.54367089213E+02  0.40000011479E+02 0.  0.
         12    1    3    3    0    0 -0.76780710360E+01 -0.52984810369E+01  0.35619556357E+02  0.36820910787E+02  0.00000000000E+00 0. -1.
         11    1    4    4    0    0  0.94235305326E+01 -0.46964206930E+01 -0.20505610787E+01  0.10726793371E+02  0.51100000000E-03 0. -1.
        -11    1    4    4    0    0 -0.88119348479E+00  0.10302123867E+02 -0.28500475404E+00  0.10343668890E+02  0.51100000000E-03 0.  1.
        -12    1    4    4    0    0 -0.86426601179E+00 -0.30722213722E+00 -0.33283990524E+02  0.33296626952E+02  0.00000000000E+00 0.  1.
</event>
<event>
 8    1  0.1271559E-006  0.9118800E+02  0.7816164E-02  0.1184000E+00
        -11   -1    0    0    0    0  0.00000000000E+00  0.00000000000E+00  0.45593999997E+02  0.45594000000E+02  0.51100000000E-03 0.  1.
         11   -1    0    0    0    0 -0.00000000000E+00 -0.00000000000E+00 -0.45593999997E+02  0.45594000000E+02  0.51100000000E-03 0. -1.
         23    2    1    2    0    0  0.35527136788E-14  0.00000000000E+00  0.00000000000E+00  0.91188000000E+02  0.91188000000E+02 0.  0.
    9900012    2    3    3    0    0  0.30412622125E+02 -0.19554394267E+02 -0.69627138237E+01  0.54367064332E+02  0.39999954757E+02 0.  0.
        -12    1    3    3    0    0 -0.30412622125E+02  0.19554394267E+02  0.69627138237E+01  0.36820935668E+02  0.00000000000E+00 0.  1.
         11    1    4    4    0    0  0.43624044840E+01 -0.73894343988E+01 -0.47663552156E+01  0.98159286835E+01  0.51100000000E-03 0. -1.
        -11    1    4    4    0    0 -0.66154137180E+01  0.41063228625E+01  0.12853220140E+01  0.78916182784E+01  0.51100000000E-03 0.  1.
        -12    1    4    4    0    0  0.32665631359E+02 -0.16271282731E+02 -0.34816806221E+01  0.36659517370E+02  0.00000000000E+00 0.  1.
</event>
<event>
 8    1  0.1271559E-006  0.9118800E+02  0.7816164E-02  0.1184000E+00
        -11   -1    0    0    0    0  0.00000000000E+00  0.00000000000E+00  0.45593999997E+02  0.45594000000E+02  0.51100000000E-03 0.  1.
         11   -1    0    0    0    0 -0.00000000000E+00 -0.00000000000E+00 -0.45593999997E+02  0.45594000000E+02  0.51100000000E-03 0. -1.
         23    2    1    2    0    0  0.71054273576E-14 -0.17763568394E-14  0.00000000000E+00  0.91188000000E+02  0.91188000000E+02 0.  0.
    9900012    2    3    3    0    0 -0.28835625920E+02  0.13201055492E+02 -0.18708800626E+02  0.54367076476E+02  0.39999982443E+02 0.  0.
         12    1    3    3    0    0  0.28835625920E+02 -0.13201055492E+02  0.18708800626E+02  0.36820923524E+02  0.00000000000E+00 0. -1.
         11    1    4    4    0    0  0.35227241680E+01  0.31309697147E+01  0.38615409815E+01  0.60929513318E+01  0.51100000000E-03 0. -1.
        -11    1    4    4    0    0 -0.32003391234E+02  0.16373322686E+02 -0.16642448310E+02  0.39614061043E+02  0.51100000000E-03 0.  1.
         12    1    4    4    0    0 -0.35495885309E+00 -0.63032369084E+01 -0.59278932972E+01  0.86600641022E+01  0.00000000000E+00 0. -1.
</event>
<event>
 8    1  0.1271559E-006  0.9118800E+02  0.7816164E-02  0.1184000E+00
        -11   -1    0    0    0    0  0.00000000000E+00  0.00000000000E+00  0.45593999997E+02  0.45594000000E+02  0.51100000000E-03 0. -1.
         11   -1    0    0    0    0 -0.00000000000E+00 -0.00000000000E+00 -0.45593999997E+02  0.45594000000E+02  0.51100000000E-03 0.  1.
         23    2    1    2    0    0  0.00000000000E+00  0.15543122345E-14  0.71054273576E-14  0.91188000000E+02  0.91188000000E+02 0.  0.
    9900012    2    3    3    0    0 -0.17886407715E+02 -0.16302938920E+01  0.32143414660E+02  0.54367074630E+02  0.39999978233E+02 0.  0.
        -12    1    3    3    0    0  0.17886407715E+02  0.16302938920E+01 -0.32143414660E+02  0.36820925370E+02  0.00000000000E+00 0.  1.
         11    1    4    4    0    0  0.15779009926E+01 -0.53751241289E+01  0.15759853151E+02  0.16725869261E+02  0.51100000000E-03 0. -1.
        -11    1    4    4    0    0  0.16338106573E+01 -0.89789633784E+01  0.58881375947E+01  0.10860998352E+02  0.51100000000E-03 0.  1.
         12    1    4    4    0    0 -0.21098119364E+02  0.12723793615E+02  0.10495423914E+02  0.26780207016E+02  0.00000000000E+00 0. -1.
</event>
<event>
 8    1  0.1271559E-006  0.9118800E+02  0.7816164E-02  0.1184000E+00
        -11   -1    0    0    0    0  0.00000000000E+00  0.00000000000E+00  0.45593999997E+02  0.45594000000E+02  0.51100000000E-03 0.  1.
         11   -1    0    0    0    0 -0.00000000000E+00 -0.00000000000E+00 -0.45593999997E+02  0.45594000000E+02  0.51100000000E-03 0. -1.
         23    2    1    2    0    0  0.00000000000E+00 -0.17763568394E-14  0.00000000000E+00  0.91188000000E+02  0.91188000000E+02 0.  0.
    9900012    2    3    3    0    0  0.16725374196E+02 -0.52372151805E+01  0.32382331260E+02  0.54367055652E+02  0.39999934969E+02 0.  0.
         12    1    3    3    0    0 -0.16725374196E+02  0.52372151805E+01 -0.32382331260E+02  0.36820944348E+02  0.00000000000E+00 0. -1.
         11    1    4    4    0    0  0.16345015458E+02  0.57802049570E+01  0.83210799168E+01  0.19230462057E+02  0.51100000000E-03 0. -1.
        -11    1    4    4    0    0 -0.11240718855E+01 -0.17588726294E+02  0.12008830113E+02  0.21326950818E+02  0.51100000000E-03 0.  1.
        -12    1    4    4    0    0  0.15044306234E+01  0.65713061567E+01  0.12052421231E+02  0.13809642777E+02  0.00000000000E+00 0.  1.
</event>
<event>
 8    1  0.1271559E-006  0.9118800E+02  0.7816164E-02  0.1184000E+00
        -11   -1    0    0    0    0  0.00000000000E+00  0.00000000000E+00  0.45593999997E+02  0.45594000000E+02  0.51100000000E-03 0. -1.
         11   -1    0    0    0    0 -0.00000000000E+00 -0.00000000000E+00 -0.45593999997E+02  0.45594000000E+02  0.51100000000E-03 0.  1.
         23    2    1    2    0    0  0.22204460493E-15  0.00000000000E+00  0.00000000000E+00  0.91188000000E+02  0.91188000000E+02 0.  0.
    9900012    2    3    3    0    0 -0.19302782928E+01  0.32737627938E+02  0.16742215608E+02  0.54367081479E+02  0.39999993847E+02 0.  0.
        -12    1    3    3    0    0  0.19302782928E+01 -0.32737627938E+02 -0.16742215608E+02  0.36820918521E+02  0.00000000000E+00 0.  1.
         11    1    4    4    0    0 -0.34755961935E+01  0.14216415247E+02 -0.43505288412E+01  0.15268049412E+02  0.51100000000E-03 0. -1.
        -11    1    4    4    0    0 -0.72006861034E+01  0.12474442414E+02 -0.11460842356E+01  0.14449051984E+02  0.51100000000E-03 0.  1.
        -12    1    4    4    0    0  0.87460040041E+01  0.60467702769E+01  0.22238828685E+02  0.24649980083E+02  0.00000000000E+00 0.  1.
</event>
<event>
 8    1  0.1271559E-006  0.9118800E+02  0.7816164E-02  0.1184000E+00
        -11   -1    0    0    0    0  0.00000000000E+00  0.00000000000E+00  0.45593999997E+02  0.45594000000E+02  0.51100000000E-03 0. -1.
         11   -1    0    0    0    0 -0.00000000000E+00 -0.00000000000E+00 -0.45593999997E+02  0.45594000000E+02  0.51100000000E-03 0.  1.
         23    2    1    2    0    0  0.00000000000E+00  0.88817841970E-15  0.71054273576E-14  0.91188000000E+02  0.91188000000E+02 0.  0.
    9900012    2    3    3    0    0  0.78748223281E+01  0.72860615388E+01  0.35223297290E+02  0.54367079433E+02  0.39999989183E+02 0.  0.
        -12    1    3    3    0    0 -0.78748223281E+01 -0.72860615388E+01 -0.35223297290E+02  0.36820920567E+02  0.00000000000E+00 0.  1.
         11    1    4    4    0    0  0.73542596213E+01  0.13685576173E+02  0.36160823342E+01  0.15951682716E+02  0.51100000000E-03 0. -1.
        -11    1    4    4    0    0 -0.11366155962E+01 -0.65649082313E+01  0.34467530280E+02  0.35105563077E+02  0.51100000000E-03 0.  1.
        -12    1    4    4    0    0  0.16571783030E+01  0.16539359682E+00 -0.28603153242E+01  0.33098336399E+01  0.00000000000E+00 0.  1.
</event>
<event>
 8    1  0.1271559E-006  0.9118800E+02  0.7816164E-02  0.1184000E+00
        -11   -1    0    0    0    0  0.00000000000E+00  0.00000000000E+00  0.45593999997E+02  0.45594000000E+02  0.51100000000E-03 0. -1.
         11   -1    0    0    0    0 -0.00000000000E+00 -0.00000000000E+00 -0.45593999997E+02  0.45594000000E+02  0.51100000000E-03 0.  1.
         23    2    1    2    0    0 -0.35527136788E-14  0.17763568394E-14  0.00000000000E+00  0.91188000000E+02  0.91188000000E+02 0.  0.
    9900012    2    3    3    0    0 -0.29234310021E+02  0.11487075382E+02  0.19214105608E+02  0.54367086954E+02  0.40000006329E+02 0.  0.
        -12    1    3    3    0    0  0.29234310021E+02 -0.11487075382E+02 -0.19214105608E+02  0.36820913046E+02  0.00000000000E+00 0.  1.
         11    1    4    4    0    0 -0.23214813203E+02  0.14491637066E+02  0.25626889215E+01  0.27486405216E+02  0.51100000000E-03 0. -1.
        -11    1    4    4    0    0  0.56406846793E+01  0.41482438418E+01  0.82780544447E+01  0.10842114013E+02  0.51100000000E-03 0.  1.
        -12    1    4    4    0    0 -0.11660181498E+02 -0.71528055259E+01  0.83733622414E+01  0.16038567725E+02  0.00000000000E+00 0.  1.
</event>
<event>
 8    1  0.1271559E-006  0.9118800E+02  0.7816164E-02  0.1184000E+00
        -11   -1    0    0    0    0  0.00000000000E+00  0.00000000000E+00  0.45593999997E+02  0.45594000000E+02  0.51100000000E-03 0. -1.
         11   -1    0    0    0    0 -0.00000000000E+00 -0.00000000000E+00 -0.45593999997E+02  0.45594000000E+02  0.51100000000E-03 0.  1.
         23    2    1    2    0    0  0.44408920985E-15  0.00000000000E+00  0.00000000000E+00  0.91188000000E+02  0.91188000000E+02 0.  0.
    9900012    2    3    3    0    0  0.27125130696E+01  0.10687081877E+02 -0.35131361404E+02  0.54367027712E+02  0.39999871274E+02 0.  0.
         12    1    3    3    0    0 -0.27125130696E+01 -0.10687081877E+02  0.35131361404E+02  0.36820972288E+02  0.00000000000E+00 0. -1.
         11    1    4    4    0    0 -0.36487114670E+01  0.71126925852E+01 -0.24009804274E+02  0.25305615834E+02  0.51100000000E-03 0.  1.
        -11    1    4    4    0    0  0.38795851246E+01 -0.11100491775E+02 -0.31300645760E+01  0.12168377168E+02  0.51100000000E-03 0. -1.
         12    1    4    4    0    0  0.24816394120E+01  0.14674881066E+02 -0.79914925535E+01  0.16893034710E+02  0.00000000000E+00 0. -1.
</event>
<event>
 8    1  0.1271559E-006  0.9118800E+02  0.7816164E-02  0.1184000E+00
        -11   -1    0    0    0    0  0.00000000000E+00  0.00000000000E+00  0.45593999997E+02  0.45594000000E+02  0.51100000000E-03 0. -1.
         11   -1    0    0    0    0 -0.00000000000E+00 -0.00000000000E+00 -0.45593999997E+02  0.45594000000E+02  0.51100000000E-03 0.  1.
         23    2    1    2    0    0  0.00000000000E+00  0.17763568394E-14 -0.17763568394E-14  0.91188000000E+02  0.91188000000E+02 0.  0.
    9900012    2    3    3    0    0  0.33993961276E+02  0.10689227230E+02 -0.92698294262E+01  0.54367099419E+02  0.40000034746E+02 0.  0.
        -12    1    3    3    0    0 -0.33993961276E+02 -0.10689227230E+02  0.92698294262E+01  0.36820900581E+02  0.00000000000E+00 0.  1.
         11    1    4    4    0    0  0.19423953248E+02  0.92441731876E+01 -0.25257602038E+01  0.21659274286E+02  0.51100000000E-03 0. -1.
        -11    1    4    4    0    0  0.99569129871E+00 -0.40530007072E+00 -0.16088625781E+02  0.16124501514E+02  0.51100000000E-03 0.  1.
         12    1    4    4    0    0  0.13574316729E+02  0.18503541130E+01  0.93445565582E+01  0.16583323619E+02  0.00000000000E+00 0. -1.
</event>
<event>
 8    1  0.1271559E-006  0.9118800E+02  0.7816164E-02  0.1184000E+00
        -11   -1    0    0    0    0  0.00000000000E+00  0.00000000000E+00  0.45593999997E+02  0.45594000000E+02  0.51100000000E-03 0.  1.
         11   -1    0    0    0    0 -0.00000000000E+00 -0.00000000000E+00 -0.45593999997E+02  0.45594000000E+02  0.51100000000E-03 0. -1.
         23    2    1    2    0    0  0.17763568394E-14  0.00000000000E+00  0.00000000000E+00  0.91188000000E+02  0.91188000000E+02 0.  0.
    9900012    2    3    3    0    0 -0.11369594072E+02 -0.11728541968E+02 -0.32999310624E+02  0.54367070249E+02  0.39999968246E+02 0.  0.
        -12    1    3    3    0    0  0.11369594072E+02  0.11728541968E+02  0.32999310624E+02  0.36820929751E+02  0.00000000000E+00 0.  1.
         11    1    4    4    0    0 -0.11705538646E+02 -0.30583900958E+01 -0.25025063312E+02  0.27796172021E+02  0.51100000000E-03 0. -1.
        -11    1    4    4    0    0  0.86144757169E+01  0.35862503836E+01 -0.71537716613E+01  0.11757841338E+02  0.51100000000E-03 0.  1.
        -12    1    4    4    0    0 -0.82785311424E+01 -0.12256402256E+02 -0.82047565127E+00  0.14813056890E+02  0.00000000000E+00 0.  1.
</event>
<event>
 8    1  0.1271559E-006  0.9118800E+02  0.7816164E-02  0.1184000E+00
        -11   -1    0    0    0    0  0.00000000000E+00  0.00000000000E+00  0.45593999997E+02  0.45594000000E+02  0.51100000000E-03 0. -1.
         11   -1    0    0    0    0 -0.00000000000E+00 -0.00000000000E+00 -0.45593999997E+02  0.45594000000E+02  0.51100000000E-03 0.  1.
         23    2    1    2    0    0 -0.35527136788E-14  0.00000000000E+00  0.00000000000E+00  0.91188000000E+02  0.91188000000E+02 0.  0.
    9900012    2    3    3    0    0  0.17402230155E+02  0.41033804110E+01  0.32188616649E+02  0.54367049619E+02  0.39999921216E+02 0.  0.
        -12    1    3    3    0    0 -0.17402230155E+02 -0.41033804110E+01 -0.32188616649E+02  0.36820950381E+02  0.00000000000E+00 0.  1.
         11    1    4    4    0    0 -0.53380878863E+01  0.59200497213E+01  0.24880632788E+02  0.26126386263E+02  0.51100000000E-03 0. -1.
        -11    1    4    4    0    0  0.26624155697E+01  0.11632516343E+01 -0.40474961719E+01  0.49823525119E+01  0.51100000000E-03 0.  1.
         12    1    4    4    0    0  0.20077902472E+02 -0.29799209445E+01  0.11355480033E+02  0.23258310844E+02  0.00000000000E+00 0. -1.
</event>
<event>
 8    1  0.1271559E-006  0.9118800E+02  0.7816164E-02  0.1184000E+00
        -11   -1    0    0    0    0  0.00000000000E+00  0.00000000000E+00  0.45593999997E+02  0.45594000000E+02  0.51100000000E-03 0. -1.
         11   -1    0    0    0    0 -0.00000000000E+00 -0.00000000000E+00 -0.45593999997E+02  0.45594000000E+02  0.51100000000E-03 0.  1.
         23    2    1    2    0    0  0.17763568394E-14  0.00000000000E+00  0.17763568394E-14  0.91188000000E+02  0.91188000000E+02 0.  0.
    9900012    2    3    3    0    0  0.14209235655E+02  0.31271842411E+02 -0.13264458340E+02  0.54367131451E+02  0.40000107769E+02 0.  0.
         12    1    3    3    0    0 -0.14209235655E+02 -0.31271842411E+02  0.13264458340E+02  0.36820868549E+02  0.00000000000E+00 0. -1.
         11    1    4    4    0    0 -0.92903180143E+01 -0.15163657758E+01  0.22912417481E+00  0.94160433368E+01  0.51100000000E-03 0. -1.
        -11    1    4    4    0    0  0.23226715833E+02  0.21741556270E+02 -0.95237031562E+01  0.33209584754E+02  0.51100000000E-03 0.  1.
         12    1    4    4    0    0  0.27283783586E+00  0.11046651916E+02 -0.39698793583E+01  0.11741503360E+02  0.00000000000E+00 0. -1.
</event>
<event>
 8    1  0.1271559E-006  0.9118800E+02  0.7816164E-02  0.1184000E+00
        -11   -1    0    0    0    0  0.00000000000E+00  0.00000000000E+00  0.45593999997E+02  0.45594000000E+02  0.51100000000E-03 0.  1.
         11   -1    0    0    0    0 -0.00000000000E+00 -0.00000000000E+00 -0.45593999997E+02  0.45594000000E+02  0.51100000000E-03 0. -1.
         23    2    1    2    0    0  0.17763568394E-14  0.17763568394E-14  0.35527136788E-14  0.91188000000E+02  0.91188000000E+02 0.  0.
    9900012    2    3    3    0    0  0.12776753298E+02  0.13779872159E+02  0.31664640408E+02  0.54367085376E+02  0.40000002732E+02 0.  0.
         12    1    3    3    0    0 -0.12776753298E+02 -0.13779872159E+02 -0.31664640408E+02  0.36820914624E+02  0.00000000000E+00 0. -1.
         11    1    4    4    0    0  0.27279904244E+01  0.63379180751E+01  0.39490975555E+01  0.79502521372E+01  0.51100000000E-03 0.  1.
        -11    1    4    4    0    0  0.53756631610E+01 -0.60849040318E+01 -0.57969926921E+01  0.99764189983E+01  0.51100000000E-03 0. -1.
        -12    1    4    4    0    0  0.46730997122E+01  0.13526858116E+02  0.33512535545E+02  0.36440414241E+02  0.00000000000E+00 0.  1.
</event>
<event>
 8    1  0.1271559E-006  0.9118800E+02  0.7816164E-02  0.1184000E+00
        -11   -1    0    0    0    0  0.00000000000E+00  0.00000000000E+00  0.45593999997E+02  0.45594000000E+02  0.51100000000E-03 0.  1.
         11   -1    0    0    0    0 -0.00000000000E+00 -0.00000000000E+00 -0.45593999997E+02  0.45594000000E+02  0.51100000000E-03 0. -1.
         23    2    1    2    0    0 -0.17763568394E-14  0.00000000000E+00 -0.88817841970E-15  0.91188000000E+02  0.91188000000E+02 0.  0.
    9900012    2    3    3    0    0 -0.53998478194E+01 -0.36084622891E+02  0.49519037021E+01  0.54367085890E+02  0.40000003903E+02 0.  0.
         12    1    3    3    0    0  0.53998478194E+01  0.36084622891E+02 -0.49519037021E+01  0.36820914110E+02  0.00000000000E+00 0. -1.
         11    1    4    4    0    0  0.13286762000E+02 -0.12340098408E+02 -0.33511681521E+01  0.18440347107E+02  0.51100000000E-03 0. -1.
        -11    1    4    4    0    0 -0.63488185488E+01 -0.21369408310E+02  0.65895795136E+01  0.23246110791E+02  0.51100000000E-03 0.  1.
         12    1    4    4    0    0 -0.12337791271E+02 -0.23751161723E+01  0.17134923407E+01  0.12680627992E+02  0.00000000000E+00 0. -1.
</event>
<event>
 8    1  0.1271559E-006  0.9118800E+02  0.7816164E-02  0.1184000E+00
        -11   -1    0    0    0    0  0.00000000000E+00  0.00000000000E+00  0.45593999997E+02  0.45594000000E+02  0.51100000000E-03 0.  1.
         11   -1    0    0    0    0 -0.00000000000E+00 -0.00000000000E+00 -0.45593999997E+02  0.45594000000E+02  0.51100000000E-03 0. -1.
         23    2    1    2    0    0  0.00000000000E+00  0.00000000000E+00  0.71054273576E-14  0.91188000000E+02  0.91188000000E+02 0.  0.
    9900012    2    3    3    0    0  0.92254616676E+01 -0.42992765424E+01 -0.35386261633E+02  0.54367076137E+02  0.39999981669E+02 0.  0.
        -12    1    3    3    0    0 -0.92254616676E+01  0.42992765424E+01  0.35386261633E+02  0.36820923863E+02  0.00000000000E+00 0.  1.
         11    1    4    4    0    0  0.38195542282E+00 -0.16411992685E+01 -0.15370683373E+02  0.15462772474E+02  0.51100000000E-03 0. -1.
        -11    1    4    4    0    0  0.13113530438E+02 -0.28237900523E+01 -0.27323527072E+02  0.30438685956E+02  0.51100000000E-03 0.  1.
        -12    1    4    4    0    0 -0.42700241928E+01  0.16571277840E+00  0.73079488115E+01  0.84656177072E+01  0.00000000000E+00 0.  1.
</event>
<event>
 8    1  0.1271559E-006  0.9118800E+02  0.7816164E-02  0.1184000E+00
        -11   -1    0    0    0    0  0.00000000000E+00  0.00000000000E+00  0.45593999997E+02  0.45594000000E+02  0.51100000000E-03 0. -1.
         11   -1    0    0    0    0 -0.00000000000E+00 -0.00000000000E+00 -0.45593999997E+02  0.45594000000E+02  0.51100000000E-03 0.  1.
         23    2    1    2    0    0 -0.88817841970E-15 -0.88817841970E-15  0.00000000000E+00  0.91188000000E+02  0.91188000000E+02 0.  0.
    9900012    2    3    3    0    0  0.71625563644E+01  0.58041740887E+01 -0.35648102377E+02  0.54367111178E+02  0.40000061553E+02 0.  0.
         12    1    3    3    0    0 -0.71625563644E+01 -0.58041740887E+01  0.35648102377E+02  0.36820888822E+02  0.00000000000E+00 0. -1.
         11    1    4    4    0    0  0.85501272150E+01  0.99552343830E+01 -0.14738674981E+02  0.19734231869E+02  0.51100000000E-03 0. -1.
        -11    1    4    4    0    0  0.74455395705E+01  0.44411450870E+01  0.17454841355E+01  0.88434464045E+01  0.51100000000E-03 0.  1.
         12    1    4    4    0    0 -0.88331104211E+01 -0.85922053813E+01 -0.22654911532E+02  0.25789432904E+02  0.00000000000E+00 0. -1.
</event>
<event>
 8    1  0.1271559E-006  0.9118800E+02  0.7816164E-02  0.1184000E+00
        -11   -1    0    0    0    0  0.00000000000E+00  0.00000000000E+00  0.45593999997E+02  0.45594000000E+02  0.51100000000E-03 0.  1.
         11   -1    0    0    0    0 -0.00000000000E+00 -0.00000000000E+00 -0.45593999997E+02  0.45594000000E+02  0.51100000000E-03 0. -1.
         23    2    1    2    0    0  0.00000000000E+00 -0.88817841970E-15  0.00000000000E+00  0.91188000000E+02  0.91188000000E+02 0.  0.
    9900012    2    3    3    0    0 -0.26877700360E+02 -0.58526395767E+01 -0.24476821896E+02  0.54367095927E+02  0.40000026785E+02 0.  0.
        -12    1    3    3    0    0  0.26877700360E+02  0.58526395767E+01  0.24476821896E+02  0.36820904073E+02  0.00000000000E+00 0.  1.
         11    1    4    4    0    0 -0.21597916715E+02 -0.26995694323E+01 -0.19271550619E+02  0.29071469607E+02  0.51100000000E-03 0. -1.
        -11    1    4    4    0    0  0.21257097009E+01  0.96946891012E+01 -0.20668994549E+01  0.10137934312E+02  0.51100000000E-03 0.  1.
        -12    1    4    4    0    0 -0.74054933453E+01 -0.12847759246E+02 -0.31383718217E+01  0.15157692008E+02  0.00000000000E+00 0.  1.
</event>
<event>
 8    1  0.1271559E-006  0.9118800E+02  0.7816164E-02  0.1184000E+00
        -11   -1    0    0    0    0  0.00000000000E+00  0.00000000000E+00  0.45593999997E+02  0.45594000000E+02  0.51100000000E-03 0.  1.
         11   -1    0    0    0    0 -0.00000000000E+00 -0.00000000000E+00 -0.45593999997E+02  0.45594000000E+02  0.51100000000E-03 0. -1.
         23    2    1    2    0    0  0.00000000000E+00  0.17763568394E-14  0.00000000000E+00  0.91188000000E+02  0.91188000000E+02 0.  0.
    9900012    2    3    3    0    0  0.18142673339E+02 -0.13966429840E+02 -0.28836851485E+02  0.54367058107E+02  0.39999940566E+02 0.  0.
        -12    1    3    3    0    0 -0.18142673339E+02  0.13966429840E+02  0.28836851485E+02  0.36820941893E+02  0.00000000000E+00 0.  1.
         11    1    4    4    0    0 -0.10541865445E+01 -0.18139509118E+01 -0.18737386592E+02  0.18854479143E+02  0.51100000000E-03 0. -1.
        -11    1    4    4    0    0 -0.57052318699E+01  0.65434953882E+00 -0.35607862307E+01  0.67569995449E+01  0.51100000000E-03 0.  1.
        -12    1    4    4    0    0  0.24902091754E+02 -0.12806828467E+02 -0.65386786622E+01  0.28755579419E+02  0.00000000000E+00 0.  1.
</event>
<event>
 8    1  0.1271559E-006  0.9118800E+02  0.7816164E-02  0.1184000E+00
        -11   -1    0    0    0    0  0.00000000000E+00  0.00000000000E+00  0.45593999997E+02  0.45594000000E+02  0.51100000000E-03 0.  1.
         11   -1    0    0    0    0 -0.00000000000E+00 -0.00000000000E+00 -0.45593999997E+02  0.45594000000E+02  0.51100000000E-03 0. -1.
         23    2    1    2    0    0  0.00000000000E+00  0.00000000000E+00  0.00000000000E+00  0.91188000000E+02  0.91188000000E+02 0.  0.
    9900012    2    3    3    0    0  0.78776933084E+01  0.18464088868E+02 -0.30867550418E+02  0.54366996504E+02  0.39999800130E+02 0.  0.
        -12    1    3    3    0    0 -0.78776933084E+01 -0.18464088868E+02  0.30867550418E+02  0.36821003496E+02  0.00000000000E+00 0.  1.
         11    1    4    4    0    0  0.11388020082E+02  0.39364220503E+01  0.27982628622E+01  0.12369830042E+02  0.51100000000E-03 0. -1.
        -11    1    4    4    0    0 -0.30305855099E+01  0.17978090417E+02 -0.16854863040E+02  0.24829067480E+02  0.51100000000E-03 0.  1.
         12    1    4    4    0    0 -0.47974126402E+00 -0.34504235985E+01 -0.16810950241E+02  0.17168098983E+02  0.00000000000E+00 0. -1.
</event>
<event>
 8    1  0.1271559E-006  0.9118800E+02  0.7816164E-02  0.1184000E+00
        -11   -1    0    0    0    0  0.00000000000E+00  0.00000000000E+00  0.45593999997E+02  0.45594000000E+02  0.51100000000E-03 0.  1.
         11   -1    0    0    0    0 -0.00000000000E+00 -0.00000000000E+00 -0.45593999997E+02  0.45594000000E+02  0.51100000000E-03 0. -1.
         23    2    1    2    0    0  0.00000000000E+00  0.00000000000E+00  0.17763568394E-14  0.91188000000E+02  0.91188000000E+02 0.  0.
    9900012    2    3    3    0    0 -0.17010674982E+02 -0.31344497231E+02 -0.91618001905E+01  0.54367093537E+02  0.40000021336E+02 0.  0.
        -12    1    3    3    0    0  0.17010674982E+02  0.31344497231E+02  0.91618001905E+01  0.36820906463E+02  0.00000000000E+00 0.  1.
         11    1    4    4    0    0 -0.42963826712E+01 -0.33831370129E+01 -0.71810145988E+01  0.90261559390E+01  0.51100000000E-03 0. -1.
        -11    1    4    4    0    0 -0.16000383599E+01  0.46381959728E+00  0.11754464325E+02  0.11871928369E+02  0.51100000000E-03 0.  1.
        -12    1    4    4    0    0 -0.11114253951E+02 -0.28425179816E+02 -0.13735249917E+02  0.33469009228E+02  0.00000000000E+00 0.  1.
</event>
<event>
 8    1  0.1271559E-006  0.9118800E+02  0.7816164E-02  0.1184000E+00
        -11   -1    0    0    0    0  0.00000000000E+00  0.00000000000E+00  0.45593999997E+02  0.45594000000E+02  0.51100000000E-03 0. -1.
         11   -1    0    0    0    0 -0.00000000000E+00 -0.00000000000E+00 -0.45593999997E+02  0.45594000000E+02  0.51100000000E-03 0.  1.
         23    2    1    2    0    0  0.00000000000E+00 -0.35527136788E-14  0.00000000000E+00  0.91188000000E+02  0.91188000000E+02 0.  0.
    9900012    2    3    3    0    0 -0.24947536933E+02 -0.18929907904E+02  0.19366476441E+02  0.54367062722E+02  0.39999951087E+02 0.  0.
        -12    1    3    3    0    0  0.24947536933E+02  0.18929907904E+02 -0.19366476441E+02  0.36820937278E+02  0.00000000000E+00 0.  1.
         11    1    4    4    0    0  0.30837808240E+01  0.46343909425E+00 -0.39156930825E+01  0.50057099938E+01  0.51100000000E-03 0. -1.
        -11    1    4    4    0    0 -0.12168892069E+02 -0.12611191128E+01 -0.40877820946E+01  0.12898927022E+02  0.51100000000E-03 0.  1.
         12    1    4    4    0    0 -0.15862425688E+02 -0.18132227886E+02  0.27369951618E+02  0.36462425707E+02  0.00000000000E+00 0. -1.
</event>
<event>
 8    1  0.1271559E-006  0.9118800E+02  0.7816164E-02  0.1184000E+00
        -11   -1    0    0    0    0  0.00000000000E+00  0.00000000000E+00  0.45593999997E+02  0.45594000000E+02  0.51100000000E-03 0. -1.
         11   -1    0    0    0    0 -0.00000000000E+00 -0.00000000000E+00 -0.45593999997E+02  0.45594000000E+02  0.51100000000E-03 0.  1.
         23    2    1    2    0    0  0.00000000000E+00 -0.35527136788E-14  0.00000000000E+00  0.91188000000E+02  0.91188000000E+02 0.  0.
    9900012    2    3    3    0    0  0.12573338255E+02 -0.30544737221E+02 -0.16269843718E+02  0.54367114332E+02  0.40000068743E+02 0.  0.
         12    1    3    3    0    0 -0.12573338255E+02  0.30544737221E+02  0.16269843718E+02  0.36820885668E+02  0.00000000000E+00 0. -1.
         11    1    4    4    0    0  0.24441732625E+01 -0.81597273464E+01 -0.25014076423E+02  0.26424593712E+02  0.51100000000E-03 0.  1.
        -11    1    4    4    0    0  0.60167038675E+01 -0.18227272610E+02  0.24491715390E+01  0.19350261851E+02  0.51100000000E-03 0. -1.
        -12    1    4    4    0    0  0.41124611250E+01 -0.41577372644E+01  0.62950611656E+01  0.85922587684E+01  0.00000000000E+00 0.  1.
</event>
<event>
 8    1  0.1271559E-006  0.9118800E+02  0.7816164E-02  0.1184000E+00
        -11   -1    0    0    0    0  0.00000000000E+00  0.00000000000E+00  0.45593999997E+02  0.45594000000E+02  0.51100000000E-03 0. -1.
         11   -1    0    0    0    0 -0.00000000000E+00 -0.00000000000E+00 -0.45593999997E+02  0.45594000000E+02  0.51100000000E-03 0.  1.
         23    2    1    2    0    0  0.44408920985E-15 -0.13322676296E-14  0.71054273576E-14  0.91188000000E+02  0.91188000000E+02 0.  0.
    9900012    2    3    3    0    0 -0.23204426650E+01 -0.19107888597E+01  0.36698022699E+02  0.54367076081E+02  0.39999981541E+02 0.  0.
        -12    1    3    3    0    0  0.23204426650E+01  0.19107888597E+01 -0.36698022699E+02  0.36820923919E+02  0.00000000000E+00 0.  1.
         11    1    4    4    0    0  0.54864220531E+01  0.21518986192E+01 -0.21033403610E+01  0.62574384174E+01  0.51100000000E-03 0. -1.
        -11    1    4    4    0    0  0.39891306037E+01 -0.12837805314E+02  0.22017732272E+02  0.25797343718E+02  0.51100000000E-03 0.  1.
         12    1    4    4    0    0 -0.11795995322E+02  0.87751178348E+01  0.16783630789E+02  0.22312293945E+02  0.00000000000E+00 0. -1.
</event>
<event>
 8    1  0.1271559E-006  0.9118800E+02  0.7816164E-02  0.1184000E+00
        -11   -1    0    0    0    0  0.00000000000E+00  0.00000000000E+00  0.45593999997E+02  0.45594000000E+02  0.51100000000E-03 0.  1.
         11   -1    0    0    0    0 -0.00000000000E+00 -0.00000000000E+00 -0.45593999997E+02  0.45594000000E+02  0.51100000000E-03 0. -1.
         23    2    1    2    0    0 -0.88817841970E-15  0.17763568394E-14  0.00000000000E+00  0.91188000000E+02  0.91188000000E+02 0.  0.
    9900012    2    3    3    0    0 -0.74340269181E+01 -0.82435230805E+01 -0.35107830766E+02  0.54367079179E+02  0.39999988604E+02 0.  0.
        -12    1    3    3    0    0  0.74340269181E+01  0.82435230805E+01  0.35107830766E+02  0.36820920821E+02  0.00000000000E+00 0.  1.
         11    1    4    4    0    0  0.25964620828E+01  0.24391998666E+01 -0.26961365182E+01  0.44677134781E+01  0.51100000000E-03 0.  1.
        -11    1    4    4    0    0 -0.11599787008E+02  0.78019314644E+01 -0.27277181226E+02  0.30650771754E+02  0.51100000000E-03 0. -1.
        -12    1    4    4    0    0  0.15692980075E+01 -0.18484654412E+02 -0.51345130217E+01  0.19248593947E+02  0.00000000000E+00 0.  1.
</event>
<event>
 8    1  0.1271559E-006  0.9118800E+02  0.7816164E-02  0.1184000E+00
        -11   -1    0    0    0    0  0.00000000000E+00  0.00000000000E+00  0.45593999997E+02  0.45594000000E+02  0.51100000000E-03 0.  1.
         11   -1    0    0    0    0 -0.00000000000E+00 -0.00000000000E+00 -0.45593999997E+02  0.45594000000E+02  0.51100000000E-03 0. -1.
         23    2    1    2    0    0  0.00000000000E+00 -0.26645352591E-14 -0.88817841970E-15  0.91188000000E+02  0.91188000000E+02 0.  0.
    9900012    2    3    3    0    0 -0.36415990558E+02  0.34414730706E+01 -0.42203476265E+01  0.54367089646E+02  0.40000012467E+02 0.  0.
        -12    1    3    3    0    0  0.36415990558E+02 -0.34414730706E+01  0.42203476265E+01  0.36820910354E+02  0.00000000000E+00 0.  1.
         11    1    4    4    0    0 -0.13943937439E+02 -0.13083464623E+02 -0.57587295805E+01  0.19969311568E+02  0.51100000000E-03 0. -1.
        -11    1    4    4    0    0 -0.14144742405E+02  0.14937641036E+02 -0.76017830185E+01  0.21931574561E+02  0.51100000000E-03 0.  1.
        -12    1    4    4    0    0 -0.83273107137E+01  0.15872966583E+01  0.91401649725E+01  0.12466203517E+02  0.00000000000E+00 0.  1.
</event>
<event>
 8    1  0.1271559E-006  0.9118800E+02  0.7816164E-02  0.1184000E+00
        -11   -1    0    0    0    0  0.00000000000E+00  0.00000000000E+00  0.45593999997E+02  0.45594000000E+02  0.51100000000E-03 0.  1.
         11   -1    0    0    0    0 -0.00000000000E+00 -0.00000000000E+00 -0.45593999997E+02  0.45594000000E+02  0.51100000000E-03 0. -1.
         23    2    1    2    0    0  0.17763568394E-14  0.00000000000E+00  0.00000000000E+00  0.91188000000E+02  0.91188000000E+02 0.  0.
    9900012    2    3    3    0    0 -0.13851871104E+02  0.24519588488E+02 -0.23721172701E+02  0.54367101219E+02  0.40000038850E+02 0.  0.
        -12    1    3    3    0    0  0.13851871104E+02 -0.24519588488E+02  0.23721172701E+02  0.36820898781E+02  0.00000000000E+00 0.  1.
         11    1    4    4    0    0 -0.15564932766E+02  0.62157315067E+01 -0.58110420976E+00  0.16770215638E+02  0.51100000000E-03 0. -1.
        -11    1    4    4    0    0  0.10683066400E+02  0.10755427976E+02 -0.49327934726E+01  0.15941756188E+02  0.51100000000E-03 0.  1.
        -12    1    4    4    0    0 -0.89700047384E+01  0.75484290051E+01 -0.18207275019E+02  0.21655129394E+02  0.00000000000E+00 0.  1.
</event>
<event>
 8    1  0.1271559E-006  0.9118800E+02  0.7816164E-02  0.1184000E+00
        -11   -1    0    0    0    0  0.00000000000E+00  0.00000000000E+00  0.45593999997E+02  0.45594000000E+02  0.51100000000E-03 0. -1.
         11   -1    0    0    0    0 -0.00000000000E+00 -0.00000000000E+00 -0.45593999997E+02  0.45594000000E+02  0.51100000000E-03 0.  1.
         23    2    1    2    0    0 -0.71054273576E-14 -0.88817841970E-15  0.35527136788E-14  0.91188000000E+02  0.91188000000E+02 0.  0.
    9900012    2    3    3    0    0 -0.33336724858E+02  0.68198570983E+01  0.14068798211E+02  0.54367098895E+02  0.40000033551E+02 0.  0.
        -12    1    3    3    0    0  0.33336724858E+02 -0.68198570983E+01 -0.14068798211E+02  0.36820901105E+02  0.00000000000E+00 0.  1.
         11    1    4    4    0    0 -0.27962248254E+02  0.10149332961E+02  0.11860907522E+02  0.32024637616E+02  0.51100000000E-03 0. -1.
        -11    1    4    4    0    0 -0.32938849805E+01  0.89366716520E+01 -0.75150348413E+00  0.95539801250E+01  0.51100000000E-03 0.  1.
        -12    1    4    4    0    0 -0.20805916235E+01 -0.12266147514E+02  0.29593941727E+01  0.12788481154E+02  0.00000000000E+00 0.  1.
</event>
<event>
 8    1  0.1271559E-006  0.9118800E+02  0.7816164E-02  0.1184000E+00
        -11   -1    0    0    0    0  0.00000000000E+00  0.00000000000E+00  0.45593999997E+02  0.45594000000E+02  0.51100000000E-03 0.  1.
         11   -1    0    0    0    0 -0.00000000000E+00 -0.00000000000E+00 -0.45593999997E+02  0.45594000000E+02  0.51100000000E-03 0. -1.
         23    2    1    2    0    0  0.00000000000E+00  0.17763568394E-14  0.17763568394E-14  0.91188000000E+02  0.91188000000E+02 0.  0.
    9900012    2    3    3    0    0 -0.34129518112E+02 -0.31625187674E+01 -0.13451912923E+02  0.54367088919E+02  0.40000010810E+02 0.  0.
        -12    1    3    3    0    0  0.34129518112E+02  0.31625187674E+01  0.13451912923E+02  0.36820911081E+02  0.00000000000E+00 0.  1.
         11    1    4    4    0    0 -0.32815429355E+01  0.13382038502E+02 -0.57137713565E+01  0.14916254955E+02  0.51100000000E-03 0. -1.
        -11    1    4    4    0    0 -0.84579346682E+00 -0.12246537952E+01  0.36090031676E+01  0.39038503598E+01  0.51100000000E-03 0.  1.
         12    1    4    4    0    0 -0.30002181710E+02 -0.15319903474E+02 -0.11347144734E+02  0.35546983605E+02  0.00000000000E+00 0. -1.
</event>
<event>
 8    1  0.1271559E-006  0.9118800E+02  0.7816164E-02  0.1184000E+00
        -11   -1    0    0    0    0  0.00000000000E+00  0.00000000000E+00  0.45593999997E+02  0.45594000000E+02  0.51100000000E-03 0. -1.
         11   -1    0    0    0    0 -0.00000000000E+00 -0.00000000000E+00 -0.45593999997E+02  0.45594000000E+02  0.51100000000E-03 0.  1.
         23    2    1    2    0    0  0.00000000000E+00 -0.88817841970E-15 -0.35527136788E-14  0.91188000000E+02  0.91188000000E+02 0.  0.
    9900012    2    3    3    0    0 -0.19109233649E+02  0.65118909809E+01 -0.30793055226E+02  0.54367084952E+02  0.40000001766E+02 0.  0.
         12    1    3    3    0    0  0.19109233649E+02 -0.65118909809E+01  0.30793055226E+02  0.36820915048E+02  0.00000000000E+00 0. -1.
         11    1    4    4    0    0 -0.29354305547E+01 -0.92548147896E+01 -0.68122944556E+01  0.11860678958E+02  0.51100000000E-03 0. -1.
        -11    1    4    4    0    0 -0.45917027295E+01 -0.64454753880E+01 -0.12589602386E+00  0.79147796560E+01  0.51100000000E-03 0.  1.
         12    1    4    4    0    0 -0.11582100365E+02  0.22212181158E+02 -0.23854864746E+02  0.34591626339E+02  0.00000000000E+00 0. -1.
</event>
<event>
 8    1  0.1271559E-006  0.9118800E+02  0.7816164E-02  0.1184000E+00
        -11   -1    0    0    0    0  0.00000000000E+00  0.00000000000E+00  0.45593999997E+02  0.45594000000E+02  0.51100000000E-03 0. -1.
         11   -1    0    0    0    0 -0.00000000000E+00 -0.00000000000E+00 -0.45593999997E+02  0.45594000000E+02  0.51100000000E-03 0.  1.
         23    2    1    2    0    0  0.00000000000E+00  0.00000000000E+00  0.00000000000E+00  0.91188000000E+02  0.91188000000E+02 0.  0.
    9900012    2    3    3    0    0  0.55649835407E+01 -0.35889940521E+02 -0.60599417678E+01  0.54367085201E+02  0.40000002332E+02 0.  0.
        -12    1    3    3    0    0 -0.55649835407E+01  0.35889940521E+02  0.60599417678E+01  0.36820914799E+02  0.00000000000E+00 0.  1.
         11    1    4    4    0    0 -0.12713133554E+01  0.32734204030E+01  0.40526384899E+01  0.53624059687E+01  0.51100000000E-03 0. -1.
        -11    1    4    4    0    0 -0.86029475231E+00  0.18920087299E+01 -0.67913558291E+01  0.71022755757E+01  0.51100000000E-03 0.  1.
         12    1    4    4    0    0  0.76965916485E+01 -0.41055369654E+02 -0.33212244286E+01  0.41902403656E+02  0.00000000000E+00 0. -1.
</event>
<event>
 8    1  0.1271559E-006  0.9118800E+02  0.7816164E-02  0.1184000E+00
        -11   -1    0    0    0    0  0.00000000000E+00  0.00000000000E+00  0.45593999997E+02  0.45594000000E+02  0.51100000000E-03 0. -1.
         11   -1    0    0    0    0 -0.00000000000E+00 -0.00000000000E+00 -0.45593999997E+02  0.45594000000E+02  0.51100000000E-03 0.  1.
         23    2    1    2    0    0  0.17763568394E-14  0.00000000000E+00  0.00000000000E+00  0.91188000000E+02  0.91188000000E+02 0.  0.
    9900012    2    3    3    0    0  0.10810307325E+02  0.39426848252E+01  0.34976728953E+02  0.54367094575E+02  0.40000023702E+02 0.  0.
        -12    1    3    3    0    0 -0.10810307325E+02 -0.39426848252E+01 -0.34976728953E+02  0.36820905425E+02  0.00000000000E+00 0.  1.
         11    1    4    4    0    0 -0.24982306638E+01  0.85715700264E-01  0.15347922048E+02  0.15550151610E+02  0.51100000000E-03 0. -1.
        -11    1    4    4    0    0 -0.33206726302E+01 -0.89625285069E+01 -0.71028873737E+00  0.95842732800E+01  0.51100000000E-03 0.  1.
         12    1    4    4    0    0  0.16629210619E+02  0.12819497632E+02  0.20339095642E+02  0.29232669685E+02  0.00000000000E+00 0. -1.
</event>
<event>
 8    1  0.1271559E-006  0.9118800E+02  0.7816164E-02  0.1184000E+00
        -11   -1    0    0    0    0  0.00000000000E+00  0.00000000000E+00  0.45593999997E+02  0.45594000000E+02  0.51100000000E-03 0. -1.
         11   -1    0    0    0    0 -0.00000000000E+00 -0.00000000000E+00 -0.45593999997E+02  0.45594000000E+02  0.51100000000E-03 0.  1.
         23    2    1    2    0    0  0.35527136788E-14  0.11102230246E-14  0.00000000000E+00  0.91188000000E+02  0.91188000000E+02 0.  0.
    9900012    2    3    3    0    0  0.28854087165E+02  0.12615675360E+01  0.22839217507E+02  0.54367085358E+02  0.40000002690E+02 0.  0.
        -12    1    3    3    0    0 -0.28854087165E+02 -0.12615675360E+01 -0.22839217507E+02  0.36820914642E+02  0.00000000000E+00 0.  1.
         11    1    4    4    0    0  0.73946495361E+01  0.97983096203E+01  0.34126783374E+01  0.12741039474E+02  0.51100000000E-03 0. -1.
        -11    1    4    4    0    0  0.10765763352E+02 -0.19457357230E+00  0.24800811586E+02  0.27037377369E+02  0.51100000000E-03 0.  1.
         12    1    4    4    0    0  0.10693674277E+02 -0.83421685120E+01 -0.53742724165E+01  0.14588668514E+02  0.00000000000E+00 0. -1.
</event>
<event>
 8    1  0.1271559E-006  0.9118800E+02  0.7816164E-02  0.1184000E+00
        -11   -1    0    0    0    0  0.00000000000E+00  0.00000000000E+00  0.45593999997E+02  0.45594000000E+02  0.51100000000E-03 0.  1.
         11   -1    0    0    0    0 -0.00000000000E+00 -0.00000000000E+00 -0.45593999997E+02  0.45594000000E+02  0.51100000000E-03 0. -1.
         23    2    1    2    0    0  0.35527136788E-14  0.00000000000E+00  0.35527136788E-14  0.91188000000E+02  0.91188000000E+02 0.  0.
    9900012    2    3    3    0    0  0.19066597820E+02  0.10305899504E+02  0.29766290114E+02  0.54367099086E+02  0.40000033986E+02 0.  0.
         12    1    3    3    0    0 -0.19066597820E+02 -0.10305899504E+02 -0.29766290114E+02  0.36820900914E+02  0.00000000000E+00 0. -1.
         11    1    4    4    0    0 -0.18934714358E+01  0.62238087461E+01  0.14110554245E+01  0.66567339633E+01  0.51100000000E-03 0. -1.
        -11    1    4    4    0    0  0.12193694138E+02 -0.24021487020E+01 -0.44030864901E+01  0.13184978802E+02  0.51100000000E-03 0.  1.
        -12    1    4    4    0    0  0.87663751179E+01  0.64842394601E+01  0.32758321179E+02  0.34525386320E+02  0.00000000000E+00 0.  1.
</event>
<event>
 8    1  0.1271559E-006  0.9118800E+02  0.7816164E-02  0.1184000E+00
        -11   -1    0    0    0    0  0.00000000000E+00  0.00000000000E+00  0.45593999997E+02  0.45594000000E+02  0.51100000000E-03 0.  1.
         11   -1    0    0    0    0 -0.00000000000E+00 -0.00000000000E+00 -0.45593999997E+02  0.45594000000E+02  0.51100000000E-03 0. -1.
         23    2    1    2    0    0  0.52735593670E-15 -0.26645352591E-14 -0.71054273576E-14  0.91188000000E+02  0.91188000000E+02 0.  0.
    9900012    2    3    3    0    0 -0.15470067431E+00  0.61723648393E+01  0.36299527526E+02  0.54367113012E+02  0.40000065733E+02 0.  0.
         12    1    3    3    0    0  0.15470067431E+00 -0.61723648393E+01 -0.36299527526E+02  0.36820886988E+02  0.00000000000E+00 0. -1.
         11    1    4    4    0    0 -0.53994124999E+01 -0.68919894545E+01  0.17606554681E+02  0.19663263767E+02  0.51100000000E-03 0. -1.
        -11    1    4    4    0    0  0.80551656372E+01  0.16658411301E+00 -0.35772672198E+01  0.88153437104E+01  0.51100000000E-03 0.  1.
        -12    1    4    4    0    0 -0.28104538116E+01  0.12897770181E+02  0.22270240065E+02  0.25888505534E+02  0.00000000000E+00 0.  1.
</event>
<event>
 8    1  0.1271559E-006  0.9118800E+02  0.7816164E-02  0.1184000E+00
        -11   -1    0    0    0    0  0.00000000000E+00  0.00000000000E+00  0.45593999997E+02  0.45594000000E+02  0.51100000000E-03 0.  1.
         11   -1    0    0    0    0 -0.00000000000E+00 -0.00000000000E+00 -0.45593999997E+02  0.45594000000E+02  0.51100000000E-03 0. -1.
         23    2    1    2    0    0 -0.71054273576E-14  0.35527136788E-14 -0.26645352591E-14  0.91188000000E+02  0.91188000000E+02 0.  0.
    9900012    2    3    3    0    0  0.32521026779E+02 -0.16448939053E+02  0.52530367700E+01  0.54367093247E+02  0.40000020676E+02 0.  0.
        -12    1    3    3    0    0 -0.32521026779E+02  0.16448939053E+02 -0.52530367700E+01  0.36820906753E+02  0.00000000000E+00 0.  1.
         11    1    4    4    0    0  0.10127391841E+01 -0.88802344764E+01 -0.13252994591E+02  0.15985182855E+02  0.51100000000E-03 0. -1.
        -11    1    4    4    0    0  0.16265531748E+01 -0.17846457616E+01  0.39838754566E+01  0.46585297723E+01  0.51100000000E-03 0.  1.
         12    1    4    4    0    0  0.29881734421E+02 -0.57840588155E+01  0.14522155904E+02  0.33723380620E+02  0.00000000000E+00 0. -1.
</event>
<event>
 8    1  0.1271559E-006  0.9118800E+02  0.7816164E-02  0.1184000E+00
        -11   -1    0    0    0    0  0.00000000000E+00  0.00000000000E+00  0.45593999997E+02  0.45594000000E+02  0.51100000000E-03 0. -1.
         11   -1    0    0    0    0 -0.00000000000E+00 -0.00000000000E+00 -0.45593999997E+02  0.45594000000E+02  0.51100000000E-03 0.  1.
         23    2    1    2    0    0  0.35527136788E-14  0.00000000000E+00  0.00000000000E+00  0.91188000000E+02  0.91188000000E+02 0.  0.
    9900012    2    3    3    0    0 -0.10558811930E+02  0.34127881722E+02  0.89206385040E+01  0.54367100887E+02  0.40000038091E+02 0.  0.
        -12    1    3    3    0    0  0.10558811930E+02 -0.34127881722E+02 -0.89206385040E+01  0.36820899113E+02  0.00000000000E+00 0.  1.
         11    1    4    4    0    0 -0.68927907004E+01  0.19680654876E+02 -0.74309587378E+00  0.20866023381E+02  0.51100000000E-03 0. -1.
        -11    1    4    4    0    0  0.87316326264E+01  0.17252766325E+02  0.51274238003E+01  0.20004745169E+02  0.51100000000E-03 0.  1.
        -12    1    4    4    0    0 -0.12397653856E+02 -0.28055394785E+01  0.45363105774E+01  0.13496332337E+02  0.00000000000E+00 0.  1.
</event>
<event>
 8    1  0.1271559E-006  0.9118800E+02  0.7816164E-02  0.1184000E+00
        -11   -1    0    0    0    0  0.00000000000E+00  0.00000000000E+00  0.45593999997E+02  0.45594000000E+02  0.51100000000E-03 0.  1.
         11   -1    0    0    0    0 -0.00000000000E+00 -0.00000000000E+00 -0.45593999997E+02  0.45594000000E+02  0.51100000000E-03 0. -1.
         23    2    1    2    0    0  0.00000000000E+00 -0.71054273576E-14  0.51070259133E-14  0.91188000000E+02  0.91188000000E+02 0.  0.
    9900012    2    3    3    0    0 -0.16592644143E+02 -0.32839633722E+02 -0.14224596053E+01  0.54367071522E+02  0.39999971148E+02 0.  0.
         12    1    3    3    0    0  0.16592644143E+02  0.32839633722E+02  0.14224596053E+01  0.36820928478E+02  0.00000000000E+00 0. -1.
         11    1    4    4    0    0 -0.91775993247E+01 -0.45473325827E+01 -0.16802395377E+02  0.19678085620E+02  0.51100000000E-03 0. -1.
        -11    1    4    4    0    0  0.15227088021E+01 -0.10069621074E+01  0.27989519762E+01  0.33416683270E+01  0.51100000000E-03 0.  1.
         12    1    4    4    0    0 -0.89377536205E+01 -0.27285339032E+02  0.12580983796E+02  0.31347317575E+02  0.00000000000E+00 0. -1.
</event>
<event>
 8    1  0.1271559E-006  0.9118800E+02  0.7816164E-02  0.1184000E+00
        -11   -1    0    0    0    0  0.00000000000E+00  0.00000000000E+00  0.45593999997E+02  0.45594000000E+02  0.51100000000E-03 0.  1.
         11   -1    0    0    0    0 -0.00000000000E+00 -0.00000000000E+00 -0.45593999997E+02  0.45594000000E+02  0.51100000000E-03 0. -1.
         23    2    1    2    0    0 -0.17763568394E-14 -0.35527136788E-14  0.00000000000E+00  0.91188000000E+02  0.91188000000E+02 0.  0.
    9900012    2    3    3    0    0  0.15863056054E+02  0.28907977231E+02  0.16385059650E+02  0.54367110892E+02  0.40000060900E+02 0.  0.
         12    1    3    3    0    0 -0.15863056054E+02 -0.28907977231E+02 -0.16385059650E+02  0.36820889108E+02  0.00000000000E+00 0. -1.
         11    1    4    4    0    0  0.11543651303E+02  0.76960853811E+01 -0.78143814130E+01  0.15923258860E+02  0.51100000000E-03 0. -1.
        -11    1    4    4    0    0 -0.77280050442E+01  0.13147529455E+02  0.14150707041E+02  0.20804377010E+02  0.51100000000E-03 0.  1.
        -12    1    4    4    0    0  0.12047409795E+02  0.80643623953E+01  0.10048734021E+02  0.17639475022E+02  0.00000000000E+00 0.  1.
</event>
<event>
 8    1  0.1271559E-006  0.9118800E+02  0.7816164E-02  0.1184000E+00
        -11   -1    0    0    0    0  0.00000000000E+00  0.00000000000E+00  0.45593999997E+02  0.45594000000E+02  0.51100000000E-03 0.  1.
         11   -1    0    0    0    0 -0.00000000000E+00 -0.00000000000E+00 -0.45593999997E+02  0.45594000000E+02  0.51100000000E-03 0. -1.
         23    2    1    2    0    0  0.00000000000E+00 -0.17763568394E-14  0.00000000000E+00  0.91188000000E+02  0.91188000000E+02 0.  0.
    9900012    2    3    3    0    0  0.30845156641E+02  0.15066682278E+02  0.13317309127E+02  0.54367091191E+02  0.40000015989E+02 0.  0.
         12    1    3    3    0    0 -0.30845156641E+02 -0.15066682278E+02 -0.13317309127E+02  0.36820908809E+02  0.00000000000E+00 0. -1.
         11    1    4    4    0    0  0.58920111947E+01  0.13290751001E+02 -0.11938297794E+02  0.18811773243E+02  0.51100000000E-03 0. -1.
        -11    1    4    4    0    0  0.21910503325E+02  0.16544171610E+01  0.21867559535E+02  0.30999958264E+02  0.51100000000E-03 0.  1.
         12    1    4    4    0    0  0.30426421212E+01  0.12151411682E+00  0.33880473859E+01  0.45553596837E+01  0.00000000000E+00 0. -1.
</event>
<event>
 8    1  0.1271559E-006  0.9118800E+02  0.7816164E-02  0.1184000E+00
        -11   -1    0    0    0    0  0.00000000000E+00  0.00000000000E+00  0.45593999997E+02  0.45594000000E+02  0.51100000000E-03 0.  1.
         11   -1    0    0    0    0 -0.00000000000E+00 -0.00000000000E+00 -0.45593999997E+02  0.45594000000E+02  0.51100000000E-03 0. -1.
         23    2    1    2    0    0 -0.35527136788E-14  0.00000000000E+00 -0.44408920985E-15  0.91188000000E+02  0.91188000000E+02 0.  0.
    9900012    2    3    3    0    0  0.24783245996E+02  0.27179865969E+02  0.16814949910E+01  0.54367057296E+02  0.39999938718E+02 0.  0.
        -12    1    3    3    0    0 -0.24783245996E+02 -0.27179865969E+02 -0.16814949910E+01  0.36820942704E+02  0.00000000000E+00 0.  1.
         11    1    4    4    0    0  0.24865254832E+01 -0.30927872027E+01 -0.59700061194E+00  0.40130476762E+01  0.51100000000E-03 0. -1.
        -11    1    4    4    0    0  0.25672606273E+01  0.30366523562E+02  0.29158939947E+01  0.30614033031E+02  0.51100000000E-03 0.  1.
        -12    1    4    4    0    0  0.19729459885E+02 -0.93870390514E-01 -0.63739839172E+00  0.19739976589E+02  0.00000000000E+00 0.  1.
</event>
<event>
 8    1  0.1271559E-006  0.9118800E+02  0.7816164E-02  0.1184000E+00
        -11   -1    0    0    0    0  0.00000000000E+00  0.00000000000E+00  0.45593999997E+02  0.45594000000E+02  0.51100000000E-03 0. -1.
         11   -1    0    0    0    0 -0.00000000000E+00 -0.00000000000E+00 -0.45593999997E+02  0.45594000000E+02  0.51100000000E-03 0.  1.
         23    2    1    2    0    0  0.00000000000E+00  0.35527136788E-14  0.00000000000E+00  0.91188000000E+02  0.91188000000E+02 0.  0.
    9900012    2    3    3    0    0  0.30919204133E+02 -0.19192085650E+02 -0.56077431453E+01  0.54367080416E+02  0.39999991425E+02 0.  0.
         12    1    3    3    0    0 -0.30919204133E+02  0.19192085650E+02  0.56077431453E+01  0.36820919584E+02  0.00000000000E+00 0. -1.
         11    1    4    4    0    0  0.54223740683E+01  0.11349322236E+01 -0.41626320518E+01  0.69294817663E+01  0.51100000000E-03 0. -1.
        -11    1    4    4    0    0  0.29264463090E+02 -0.26621434772E+02  0.13571528888E+01  0.39584737634E+02  0.51100000000E-03 0.  1.
        -12    1    4    4    0    0 -0.37676330255E+01  0.62944168989E+01 -0.28022639823E+01  0.78528610161E+01  0.00000000000E+00 0.  1.
</event>
<event>
 8    1  0.1271559E-006  0.9118800E+02  0.7816164E-02  0.1184000E+00
        -11   -1    0    0    0    0  0.00000000000E+00  0.00000000000E+00  0.45593999997E+02  0.45594000000E+02  0.51100000000E-03 0.  1.
         11   -1    0    0    0    0 -0.00000000000E+00 -0.00000000000E+00 -0.45593999997E+02  0.45594000000E+02  0.51100000000E-03 0. -1.
         23    2    1    2    0    0  0.00000000000E+00 -0.71054273576E-14  0.00000000000E+00  0.91188000000E+02  0.91188000000E+02 0.  0.
    9900012    2    3    3    0    0 -0.89541899043E+01  0.34904302822E+02  0.75691296785E+01  0.54367087512E+02  0.40000007601E+02 0.  0.
        -12    1    3    3    0    0  0.89541899043E+01 -0.34904302822E+02 -0.75691296785E+01  0.36820912488E+02  0.00000000000E+00 0.  1.
         11    1    4    4    0    0  0.19051507737E+01  0.18892779856E+02 -0.15282369657E+01  0.19049993140E+02  0.51100000000E-03 0. -1.
        -11    1    4    4    0    0 -0.19709568270E+02  0.15240339496E+02  0.45122319870E+01  0.25319859145E+02  0.51100000000E-03 0.  1.
         12    1    4    4    0    0  0.88502275919E+01  0.77118347108E+00  0.45851346572E+01  0.99972352277E+01  0.00000000000E+00 0. -1.
</event>
<event>
 8    1  0.1271559E-006  0.9118800E+02  0.7816164E-02  0.1184000E+00
        -11   -1    0    0    0    0  0.00000000000E+00  0.00000000000E+00  0.45593999997E+02  0.45594000000E+02  0.51100000000E-03 0.  1.
         11   -1    0    0    0    0 -0.00000000000E+00 -0.00000000000E+00 -0.45593999997E+02  0.45594000000E+02  0.51100000000E-03 0. -1.
         23    2    1    2    0    0  0.35527136788E-14  0.17763568394E-14  0.00000000000E+00  0.91188000000E+02  0.91188000000E+02 0.  0.
    9900012    2    3    3    0    0 -0.31972945729E+02 -0.15439712669E+02  0.97530442029E+01  0.54367138289E+02  0.40000123358E+02 0.  0.
         12    1    3    3    0    0  0.31972945729E+02  0.15439712669E+02 -0.97530442029E+01  0.36820861711E+02  0.00000000000E+00 0. -1.
         11    1    4    4    0    0  0.35739607573E+01 -0.14091409350E+01  0.32220542051E+01  0.50140310361E+01  0.51100000000E-03 0. -1.
        -11    1    4    4    0    0 -0.11053315177E+02 -0.90411004243E+01  0.17044210061E+02  0.22235610406E+02  0.51100000000E-03 0.  1.
        -12    1    4    4    0    0 -0.24493591309E+02 -0.49894713100E+01 -0.10513220063E+02  0.27117496847E+02  0.00000000000E+00 0.  1.
</event>
<event>
 8    1  0.1271559E-006  0.9118800E+02  0.7816164E-02  0.1184000E+00
        -11   -1    0    0    0    0  0.00000000000E+00  0.00000000000E+00  0.45593999997E+02  0.45594000000E+02  0.51100000000E-03 0.  1.
         11   -1    0    0    0    0 -0.00000000000E+00 -0.00000000000E+00 -0.45593999997E+02  0.45594000000E+02  0.51100000000E-03 0. -1.
         23    2    1    2    0    0 -0.88817841970E-15  0.35527136788E-14  0.00000000000E+00  0.91188000000E+02  0.91188000000E+02 0.  0.
    9900012    2    3    3    0    0  0.49315901347E+01 -0.31664541253E+02  0.18133276655E+02  0.54367089145E+02  0.40000011323E+02 0.  0.
         12    1    3    3    0    0 -0.49315901347E+01  0.31664541253E+02 -0.18133276655E+02  0.36820910855E+02  0.00000000000E+00 0. -1.
         11    1    4    4    0    0  0.54754677822E+01 -0.31136502900E+02  0.19662291420E+02  0.37229937744E+02  0.51100000000E-03 0. -1.
        -11    1    4    4    0    0 -0.83418000927E+01 -0.26413894144E+01  0.63535576021E+00  0.87730407516E+01  0.51100000000E-03 0.  1.
         12    1    4    4    0    0  0.77979224453E+01  0.21133510620E+01 -0.21643705258E+01  0.83641106489E+01  0.00000000000E+00 0. -1.
</event>
<event>
 8    1  0.1271559E-006  0.9118800E+02  0.7816164E-02  0.1184000E+00
        -11   -1    0    0    0    0  0.00000000000E+00  0.00000000000E+00  0.45593999997E+02  0.45594000000E+02  0.51100000000E-03 0. -1.
         11   -1    0    0    0    0 -0.00000000000E+00 -0.00000000000E+00 -0.45593999997E+02  0.45594000000E+02  0.51100000000E-03 0.  1.
         23    2    1    2    0    0  0.00000000000E+00  0.00000000000E+00  0.00000000000E+00  0.91188000000E+02  0.91188000000E+02 0.  0.
    9900012    2    3    3    0    0  0.11635924147E+02  0.16832354181E+02 -0.30611382897E+02  0.54367086908E+02  0.40000006225E+02 0.  0.
         12    1    3    3    0    0 -0.11635924147E+02 -0.16832354181E+02  0.30611382897E+02  0.36820913092E+02  0.00000000000E+00 0. -1.
         11    1    4    4    0    0  0.93104038832E+01  0.24576195672E+01 -0.51336451812E+01  0.10912278750E+02  0.51100000000E-03 0. -1.
        -11    1    4    4    0    0  0.15698501531E+02  0.75149514874E+01 -0.51045830775E+01  0.18137646342E+02  0.51100000000E-03 0.  1.
        -12    1    4    4    0    0 -0.13372981267E+02  0.68597831260E+01 -0.20373154639E+02  0.25317161816E+02  0.00000000000E+00 0.  1.
</event>
<event>
 8    1  0.1271559E-006  0.9118800E+02  0.7816164E-02  0.1184000E+00
        -11   -1    0    0    0    0  0.00000000000E+00  0.00000000000E+00  0.45593999997E+02  0.45594000000E+02  0.51100000000E-03 0. -1.
         11   -1    0    0    0    0 -0.00000000000E+00 -0.00000000000E+00 -0.45593999997E+02  0.45594000000E+02  0.51100000000E-03 0.  1.
         23    2    1    2    0    0  0.00000000000E+00  0.17763568394E-14  0.00000000000E+00  0.91188000000E+02  0.91188000000E+02 0.  0.
    9900012    2    3    3    0    0 -0.20067649505E+02  0.14370488824E+02  0.27323216445E+02  0.54367086614E+02  0.40000005553E+02 0.  0.
        -12    1    3    3    0    0  0.20067649505E+02 -0.14370488824E+02 -0.27323216445E+02  0.36820913386E+02  0.00000000000E+00 0.  1.
         11    1    4    4    0    0 -0.19657195472E+02  0.21114033088E+02  0.13288940714E+02  0.31761669865E+02  0.51100000000E-03 0.  1.
        -11    1    4    4    0    0  0.12951567579E+01 -0.93159702332E+01  0.12910879122E+01  0.94937685179E+01  0.51100000000E-03 0. -1.
         12    1    4    4    0    0 -0.17056107909E+01  0.25724259691E+01  0.12743187819E+02  0.13111648231E+02  0.00000000000E+00 0. -1.
</event>
<event>
 8    1  0.1271559E-006  0.9118800E+02  0.7816164E-02  0.1184000E+00
        -11   -1    0    0    0    0  0.00000000000E+00  0.00000000000E+00  0.45593999997E+02  0.45594000000E+02  0.51100000000E-03 0.  1.
         11   -1    0    0    0    0 -0.00000000000E+00 -0.00000000000E+00 -0.45593999997E+02  0.45594000000E+02  0.51100000000E-03 0. -1.
         23    2    1    2    0    0  0.00000000000E+00  0.13322676296E-14  0.00000000000E+00  0.91188000000E+02  0.91188000000E+02 0.  0.
    9900012    2    3    3    0    0 -0.24056877314E+02  0.37286034307E+01 -0.27625057320E+02  0.54367087171E+02  0.40000006824E+02 0.  0.
        -12    1    3    3    0    0  0.24056877314E+02 -0.37286034307E+01  0.27625057320E+02  0.36820912829E+02  0.00000000000E+00 0.  1.
         11    1    4    4    0    0 -0.20632174575E+02  0.19574603425E+02 -0.20267287443E+02  0.34922981939E+02  0.51100000000E-03 0. -1.
        -11    1    4    4    0    0 -0.81266247798E+00 -0.87590324317E+01  0.14522242037E+00  0.87978496949E+01  0.51100000000E-03 0.  1.
         12    1    4    4    0    0 -0.26120402608E+01 -0.70869675629E+01 -0.75029922967E+01  0.10646255537E+02  0.00000000000E+00 0. -1.
</event>
<event>
 8    1  0.1271559E-006  0.9118800E+02  0.7816164E-02  0.1184000E+00
        -11   -1    0    0    0    0  0.00000000000E+00  0.00000000000E+00  0.45593999997E+02  0.45594000000E+02  0.51100000000E-03 0. -1.
         11   -1    0    0    0    0 -0.00000000000E+00 -0.00000000000E+00 -0.45593999997E+02  0.45594000000E+02  0.51100000000E-03 0.  1.
         23    2    1    2    0    0 -0.35527136788E-14  0.71054273576E-14  0.35527136788E-14  0.91188000000E+02  0.91188000000E+02 0.  0.
    9900012    2    3    3    0    0 -0.16980940688E+02  0.23171871482E+02  0.23032435365E+02  0.54367067727E+02  0.39999962497E+02 0.  0.
        -12    1    3    3    0    0  0.16980940688E+02 -0.23171871482E+02 -0.23032435365E+02  0.36820932273E+02  0.00000000000E+00 0.  1.
         11    1    4    4    0    0 -0.10174779627E+02 -0.36580808850E+01 -0.39671106270E+01  0.11517189901E+02  0.51100000000E-03 0.  1.
        -11    1    4    4    0    0  0.59443802258E+01  0.93427403265E+01  0.12989071523E+02  0.17068638855E+02  0.51100000000E-03 0. -1.
        -12    1    4    4    0    0 -0.12750541287E+02  0.17487212040E+02  0.14010474468E+02  0.25781238971E+02  0.00000000000E+00 0.  1.
</event>
<event>
 8    1  0.1271559E-006  0.9118800E+02  0.7816164E-02  0.1184000E+00
        -11   -1    0    0    0    0  0.00000000000E+00  0.00000000000E+00  0.45593999997E+02  0.45594000000E+02  0.51100000000E-03 0.  1.
         11   -1    0    0    0    0 -0.00000000000E+00 -0.00000000000E+00 -0.45593999997E+02  0.45594000000E+02  0.51100000000E-03 0. -1.
         23    2    1    2    0    0 -0.44408920985E-15  0.35527136788E-14  0.35527136788E-14  0.91188000000E+02  0.91188000000E+02 0.  0.
    9900012    2    3    3    0    0 -0.26733345257E+01 -0.27777702456E+02 -0.24021508888E+02  0.54367077137E+02  0.39999983950E+02 0.  0.
        -12    1    3    3    0    0  0.26733345257E+01  0.27777702456E+02  0.24021508888E+02  0.36820922863E+02  0.00000000000E+00 0.  1.
         11    1    4    4    0    0 -0.32739096969E+01  0.89437664365E+01 -0.77626707590E+01  0.12286923958E+02  0.51100000000E-03 0. -1.
        -11    1    4    4    0    0 -0.36663900140E+01 -0.99870961970E+01 -0.27773036310E+00  0.10642445236E+02  0.51100000000E-03 0.  1.
         12    1    4    4    0    0  0.42669651852E+01 -0.26734372695E+02 -0.15981107766E+02  0.31437707943E+02  0.00000000000E+00 0. -1.
</event>
<event>
 8    1  0.1271559E-006  0.9118800E+02  0.7816164E-02  0.1184000E+00
        -11   -1    0    0    0    0  0.00000000000E+00  0.00000000000E+00  0.45593999997E+02  0.45594000000E+02  0.51100000000E-03 0.  1.
         11   -1    0    0    0    0 -0.00000000000E+00 -0.00000000000E+00 -0.45593999997E+02  0.45594000000E+02  0.51100000000E-03 0. -1.
         23    2    1    2    0    0  0.35527136788E-14  0.35527136788E-14  0.35527136788E-14  0.91188000000E+02  0.91188000000E+02 0.  0.
    9900012    2    3    3    0    0 -0.22496353597E+02  0.22881532504E+02  0.18059034300E+02  0.54367093239E+02  0.40000020656E+02 0.  0.
         12    1    3    3    0    0  0.22496353597E+02 -0.22881532504E+02 -0.18059034300E+02  0.36820906761E+02  0.00000000000E+00 0. -1.
         11    1    4    4    0    0  0.68904824015E+01  0.81378054738E+01 -0.15428814680E+01  0.10774187168E+02  0.51100000000E-03 0. -1.
        -11    1    4    4    0    0 -0.14987609078E+02 -0.16572766562E+01  0.15037792716E+02  0.21295778967E+02  0.51100000000E-03 0.  1.
        -12    1    4    4    0    0 -0.14399226920E+02  0.16401003686E+02  0.45641230522E+01  0.22297127103E+02  0.00000000000E+00 0.  1.
</event>
<event>
 8    1  0.1271559E-006  0.9118800E+02  0.7816164E-02  0.1184000E+00
        -11   -1    0    0    0    0  0.00000000000E+00  0.00000000000E+00  0.45593999997E+02  0.45594000000E+02  0.51100000000E-03 0. -1.
         11   -1    0    0    0    0 -0.00000000000E+00 -0.00000000000E+00 -0.45593999997E+02  0.45594000000E+02  0.51100000000E-03 0.  1.
         23    2    1    2    0    0  0.00000000000E+00  0.00000000000E+00  0.00000000000E+00  0.91188000000E+02  0.91188000000E+02 0.  0.
    9900012    2    3    3    0    0 -0.17997739436E+02 -0.10510343595E+02  0.30354468481E+02  0.54367086051E+02  0.40000004271E+02 0.  0.
        -12    1    3    3    0    0  0.17997739436E+02  0.10510343595E+02 -0.30354468481E+02  0.36820913949E+02  0.00000000000E+00 0.  1.
         11    1    4    4    0    0 -0.74461795705E+01 -0.62992473104E+01  0.30211231341E+02  0.31746568417E+02  0.51100000000E-03 0. -1.
        -11    1    4    4    0    0  0.21062332475E+01 -0.54033044223E+01  0.62414475365E+01  0.85198347862E+01  0.51100000000E-03 0.  1.
         12    1    4    4    0    0 -0.12657793113E+02  0.11922081379E+01 -0.60982103964E+01  0.14100682848E+02  0.00000000000E+00 0. -1.
</event>
<event>
 8    1  0.1271559E-006  0.9118800E+02  0.7816164E-02  0.1184000E+00
        -11   -1    0    0    0    0  0.00000000000E+00  0.00000000000E+00  0.45593999997E+02  0.45594000000E+02  0.51100000000E-03 0.  1.
         11   -1    0    0    0    0 -0.00000000000E+00 -0.00000000000E+00 -0.45593999997E+02  0.45594000000E+02  0.51100000000E-03 0. -1.
         23    2    1    2    0    0  0.00000000000E+00 -0.71054273576E-14 -0.71054273576E-14  0.91188000000E+02  0.91188000000E+02 0.  0.
    9900012    2    3    3    0    0 -0.95522992483E+01  0.30986650781E+02  0.17445785369E+02  0.54367158420E+02  0.40000169249E+02 0.  0.
         12    1    3    3    0    0  0.95522992483E+01 -0.30986650781E+02 -0.17445785369E+02  0.36820841580E+02  0.00000000000E+00 0. -1.
         11    1    4    4    0    0 -0.26370159219E+01 -0.74077241627E+00 -0.11562184225E+01  0.29731192453E+01  0.51100000000E-03 0. -1.
        -11    1    4    4    0    0 -0.20989897852E+02  0.22290572643E+02  0.89806057144E+01  0.31907627926E+02  0.51100000000E-03 0.  1.
         12    1    4    4    0    0  0.14074614525E+02  0.94368505539E+01  0.96213980771E+01  0.19486411249E+02  0.00000000000E+00 0. -1.
</event>
<event>
 8    1  0.1271559E-006  0.9118800E+02  0.7816164E-02  0.1184000E+00
        -11   -1    0    0    0    0  0.00000000000E+00  0.00000000000E+00  0.45593999997E+02  0.45594000000E+02  0.51100000000E-03 0.  1.
         11   -1    0    0    0    0 -0.00000000000E+00 -0.00000000000E+00 -0.45593999997E+02  0.45594000000E+02  0.51100000000E-03 0. -1.
         23    2    1    2    0    0  0.00000000000E+00  0.71054273576E-14 -0.35527136788E-14  0.91188000000E+02  0.91188000000E+02 0.  0.
    9900012    2    3    3    0    0 -0.18511920018E+02 -0.24172841489E+02  0.20706635924E+02  0.54367051890E+02  0.39999926394E+02 0.  0.
         12    1    3    3    0    0  0.18511920018E+02  0.24172841489E+02 -0.20706635924E+02  0.36820948110E+02  0.00000000000E+00 0. -1.
         11    1    4    4    0    0 -0.82441156330E+01  0.85240653482E+01  0.52721741949E+01  0.12977709876E+02  0.51100000000E-03 0. -1.
        -11    1    4    4    0    0  0.73790476206E+00 -0.17740711919E+02  0.84807486346E+00  0.17776293035E+02  0.51100000000E-03 0.  1.
         12    1    4    4    0    0 -0.11005709147E+02 -0.14956194919E+02  0.14586386866E+02  0.23613048979E+02  0.00000000000E+00 0. -1.
</event>
<event>
 8    1  0.1271559E-006  0.9118800E+02  0.7816164E-02  0.1184000E+00
        -11   -1    0    0    0    0  0.00000000000E+00  0.00000000000E+00  0.45593999997E+02  0.45594000000E+02  0.51100000000E-03 0. -1.
         11   -1    0    0    0    0 -0.00000000000E+00 -0.00000000000E+00 -0.45593999997E+02  0.45594000000E+02  0.51100000000E-03 0.  1.
         23    2    1    2    0    0 -0.88817841970E-15  0.00000000000E+00 -0.35527136788E-14  0.91188000000E+02  0.91188000000E+02 0.  0.
    9900012    2    3    3    0    0  0.38855752661E+01  0.20678943161E+02  0.30216984526E+02  0.54367047551E+02  0.39999916501E+02 0.  0.
        -12    1    3    3    0    0 -0.38855752661E+01 -0.20678943161E+02 -0.30216984526E+02  0.36820952449E+02  0.00000000000E+00 0.  1.
         11    1    4    4    0    0  0.10335678644E+02 -0.46499749615E+01  0.13808286681E+02  0.17863854609E+02  0.51100000000E-03 0. -1.
        -11    1    4    4    0    0 -0.95317396670E+01  0.29687799309E+01  0.59968295203E+01  0.11646015624E+02  0.51100000000E-03 0.  1.
         12    1    4    4    0    0  0.30816362892E+01  0.22360138192E+02  0.10411868325E+02  0.24857177318E+02  0.00000000000E+00 0. -1.
</event>
<event>
 8    1  0.1271559E-006  0.9118800E+02  0.7816164E-02  0.1184000E+00
        -11   -1    0    0    0    0  0.00000000000E+00  0.00000000000E+00  0.45593999997E+02  0.45594000000E+02  0.51100000000E-03 0.  1.
         11   -1    0    0    0    0 -0.00000000000E+00 -0.00000000000E+00 -0.45593999997E+02  0.45594000000E+02  0.51100000000E-03 0. -1.
         23    2    1    2    0    0 -0.17763568394E-14  0.00000000000E+00  0.71054273576E-14  0.91188000000E+02  0.91188000000E+02 0.  0.
    9900012    2    3    3    0    0 -0.12810388017E+02  0.22266724682E+02  0.26379301774E+02  0.54367073459E+02  0.39999975565E+02 0.  0.
         12    1    3    3    0    0  0.12810388017E+02 -0.22266724682E+02 -0.26379301774E+02  0.36820926541E+02  0.00000000000E+00 0. -1.
         11    1    4    4    0    0  0.29473010815E+01  0.14130104769E+02  0.87979202827E+01  0.16904136949E+02  0.51100000000E-03 0. -1.
        -11    1    4    4    0    0  0.72388184497E+01  0.66521599612E+01  0.33894100434E+01  0.10399030022E+02  0.51100000000E-03 0.  1.
         12    1    4    4    0    0 -0.22996507549E+02  0.14844599522E+01  0.14191971448E+02  0.27063906488E+02  0.00000000000E+00 0. -1.
</event>
<event>
 8    1  0.1271559E-006  0.9118800E+02  0.7816164E-02  0.1184000E+00
        -11   -1    0    0    0    0  0.00000000000E+00  0.00000000000E+00  0.45593999997E+02  0.45594000000E+02  0.51100000000E-03 0. -1.
         11   -1    0    0    0    0 -0.00000000000E+00 -0.00000000000E+00 -0.45593999997E+02  0.45594000000E+02  0.51100000000E-03 0.  1.
         23    2    1    2    0    0  0.00000000000E+00  0.00000000000E+00  0.00000000000E+00  0.91188000000E+02  0.91188000000E+02 0.  0.
    9900012    2    3    3    0    0  0.13879277793E+02  0.30029072868E+02 -0.16167886198E+02  0.54367080491E+02  0.39999991595E+02 0.  0.
        -12    1    3    3    0    0 -0.13879277793E+02 -0.30029072868E+02  0.16167886198E+02  0.36820919509E+02  0.00000000000E+00 0.  1.
         11    1    4    4    0    0  0.13898157243E+02  0.26070739529E+02 -0.21981612591E+02  0.36824360506E+02  0.51100000000E-03 0. -1.
        -11    1    4    4    0    0  0.20373931676E+01 -0.57348627683E+01  0.63765933347E-01  0.60863526226E+01  0.51100000000E-03 0.  1.
         12    1    4    4    0    0 -0.20562726178E+01  0.96931961072E+01  0.57499604589E+01  0.11456367362E+02  0.00000000000E+00 0. -1.
</event>
<event>
 8    1  0.1271559E-006  0.9118800E+02  0.7816164E-02  0.1184000E+00
        -11   -1    0    0    0    0  0.00000000000E+00  0.00000000000E+00  0.45593999997E+02  0.45594000000E+02  0.51100000000E-03 0.  1.
         11   -1    0    0    0    0 -0.00000000000E+00 -0.00000000000E+00 -0.45593999997E+02  0.45594000000E+02  0.51100000000E-03 0. -1.
         23    2    1    2    0    0  0.00000000000E+00  0.00000000000E+00  0.00000000000E+00  0.91188000000E+02  0.91188000000E+02 0.  0.
    9900012    2    3    3    0    0  0.47477139757E+01  0.13439672051E+02  0.33950144929E+02  0.54367110365E+02  0.40000059699E+02 0.  0.
         12    1    3    3    0    0 -0.47477139757E+01 -0.13439672051E+02 -0.33950144929E+02  0.36820889635E+02  0.00000000000E+00 0. -1.
         11    1    4    4    0    0 -0.57733577640E+00 -0.56826638658E+01  0.83623163874E+01  0.10126910725E+02  0.51100000000E-03 0. -1.
        -11    1    4    4    0    0  0.56213637117E+01  0.27168414476E+02  0.22080041067E+02  0.35457731017E+02  0.51100000000E-03 0.  1.
        -12    1    4    4    0    0 -0.29631395957E+00 -0.80460785593E+01  0.35077874746E+01  0.87824686229E+01  0.00000000000E+00 0.  1.
</event>
<event>
 8    1  0.1271559E-006  0.9118800E+02  0.7816164E-02  0.1184000E+00
        -11   -1    0    0    0    0  0.00000000000E+00  0.00000000000E+00  0.45593999997E+02  0.45594000000E+02  0.51100000000E-03 0.  1.
         11   -1    0    0    0    0 -0.00000000000E+00 -0.00000000000E+00 -0.45593999997E+02  0.45594000000E+02  0.51100000000E-03 0. -1.
         23    2    1    2    0    0  0.00000000000E+00  0.35527136788E-14 -0.35527136788E-14  0.91188000000E+02  0.91188000000E+02 0.  0.
    9900012    2    3    3    0    0  0.89308188022E+01 -0.23801007522E+02 -0.26637090468E+02  0.54367053894E+02  0.39999930962E+02 0.  0.
        -12    1    3    3    0    0 -0.89308188022E+01  0.23801007522E+02  0.26637090468E+02  0.36820946106E+02  0.00000000000E+00 0.  1.
         11    1    4    4    0    0  0.23143791621E+01 -0.14927422959E+02 -0.27875605661E+01  0.15360820332E+02  0.51100000000E-03 0. -1.
        -11    1    4    4    0    0 -0.37063174776E+01  0.64770874783E+01  0.15128222863E+01  0.76143340469E+01  0.51100000000E-03 0.  1.
         12    1    4    4    0    0  0.10322757118E+02 -0.15350672041E+02 -0.25362352189E+02  0.31391899515E+02  0.00000000000E+00 0. -1.
</event>
<event>
 8    1  0.1271559E-006  0.9118800E+02  0.7816164E-02  0.1184000E+00
        -11   -1    0    0    0    0  0.00000000000E+00  0.00000000000E+00  0.45593999997E+02  0.45594000000E+02  0.51100000000E-03 0. -1.
         11   -1    0    0    0    0 -0.00000000000E+00 -0.00000000000E+00 -0.45593999997E+02  0.45594000000E+02  0.51100000000E-03 0.  1.
         23    2    1    2    0    0 -0.17763568394E-14  0.00000000000E+00  0.71054273576E-14  0.91188000000E+02  0.91188000000E+02 0.  0.
    9900012    2    3    3    0    0  0.13460004715E+02  0.23500425172E+02 -0.24946679797E+02  0.54367101816E+02  0.40000040209E+02 0.  0.
         12    1    3    3    0    0 -0.13460004715E+02 -0.23500425172E+02  0.24946679797E+02  0.36820898184E+02  0.00000000000E+00 0. -1.
         11    1    4    4    0    0 -0.57129215808E+00 -0.76121063910E+00 -0.27901438322E+01  0.29480025835E+01  0.51100000000E-03 0. -1.
        -11    1    4    4    0    0  0.34116068313E+01 -0.96866782251E+01 -0.84489836301E+01  0.13298726287E+02  0.51100000000E-03 0.  1.
         12    1    4    4    0    0  0.10619690042E+02  0.33948314036E+02 -0.13707552335E+02  0.38120372945E+02  0.00000000000E+00 0. -1.
</event>
<event>
 8    1  0.1271559E-006  0.9118800E+02  0.7816164E-02  0.1184000E+00
        -11   -1    0    0    0    0  0.00000000000E+00  0.00000000000E+00  0.45593999997E+02  0.45594000000E+02  0.51100000000E-03 0.  1.
         11   -1    0    0    0    0 -0.00000000000E+00 -0.00000000000E+00 -0.45593999997E+02  0.45594000000E+02  0.51100000000E-03 0. -1.
         23    2    1    2    0    0  0.35527136788E-14 -0.17763568394E-14  0.00000000000E+00  0.91188000000E+02  0.91188000000E+02 0.  0.
    9900012    2    3    3    0    0  0.20192783898E+02  0.14621473886E+02 -0.27096885780E+02  0.54367119522E+02  0.40000080575E+02 0.  0.
        -12    1    3    3    0    0 -0.20192783898E+02 -0.14621473886E+02  0.27096885780E+02  0.36820880478E+02  0.00000000000E+00 0.  1.
         11    1    4    4    0    0  0.50152444123E+01  0.49223102980E+01 -0.96880751931E+01  0.11968317191E+02  0.51100000000E-03 0. -1.
        -11    1    4    4    0    0 -0.29688766321E+01 -0.10035696769E+02 -0.10251966688E+02  0.14650333079E+02  0.51100000000E-03 0.  1.
        -12    1    4    4    0    0  0.18146416118E+02  0.19734860357E+02 -0.71568438987E+01  0.27748469252E+02  0.00000000000E+00 0.  1.
</event>
<event>
 8    1  0.1271559E-006  0.9118800E+02  0.7816164E-02  0.1184000E+00
        -11   -1    0    0    0    0  0.00000000000E+00  0.00000000000E+00  0.45593999997E+02  0.45594000000E+02  0.51100000000E-03 0. -1.
         11   -1    0    0    0    0 -0.00000000000E+00 -0.00000000000E+00 -0.45593999997E+02  0.45594000000E+02  0.51100000000E-03 0.  1.
         23    2    1    2    0    0  0.66613381478E-15  0.71054273576E-14  0.00000000000E+00  0.91188000000E+02  0.91188000000E+02 0.  0.
    9900012    2    3    3    0    0 -0.16661642601E+01  0.32477549765E+02  0.17268789915E+02  0.54367103118E+02  0.40000043178E+02 0.  0.
        -12    1    3    3    0    0  0.16661642601E+01 -0.32477549765E+02 -0.17268789915E+02  0.36820896882E+02  0.00000000000E+00 0.  1.
         11    1    4    4    0    0  0.31316941057E+01  0.13919700648E+02 -0.10232681108E+01  0.14304287888E+02  0.51100000000E-03 0. -1.
        -11    1    4    4    0    0 -0.14057610135E+02  0.67880033940E+01 -0.99729733070E+00  0.15642506034E+02  0.51100000000E-03 0.  1.
        -12    1    4    4    0    0  0.92597517693E+01  0.11769845723E+02  0.19289355357E+02  0.24420309196E+02  0.00000000000E+00 0.  1.
</event>
<event>
 8    1  0.1271559E-006  0.9118800E+02  0.7816164E-02  0.1184000E+00
        -11   -1    0    0    0    0  0.00000000000E+00  0.00000000000E+00  0.45593999997E+02  0.45594000000E+02  0.51100000000E-03 0.  1.
         11   -1    0    0    0    0 -0.00000000000E+00 -0.00000000000E+00 -0.45593999997E+02  0.45594000000E+02  0.51100000000E-03 0. -1.
         23    2    1    2    0    0  0.00000000000E+00  0.00000000000E+00  0.14210854715E-13  0.91188000000E+02  0.91188000000E+02 0.  0.
    9900012    2    3    3    0    0 -0.10049100347E+02  0.60438291852E+01 -0.34903692119E+02  0.54367081862E+02  0.39999994721E+02 0.  0.
        -12    1    3    3    0    0  0.10049100347E+02 -0.60438291852E+01  0.34903692119E+02  0.36820918138E+02  0.00000000000E+00 0.  1.
         11    1    4    4    0    0  0.18238342666E+01 -0.87434835239E+01 -0.18291013713E+01  0.91170438000E+01  0.51100000000E-03 0. -1.
        -11    1    4    4    0    0 -0.30046888264E+01  0.70043231184E+01  0.22987481435E+01  0.79607123161E+01  0.51100000000E-03 0.  1.
         12    1    4    4    0    0 -0.88682457870E+01  0.77829895906E+01 -0.35373338891E+02  0.37289325746E+02  0.00000000000E+00 0. -1.
</event>
<event>
 8    1  0.1271559E-006  0.9118800E+02  0.7816164E-02  0.1184000E+00
        -11   -1    0    0    0    0  0.00000000000E+00  0.00000000000E+00  0.45593999997E+02  0.45594000000E+02  0.51100000000E-03 0.  1.
         11   -1    0    0    0    0 -0.00000000000E+00 -0.00000000000E+00 -0.45593999997E+02  0.45594000000E+02  0.51100000000E-03 0. -1.
         23    2    1    2    0    0  0.00000000000E+00  0.00000000000E+00 -0.44408920985E-15  0.91188000000E+02  0.91188000000E+02 0.  0.
    9900012    2    3    3    0    0  0.35215351443E+02 -0.10059338573E+02 -0.38037882204E+01  0.54367081019E+02  0.39999992799E+02 0.  0.
        -12    1    3    3    0    0 -0.35215351443E+02  0.10059338573E+02  0.38037882204E+01  0.36820918981E+02  0.00000000000E+00 0.  1.
         11    1    4    4    0    0  0.18185273924E+02  0.11773745163E+02 -0.71526698974E+01  0.22814161167E+02  0.51100000000E-03 0. -1.
        -11    1    4    4    0    0  0.51502607240E+01 -0.10701763799E+02 -0.54275549193E+01  0.13057997036E+02  0.51100000000E-03 0.  1.
         12    1    4    4    0    0  0.11879816795E+02 -0.11131319937E+02  0.87764365963E+01  0.18494922816E+02  0.00000000000E+00 0. -1.
</event>
<event>
 8    1  0.1271559E-006  0.9118800E+02  0.7816164E-02  0.1184000E+00
        -11   -1    0    0    0    0  0.00000000000E+00  0.00000000000E+00  0.45593999997E+02  0.45594000000E+02  0.51100000000E-03 0. -1.
         11   -1    0    0    0    0 -0.00000000000E+00 -0.00000000000E+00 -0.45593999997E+02  0.45594000000E+02  0.51100000000E-03 0.  1.
         23    2    1    2    0    0  0.35527136788E-14  0.00000000000E+00 -0.88817841970E-15  0.91188000000E+02  0.91188000000E+02 0.  0.
    9900012    2    3    3    0    0  0.27785673431E+02 -0.23931761440E+02 -0.33177038819E+01  0.54367081860E+02  0.39999994716E+02 0.  0.
         12    1    3    3    0    0 -0.27785673431E+02  0.23931761440E+02  0.33177038819E+01  0.36820918140E+02  0.00000000000E+00 0. -1.
         11    1    4    4    0    0  0.93085877093E+00 -0.23595377598E+00 -0.50010834644E+01  0.50924462015E+01  0.51100000000E-03 0.  1.
        -11    1    4    4    0    0  0.17222312509E+02 -0.88403433837E+01  0.17076172290E+02  0.25813860224E+02  0.51100000000E-03 0. -1.
         12    1    4    4    0    0  0.96325021503E+01 -0.14855464281E+02 -0.15392792708E+02  0.23460775435E+02  0.00000000000E+00 0. -1.
</event>
<event>
 8    1  0.1271559E-006  0.9118800E+02  0.7816164E-02  0.1184000E+00
        -11   -1    0    0    0    0  0.00000000000E+00  0.00000000000E+00  0.45593999997E+02  0.45594000000E+02  0.51100000000E-03 0.  1.
         11   -1    0    0    0    0 -0.00000000000E+00 -0.00000000000E+00 -0.45593999997E+02  0.45594000000E+02  0.51100000000E-03 0. -1.
         23    2    1    2    0    0  0.17763568394E-14  0.10658141036E-13 -0.71054273576E-14  0.91188000000E+02  0.91188000000E+02 0.  0.
    9900012    2    3    3    0    0 -0.61733717808E+01 -0.30487715454E+02  0.19702009366E+02  0.54367075435E+02  0.39999980068E+02 0.  0.
         12    1    3    3    0    0  0.61733717808E+01  0.30487715454E+02 -0.19702009366E+02  0.36820924565E+02  0.00000000000E+00 0. -1.
         11    1    4    4    0    0 -0.15390024838E+02 -0.17843145593E+02  0.35748304309E+01  0.23832962930E+02  0.51100000000E-03 0. -1.
        -11    1    4    4    0    0 -0.18167078319E+01 -0.10251041875E+02 -0.51529140023E+00  0.10423522071E+02  0.51100000000E-03 0.  1.
        -12    1    4    4    0    0  0.11033360889E+02 -0.23935279863E+01  0.16642470336E+02  0.20110590434E+02  0.00000000000E+00 0.  1.
</event>
<event>
 8    1  0.1271559E-006  0.9118800E+02  0.7816164E-02  0.1184000E+00
        -11   -1    0    0    0    0  0.00000000000E+00  0.00000000000E+00  0.45593999997E+02  0.45594000000E+02  0.51100000000E-03 0.  1.
         11   -1    0    0    0    0 -0.00000000000E+00 -0.00000000000E+00 -0.45593999997E+02  0.45594000000E+02  0.51100000000E-03 0. -1.
         23    2    1    2    0    0  0.00000000000E+00  0.00000000000E+00 -0.35527136788E-14  0.91188000000E+02  0.91188000000E+02 0.  0.
    9900012    2    3    3    0    0 -0.19050117867E+02 -0.22539571754E+02  0.22019319949E+02  0.54366949816E+02  0.39999693695E+02 0.  0.
         12    1    3    3    0    0  0.19050117867E+02  0.22539571754E+02 -0.22019319949E+02  0.36821050184E+02  0.00000000000E+00 0. -1.
         11    1    4    4    0    0 -0.36559170752E+01 -0.14424715903E+02 -0.76333533303E+01  0.16724420524E+02  0.51100000000E-03 0. -1.
        -11    1    4    4    0    0  0.43409553682E+00  0.33793365569E+01  0.64476216870E+01  0.72924742152E+01  0.51100000000E-03 0.  1.
         12    1    4    4    0    0 -0.15828296329E+02 -0.11494192408E+02  0.23205051592E+02  0.30350055077E+02  0.00000000000E+00 0. -1.
</event>
<event>
 8    1  0.1271559E-006  0.9118800E+02  0.7816164E-02  0.1184000E+00
        -11   -1    0    0    0    0  0.00000000000E+00  0.00000000000E+00  0.45593999997E+02  0.45594000000E+02  0.51100000000E-03 0. -1.
         11   -1    0    0    0    0 -0.00000000000E+00 -0.00000000000E+00 -0.45593999997E+02  0.45594000000E+02  0.51100000000E-03 0.  1.
         23    2    1    2    0    0  0.00000000000E+00  0.00000000000E+00  0.00000000000E+00  0.91188000000E+02  0.91188000000E+02 0.  0.
    9900012    2    3    3    0    0 -0.21620344905E+02  0.28707876623E+02 -0.80124157479E+01  0.54367077956E+02  0.39999985817E+02 0.  0.
         12    1    3    3    0    0  0.21620344905E+02 -0.28707876623E+02  0.80124157479E+01  0.36820922044E+02  0.00000000000E+00 0. -1.
         11    1    4    4    0    0 -0.15251087210E+02  0.49216282238E+01  0.21912621544E+01  0.16174662764E+02  0.51100000000E-03 0. -1.
        -11    1    4    4    0    0 -0.98238997108E+01  0.28879118577E+02 -0.71904787181E+01  0.31340317161E+02  0.51100000000E-03 0.  1.
        -12    1    4    4    0    0  0.34546420157E+01 -0.50928701774E+01 -0.30131991842E+01  0.68520980308E+01  0.00000000000E+00 0.  1.
</event>
<event>
 8    1  0.1271559E-006  0.9118800E+02  0.7816164E-02  0.1184000E+00
        -11   -1    0    0    0    0  0.00000000000E+00  0.00000000000E+00  0.45593999997E+02  0.45594000000E+02  0.51100000000E-03 0.  1.
         11   -1    0    0    0    0 -0.00000000000E+00 -0.00000000000E+00 -0.45593999997E+02  0.45594000000E+02  0.51100000000E-03 0. -1.
         23    2    1    2    0    0  0.00000000000E+00  0.88817841970E-15 -0.35527136788E-14  0.91188000000E+02  0.91188000000E+02 0.  0.
    9900012    2    3    3    0    0 -0.34245244664E+02 -0.46024497871E+01  0.12722455091E+02  0.54367079456E+02  0.39999989236E+02 0.  0.
         12    1    3    3    0    0  0.34245244664E+02  0.46024497871E+01 -0.12722455091E+02  0.36820920544E+02  0.00000000000E+00 0. -1.
         11    1    4    4    0    0 -0.10201873710E+02 -0.11540975733E+02  0.15671658605E+02  0.21974376709E+02  0.51100000000E-03 0.  1.
        -11    1    4    4    0    0 -0.25848984568E+02  0.82359232713E+00 -0.28206434345E+01  0.26015463424E+02  0.51100000000E-03 0. -1.
        -12    1    4    4    0    0  0.18056136137E+01  0.61149336189E+01 -0.12856008010E+00  0.63772393228E+01  0.00000000000E+00 0.  1.
</event>
<event>
 8    1  0.1271559E-006  0.9118800E+02  0.7816164E-02  0.1184000E+00
        -11   -1    0    0    0    0  0.00000000000E+00  0.00000000000E+00  0.45593999997E+02  0.45594000000E+02  0.51100000000E-03 0.  1.
         11   -1    0    0    0    0 -0.00000000000E+00 -0.00000000000E+00 -0.45593999997E+02  0.45594000000E+02  0.51100000000E-03 0. -1.
         23    2    1    2    0    0  0.00000000000E+00  0.00000000000E+00 -0.35527136788E-14  0.91188000000E+02  0.91188000000E+02 0.  0.
    9900012    2    3    3    0    0 -0.91059601857E+01 -0.24029907697E+02 -0.26370617366E+02  0.54367293392E+02  0.40000476943E+02 0.  0.
        -12    1    3    3    0    0  0.91059601857E+01  0.24029907697E+02  0.26370617366E+02  0.36820706608E+02  0.00000000000E+00 0.  1.
         11    1    4    4    0    0  0.24038639263E+01 -0.24430689535E+01  0.25956230184E+01  0.42993495790E+01  0.51100000000E-03 0. -1.
        -11    1    4    4    0    0 -0.16382690806E+02  0.16312289341E+01 -0.75696111757E+01  0.18120498876E+02  0.51100000000E-03 0.  1.
         12    1    4    4    0    0  0.48728666943E+01 -0.23218067678E+02 -0.21396629209E+02  0.31947444937E+02  0.00000000000E+00 0. -1.
</event>
<event>
 8    1  0.1271559E-006  0.9118800E+02  0.7816164E-02  0.1184000E+00
        -11   -1    0    0    0    0  0.00000000000E+00  0.00000000000E+00  0.45593999997E+02  0.45594000000E+02  0.51100000000E-03 0.  1.
         11   -1    0    0    0    0 -0.00000000000E+00 -0.00000000000E+00 -0.45593999997E+02  0.45594000000E+02  0.51100000000E-03 0. -1.
         23    2    1    2    0    0 -0.17763568394E-14  0.00000000000E+00  0.00000000000E+00  0.91188000000E+02  0.91188000000E+02 0.  0.
    9900012    2    3    3    0    0  0.46967265374E+01 -0.27895518230E+02  0.23570332851E+02  0.54367085180E+02  0.40000002284E+02 0.  0.
        -12    1    3    3    0    0 -0.46967265374E+01  0.27895518230E+02 -0.23570332851E+02  0.36820914820E+02  0.00000000000E+00 0.  1.
         11    1    4    4    0    0 -0.26769726038E+01 -0.11759934587E+02  0.12798055798E+02  0.17585575802E+02  0.51100000000E-03 0. -1.
        -11    1    4    4    0    0 -0.11903158891E+02 -0.50410417766E+01  0.38605554394E+01  0.13490781384E+02  0.51100000000E-03 0.  1.
        -12    1    4    4    0    0  0.19276858032E+02 -0.11094541866E+02  0.69117216136E+01  0.23290727994E+02  0.00000000000E+00 0.  1.
</event>
<event>
 8    1  0.1271559E-006  0.9118800E+02  0.7816164E-02  0.1184000E+00
        -11   -1    0    0    0    0  0.00000000000E+00  0.00000000000E+00  0.45593999997E+02  0.45594000000E+02  0.51100000000E-03 0.  1.
         11   -1    0    0    0    0 -0.00000000000E+00 -0.00000000000E+00 -0.45593999997E+02  0.45594000000E+02  0.51100000000E-03 0. -1.
         23    2    1    2    0    0 -0.35527136788E-14 -0.17763568394E-14  0.00000000000E+00  0.91188000000E+02  0.91188000000E+02 0.  0.
    9900012    2    3    3    0    0  0.21092775200E+02  0.12784629682E+02 -0.27339139106E+02  0.54367075938E+02  0.39999981216E+02 0.  0.
        -12    1    3    3    0    0 -0.21092775200E+02 -0.12784629682E+02  0.27339139106E+02  0.36820924062E+02  0.00000000000E+00 0.  1.
         11    1    4    4    0    0 -0.82669905961E+00 -0.51620263178E+01 -0.30973137575E+01  0.60764545431E+01  0.51100000000E-03 0. -1.
        -11    1    4    4    0    0  0.11639919450E+02 -0.60041863402E+01 -0.16570414219E+02  0.21121472630E+02  0.51100000000E-03 0.  1.
         12    1    4    4    0    0  0.10279554809E+02  0.23950842340E+02 -0.76714111293E+01  0.27169148764E+02  0.00000000000E+00 0. -1.
</event>
<event>
 8    1  0.1271559E-006  0.9118800E+02  0.7816164E-02  0.1184000E+00
        -11   -1    0    0    0    0  0.00000000000E+00  0.00000000000E+00  0.45593999997E+02  0.45594000000E+02  0.51100000000E-03 0. -1.
         11   -1    0    0    0    0 -0.00000000000E+00 -0.00000000000E+00 -0.45593999997E+02  0.45594000000E+02  0.51100000000E-03 0.  1.
         23    2    1    2    0    0  0.00000000000E+00  0.00000000000E+00  0.71054273576E-14  0.91188000000E+02  0.91188000000E+02 0.  0.
    9900012    2    3    3    0    0 -0.11688378190E+02  0.93930245892E+00 -0.34903805144E+02  0.54367135163E+02  0.40000116232E+02 0.  0.
         12    1    3    3    0    0  0.11688378190E+02 -0.93930245892E+00  0.34903805144E+02  0.36820864837E+02  0.00000000000E+00 0. -1.
         11    1    4    4    0    0  0.90422157661E+01 -0.47082143696E+01 -0.10810031132E+02  0.14858860045E+02  0.51100000000E-03 0. -1.
        -11    1    4    4    0    0 -0.18528961699E+02  0.10153898600E+01 -0.42833072584E+01  0.19044688486E+02  0.51100000000E-03 0.  1.
        -12    1    4    4    0    0 -0.22016322567E+01  0.46321269685E+01 -0.19810466754E+02  0.20463586632E+02  0.00000000000E+00 0.  1.
</event>
<event>
 8    1  0.1271559E-006  0.9118800E+02  0.7816164E-02  0.1184000E+00
        -11   -1    0    0    0    0  0.00000000000E+00  0.00000000000E+00  0.45593999997E+02  0.45594000000E+02  0.51100000000E-03 0.  1.
         11   -1    0    0    0    0 -0.00000000000E+00 -0.00000000000E+00 -0.45593999997E+02  0.45594000000E+02  0.51100000000E-03 0. -1.
         23    2    1    2    0    0  0.35527136788E-14  0.00000000000E+00 -0.44408920985E-15  0.91188000000E+02  0.91188000000E+02 0.  0.
    9900012    2    3    3    0    0  0.24167176135E+02  0.27612097185E+02  0.30498840394E+01  0.54367053435E+02  0.39999929915E+02 0.  0.
        -12    1    3    3    0    0 -0.24167176135E+02 -0.27612097185E+02 -0.30498840394E+01  0.36820946565E+02  0.00000000000E+00 0.  1.
         11    1    4    4    0    0  0.84971008547E+01  0.10563831149E+02 -0.11280470852E+02  0.17636447329E+02  0.51100000000E-03 0. -1.
        -11    1    4    4    0    0  0.99836573393E+00  0.41492235780E+01  0.16529468180E+02  0.17071499905E+02  0.51100000000E-03 0.  1.
        -12    1    4    4    0    0  0.14671709547E+02  0.12899042459E+02 -0.21991132881E+01  0.19659106201E+02  0.00000000000E+00 0.  1.
</event>
<event>
 8    1  0.1271559E-006  0.9118800E+02  0.7816164E-02  0.1184000E+00
        -11   -1    0    0    0    0  0.00000000000E+00  0.00000000000E+00  0.45593999997E+02  0.45594000000E+02  0.51100000000E-03 0.  1.
         11   -1    0    0    0    0 -0.00000000000E+00 -0.00000000000E+00 -0.45593999997E+02  0.45594000000E+02  0.51100000000E-03 0. -1.
         23    2    1    2    0    0  0.00000000000E+00 -0.71054273576E-14 -0.35527136788E-14  0.91188000000E+02  0.91188000000E+02 0.  0.
    9900012    2    3    3    0    0  0.12889971419E+02 -0.23222146342E+02 -0.25502151545E+02  0.54367093203E+02  0.40000020575E+02 0.  0.
        -12    1    3    3    0    0 -0.12889971419E+02  0.23222146342E+02  0.25502151545E+02  0.36820906797E+02  0.00000000000E+00 0.  1.
         11    1    4    4    0    0 -0.23985360335E+01  0.33666975965E+01 -0.27694587379E+00  0.41429852870E+01  0.51100000000E-03 0. -1.
        -11    1    4    4    0    0  0.69022331213E+01 -0.69959765133E+01  0.66602022247E+01  0.11871933430E+02  0.51100000000E-03 0.  1.
         12    1    4    4    0    0  0.83862743317E+01 -0.19592867425E+02 -0.31885407896E+02  0.38352174486E+02  0.00000000000E+00 0. -1.
</event>
<event>
 8    1  0.1271559E-006  0.9118800E+02  0.7816164E-02  0.1184000E+00
        -11   -1    0    0    0    0  0.00000000000E+00  0.00000000000E+00  0.45593999997E+02  0.45594000000E+02  0.51100000000E-03 0. -1.
         11   -1    0    0    0    0 -0.00000000000E+00 -0.00000000000E+00 -0.45593999997E+02  0.45594000000E+02  0.51100000000E-03 0.  1.
         23    2    1    2    0    0 -0.88817841970E-15  0.17763568394E-14  0.00000000000E+00  0.91188000000E+02  0.91188000000E+02 0.  0.
    9900012    2    3    3    0    0 -0.44959055053E+01  0.11755900848E+02  0.34602974604E+02  0.54367079010E+02  0.39999988220E+02 0.  0.
        -12    1    3    3    0    0  0.44959055053E+01 -0.11755900848E+02 -0.34602974604E+02  0.36820920990E+02  0.00000000000E+00 0.  1.
         11    1    4    4    0    0 -0.91822158279E+01  0.44218067688E+01  0.92106124875E+01  0.13736842624E+02  0.51100000000E-03 0.  1.
        -11    1    4    4    0    0  0.12144246646E+02  0.11088693001E+02  0.29798500884E+01  0.16712909557E+02  0.51100000000E-03 0. -1.
         12    1    4    4    0    0 -0.74579363230E+01 -0.37545989211E+01  0.22412512028E+02  0.23917326830E+02  0.00000000000E+00 0. -1.
</event>
<event>
 8    1  0.1271559E-006  0.9118800E+02  0.7816164E-02  0.1184000E+00
        -11   -1    0    0    0    0  0.00000000000E+00  0.00000000000E+00  0.45593999997E+02  0.45594000000E+02  0.51100000000E-03 0.  1.
         11   -1    0    0    0    0 -0.00000000000E+00 -0.00000000000E+00 -0.45593999997E+02  0.45594000000E+02  0.51100000000E-03 0. -1.
         23    2    1    2    0    0 -0.17763568394E-14  0.35527136788E-14  0.00000000000E+00  0.91188000000E+02  0.91188000000E+02 0.  0.
    9900012    2    3    3    0    0  0.12182692422E+02  0.31773219581E+02 -0.14064935531E+02  0.54367110702E+02  0.40000060467E+02 0.  0.
         12    1    3    3    0    0 -0.12182692422E+02 -0.31773219581E+02  0.14064935531E+02  0.36820889298E+02  0.00000000000E+00 0. -1.
         11    1    4    4    0    0 -0.20543078594E+01 -0.50296624049E+01 -0.20062445068E+01  0.57916061650E+01  0.51100000000E-03 0. -1.
        -11    1    4    4    0    0  0.16253652596E+02  0.11801587937E+02 -0.12183926845E+02  0.23492696188E+02  0.51100000000E-03 0.  1.
        -12    1    4    4    0    0 -0.20166523138E+01  0.25001294049E+02  0.12523582075E+00  0.25082808349E+02  0.00000000000E+00 0.  1.
</event>
<event>
 8    1  0.1271559E-006  0.9118800E+02  0.7816164E-02  0.1184000E+00
        -11   -1    0    0    0    0  0.00000000000E+00  0.00000000000E+00  0.45593999997E+02  0.45594000000E+02  0.51100000000E-03 0.  1.
         11   -1    0    0    0    0 -0.00000000000E+00 -0.00000000000E+00 -0.45593999997E+02  0.45594000000E+02  0.51100000000E-03 0. -1.
         23    2    1    2    0    0  0.00000000000E+00 -0.35527136788E-14 -0.35527136788E-14  0.91188000000E+02  0.91188000000E+02 0.  0.
    9900012    2    3    3    0    0  0.13745198183E+02 -0.16803659120E+02 -0.29740313660E+02  0.54367086248E+02  0.40000004720E+02 0.  0.
        -12    1    3    3    0    0 -0.13745198183E+02  0.16803659120E+02  0.29740313660E+02  0.36820913752E+02  0.00000000000E+00 0.  1.
         11    1    4    4    0    0  0.11912554312E+02  0.52921363503E+01  0.14248051363E+01  0.13112807759E+02  0.51100000000E-03 0.  1.
        -11    1    4    4    0    0  0.19223717414E+01 -0.23963039042E+02 -0.24470167677E+02  0.34303233953E+02  0.51100000000E-03 0. -1.
         12    1    4    4    0    0 -0.89727869902E-01  0.18672435720E+01 -0.66949511194E+01  0.69510445358E+01  0.00000000000E+00 0. -1.
</event>
<event>
 8    1  0.1271559E-006  0.9118800E+02  0.7816164E-02  0.1184000E+00
        -11   -1    0    0    0    0  0.00000000000E+00  0.00000000000E+00  0.45593999997E+02  0.45594000000E+02  0.51100000000E-03 0.  1.
         11   -1    0    0    0    0 -0.00000000000E+00 -0.00000000000E+00 -0.45593999997E+02  0.45594000000E+02  0.51100000000E-03 0. -1.
         23    2    1    2    0    0 -0.35527136788E-14 -0.17763568394E-14  0.00000000000E+00  0.91188000000E+02  0.91188000000E+02 0.  0.
    9900012    2    3    3    0    0  0.28761619660E+02  0.13432297115E+02  0.18658080529E+02  0.54367063832E+02  0.39999953618E+02 0.  0.
         12    1    3    3    0    0 -0.28761619660E+02 -0.13432297115E+02 -0.18658080529E+02  0.36820936168E+02  0.00000000000E+00 0. -1.
         11    1    4    4    0    0  0.30891333667E+02  0.17065297163E+02  0.13532469091E+02  0.37797176918E+02  0.51100000000E-03 0. -1.
        -11    1    4    4    0    0  0.30670451592E+01 -0.82150954711E+01  0.35778176699E+01  0.94707623319E+01  0.51100000000E-03 0.  1.
         12    1    4    4    0    0 -0.51967591657E+01  0.45820954230E+01  0.15477937680E+01  0.70991245826E+01  0.00000000000E+00 0. -1.
</event>
<event>
 8    1  0.1271559E-006  0.9118800E+02  0.7816164E-02  0.1184000E+00
        -11   -1    0    0    0    0  0.00000000000E+00  0.00000000000E+00  0.45593999997E+02  0.45594000000E+02  0.51100000000E-03 0.  1.
         11   -1    0    0    0    0 -0.00000000000E+00 -0.00000000000E+00 -0.45593999997E+02  0.45594000000E+02  0.51100000000E-03 0. -1.
         23    2    1    2    0    0  0.00000000000E+00  0.17763568394E-14  0.17763568394E-14  0.91188000000E+02  0.91188000000E+02 0.  0.
    9900012    2    3    3    0    0  0.32557863343E+02 -0.11231842332E+02 -0.13023488704E+02  0.54367081955E+02  0.39999994932E+02 0.  0.
        -12    1    3    3    0    0 -0.32557863343E+02  0.11231842332E+02  0.13023488704E+02  0.36820918045E+02  0.00000000000E+00 0.  1.
         11    1    4    4    0    0  0.19851722709E+02 -0.11016479858E+02 -0.93559948005E+01  0.24555821345E+02  0.51100000000E-03 0. -1.
        -11    1    4    4    0    0  0.89686483967E+01  0.35882568839E+01  0.10742086132E+02  0.14446614006E+02  0.51100000000E-03 0.  1.
        -12    1    4    4    0    0  0.37374922382E+01 -0.38036193582E+01 -0.14409580035E+02  0.15364646604E+02  0.00000000000E+00 0.  1.
</event>
<event>
 8    1  0.1271559E-006  0.9118800E+02  0.7816164E-02  0.1184000E+00
        -11   -1    0    0    0    0  0.00000000000E+00  0.00000000000E+00  0.45593999997E+02  0.45594000000E+02  0.51100000000E-03 0.  1.
         11   -1    0    0    0    0 -0.00000000000E+00 -0.00000000000E+00 -0.45593999997E+02  0.45594000000E+02  0.51100000000E-03 0. -1.
         23    2    1    2    0    0  0.00000000000E+00  0.35527136788E-14  0.35527136788E-14  0.91188000000E+02  0.91188000000E+02 0.  0.
    9900012    2    3    3    0    0  0.16964534910E+02  0.15059820430E+02  0.29003202246E+02  0.54367090497E+02  0.40000014405E+02 0.  0.
         12    1    3    3    0    0 -0.16964534910E+02 -0.15059820430E+02 -0.29003202246E+02  0.36820909503E+02  0.00000000000E+00 0. -1.
         11    1    4    4    0    0  0.28962583663E+01  0.11967934500E+01 -0.17092312491E+01  0.35696076550E+01  0.51100000000E-03 0. -1.
        -11    1    4    4    0    0  0.15489353504E+02  0.18377212988E+02  0.48666144536E+01  0.24521948652E+02  0.51100000000E-03 0.  1.
         12    1    4    4    0    0 -0.14210769606E+01 -0.45141860072E+01  0.25845819042E+02  0.26275534190E+02  0.00000000000E+00 0. -1.
</event>
<event>
 8    1  0.1271559E-006  0.9118800E+02  0.7816164E-02  0.1184000E+00
        -11   -1    0    0    0    0  0.00000000000E+00  0.00000000000E+00  0.45593999997E+02  0.45594000000E+02  0.51100000000E-03 0. -1.
         11   -1    0    0    0    0 -0.00000000000E+00 -0.00000000000E+00 -0.45593999997E+02  0.45594000000E+02  0.51100000000E-03 0.  1.
         23    2    1    2    0    0  0.17763568394E-14  0.17763568394E-14 -0.71054273576E-14  0.91188000000E+02  0.91188000000E+02 0.  0.
    9900012    2    3    3    0    0  0.14321126544E+02  0.93366464623E+01 -0.32611532797E+02  0.54367086051E+02  0.40000004271E+02 0.  0.
         12    1    3    3    0    0 -0.14321126544E+02 -0.93366464623E+01  0.32611532797E+02  0.36820913949E+02  0.00000000000E+00 0. -1.
         11    1    4    4    0    0  0.40445293223E+01  0.65673048198E+01 -0.82747218630E+01  0.11311884556E+02  0.51100000000E-03 0. -1.
        -11    1    4    4    0    0  0.15817619145E+02  0.74894857796E+01  0.15791481281E+00  0.17501840189E+02  0.51100000000E-03 0.  1.
         12    1    4    4    0    0 -0.55410219229E+01 -0.47201441372E+01 -0.24494725747E+02  0.25553361306E+02  0.00000000000E+00 0. -1.
</event>
<event>
 8    1  0.1271559E-006  0.9118800E+02  0.7816164E-02  0.1184000E+00
        -11   -1    0    0    0    0  0.00000000000E+00  0.00000000000E+00  0.45593999997E+02  0.45594000000E+02  0.51100000000E-03 0.  1.
         11   -1    0    0    0    0 -0.00000000000E+00 -0.00000000000E+00 -0.45593999997E+02  0.45594000000E+02  0.51100000000E-03 0. -1.
         23    2    1    2    0    0  0.00000000000E+00  0.00000000000E+00 -0.35527136788E-14  0.91188000000E+02  0.91188000000E+02 0.  0.
    9900012    2    3    3    0    0 -0.15773574503E+02 -0.17159562585E+02 -0.28504790848E+02  0.54367090968E+02  0.40000015479E+02 0.  0.
        -12    1    3    3    0    0  0.15773574503E+02  0.17159562585E+02  0.28504790848E+02  0.36820909032E+02  0.00000000000E+00 0.  1.
         11    1    4    4    0    0  0.83702853442E+01  0.15238766000E+01 -0.38191045900E+01  0.93257405479E+01  0.51100000000E-03 0.  1.
        -11    1    4    4    0    0 -0.20311802693E+02 -0.29559386060E+01 -0.18747770484E+02  0.27799025164E+02  0.51100000000E-03 0. -1.
         12    1    4    4    0    0 -0.38320571542E+01 -0.15727500579E+02 -0.59379157738E+01  0.17242325256E+02  0.00000000000E+00 0. -1.
</event>
<event>
 8    1  0.1271559E-006  0.9118800E+02  0.7816164E-02  0.1184000E+00
        -11   -1    0    0    0    0  0.00000000000E+00  0.00000000000E+00  0.45593999997E+02  0.45594000000E+02  0.51100000000E-03 0.  1.
         11   -1    0    0    0    0 -0.00000000000E+00 -0.00000000000E+00 -0.45593999997E+02  0.45594000000E+02  0.51100000000E-03 0. -1.
         23    2    1    2    0    0 -0.35527136788E-14  0.35527136788E-14 -0.71054273576E-14  0.91188000000E+02  0.91188000000E+02 0.  0.
    9900012    2    3    3    0    0  0.13047138952E+02 -0.21686488471E+02  0.26744144034E+02  0.54367070393E+02  0.39999968575E+02 0.  0.
         12    1    3    3    0    0 -0.13047138952E+02  0.21686488471E+02 -0.26744144034E+02  0.36820929607E+02  0.00000000000E+00 0. -1.
         11    1    4    4    0    0  0.98397699543E+01  0.94170138332E-01 -0.17040587772E+01  0.99866789949E+01  0.51100000000E-03 0. -1.
        -11    1    4    4    0    0  0.11356717950E+02 -0.37402619069E+01  0.18991370419E+02  0.22441852695E+02  0.51100000000E-03 0.  1.
         12    1    4    4    0    0 -0.81493489521E+01 -0.18040396703E+02  0.94568323914E+01  0.21938538703E+02  0.00000000000E+00 0. -1.
</event>
<event>
 8    1  0.1271559E-006  0.9118800E+02  0.7816164E-02  0.1184000E+00
        -11   -1    0    0    0    0  0.00000000000E+00  0.00000000000E+00  0.45593999997E+02  0.45594000000E+02  0.51100000000E-03 0. -1.
         11   -1    0    0    0    0 -0.00000000000E+00 -0.00000000000E+00 -0.45593999997E+02  0.45594000000E+02  0.51100000000E-03 0.  1.
         23    2    1    2    0    0  0.88817841970E-15 -0.35527136788E-14  0.00000000000E+00  0.91188000000E+02  0.91188000000E+02 0.  0.
    9900012    2    3    3    0    0 -0.63870354304E+01  0.26753164436E+02 -0.24479631011E+02  0.54367104256E+02  0.40000045773E+02 0.  0.
         12    1    3    3    0    0  0.63870354304E+01 -0.26753164436E+02  0.24479631011E+02  0.36820895744E+02  0.00000000000E+00 0. -1.
         11    1    4    4    0    0  0.63819749293E+01 -0.71109500935E+01 -0.21240261887E+01  0.97880898413E+01  0.51100000000E-03 0. -1.
        -11    1    4    4    0    0 -0.13851897903E+02  0.28593048057E+02 -0.22908788610E+02  0.39169504318E+02  0.51100000000E-03 0.  1.
         12    1    4    4    0    0  0.10828875434E+01  0.52710664722E+01  0.55318378685E+00  0.54095100969E+01  0.00000000000E+00 0. -1.
</event>
<event>
 8    1  0.1271559E-006  0.9118800E+02  0.7816164E-02  0.1184000E+00
        -11   -1    0    0    0    0  0.00000000000E+00  0.00000000000E+00  0.45593999997E+02  0.45594000000E+02  0.51100000000E-03 0.  1.
         11   -1    0    0    0    0 -0.00000000000E+00 -0.00000000000E+00 -0.45593999997E+02  0.45594000000E+02  0.51100000000E-03 0. -1.
         23    2    1    2    0    0  0.17763568394E-14 -0.71054273576E-14 -0.17763568394E-14  0.91188000000E+02  0.91188000000E+02 0.  0.
    9900012    2    3    3    0    0 -0.11465832058E+02  0.33700546498E+02  0.94126389511E+01  0.54366947448E+02  0.39999688296E+02 0.  0.
         12    1    3    3    0    0  0.11465832058E+02 -0.33700546498E+02 -0.94126389511E+01  0.36821052552E+02  0.00000000000E+00 0. -1.
         11    1    4    4    0    0 -0.43127520479E+01  0.15492209051E+02  0.60523082062E+01  0.17182514553E+02  0.51100000000E-03 0. -1.
        -11    1    4    4    0    0 -0.40194125725E+01  0.24325287881E+02  0.10922020733E+02  0.26966012777E+02  0.51100000000E-03 0.  1.
         12    1    4    4    0    0 -0.31336674373E+01 -0.61169504341E+01 -0.75616899883E+01  0.10218420118E+02  0.00000000000E+00 0. -1.
</event>
<event>
 8    1  0.1271559E-006  0.9118800E+02  0.7816164E-02  0.1184000E+00
        -11   -1    0    0    0    0  0.00000000000E+00  0.00000000000E+00  0.45593999997E+02  0.45594000000E+02  0.51100000000E-03 0.  1.
         11   -1    0    0    0    0 -0.00000000000E+00 -0.00000000000E+00 -0.45593999997E+02  0.45594000000E+02  0.51100000000E-03 0. -1.
         23    2    1    2    0    0  0.00000000000E+00 -0.44408920985E-15  0.00000000000E+00  0.91188000000E+02  0.91188000000E+02 0.  0.
    9900012    2    3    3    0    0  0.16686295192E+02 -0.26756517929E+01 -0.32713753071E+02  0.54367065740E+02  0.39999957968E+02 0.  0.
        -12    1    3    3    0    0 -0.16686295192E+02  0.26756517929E+01  0.32713753071E+02  0.36820934260E+02  0.00000000000E+00 0.  1.
         11    1    4    4    0    0  0.14736782619E+02 -0.12966097923E+02 -0.78815120833E+01  0.21152084774E+02  0.51100000000E-03 0. -1.
        -11    1    4    4    0    0 -0.61167564853E+01 -0.26560171274E+01 -0.93140497948E+01  0.11455158695E+02  0.51100000000E-03 0.  1.
        -12    1    4    4    0    0  0.80662690588E+01  0.12946463257E+02 -0.15518191193E+02  0.21759822272E+02  0.00000000000E+00 0.  1.
</event>
<event>
 8    1  0.1271559E-006  0.9118800E+02  0.7816164E-02  0.1184000E+00
        -11   -1    0    0    0    0  0.00000000000E+00  0.00000000000E+00  0.45593999997E+02  0.45594000000E+02  0.51100000000E-03 0. -1.
         11   -1    0    0    0    0 -0.00000000000E+00 -0.00000000000E+00 -0.45593999997E+02  0.45594000000E+02  0.51100000000E-03 0.  1.
         23    2    1    2    0    0  0.00000000000E+00 -0.88817841970E-15  0.44408920985E-15  0.91188000000E+02  0.91188000000E+02 0.  0.
    9900012    2    3    3    0    0  0.36284309604E+02 -0.58710029832E+01 -0.21818861444E+01  0.54367076239E+02  0.39999981902E+02 0.  0.
        -12    1    3    3    0    0 -0.36284309604E+02  0.58710029832E+01  0.21818861444E+01  0.36820923761E+02  0.00000000000E+00 0.  1.
         11    1    4    4    0    0  0.13440268216E+02 -0.70267333281E+01 -0.44106178519E+01  0.15794598478E+02  0.51100000000E-03 0. -1.
        -11    1    4    4    0    0  0.11666643818E+02  0.14544655894E+02 -0.55804673562E+01  0.19462764686E+02  0.51100000000E-03 0.  1.
        -12    1    4    4    0    0  0.11177397569E+02 -0.13388925549E+02  0.78091990637E+01  0.19109713075E+02  0.00000000000E+00 0.  1.
</event>
<event>
 8    1  0.1271559E-006  0.9118800E+02  0.7816164E-02  0.1184000E+00
        -11   -1    0    0    0    0  0.00000000000E+00  0.00000000000E+00  0.45593999997E+02  0.45594000000E+02  0.51100000000E-03 0. -1.
         11   -1    0    0    0    0 -0.00000000000E+00 -0.00000000000E+00 -0.45593999997E+02  0.45594000000E+02  0.51100000000E-03 0.  1.
         23    2    1    2    0    0  0.00000000000E+00  0.00000000000E+00  0.17763568394E-14  0.91188000000E+02  0.91188000000E+02 0.  0.
    9900012    2    3    3    0    0 -0.32979864588E+02 -0.11128356837E+02  0.12011162772E+02  0.54367084405E+02  0.40000000518E+02 0.  0.
         12    1    3    3    0    0  0.32979864588E+02  0.11128356837E+02 -0.12011162772E+02  0.36820915595E+02  0.00000000000E+00 0. -1.
         11    1    4    4    0    0 -0.75630330837E+01 -0.72369104827E+01 -0.78622802374E+01  0.13091516091E+02  0.51100000000E-03 0. -1.
        -11    1    4    4    0    0 -0.40389568793E+01  0.46084388907E+01 -0.46183580904E+01  0.76733378262E+01  0.51100000000E-03 0.  1.
         12    1    4    4    0    0 -0.21377874625E+02 -0.84998852454E+01  0.24491801100E+02  0.33602230488E+02  0.00000000000E+00 0. -1.
</event>
<event>
 8    1  0.1271559E-006  0.9118800E+02  0.7816164E-02  0.1184000E+00
        -11   -1    0    0    0    0  0.00000000000E+00  0.00000000000E+00  0.45593999997E+02  0.45594000000E+02  0.51100000000E-03 0.  1.
         11   -1    0    0    0    0 -0.00000000000E+00 -0.00000000000E+00 -0.45593999997E+02  0.45594000000E+02  0.51100000000E-03 0. -1.
         23    2    1    2    0    0  0.00000000000E+00  0.13322676296E-14  0.13877787808E-14  0.91188000000E+02  0.91188000000E+02 0.  0.
    9900012    2    3    3    0    0  0.36777041257E+02  0.17964524157E+01 -0.32759347336E-01  0.54367094551E+02  0.40000023648E+02 0.  0.
        -12    1    3    3    0    0 -0.36777041257E+02 -0.17964524157E+01  0.32759347336E-01  0.36820905449E+02  0.00000000000E+00 0.  1.
         11    1    4    4    0    0  0.31034944800E+02  0.12167697905E+02 -0.76384714673E+01  0.34198931528E+02  0.51100000000E-03 0. -1.
        -11    1    4    4    0    0 -0.17580601547E+01 -0.74402995051E+01 -0.17309465025E+01  0.78386866431E+01  0.51100000000E-03 0.  1.
         12    1    4    4    0    0  0.75001566123E+01 -0.29309459846E+01  0.93366586225E+01  0.12329476380E+02  0.00000000000E+00 0. -1.
</event>
<event>
 8    1  0.1271559E-006  0.9118800E+02  0.7816164E-02  0.1184000E+00
        -11   -1    0    0    0    0  0.00000000000E+00  0.00000000000E+00  0.45593999997E+02  0.45594000000E+02  0.51100000000E-03 0. -1.
         11   -1    0    0    0    0 -0.00000000000E+00 -0.00000000000E+00 -0.45593999997E+02  0.45594000000E+02  0.51100000000E-03 0.  1.
         23    2    1    2    0    0  0.88817841970E-15  0.00000000000E+00  0.00000000000E+00  0.91188000000E+02  0.91188000000E+02 0.  0.
    9900012    2    3    3    0    0  0.44857537595E+01 -0.16428246766E+02  0.32646211299E+02  0.54367022409E+02  0.39999859185E+02 0.  0.
        -12    1    3    3    0    0 -0.44857537595E+01  0.16428246766E+02 -0.32646211299E+02  0.36820977591E+02  0.00000000000E+00 0.  1.
         11    1    4    4    0    0  0.14270378351E+02 -0.20347596630E+02  0.20014473810E+02  0.31909991367E+02  0.51100000000E-03 0. -1.
        -11    1    4    4    0    0  0.33582159922E+00  0.30795747812E+01 -0.26716096761E+01  0.40907279917E+01  0.51100000000E-03 0.  1.
        -12    1    4    4    0    0 -0.10120446190E+02  0.83977508211E+00  0.15303347165E+02  0.18366303050E+02  0.00000000000E+00 0.  1.
</event>
<event>
 8    1  0.1271559E-006  0.9118800E+02  0.7816164E-02  0.1184000E+00
        -11   -1    0    0    0    0  0.00000000000E+00  0.00000000000E+00  0.45593999997E+02  0.45594000000E+02  0.51100000000E-03 0. -1.
         11   -1    0    0    0    0 -0.00000000000E+00 -0.00000000000E+00 -0.45593999997E+02  0.45594000000E+02  0.51100000000E-03 0.  1.
         23    2    1    2    0    0  0.35527136788E-14  0.00000000000E+00  0.71054273576E-14  0.91188000000E+02  0.91188000000E+02 0.  0.
    9900012    2    3    3    0    0  0.15628161689E+02 -0.17071024068E+02  0.28637796310E+02  0.54367045667E+02  0.39999912207E+02 0.  0.
        -12    1    3    3    0    0 -0.15628161689E+02  0.17071024068E+02 -0.28637796310E+02  0.36820954333E+02  0.00000000000E+00 0.  1.
         11    1    4    4    0    0  0.10273609085E+01 -0.19535793925E+02  0.22461249467E+02  0.29786078000E+02  0.51100000000E-03 0. -1.
        -11    1    4    4    0    0  0.77417779248E+01 -0.59684908943E+01  0.90668247248E+01  0.13332866153E+02  0.51100000000E-03 0.  1.
        -12    1    4    4    0    0  0.68590228561E+01  0.84332607516E+01 -0.28902778825E+01  0.11248101515E+02  0.00000000000E+00 0.  1.
</event>
<event>
 8    1  0.1271559E-006  0.9118800E+02  0.7816164E-02  0.1184000E+00
        -11   -1    0    0    0    0  0.00000000000E+00  0.00000000000E+00  0.45593999997E+02  0.45594000000E+02  0.51100000000E-03 0.  1.
         11   -1    0    0    0    0 -0.00000000000E+00 -0.00000000000E+00 -0.45593999997E+02  0.45594000000E+02  0.51100000000E-03 0. -1.
         23    2    1    2    0    0  0.00000000000E+00  0.17763568394E-14 -0.22204460493E-15  0.91188000000E+02  0.91188000000E+02 0.  0.
    9900012    2    3    3    0    0 -0.35025337094E+02 -0.11255208721E+02  0.15248474141E+01  0.54367093961E+02  0.40000022303E+02 0.  0.
        -12    1    3    3    0    0  0.35025337094E+02  0.11255208721E+02 -0.15248474141E+01  0.36820906039E+02  0.00000000000E+00 0.  1.
         11    1    4    4    0    0 -0.25622364970E+02  0.19693836130E+01 -0.17104016218E+01  0.25754796300E+02  0.51100000000E-03 0. -1.
        -11    1    4    4    0    0  0.71428713111E+00  0.61750704626E+01 -0.10857409762E+01  0.63103514207E+01  0.51100000000E-03 0.  1.
        -12    1    4    4    0    0 -0.10117259255E+02 -0.19399662796E+02  0.43209900121E+01  0.22301946241E+02  0.00000000000E+00 0.  1.
</event>
<event>
 8    1  0.1271559E-006  0.9118800E+02  0.7816164E-02  0.1184000E+00
        -11   -1    0    0    0    0  0.00000000000E+00  0.00000000000E+00  0.45593999997E+02  0.45594000000E+02  0.51100000000E-03 0.  1.
         11   -1    0    0    0    0 -0.00000000000E+00 -0.00000000000E+00 -0.45593999997E+02  0.45594000000E+02  0.51100000000E-03 0. -1.
         23    2    1    2    0    0  0.00000000000E+00  0.71054273576E-14  0.35527136788E-14  0.91188000000E+02  0.91188000000E+02 0.  0.
    9900012    2    3    3    0    0 -0.14860946121E+02 -0.29065096078E+02 -0.17033883030E+02  0.54367072517E+02  0.39999973416E+02 0.  0.
        -12    1    3    3    0    0  0.14860946121E+02  0.29065096078E+02  0.17033883030E+02  0.36820927483E+02  0.00000000000E+00 0.  1.
         11    1    4    4    0    0 -0.50660830282E+00 -0.14520532010E+02 -0.85474676005E+01  0.16857096561E+02  0.51100000000E-03 0. -1.
        -11    1    4    4    0    0  0.21946303284E+00  0.66902788360E+01  0.50774387507E+01  0.84016890834E+01  0.51100000000E-03 0.  1.
        -12    1    4    4    0    0 -0.14573800851E+02 -0.21234842904E+02 -0.13563854180E+02  0.29108286872E+02  0.00000000000E+00 0.  1.
</event>
<event>
 8    1  0.1271559E-006  0.9118800E+02  0.7816164E-02  0.1184000E+00
        -11   -1    0    0    0    0  0.00000000000E+00  0.00000000000E+00  0.45593999997E+02  0.45594000000E+02  0.51100000000E-03 0. -1.
         11   -1    0    0    0    0 -0.00000000000E+00 -0.00000000000E+00 -0.45593999997E+02  0.45594000000E+02  0.51100000000E-03 0.  1.
         23    2    1    2    0    0 -0.71054273576E-14 -0.88817841970E-15  0.00000000000E+00  0.91188000000E+02  0.91188000000E+02 0.  0.
    9900012    2    3    3    0    0 -0.35182911894E+02  0.42333279709E+01  0.10001087090E+02  0.54367080700E+02  0.39999992073E+02 0.  0.
        -12    1    3    3    0    0  0.35182911894E+02 -0.42333279709E+01 -0.10001087090E+02  0.36820919300E+02  0.00000000000E+00 0.  1.
         11    1    4    4    0    0 -0.68969041015E+01 -0.12095965616E+01  0.24429165307E+01  0.74160805999E+01  0.51100000000E-03 0. -1.
        -11    1    4    4    0    0 -0.34568574973E+02  0.35778759166E+01  0.14271291066E+02  0.37569366786E+02  0.51100000000E-03 0.  1.
        -12    1    4    4    0    0  0.62825671800E+01  0.18650486159E+01 -0.67131205067E+01  0.93816333145E+01  0.00000000000E+00 0.  1.
</event>
<event>
 8    1  0.1271559E-006  0.9118800E+02  0.7816164E-02  0.1184000E+00
        -11   -1    0    0    0    0  0.00000000000E+00  0.00000000000E+00  0.45593999997E+02  0.45594000000E+02  0.51100000000E-03 0. -1.
         11   -1    0    0    0    0 -0.00000000000E+00 -0.00000000000E+00 -0.45593999997E+02  0.45594000000E+02  0.51100000000E-03 0.  1.
         23    2    1    2    0    0 -0.35527136788E-14 -0.35527136788E-14  0.35527136788E-14  0.91188000000E+02  0.91188000000E+02 0.  0.
    9900012    2    3    3    0    0  0.16868937553E+02 -0.31180112474E+02  0.99508327982E+01  0.54367088259E+02  0.40000009304E+02 0.  0.
        -12    1    3    3    0    0 -0.16868937553E+02  0.31180112474E+02 -0.99508327982E+01  0.36820911741E+02  0.00000000000E+00 0.  1.
         11    1    4    4    0    0  0.97180199284E+01 -0.15112643020E+02  0.13364807163E+02  0.22393078420E+02  0.51100000000E-03 0. -1.
        -11    1    4    4    0    0  0.11882247518E+01 -0.16485899004E+02 -0.12759344093E+02  0.20880555691E+02  0.51100000000E-03 0.  1.
        -12    1    4    4    0    0  0.59626928727E+01  0.41842954886E+00  0.93453697282E+01  0.11093454148E+02  0.00000000000E+00 0.  1.
</event>
<event>
 8    1  0.1271559E-006  0.9118800E+02  0.7816164E-02  0.1184000E+00
        -11   -1    0    0    0    0  0.00000000000E+00  0.00000000000E+00  0.45593999997E+02  0.45594000000E+02  0.51100000000E-03 0.  1.
         11   -1    0    0    0    0 -0.00000000000E+00 -0.00000000000E+00 -0.45593999997E+02  0.45594000000E+02  0.51100000000E-03 0. -1.
         23    2    1    2    0    0  0.00000000000E+00  0.00000000000E+00  0.00000000000E+00  0.91188000000E+02  0.91188000000E+02 0.  0.
    9900012    2    3    3    0    0 -0.36142939019E+01 -0.10427035427E+02  0.35128254601E+02  0.54367075792E+02  0.39999980883E+02 0.  0.
         12    1    3    3    0    0  0.36142939019E+01  0.10427035427E+02 -0.35128254601E+02  0.36820924208E+02  0.00000000000E+00 0. -1.
         11    1    4    4    0    0  0.17629816576E+01 -0.77482741064E+00 -0.13903490976E+01  0.23751910903E+01  0.51100000000E-03 0. -1.
        -11    1    4    4    0    0 -0.18788083071E+02 -0.43219364434E+01  0.31072142049E+02  0.36567050905E+02  0.51100000000E-03 0.  1.
        -12    1    4    4    0    0  0.13410807512E+02 -0.53302715725E+01  0.54464616494E+01  0.15424833797E+02  0.00000000000E+00 0.  1.
</event>
<event>
 8    1  0.1271559E-006  0.9118800E+02  0.7816164E-02  0.1184000E+00
        -11   -1    0    0    0    0  0.00000000000E+00  0.00000000000E+00  0.45593999997E+02  0.45594000000E+02  0.51100000000E-03 0. -1.
         11   -1    0    0    0    0 -0.00000000000E+00 -0.00000000000E+00 -0.45593999997E+02  0.45594000000E+02  0.51100000000E-03 0.  1.
         23    2    1    2    0    0  0.00000000000E+00  0.00000000000E+00  0.00000000000E+00  0.91188000000E+02  0.91188000000E+02 0.  0.
    9900012    2    3    3    0    0  0.75308045937E+01  0.31091560480E+02  0.18231138184E+02  0.54367183192E+02  0.40000225722E+02 0.  0.
        -12    1    3    3    0    0 -0.75308045937E+01 -0.31091560480E+02 -0.18231138184E+02  0.36820816808E+02  0.00000000000E+00 0.  1.
         11    1    4    4    0    0 -0.46630795281E+01  0.15482507174E+02  0.60037416715E+01  0.17248108691E+02  0.51100000000E-03 0. -1.
        -11    1    4    4    0    0 -0.41239308491E+01  0.37021094447E+01  0.15675898639E+02  0.16626671898E+02  0.51100000000E-03 0.  1.
        -12    1    4    4    0    0  0.16317814971E+02  0.11906943862E+02 -0.34485021266E+01  0.20492402604E+02  0.00000000000E+00 0.  1.
</event>
<event>
 8    1  0.1271559E-006  0.9118800E+02  0.7816164E-02  0.1184000E+00
        -11   -1    0    0    0    0  0.00000000000E+00  0.00000000000E+00  0.45593999997E+02  0.45594000000E+02  0.51100000000E-03 0.  1.
         11   -1    0    0    0    0 -0.00000000000E+00 -0.00000000000E+00 -0.45593999997E+02  0.45594000000E+02  0.51100000000E-03 0. -1.
         23    2    1    2    0    0 -0.35527136788E-14  0.35527136788E-14  0.00000000000E+00  0.91188000000E+02  0.91188000000E+02 0.  0.
    9900012    2    3    3    0    0  0.29155372724E+02 -0.22482870546E+02 -0.51491768238E+00  0.54367077050E+02  0.39999983752E+02 0.  0.
         12    1    3    3    0    0 -0.29155372724E+02  0.22482870546E+02  0.51491768238E+00  0.36820922950E+02  0.00000000000E+00 0. -1.
         11    1    4    4    0    0 -0.27596840976E+00  0.22045267801E+01  0.16371872975E+01  0.27597969845E+01  0.51100000000E-03 0. -1.
        -11    1    4    4    0    0  0.31125783777E+02 -0.31425422019E+02  0.32210747662E+00  0.44232062108E+02  0.51100000000E-03 0.  1.
        -12    1    4    4    0    0 -0.16944426438E+01  0.67380246936E+01 -0.24742124565E+01  0.73752179578E+01  0.00000000000E+00 0.  1.
</event>
<event>
 8    1  0.1271559E-006  0.9118800E+02  0.7816164E-02  0.1184000E+00
        -11   -1    0    0    0    0  0.00000000000E+00  0.00000000000E+00  0.45593999997E+02  0.45594000000E+02  0.51100000000E-03 0. -1.
         11   -1    0    0    0    0 -0.00000000000E+00 -0.00000000000E+00 -0.45593999997E+02  0.45594000000E+02  0.51100000000E-03 0.  1.
         23    2    1    2    0    0  0.00000000000E+00  0.00000000000E+00 -0.71054273576E-14  0.91188000000E+02  0.91188000000E+02 0.  0.
    9900012    2    3    3    0    0 -0.10595669736E+02 -0.16073298854E+02  0.31387273254E+02  0.54367081007E+02  0.39999992772E+02 0.  0.
        -12    1    3    3    0    0  0.10595669736E+02  0.16073298854E+02 -0.31387273254E+02  0.36820918993E+02  0.00000000000E+00 0.  1.
         11    1    4    4    0    0 -0.72669235803E+01  0.23450865171E+01  0.25986017952E+02  0.27084695649E+02  0.51100000000E-03 0. -1.
        -11    1    4    4    0    0 -0.60720431258E+00 -0.19742495962E+02  0.97158584439E+01  0.22012104612E+02  0.51100000000E-03 0.  1.
        -12    1    4    4    0    0 -0.27215418434E+01  0.13241105916E+01 -0.43146031427E+01  0.52702807461E+01  0.00000000000E+00 0.  1.
</event>
<event>
 8    1  0.1271559E-006  0.9118800E+02  0.7816164E-02  0.1184000E+00
        -11   -1    0    0    0    0  0.00000000000E+00  0.00000000000E+00  0.45593999997E+02  0.45594000000E+02  0.51100000000E-03 0.  1.
         11   -1    0    0    0    0 -0.00000000000E+00 -0.00000000000E+00 -0.45593999997E+02  0.45594000000E+02  0.51100000000E-03 0. -1.
         23    2    1    2    0    0 -0.35527136788E-14  0.17763568394E-14  0.17763568394E-14  0.91188000000E+02  0.91188000000E+02 0.  0.
    9900012    2    3    3    0    0 -0.30727643811E+02  0.14424722101E+02  0.14266051771E+02  0.54367069336E+02  0.39999966165E+02 0.  0.
        -12    1    3    3    0    0  0.30727643811E+02 -0.14424722101E+02 -0.14266051771E+02  0.36820930664E+02  0.00000000000E+00 0.  1.
         11    1    4    4    0    0 -0.24777958529E+02 -0.21671381404E+01  0.61082807671E+01  0.25611614763E+02  0.51100000000E-03 0. -1.
        -11    1    4    4    0    0  0.12654616722E+01 -0.40941818114E+01  0.50576097896E+01  0.66289618338E+01  0.51100000000E-03 0.  1.
        -12    1    4    4    0    0 -0.72151469543E+01  0.20686042053E+02  0.31001612142E+01  0.22126492739E+02  0.00000000000E+00 0.  1.
</event>
<event>
 8    1  0.1271559E-006  0.9118800E+02  0.7816164E-02  0.1184000E+00
        -11   -1    0    0    0    0  0.00000000000E+00  0.00000000000E+00  0.45593999997E+02  0.45594000000E+02  0.51100000000E-03 0. -1.
         11   -1    0    0    0    0 -0.00000000000E+00 -0.00000000000E+00 -0.45593999997E+02  0.45594000000E+02  0.51100000000E-03 0.  1.
         23    2    1    2    0    0  0.00000000000E+00  0.35527136788E-14 -0.35527136788E-14  0.91188000000E+02  0.91188000000E+02 0.  0.
    9900012    2    3    3    0    0 -0.23691157490E+02 -0.20323731040E+02  0.19530873696E+02  0.54367081843E+02  0.39999994678E+02 0.  0.
        -12    1    3    3    0    0  0.23691157490E+02  0.20323731040E+02 -0.19530873696E+02  0.36820918157E+02  0.00000000000E+00 0.  1.
         11    1    4    4    0    0 -0.13683888098E+02 -0.41925425141E+01  0.19124556458E+02  0.23886708986E+02  0.51100000000E-03 0. -1.
        -11    1    4    4    0    0 -0.81208589305E+01  0.15021878705E+01  0.77128923376E+01  0.11300160470E+02  0.51100000000E-03 0.  1.
        -12    1    4    4    0    0 -0.18864104617E+01 -0.17633376396E+02 -0.73065750998E+01  0.19180212388E+02  0.00000000000E+00 0.  1.
</event>
<event>
 8    1  0.1271559E-006  0.9118800E+02  0.7816164E-02  0.1184000E+00
        -11   -1    0    0    0    0  0.00000000000E+00  0.00000000000E+00  0.45593999997E+02  0.45594000000E+02  0.51100000000E-03 0.  1.
         11   -1    0    0    0    0 -0.00000000000E+00 -0.00000000000E+00 -0.45593999997E+02  0.45594000000E+02  0.51100000000E-03 0. -1.
         23    2    1    2    0    0 -0.35527136788E-14  0.00000000000E+00  0.00000000000E+00  0.91188000000E+02  0.91188000000E+02 0.  0.
    9900012    2    3    3    0    0 -0.27311367867E+02 -0.19211540541E+02 -0.15517204861E+02  0.54367112566E+02  0.40000064717E+02 0.  0.
        -12    1    3    3    0    0  0.27311367867E+02  0.19211540541E+02  0.15517204861E+02  0.36820887434E+02  0.00000000000E+00 0.  1.
         11    1    4    4    0    0 -0.20797502978E+02  0.12887919440E+01 -0.14529129360E+02  0.25402612366E+02  0.51100000000E-03 0. -1.
        -11    1    4    4    0    0 -0.11178142258E+02 -0.84246689695E+01 -0.58034192226E+01  0.15152741881E+02  0.51100000000E-03 0.  1.
        -12    1    4    4    0    0  0.46642773688E+01 -0.12075663516E+02  0.48153437217E+01  0.13811758320E+02  0.00000000000E+00 0.  1.
</event>
<event>
 8    1  0.1271559E-006  0.9118800E+02  0.7816164E-02  0.1184000E+00
        -11   -1    0    0    0    0  0.00000000000E+00  0.00000000000E+00  0.45593999997E+02  0.45594000000E+02  0.51100000000E-03 0.  1.
         11   -1    0    0    0    0 -0.00000000000E+00 -0.00000000000E+00 -0.45593999997E+02  0.45594000000E+02  0.51100000000E-03 0. -1.
         23    2    1    2    0    0  0.17763568394E-14  0.00000000000E+00 -0.27755575616E-16  0.91188000000E+02  0.91188000000E+02 0.  0.
    9900012    2    3    3    0    0 -0.14769754841E+02 -0.33728713779E+02  0.84919860097E-01  0.54367095576E+02  0.40000025984E+02 0.  0.
        -12    1    3    3    0    0  0.14769754841E+02  0.33728713779E+02 -0.84919860097E-01  0.36820904424E+02  0.00000000000E+00 0.  1.
         11    1    4    4    0    0  0.60732001687E+01 -0.17354511755E+02 -0.38665440705E+01  0.18788640235E+02  0.51100000000E-03 0. -1.
        -11    1    4    4    0    0  0.10638749570E+01 -0.13137721323E+02  0.22186162994E+01  0.13366144172E+02  0.51100000000E-03 0.  1.
        -12    1    4    4    0    0 -0.21906829967E+02 -0.32364807000E+01  0.17328476312E+01  0.22212311169E+02  0.00000000000E+00 0.  1.
</event>
<event>
 8    1  0.1271559E-006  0.9118800E+02  0.7816164E-02  0.1184000E+00
        -11   -1    0    0    0    0  0.00000000000E+00  0.00000000000E+00  0.45593999997E+02  0.45594000000E+02  0.51100000000E-03 0. -1.
         11   -1    0    0    0    0 -0.00000000000E+00 -0.00000000000E+00 -0.45593999997E+02  0.45594000000E+02  0.51100000000E-03 0.  1.
         23    2    1    2    0    0  0.88817841970E-15 -0.71054273576E-14  0.00000000000E+00  0.91188000000E+02  0.91188000000E+02 0.  0.
    9900012    2    3    3    0    0  0.65831723640E+01 -0.35551281783E+02 -0.69675898167E+01  0.54367094217E+02  0.40000022887E+02 0.  0.
         12    1    3    3    0    0 -0.65831723640E+01  0.35551281783E+02  0.69675898167E+01  0.36820905783E+02  0.00000000000E+00 0. -1.
         11    1    4    4    0    0  0.12507756146E+02 -0.36282876762E+01  0.49645321310E+01  0.13937539769E+02  0.51100000000E-03 0. -1.
        -11    1    4    4    0    0  0.33679640483E+01 -0.14460198821E+02 -0.14167726028E+02  0.20522304764E+02  0.51100000000E-03 0.  1.
        -12    1    4    4    0    0 -0.92925478300E+01 -0.17462795286E+02  0.22356040803E+01  0.19907249684E+02  0.00000000000E+00 0.  1.
</event>
<event>
 8    1  0.1271559E-006  0.9118800E+02  0.7816164E-02  0.1184000E+00
        -11   -1    0    0    0    0  0.00000000000E+00  0.00000000000E+00  0.45593999997E+02  0.45594000000E+02  0.51100000000E-03 0. -1.
         11   -1    0    0    0    0 -0.00000000000E+00 -0.00000000000E+00 -0.45593999997E+02  0.45594000000E+02  0.51100000000E-03 0.  1.
         23    2    1    2    0    0  0.00000000000E+00  0.00000000000E+00 -0.35527136788E-14  0.91188000000E+02  0.91188000000E+02 0.  0.
    9900012    2    3    3    0    0 -0.23968483193E+02 -0.13000318769E+02 -0.24744372189E+02  0.54367076197E+02  0.39999981807E+02 0.  0.
         12    1    3    3    0    0  0.23968483193E+02  0.13000318769E+02  0.24744372189E+02  0.36820923803E+02  0.00000000000E+00 0. -1.
         11    1    4    4    0    0 -0.12489531032E+02 -0.20932506774E+02 -0.10062815774E+02  0.26370788513E+02  0.51100000000E-03 0. -1.
        -11    1    4    4    0    0 -0.16457987426E+02  0.81684733553E+01 -0.90693451288E+01  0.20490054377E+02  0.51100000000E-03 0.  1.
        -12    1    4    4    0    0  0.49790352649E+01 -0.23628535014E+00 -0.56122112858E+01  0.75062333065E+01  0.00000000000E+00 0.  1.
</event>
<event>
 8    1  0.1271559E-006  0.9118800E+02  0.7816164E-02  0.1184000E+00
        -11   -1    0    0    0    0  0.00000000000E+00  0.00000000000E+00  0.45593999997E+02  0.45594000000E+02  0.51100000000E-03 0. -1.
         11   -1    0    0    0    0 -0.00000000000E+00 -0.00000000000E+00 -0.45593999997E+02  0.45594000000E+02  0.51100000000E-03 0.  1.
         23    2    1    2    0    0  0.35527136788E-14  0.00000000000E+00 -0.17763568394E-14  0.91188000000E+02  0.91188000000E+02 0.  0.
    9900012    2    3    3    0    0 -0.30025934074E+02 -0.18698653268E+02 -0.10226785937E+02  0.54367034482E+02  0.39999886709E+02 0.  0.
         12    1    3    3    0    0  0.30025934074E+02  0.18698653268E+02  0.10226785937E+02  0.36820965518E+02  0.00000000000E+00 0. -1.
         11    1    4    4    0    0 -0.17932169924E+02 -0.31075768852E+01 -0.18250025802E+02  0.25773691903E+02  0.51100000000E-03 0. -1.
        -11    1    4    4    0    0 -0.11608828978E+02 -0.40507557579E+00  0.46927915015E+00  0.11625369656E+02  0.51100000000E-03 0.  1.
         12    1    4    4    0    0 -0.48493517176E+00 -0.15186000807E+02  0.75539607148E+01  0.16967972923E+02  0.00000000000E+00 0. -1.
</event>
<event>
 8    1  0.1271559E-006  0.9118800E+02  0.7816164E-02  0.1184000E+00
        -11   -1    0    0    0    0  0.00000000000E+00  0.00000000000E+00  0.45593999997E+02  0.45594000000E+02  0.51100000000E-03 0.  1.
         11   -1    0    0    0    0 -0.00000000000E+00 -0.00000000000E+00 -0.45593999997E+02  0.45594000000E+02  0.51100000000E-03 0. -1.
         23    2    1    2    0    0  0.00000000000E+00  0.00000000000E+00 -0.35527136788E-14  0.91188000000E+02  0.91188000000E+02 0.  0.
    9900012    2    3    3    0    0 -0.26065596073E+02  0.49635723141E+01  0.25528956327E+02  0.54367082577E+02  0.39999996351E+02 0.  0.
         12    1    3    3    0    0  0.26065596073E+02 -0.49635723141E+01 -0.25528956327E+02  0.36820917423E+02  0.00000000000E+00 0. -1.
         11    1    4    4    0    0 -0.62247107341E+01 -0.67585885591E+01 -0.12385057559E+01  0.92714313784E+01  0.51100000000E-03 0. -1.
        -11    1    4    4    0    0 -0.56930559138E+01 -0.57190076211E+01  0.20114890106E+02  0.21673180155E+02  0.51100000000E-03 0.  1.
         12    1    4    4    0    0 -0.14147829425E+02  0.17441168494E+02  0.66525719769E+01  0.23422471044E+02  0.00000000000E+00 0. -1.
</event>
<event>
 8    1  0.1271559E-006  0.9118800E+02  0.7816164E-02  0.1184000E+00
        -11   -1    0    0    0    0  0.00000000000E+00  0.00000000000E+00  0.45593999997E+02  0.45594000000E+02  0.51100000000E-03 0.  1.
         11   -1    0    0    0    0 -0.00000000000E+00 -0.00000000000E+00 -0.45593999997E+02  0.45594000000E+02  0.51100000000E-03 0. -1.
         23    2    1    2    0    0  0.17763568394E-14  0.00000000000E+00  0.00000000000E+00  0.91188000000E+02  0.91188000000E+02 0.  0.
    9900012    2    3    3    0    0  0.15361507171E+02  0.15633729629E+02 -0.29586997764E+02  0.54367084186E+02  0.40000000019E+02 0.  0.
        -12    1    3    3    0    0 -0.15361507171E+02 -0.15633729629E+02  0.29586997764E+02  0.36820915814E+02  0.00000000000E+00 0.  1.
         11    1    4    4    0    0  0.50036370895E+01  0.95531700818E+01 -0.23665517459E+02  0.26006848322E+02  0.51100000000E-03 0. -1.
        -11    1    4    4    0    0  0.12701510992E+02  0.53662021316E+01 -0.14160445826E+02  0.19764683986E+02  0.51100000000E-03 0.  1.
        -12    1    4    4    0    0 -0.23436409109E+01  0.71435741539E+00  0.82389655214E+01  0.85955518787E+01  0.00000000000E+00 0.  1.
</event>
<event>
 8    1  0.1271559E-006  0.9118800E+02  0.7816164E-02  0.1184000E+00
        -11   -1    0    0    0    0  0.00000000000E+00  0.00000000000E+00  0.45593999997E+02  0.45594000000E+02  0.51100000000E-03 0.  1.
         11   -1    0    0    0    0 -0.00000000000E+00 -0.00000000000E+00 -0.45593999997E+02  0.45594000000E+02  0.51100000000E-03 0. -1.
         23    2    1    2    0    0  0.00000000000E+00 -0.35527136788E-14  0.35527136788E-14  0.91188000000E+02  0.91188000000E+02 0.  0.
    9900012    2    3    3    0    0 -0.95539522618E+01  0.29390497380E+02  0.20017483476E+02  0.54367095819E+02  0.40000026537E+02 0.  0.
         12    1    3    3    0    0  0.95539522618E+01 -0.29390497380E+02 -0.20017483476E+02  0.36820904181E+02  0.00000000000E+00 0. -1.
         11    1    4    4    0    0  0.29386488663E+01  0.57143098590E+01  0.14522611069E+02  0.15880655743E+02  0.51100000000E-03 0. -1.
        -11    1    4    4    0    0 -0.12928832781E+02  0.26830085742E+02  0.11309067645E+02  0.31857545876E+02  0.51100000000E-03 0.  1.
         12    1    4    4    0    0  0.43623165279E+00 -0.31538982211E+01 -0.58141952376E+01  0.66288941993E+01  0.00000000000E+00 0. -1.
</event>
<event>
 8    1  0.1271559E-006  0.9118800E+02  0.7816164E-02  0.1184000E+00
        -11   -1    0    0    0    0  0.00000000000E+00  0.00000000000E+00  0.45593999997E+02  0.45594000000E+02  0.51100000000E-03 0.  1.
         11   -1    0    0    0    0 -0.00000000000E+00 -0.00000000000E+00 -0.45593999997E+02  0.45594000000E+02  0.51100000000E-03 0. -1.
         23    2    1    2    0    0  0.00000000000E+00  0.00000000000E+00  0.00000000000E+00  0.91188000000E+02  0.91188000000E+02 0.  0.
    9900012    2    3    3    0    0  0.15031245926E+02  0.33237337124E+02  0.50111738646E+01  0.54367207006E+02  0.40000280011E+02 0.  0.
         12    1    3    3    0    0 -0.15031245926E+02 -0.33237337124E+02 -0.50111738646E+01  0.36820792994E+02  0.00000000000E+00 0. -1.
         11    1    4    4    0    0  0.11291197388E+02  0.24994230162E+02 -0.12635729289E+02  0.30197091495E+02  0.51100000000E-03 0. -1.
        -11    1    4    4    0    0 -0.47298012443E+01  0.23316711811E+00  0.64898880182E+01  0.80339301382E+01  0.51100000000E-03 0.  1.
         12    1    4    4    0    0  0.84698497818E+01  0.80099398444E+01  0.11157015136E+02  0.16136185372E+02  0.00000000000E+00 0. -1.
</event>
<event>
 8    1  0.1271559E-006  0.9118800E+02  0.7816164E-02  0.1184000E+00
        -11   -1    0    0    0    0  0.00000000000E+00  0.00000000000E+00  0.45593999997E+02  0.45594000000E+02  0.51100000000E-03 0. -1.
         11   -1    0    0    0    0 -0.00000000000E+00 -0.00000000000E+00 -0.45593999997E+02  0.45594000000E+02  0.51100000000E-03 0.  1.
         23    2    1    2    0    0 -0.17763568394E-14 -0.13322676296E-14  0.71054273576E-14  0.91188000000E+02  0.91188000000E+02 0.  0.
    9900012    2    3    3    0    0  0.36237947308E+01  0.89678850834E+00 -0.36631195561E+02  0.54367073802E+02  0.39999976346E+02 0.  0.
         12    1    3    3    0    0 -0.36237947308E+01 -0.89678850834E+00  0.36631195561E+02  0.36820926198E+02  0.00000000000E+00 0. -1.
         11    1    4    4    0    0  0.86212309936E+01  0.74643761357E+01  0.39748985823E+01  0.12076520771E+02  0.51100000000E-03 0. -1.
        -11    1    4    4    0    0  0.89435815702E+00 -0.41624778705E+01 -0.79307000326E+01  0.90012277942E+01  0.51100000000E-03 0.  1.
        -12    1    4    4    0    0 -0.58917944199E+01 -0.24051097569E+01 -0.32675394110E+02  0.33289325236E+02  0.00000000000E+00 0.  1.
</event>
<event>
 8    1  0.1271559E-006  0.9118800E+02  0.7816164E-02  0.1184000E+00
        -11   -1    0    0    0    0  0.00000000000E+00  0.00000000000E+00  0.45593999997E+02  0.45594000000E+02  0.51100000000E-03 0. -1.
         11   -1    0    0    0    0 -0.00000000000E+00 -0.00000000000E+00 -0.45593999997E+02  0.45594000000E+02  0.51100000000E-03 0.  1.
         23    2    1    2    0    0  0.00000000000E+00  0.88817841970E-15  0.00000000000E+00  0.91188000000E+02  0.91188000000E+02 0.  0.
    9900012    2    3    3    0    0 -0.11521778958E+02  0.48623117100E+01 -0.34632147437E+02  0.54367094232E+02  0.40000022920E+02 0.  0.
         12    1    3    3    0    0  0.11521778958E+02 -0.48623117100E+01  0.34632147437E+02  0.36820905768E+02  0.00000000000E+00 0. -1.
         11    1    4    4    0    0 -0.94252325827E+01  0.11891162666E+02 -0.11077045090E+02  0.18786582631E+02  0.51100000000E-03 0. -1.
        -11    1    4    4    0    0 -0.71116349344E+01  0.53895787404E+01 -0.19727052388E+02  0.21651316510E+02  0.51100000000E-03 0.  1.
        -12    1    4    4    0    0  0.50150885591E+01 -0.12418429696E+02 -0.38280499583E+01  0.13929195090E+02  0.00000000000E+00 0.  1.
</event>
<event>
 8    1  0.1271559E-006  0.9118800E+02  0.7816164E-02  0.1184000E+00
        -11   -1    0    0    0    0  0.00000000000E+00  0.00000000000E+00  0.45593999997E+02  0.45594000000E+02  0.51100000000E-03 0.  1.
         11   -1    0    0    0    0 -0.00000000000E+00 -0.00000000000E+00 -0.45593999997E+02  0.45594000000E+02  0.51100000000E-03 0. -1.
         23    2    1    2    0    0  0.00000000000E+00  0.17763568394E-14  0.35527136788E-14  0.91188000000E+02  0.91188000000E+02 0.  0.
    9900012    2    3    3    0    0  0.29396482250E+02 -0.12456294961E+02 -0.18343051575E+02  0.54367082115E+02  0.39999995297E+02 0.  0.
        -12    1    3    3    0    0 -0.29396482250E+02  0.12456294961E+02  0.18343051575E+02  0.36820917885E+02  0.00000000000E+00 0.  1.
         11    1    4    4    0    0  0.30674210691E+02 -0.14128477720E+02 -0.14293379789E+02  0.36671811930E+02  0.51100000000E-03 0. -1.
        -11    1    4    4    0    0 -0.28862527830E+01  0.60705089874E+01  0.44005428398E+01  0.80340719464E+01  0.51100000000E-03 0.  1.
        -12    1    4    4    0    0  0.16085243423E+01 -0.43983262278E+01 -0.84502146260E+01  0.96611982379E+01  0.00000000000E+00 0.  1.
</event>
<event>
 8    1  0.1271559E-006  0.9118800E+02  0.7816164E-02  0.1184000E+00
        -11   -1    0    0    0    0  0.00000000000E+00  0.00000000000E+00  0.45593999997E+02  0.45594000000E+02  0.51100000000E-03 0. -1.
         11   -1    0    0    0    0 -0.00000000000E+00 -0.00000000000E+00 -0.45593999997E+02  0.45594000000E+02  0.51100000000E-03 0.  1.
         23    2    1    2    0    0 -0.17763568394E-14 -0.44408920985E-15  0.00000000000E+00  0.91188000000E+02  0.91188000000E+02 0.  0.
    9900012    2    3    3    0    0  0.83038684268E+01  0.27345585042E+01 -0.35767970128E+02  0.54367085724E+02  0.40000003525E+02 0.  0.
         12    1    3    3    0    0 -0.83038684268E+01 -0.27345585042E+01  0.35767970128E+02  0.36820914276E+02  0.00000000000E+00 0. -1.
         11    1    4    4    0    0 -0.67035530239E+01  0.65604365968E+01  0.45229098307E+00  0.93905015243E+01  0.51100000000E-03 0. -1.
        -11    1    4    4    0    0  0.63534467177E+01  0.15394089341E+00 -0.34764627711E+02  0.35340760082E+02  0.51100000000E-03 0.  1.
         12    1    4    4    0    0  0.86539747329E+01 -0.39798189859E+01 -0.14556333992E+01  0.96358241180E+01  0.00000000000E+00 0. -1.
</event>
<event>
 8    1  0.1271559E-006  0.9118800E+02  0.7816164E-02  0.1184000E+00
        -11   -1    0    0    0    0  0.00000000000E+00  0.00000000000E+00  0.45593999997E+02  0.45594000000E+02  0.51100000000E-03 0.  1.
         11   -1    0    0    0    0 -0.00000000000E+00 -0.00000000000E+00 -0.45593999997E+02  0.45594000000E+02  0.51100000000E-03 0. -1.
         23    2    1    2    0    0  0.00000000000E+00  0.00000000000E+00 -0.71054273576E-14  0.91188000000E+02  0.91188000000E+02 0.  0.
    9900012    2    3    3    0    0 -0.85702659039E+01 -0.12078513893E+02  0.33711138784E+02  0.54367070711E+02  0.39999969301E+02 0.  0.
         12    1    3    3    0    0  0.85702659039E+01  0.12078513893E+02 -0.33711138784E+02  0.36820929289E+02  0.00000000000E+00 0. -1.
         11    1    4    4    0    0 -0.26138031663E+01 -0.13182370037E+02 -0.31584399016E+01  0.13805165325E+02  0.51100000000E-03 0. -1.
        -11    1    4    4    0    0  0.43238946313E+01 -0.29124257721E+01  0.17593737965E+02  0.18349874782E+02  0.51100000000E-03 0.  1.
        -12    1    4    4    0    0 -0.10280357369E+02  0.40162819162E+01  0.19275840721E+02  0.22212030604E+02  0.00000000000E+00 0.  1.
</event>
<event>
 8    1  0.1271559E-006  0.9118800E+02  0.7816164E-02  0.1184000E+00
        -11   -1    0    0    0    0  0.00000000000E+00  0.00000000000E+00  0.45593999997E+02  0.45594000000E+02  0.51100000000E-03 0. -1.
         11   -1    0    0    0    0 -0.00000000000E+00 -0.00000000000E+00 -0.45593999997E+02  0.45594000000E+02  0.51100000000E-03 0.  1.
         23    2    1    2    0    0  0.00000000000E+00  0.35527136788E-14  0.35527136788E-14  0.91188000000E+02  0.91188000000E+02 0.  0.
    9900012    2    3    3    0    0 -0.22267789278E+02 -0.22215088350E+02  0.19142138504E+02  0.54366999793E+02  0.39999807629E+02 0.  0.
        -12    1    3    3    0    0  0.22267789278E+02  0.22215088350E+02 -0.19142138504E+02  0.36821000207E+02  0.00000000000E+00 0.  1.
         11    1    4    4    0    0 -0.37961331271E+01 -0.14223882032E+02  0.18825429070E+02  0.23898247356E+02  0.51100000000E-03 0. -1.
        -11    1    4    4    0    0 -0.12268434444E+02 -0.16110077582E+02  0.20944336576E+00  0.20250751843E+02  0.51100000000E-03 0.  1.
        -12    1    4    4    0    0 -0.62032217067E+01  0.81188712639E+01  0.10726606822E+00  0.10218000595E+02  0.00000000000E+00 0.  1.
</event>
<event>
 8    1  0.1271559E-006  0.9118800E+02  0.7816164E-02  0.1184000E+00
        -11   -1    0    0    0    0  0.00000000000E+00  0.00000000000E+00  0.45593999997E+02  0.45594000000E+02  0.51100000000E-03 0.  1.
         11   -1    0    0    0    0 -0.00000000000E+00 -0.00000000000E+00 -0.45593999997E+02  0.45594000000E+02  0.51100000000E-03 0. -1.
         23    2    1    2    0    0  0.00000000000E+00  0.00000000000E+00  0.88817841970E-15  0.91188000000E+02  0.91188000000E+02 0.  0.
    9900012    2    3    3    0    0 -0.36637492041E+02  0.27140095548E+01  0.24714182362E+01  0.54367087749E+02  0.40000008140E+02 0.  0.
        -12    1    3    3    0    0  0.36637492041E+02 -0.27140095548E+01 -0.24714182362E+01  0.36820912251E+02  0.00000000000E+00 0.  1.
         11    1    4    4    0    0 -0.61275648390E+01 -0.60305914300E+01  0.97668530565E+01  0.13011783227E+02  0.51100000000E-03 0.  1.
        -11    1    4    4    0    0 -0.33834517898E+02  0.69896918933E+01 -0.16699277764E+01  0.34589291019E+02  0.51100000000E-03 0. -1.
        -12    1    4    4    0    0  0.33245906962E+01  0.17549090915E+01 -0.56255070439E+01  0.67660135026E+01  0.00000000000E+00 0.  1.
</event>
<event>
 8    1  0.1271559E-006  0.9118800E+02  0.7816164E-02  0.1184000E+00
        -11   -1    0    0    0    0  0.00000000000E+00  0.00000000000E+00  0.45593999997E+02  0.45594000000E+02  0.51100000000E-03 0. -1.
         11   -1    0    0    0    0 -0.00000000000E+00 -0.00000000000E+00 -0.45593999997E+02  0.45594000000E+02  0.51100000000E-03 0.  1.
         23    2    1    2    0    0 -0.35527136788E-14 -0.17763568394E-14 -0.17763568394E-14  0.91188000000E+02  0.91188000000E+02 0.  0.
    9900012    2    3    3    0    0  0.31753567426E+02  0.10510102382E+02  0.15395742830E+02  0.54367079403E+02  0.39999989114E+02 0.  0.
        -12    1    3    3    0    0 -0.31753567426E+02 -0.10510102382E+02 -0.15395742830E+02  0.36820920597E+02  0.00000000000E+00 0.  1.
         11    1    4    4    0    0  0.29929200923E+02  0.39255338474E+01  0.39849204011E+01  0.30447437901E+02  0.51100000000E-03 0. -1.
        -11    1    4    4    0    0 -0.11696375846E+01 -0.81870645345E+00 -0.52516965709E+01  0.54423018540E+01  0.51100000000E-03 0.  1.
        -12    1    4    4    0    0  0.29940040872E+01  0.74032749884E+01  0.16662519000E+02  0.18477339647E+02  0.00000000000E+00 0.  1.
</event>
<event>
 8    1  0.1271559E-006  0.9118800E+02  0.7816164E-02  0.1184000E+00
        -11   -1    0    0    0    0  0.00000000000E+00  0.00000000000E+00  0.45593999997E+02  0.45594000000E+02  0.51100000000E-03 0.  1.
         11   -1    0    0    0    0 -0.00000000000E+00 -0.00000000000E+00 -0.45593999997E+02  0.45594000000E+02  0.51100000000E-03 0. -1.
         23    2    1    2    0    0 -0.66613381478E-15 -0.17763568394E-14  0.00000000000E+00  0.91188000000E+02  0.91188000000E+02 0.  0.
    9900012    2    3    3    0    0  0.10370922181E+01  0.15735934142E+02  0.33272874833E+02  0.54367090407E+02  0.40000014201E+02 0.  0.
         12    1    3    3    0    0 -0.10370922181E+01 -0.15735934142E+02 -0.33272874833E+02  0.36820909593E+02  0.00000000000E+00 0. -1.
         11    1    4    4    0    0  0.64557824405E+01  0.68352242501E+01  0.85084545718E+01  0.12680347666E+02  0.51100000000E-03 0. -1.
        -11    1    4    4    0    0  0.48378261079E+01  0.16116314515E+02  0.23748172716E+02  0.29105254896E+02  0.51100000000E-03 0.  1.
        -12    1    4    4    0    0 -0.10256516330E+02 -0.72156046229E+01  0.10162475457E+01  0.12581487845E+02  0.00000000000E+00 0.  1.
</event>
<event>
 8    1  0.1271559E-006  0.9118800E+02  0.7816164E-02  0.1184000E+00
        -11   -1    0    0    0    0  0.00000000000E+00  0.00000000000E+00  0.45593999997E+02  0.45594000000E+02  0.51100000000E-03 0.  1.
         11   -1    0    0    0    0 -0.00000000000E+00 -0.00000000000E+00 -0.45593999997E+02  0.45594000000E+02  0.51100000000E-03 0. -1.
         23    2    1    2    0    0  0.00000000000E+00 -0.35527136788E-14  0.00000000000E+00  0.91188000000E+02  0.91188000000E+02 0.  0.
    9900012    2    3    3    0    0  0.30841042325E+02 -0.19231142032E+02  0.58967960252E+01  0.54367096713E+02  0.40000028576E+02 0.  0.
         12    1    3    3    0    0 -0.30841042325E+02  0.19231142032E+02 -0.58967960252E+01  0.36820903287E+02  0.00000000000E+00 0. -1.
         11    1    4    4    0    0  0.15218694197E+02 -0.24418142313E+02 -0.37446839445E+01  0.29015116494E+02  0.51100000000E-03 0. -1.
        -11    1    4    4    0    0  0.68970197713E+01  0.66745685650E+01 -0.28775904907E+01  0.10019943840E+02  0.51100000000E-03 0.  1.
         12    1    4    4    0    0  0.87253283564E+01 -0.14875682843E+01  0.12519070460E+02  0.15332036379E+02  0.00000000000E+00 0. -1.
</event>
<event>
 8    1  0.1271559E-006  0.9118800E+02  0.7816164E-02  0.1184000E+00
        -11   -1    0    0    0    0  0.00000000000E+00  0.00000000000E+00  0.45593999997E+02  0.45594000000E+02  0.51100000000E-03 0.  1.
         11   -1    0    0    0    0 -0.00000000000E+00 -0.00000000000E+00 -0.45593999997E+02  0.45594000000E+02  0.51100000000E-03 0. -1.
         23    2    1    2    0    0 -0.88817841970E-15 -0.88817841970E-15  0.71054273576E-14  0.91188000000E+02  0.91188000000E+02 0.  0.
    9900012    2    3    3    0    0  0.56621294912E+01  0.73396380736E+01 -0.35634957110E+02  0.54367079782E+02  0.39999989980E+02 0.  0.
        -12    1    3    3    0    0 -0.56621294912E+01 -0.73396380736E+01  0.35634957110E+02  0.36820920218E+02  0.00000000000E+00 0.  1.
         11    1    4    4    0    0  0.17169996035E+01 -0.37318920334E+01 -0.86652508996E+01  0.95896652288E+01  0.51100000000E-03 0. -1.
        -11    1    4    4    0    0 -0.64184677965E+01  0.43298977897E+01 -0.30859979576E+02  0.31816396456E+02  0.51100000000E-03 0.  1.
        -12    1    4    4    0    0  0.10363597684E+02  0.67416323173E+01  0.38902733657E+01  0.12961018097E+02  0.00000000000E+00 0.  1.
</event>
<event>
 8    1  0.1271559E-006  0.9118800E+02  0.7816164E-02  0.1184000E+00
        -11   -1    0    0    0    0  0.00000000000E+00  0.00000000000E+00  0.45593999997E+02  0.45594000000E+02  0.51100000000E-03 0. -1.
         11   -1    0    0    0    0 -0.00000000000E+00 -0.00000000000E+00 -0.45593999997E+02  0.45594000000E+02  0.51100000000E-03 0.  1.
         23    2    1    2    0    0  0.88817841970E-15  0.00000000000E+00 -0.35527136788E-14  0.91188000000E+02  0.91188000000E+02 0.  0.
    9900012    2    3    3    0    0  0.11450592841E+01  0.28910503062E+02 -0.22773952151E+02  0.54367065131E+02  0.39999956579E+02 0.  0.
         12    1    3    3    0    0 -0.11450592841E+01 -0.28910503062E+02  0.22773952151E+02  0.36820934869E+02  0.00000000000E+00 0. -1.
         11    1    4    4    0    0  0.98450112093E+01  0.86358876889E+01  0.38741581239E+01  0.13656936088E+02  0.51100000000E-03 0. -1.
        -11    1    4    4    0    0 -0.43438289299E+01  0.22965515528E+02 -0.26834951635E+02  0.35586491576E+02  0.51100000000E-03 0.  1.
        -12    1    4    4    0    0 -0.43561229953E+01 -0.26909001547E+01  0.18684135949E+00  0.51236374663E+01  0.00000000000E+00 0.  1.
</event>
<event>
 8    1  0.1271559E-006  0.9118800E+02  0.7816164E-02  0.1184000E+00
        -11   -1    0    0    0    0  0.00000000000E+00  0.00000000000E+00  0.45593999997E+02  0.45594000000E+02  0.51100000000E-03 0.  1.
         11   -1    0    0    0    0 -0.00000000000E+00 -0.00000000000E+00 -0.45593999997E+02  0.45594000000E+02  0.51100000000E-03 0. -1.
         23    2    1    2    0    0  0.00000000000E+00  0.00000000000E+00  0.00000000000E+00  0.91188000000E+02  0.91188000000E+02 0.  0.
    9900012    2    3    3    0    0  0.22792610462E+02  0.27092844421E+02  0.10112065945E+02  0.54367093056E+02  0.40000020240E+02 0.  0.
         12    1    3    3    0    0 -0.22792610462E+02 -0.27092844421E+02 -0.10112065945E+02  0.36820906944E+02  0.00000000000E+00 0. -1.
         11    1    4    4    0    0 -0.10470683971E+01 -0.11399783060E+01  0.81303711569E+01  0.82764024900E+01  0.51100000000E-03 0. -1.
        -11    1    4    4    0    0  0.75281781696E+01  0.44273826076E+01  0.12609120404E+02  0.15338353919E+02  0.51100000000E-03 0.  1.
        -12    1    4    4    0    0  0.16311500690E+02  0.23805440120E+02 -0.10627425616E+02  0.30752336647E+02  0.00000000000E+00 0.  1.
</event>
<event>
 8    1  0.1271559E-006  0.9118800E+02  0.7816164E-02  0.1184000E+00
        -11   -1    0    0    0    0  0.00000000000E+00  0.00000000000E+00  0.45593999997E+02  0.45594000000E+02  0.51100000000E-03 0.  1.
         11   -1    0    0    0    0 -0.00000000000E+00 -0.00000000000E+00 -0.45593999997E+02  0.45594000000E+02  0.51100000000E-03 0. -1.
         23    2    1    2    0    0  0.00000000000E+00  0.00000000000E+00  0.88817841970E-15  0.91188000000E+02  0.91188000000E+02 0.  0.
    9900012    2    3    3    0    0 -0.34708402787E+02 -0.96019864933E+01  0.76751521124E+01  0.54367091149E+02  0.40000015893E+02 0.  0.
         12    1    3    3    0    0  0.34708402787E+02  0.96019864933E+01 -0.76751521124E+01  0.36820908851E+02  0.00000000000E+00 0. -1.
         11    1    4    4    0    0 -0.15387633658E+02  0.26057931305E+01  0.12415919114E+00  0.15607204849E+02  0.51100000000E-03 0.  1.
        -11    1    4    4    0    0 -0.72394240995E+01 -0.18872735285E+02  0.12880356446E+02  0.23968583205E+02  0.51100000000E-03 0. -1.
         12    1    4    4    0    0 -0.12081345030E+02  0.66649556607E+01 -0.53293635246E+01  0.14791303096E+02  0.00000000000E+00 0. -1.
</event>
<event>
 8    1  0.1271559E-006  0.9118800E+02  0.7816164E-02  0.1184000E+00
        -11   -1    0    0    0    0  0.00000000000E+00  0.00000000000E+00  0.45593999997E+02  0.45594000000E+02  0.51100000000E-03 0.  1.
         11   -1    0    0    0    0 -0.00000000000E+00 -0.00000000000E+00 -0.45593999997E+02  0.45594000000E+02  0.51100000000E-03 0. -1.
         23    2    1    2    0    0 -0.88817841970E-15  0.13322676296E-14  0.00000000000E+00  0.91188000000E+02  0.91188000000E+02 0.  0.
    9900012    2    3    3    0    0  0.32069148132E+01  0.34700511276E+01  0.36516484026E+02  0.54367093397E+02  0.40000021017E+02 0.  0.
         12    1    3    3    0    0 -0.32069148132E+01 -0.34700511276E+01 -0.36516484026E+02  0.36820906603E+02  0.00000000000E+00 0. -1.
         11    1    4    4    0    0 -0.31938571725E+01  0.21909021203E+01  0.15750815266E+01  0.41811072476E+01  0.51100000000E-03 0. -1.
        -11    1    4    4    0    0 -0.26713193016E+01 -0.15669976559E+02  0.21458254532E+02  0.26704696216E+02  0.51100000000E-03 0.  1.
        -12    1    4    4    0    0  0.90720912873E+01  0.16949125567E+02  0.13483147968E+02  0.23481289933E+02  0.00000000000E+00 0.  1.
</event>
<event>
 8    1  0.1271559E-006  0.9118800E+02  0.7816164E-02  0.1184000E+00
        -11   -1    0    0    0    0  0.00000000000E+00  0.00000000000E+00  0.45593999997E+02  0.45594000000E+02  0.51100000000E-03 0. -1.
         11   -1    0    0    0    0 -0.00000000000E+00 -0.00000000000E+00 -0.45593999997E+02  0.45594000000E+02  0.51100000000E-03 0.  1.
         23    2    1    2    0    0  0.00000000000E+00  0.44408920985E-15  0.17763568394E-14  0.91188000000E+02  0.91188000000E+02 0.  0.
    9900012    2    3    3    0    0 -0.36018005411E+02  0.23835431548E+01 -0.72664845665E+01  0.54367084888E+02  0.40000001618E+02 0.  0.
         12    1    3    3    0    0  0.36018005411E+02 -0.23835431548E+01  0.72664845665E+01  0.36820915112E+02  0.00000000000E+00 0. -1.
         11    1    4    4    0    0  0.63177583949E+01  0.38727138906E+01 -0.19510933066E+01  0.76628160207E+01  0.51100000000E-03 0. -1.
        -11    1    4    4    0    0 -0.21873502243E+02  0.19347681297E+01 -0.11850613890E+02  0.24952564556E+02  0.51100000000E-03 0.  1.
         12    1    4    4    0    0 -0.20462261562E+02 -0.34239388656E+01  0.65352226297E+01  0.21751704311E+02  0.00000000000E+00 0. -1.
</event>
<event>
 8    1  0.1271559E-006  0.9118800E+02  0.7816164E-02  0.1184000E+00
        -11   -1    0    0    0    0  0.00000000000E+00  0.00000000000E+00  0.45593999997E+02  0.45594000000E+02  0.51100000000E-03 0.  1.
         11   -1    0    0    0    0 -0.00000000000E+00 -0.00000000000E+00 -0.45593999997E+02  0.45594000000E+02  0.51100000000E-03 0. -1.
         23    2    1    2    0    0  0.00000000000E+00  0.00000000000E+00  0.00000000000E+00  0.91188000000E+02  0.91188000000E+02 0.  0.
    9900012    2    3    3    0    0  0.33767286441E+02 -0.11689341036E+02  0.88831020696E+01  0.54367084342E+02  0.40000000376E+02 0.  0.
         12    1    3    3    0    0 -0.33767286441E+02  0.11689341036E+02 -0.88831020696E+01  0.36820915658E+02  0.00000000000E+00 0. -1.
         11    1    4    4    0    0  0.19606763411E+02 -0.99023277548E+01 -0.79125509616E+01  0.23347156773E+02  0.51100000000E-03 0. -1.
        -11    1    4    4    0    0  0.55131327013E+01 -0.74905253800E+01 -0.20417343392E+01  0.95221469230E+01  0.51100000000E-03 0.  1.
         12    1    4    4    0    0  0.86473903292E+01  0.57035120986E+01  0.18837387370E+02  0.21497780646E+02  0.00000000000E+00 0. -1.
</event>
<event>
 8    1  0.1271559E-006  0.9118800E+02  0.7816164E-02  0.1184000E+00
        -11   -1    0    0    0    0  0.00000000000E+00  0.00000000000E+00  0.45593999997E+02  0.45594000000E+02  0.51100000000E-03 0.  1.
         11   -1    0    0    0    0 -0.00000000000E+00 -0.00000000000E+00 -0.45593999997E+02  0.45594000000E+02  0.51100000000E-03 0. -1.
         23    2    1    2    0    0 -0.35527136788E-14  0.00000000000E+00 -0.35527136788E-14  0.91188000000E+02  0.91188000000E+02 0.  0.
    9900012    2    3    3    0    0  0.23471647244E+02 -0.14652851699E+02  0.24293103808E+02  0.54367093168E+02  0.40000020496E+02 0.  0.
        -12    1    3    3    0    0 -0.23471647244E+02  0.14652851699E+02 -0.24293103808E+02  0.36820906832E+02  0.00000000000E+00 0.  1.
         11    1    4    4    0    0  0.24497324208E+02 -0.11877961732E+01  0.69566026790E+01  0.25493608497E+02  0.51100000000E-03 0. -1.
        -11    1    4    4    0    0 -0.68003289954E+01 -0.42768883832E+01 -0.44085912867E+00  0.80455332776E+01  0.51100000000E-03 0.  1.
         12    1    4    4    0    0  0.57746520315E+01 -0.91881671429E+01  0.17777360257E+02  0.20827951393E+02  0.00000000000E+00 0. -1.
</event>
<event>
 8    1  0.1271559E-006  0.9118800E+02  0.7816164E-02  0.1184000E+00
        -11   -1    0    0    0    0  0.00000000000E+00  0.00000000000E+00  0.45593999997E+02  0.45594000000E+02  0.51100000000E-03 0.  1.
         11   -1    0    0    0    0 -0.00000000000E+00 -0.00000000000E+00 -0.45593999997E+02  0.45594000000E+02  0.51100000000E-03 0. -1.
         23    2    1    2    0    0 -0.71054273576E-14  0.00000000000E+00  0.71054273576E-14  0.91188000000E+02  0.91188000000E+02 0.  0.
    9900012    2    3    3    0    0  0.13911608606E+02 -0.10065705462E+02 -0.32571915277E+02  0.54367069196E+02  0.39999965847E+02 0.  0.
        -12    1    3    3    0    0 -0.13911608606E+02  0.10065705462E+02  0.32571915277E+02  0.36820930804E+02  0.00000000000E+00 0.  1.
         11    1    4    4    0    0  0.15025530672E+02 -0.38595287028E+01 -0.36348937684E+02  0.39520979299E+02  0.51100000000E-03 0. -1.
        -11    1    4    4    0    0 -0.70185062936E+01 -0.34277468730E+01  0.16561626742E+01  0.79844695680E+01  0.51100000000E-03 0.  1.
        -12    1    4    4    0    0  0.59045842275E+01 -0.27784298867E+01  0.21208597330E+01  0.68616203292E+01  0.00000000000E+00 0.  1.
</event>
<event>
 8    1  0.1271559E-006  0.9118800E+02  0.7816164E-02  0.1184000E+00
        -11   -1    0    0    0    0  0.00000000000E+00  0.00000000000E+00  0.45593999997E+02  0.45594000000E+02  0.51100000000E-03 0.  1.
         11   -1    0    0    0    0 -0.00000000000E+00 -0.00000000000E+00 -0.45593999997E+02  0.45594000000E+02  0.51100000000E-03 0. -1.
         23    2    1    2    0    0  0.00000000000E+00  0.35527136788E-14 -0.88817841970E-15  0.91188000000E+02  0.91188000000E+02 0.  0.
    9900012    2    3    3    0    0  0.25598010663E+02  0.25232159900E+02  0.79912251957E+01  0.54367085790E+02  0.40000003675E+02 0.  0.
        -12    1    3    3    0    0 -0.25598010663E+02 -0.25232159900E+02 -0.79912251957E+01  0.36820914210E+02  0.00000000000E+00 0.  1.
         11    1    4    4    0    0  0.27752151902E+02  0.16509687004E+02  0.99471361117E+01  0.33789010303E+02  0.51100000000E-03 0. -1.
        -11    1    4    4    0    0 -0.27062730507E+01 -0.51257007453E+01 -0.32728919422E+01  0.66564663209E+01  0.51100000000E-03 0.  1.
         12    1    4    4    0    0  0.55213181170E+00  0.13848173642E+02  0.13169810263E+01  0.13921609166E+02  0.00000000000E+00 0. -1.
</event>
<event>
 8    1  0.1271559E-006  0.9118800E+02  0.7816164E-02  0.1184000E+00
        -11   -1    0    0    0    0  0.00000000000E+00  0.00000000000E+00  0.45593999997E+02  0.45594000000E+02  0.51100000000E-03 0.  1.
         11   -1    0    0    0    0 -0.00000000000E+00 -0.00000000000E+00 -0.45593999997E+02  0.45594000000E+02  0.51100000000E-03 0. -1.
         23    2    1    2    0    0  0.00000000000E+00 -0.71054273576E-14  0.00000000000E+00  0.91188000000E+02  0.91188000000E+02 0.  0.
    9900012    2    3    3    0    0  0.63408044045E+01 -0.32815200777E+02  0.15451096627E+02  0.54367087606E+02  0.40000007815E+02 0.  0.
        -12    1    3    3    0    0 -0.63408044045E+01  0.32815200777E+02 -0.15451096627E+02  0.36820912394E+02  0.00000000000E+00 0.  1.
         11    1    4    4    0    0 -0.56842514415E+00 -0.37435872309E+02  0.10464426514E+02  0.38875080260E+02  0.51100000000E-03 0. -1.
        -11    1    4    4    0    0 -0.48691039340E+00 -0.17345419147E+01  0.54394198815E+01  0.57300092752E+01  0.51100000000E-03 0.  1.
        -12    1    4    4    0    0  0.73961399420E+01  0.63552134460E+01 -0.45274976827E+00  0.97619980710E+01  0.00000000000E+00 0.  1.
</event>
<event>
 8    1  0.1271559E-006  0.9118800E+02  0.7816164E-02  0.1184000E+00
        -11   -1    0    0    0    0  0.00000000000E+00  0.00000000000E+00  0.45593999997E+02  0.45594000000E+02  0.51100000000E-03 0.  1.
         11   -1    0    0    0    0 -0.00000000000E+00 -0.00000000000E+00 -0.45593999997E+02  0.45594000000E+02  0.51100000000E-03 0. -1.
         23    2    1    2    0    0  0.00000000000E+00  0.00000000000E+00  0.00000000000E+00  0.91188000000E+02  0.91188000000E+02 0.  0.
    9900012    2    3    3    0    0  0.15699339427E+02 -0.31514522367E+02 -0.10777144960E+02  0.54367065303E+02  0.39999956972E+02 0.  0.
        -12    1    3    3    0    0 -0.15699339427E+02  0.31514522367E+02  0.10777144960E+02  0.36820934697E+02  0.00000000000E+00 0.  1.
         11    1    4    4    0    0  0.14475166841E+02 -0.23144025136E+02 -0.13729312451E+01  0.27332422048E+02  0.51100000000E-03 0. -1.
        -11    1    4    4    0    0  0.11568926817E+02 -0.28114979589E+01  0.13243286606E+00  0.11906390183E+02  0.51100000000E-03 0.  1.
         12    1    4    4    0    0 -0.10344754231E+02 -0.55589992716E+01 -0.95366465814E+01  0.15128253072E+02  0.00000000000E+00 0. -1.
</event>
<event>
 8    1  0.1271559E-006  0.9118800E+02  0.7816164E-02  0.1184000E+00
        -11   -1    0    0    0    0  0.00000000000E+00  0.00000000000E+00  0.45593999997E+02  0.45594000000E+02  0.51100000000E-03 0.  1.
         11   -1    0    0    0    0 -0.00000000000E+00 -0.00000000000E+00 -0.45593999997E+02  0.45594000000E+02  0.51100000000E-03 0. -1.
         23    2    1    2    0    0  0.00000000000E+00  0.00000000000E+00  0.88817841970E-15  0.91188000000E+02  0.91188000000E+02 0.  0.
    9900012    2    3    3    0    0  0.49660452024E+01 -0.35797792758E+02  0.70453208168E+01  0.54367080448E+02  0.39999991497E+02 0.  0.
         12    1    3    3    0    0 -0.49660452024E+01  0.35797792758E+02 -0.70453208168E+01  0.36820919552E+02  0.00000000000E+00 0. -1.
         11    1    4    4    0    0  0.67342494737E+01 -0.15314226969E-01 -0.54431926279E+01  0.86590240065E+01  0.51100000000E-03 0. -1.
        -11    1    4    4    0    0  0.29225792487E+01 -0.80062396887E+01  0.15181257862E+02  0.17410110107E+02  0.51100000000E-03 0.  1.
        -12    1    4    4    0    0 -0.46907835201E+01 -0.27776238842E+02 -0.26927444169E+01  0.28297946334E+02  0.00000000000E+00 0.  1.
</event>
<event>
 8    1  0.1271559E-006  0.9118800E+02  0.7816164E-02  0.1184000E+00
        -11   -1    0    0    0    0  0.00000000000E+00  0.00000000000E+00  0.45593999997E+02  0.45594000000E+02  0.51100000000E-03 0.  1.
         11   -1    0    0    0    0 -0.00000000000E+00 -0.00000000000E+00 -0.45593999997E+02  0.45594000000E+02  0.51100000000E-03 0. -1.
         23    2    1    2    0    0  0.00000000000E+00  0.22204460493E-15  0.00000000000E+00  0.91188000000E+02  0.91188000000E+02 0.  0.
    9900012    2    3    3    0    0 -0.25448064087E+02 -0.15613400727E+01  0.26565735489E+02  0.54367081344E+02  0.39999993540E+02 0.  0.
         12    1    3    3    0    0  0.25448064087E+02  0.15613400727E+01 -0.26565735489E+02  0.36820918656E+02  0.00000000000E+00 0. -1.
         11    1    4    4    0    0 -0.38722426255E+01  0.11327582949E+02  0.64786361765E+01  0.13611800960E+02  0.51100000000E-03 0. -1.
        -11    1    4    4    0    0 -0.58966890004E+01  0.41357137407E+01 -0.32372516712E+01  0.78965098592E+01  0.51100000000E-03 0.  1.
        -12    1    4    4    0    0 -0.15679132461E+02 -0.17024636762E+02  0.23324350984E+02  0.32858770525E+02  0.00000000000E+00 0.  1.
</event>
<event>
 8    1  0.1271559E-006  0.9118800E+02  0.7816164E-02  0.1184000E+00
        -11   -1    0    0    0    0  0.00000000000E+00  0.00000000000E+00  0.45593999997E+02  0.45594000000E+02  0.51100000000E-03 0.  1.
         11   -1    0    0    0    0 -0.00000000000E+00 -0.00000000000E+00 -0.45593999997E+02  0.45594000000E+02  0.51100000000E-03 0. -1.
         23    2    1    2    0    0 -0.26645352591E-14  0.00000000000E+00 -0.35527136788E-14  0.91188000000E+02  0.91188000000E+02 0.  0.
    9900012    2    3    3    0    0  0.50945569023E+01 -0.27492651439E+02 -0.23958048599E+02  0.54366966801E+02  0.39999732415E+02 0.  0.
        -12    1    3    3    0    0 -0.50945569023E+01  0.27492651439E+02  0.23958048599E+02  0.36821033199E+02  0.00000000000E+00 0.  1.
         11    1    4    4    0    0 -0.22208261356E+01  0.12398637195E+00  0.29021126381E+01  0.36564599506E+01  0.51100000000E-03 0. -1.
        -11    1    4    4    0    0 -0.11828712289E+02 -0.44220684939E+01 -0.10798173552E+02  0.16615464980E+02  0.51100000000E-03 0.  1.
         12    1    4    4    0    0  0.19144095327E+02 -0.23194569317E+02 -0.16061987686E+02  0.34095041870E+02  0.00000000000E+00 0. -1.
</event>
<event>
 8    1  0.1271559E-006  0.9118800E+02  0.7816164E-02  0.1184000E+00
        -11   -1    0    0    0    0  0.00000000000E+00  0.00000000000E+00  0.45593999997E+02  0.45594000000E+02  0.51100000000E-03 0.  1.
         11   -1    0    0    0    0 -0.00000000000E+00 -0.00000000000E+00 -0.45593999997E+02  0.45594000000E+02  0.51100000000E-03 0. -1.
         23    2    1    2    0    0 -0.17763568394E-14  0.44408920985E-15  0.00000000000E+00  0.91188000000E+02  0.91188000000E+02 0.  0.
    9900012    2    3    3    0    0 -0.12849646446E+02  0.32281276177E+01  0.34354704763E+02  0.54367082561E+02  0.39999996314E+02 0.  0.
         12    1    3    3    0    0  0.12849646446E+02 -0.32281276177E+01 -0.34354704763E+02  0.36820917439E+02  0.00000000000E+00 0. -1.
         11    1    4    4    0    0  0.17268170038E+01  0.10381301275E+02  0.70812821241E+01  0.12684552413E+02  0.51100000000E-03 0. -1.
        -11    1    4    4    0    0 -0.13196396293E+02  0.82080937432E+01  0.17588561790E+02  0.23470730370E+02  0.51100000000E-03 0.  1.
         12    1    4    4    0    0 -0.13800671574E+01 -0.15361267400E+02  0.96848608491E+01  0.18211799778E+02  0.00000000000E+00 0. -1.
</event>
<event>
 8    1  0.1271559E-006  0.9118800E+02  0.7816164E-02  0.1184000E+00
        -11   -1    0    0    0    0  0.00000000000E+00  0.00000000000E+00  0.45593999997E+02  0.45594000000E+02  0.51100000000E-03 0.  1.
         11   -1    0    0    0    0 -0.00000000000E+00 -0.00000000000E+00 -0.45593999997E+02  0.45594000000E+02  0.51100000000E-03 0. -1.
         23    2    1    2    0    0 -0.44408920985E-15  0.71054273576E-14 -0.35527136788E-14  0.91188000000E+02  0.91188000000E+02 0.  0.
    9900012    2    3    3    0    0  0.33127195745E+01  0.35444587694E+02 -0.94067681721E+01  0.54367079381E+02  0.39999989066E+02 0.  0.
        -12    1    3    3    0    0 -0.33127195745E+01 -0.35444587694E+02  0.94067681721E+01  0.36820920619E+02  0.00000000000E+00 0.  1.
         11    1    4    4    0    0  0.54854786618E+00  0.81820653451E+01  0.53369443810E+01  0.97841746540E+01  0.51100000000E-03 0. -1.
        -11    1    4    4    0    0 -0.54137563817E+01 -0.34696957960E+01  0.40918785055E+01  0.76217463249E+01  0.51100000000E-03 0.  1.
         12    1    4    4    0    0  0.81779280900E+01  0.30732218145E+02 -0.18835591059E+02  0.36961158403E+02  0.00000000000E+00 0. -1.
</event>
<event>
 8    1  0.1271559E-006  0.9118800E+02  0.7816164E-02  0.1184000E+00
        -11   -1    0    0    0    0  0.00000000000E+00  0.00000000000E+00  0.45593999997E+02  0.45594000000E+02  0.51100000000E-03 0. -1.
         11   -1    0    0    0    0 -0.00000000000E+00 -0.00000000000E+00 -0.45593999997E+02  0.45594000000E+02  0.51100000000E-03 0.  1.
         23    2    1    2    0    0 -0.17763568394E-14  0.00000000000E+00  0.00000000000E+00  0.91188000000E+02  0.91188000000E+02 0.  0.
    9900012    2    3    3    0    0 -0.96838612290E+01 -0.60804864133E+01  0.35000480304E+02  0.54367039871E+02  0.39999898994E+02 0.  0.
        -12    1    3    3    0    0  0.96838612290E+01  0.60804864133E+01 -0.35000480304E+02  0.36820960129E+02  0.00000000000E+00 0.  1.
         11    1    4    4    0    0  0.32981799857E+01 -0.15275530968E+02  0.24819114453E+02  0.29329307528E+02  0.51100000000E-03 0. -1.
        -11    1    4    4    0    0 -0.15767159135E+02  0.76976251763E+01  0.12123421226E+02  0.21326839499E+02  0.51100000000E-03 0.  1.
        -12    1    4    4    0    0  0.27851179202E+01  0.14974193783E+01 -0.19420553751E+01  0.37108928446E+01  0.00000000000E+00 0.  1.
</event>
<event>
 8    1  0.1271559E-006  0.9118800E+02  0.7816164E-02  0.1184000E+00
        -11   -1    0    0    0    0  0.00000000000E+00  0.00000000000E+00  0.45593999997E+02  0.45594000000E+02  0.51100000000E-03 0. -1.
         11   -1    0    0    0    0 -0.00000000000E+00 -0.00000000000E+00 -0.45593999997E+02  0.45594000000E+02  0.51100000000E-03 0.  1.
         23    2    1    2    0    0  0.35527136788E-14 -0.35527136788E-14  0.00000000000E+00  0.91188000000E+02  0.91188000000E+02 0.  0.
    9900012    2    3    3    0    0  0.29705021285E+02 -0.19390487818E+02  0.98691070811E+01  0.54367101288E+02  0.40000039007E+02 0.  0.
        -12    1    3    3    0    0 -0.29705021285E+02  0.19390487818E+02 -0.98691070811E+01  0.36820898712E+02  0.00000000000E+00 0.  1.
         11    1    4    4    0    0  0.17984451771E+02 -0.21797796388E+02  0.78174461586E+01  0.29320588289E+02  0.51100000000E-03 0. -1.
        -11    1    4    4    0    0 -0.12461677225E+01 -0.75860718024E+01  0.38126571807E+01  0.85812455053E+01  0.51100000000E-03 0.  1.
        -12    1    4    4    0    0  0.12966737237E+02  0.99933803726E+01 -0.17609962582E+01  0.16465267494E+02  0.00000000000E+00 0.  1.
</event>
<event>
 8    1  0.1271559E-006  0.9118800E+02  0.7816164E-02  0.1184000E+00
        -11   -1    0    0    0    0  0.00000000000E+00  0.00000000000E+00  0.45593999997E+02  0.45594000000E+02  0.51100000000E-03 0. -1.
         11   -1    0    0    0    0 -0.00000000000E+00 -0.00000000000E+00 -0.45593999997E+02  0.45594000000E+02  0.51100000000E-03 0.  1.
         23    2    1    2    0    0  0.00000000000E+00 -0.71054273576E-14  0.00000000000E+00  0.91188000000E+02  0.91188000000E+02 0.  0.
    9900012    2    3    3    0    0 -0.54184703300E+01 -0.36088631140E+02 -0.49020845965E+01  0.54367088120E+02  0.40000008986E+02 0.  0.
        -12    1    3    3    0    0  0.54184703300E+01  0.36088631140E+02  0.49020845965E+01  0.36820911880E+02  0.00000000000E+00 0.  1.
         11    1    4    4    0    0 -0.84934927550E+01 -0.20801055234E+01  0.92018241933E+01  0.12694086297E+02  0.51100000000E-03 0. -1.
        -11    1    4    4    0    0 -0.68870276933E+00  0.68279389521E+00 -0.56979852262E+01  0.57799268946E+01  0.51100000000E-03 0.  1.
        -12    1    4    4    0    0  0.37637251943E+01 -0.34691319512E+02 -0.84059235636E+01  0.35893074928E+02  0.00000000000E+00 0.  1.
</event>
<event>
 8    1  0.1271559E-006  0.9118800E+02  0.7816164E-02  0.1184000E+00
        -11   -1    0    0    0    0  0.00000000000E+00  0.00000000000E+00  0.45593999997E+02  0.45594000000E+02  0.51100000000E-03 0.  1.
         11   -1    0    0    0    0 -0.00000000000E+00 -0.00000000000E+00 -0.45593999997E+02  0.45594000000E+02  0.51100000000E-03 0. -1.
         23    2    1    2    0    0 -0.35527136788E-14  0.35527136788E-14  0.00000000000E+00  0.91188000000E+02  0.91188000000E+02 0.  0.
    9900012    2    3    3    0    0  0.17875575800E+02 -0.15042701821E+02  0.28459837719E+02  0.54367062325E+02  0.39999950182E+02 0.  0.
         12    1    3    3    0    0 -0.17875575800E+02  0.15042701821E+02 -0.28459837719E+02  0.36820937675E+02  0.00000000000E+00 0. -1.
         11    1    4    4    0    0  0.17868060414E+01 -0.57210670947E+01  0.53082274665E+01  0.80062827598E+01  0.51100000000E-03 0. -1.
        -11    1    4    4    0    0 -0.44852528657E+01 -0.17060940144E+02  0.14121697124E+02  0.22596802911E+02  0.51100000000E-03 0.  1.
        -12    1    4    4    0    0  0.20574022625E+02  0.77393054183E+01  0.90299131291E+01  0.23763976655E+02  0.00000000000E+00 0.  1.
</event>
<event>
 8    1  0.1271559E-006  0.9118800E+02  0.7816164E-02  0.1184000E+00
        -11   -1    0    0    0    0  0.00000000000E+00  0.00000000000E+00  0.45593999997E+02  0.45594000000E+02  0.51100000000E-03 0. -1.
         11   -1    0    0    0    0 -0.00000000000E+00 -0.00000000000E+00 -0.45593999997E+02  0.45594000000E+02  0.51100000000E-03 0.  1.
         23    2    1    2    0    0  0.00000000000E+00  0.17763568394E-14  0.00000000000E+00  0.91188000000E+02  0.91188000000E+02 0.  0.
    9900012    2    3    3    0    0 -0.11109293144E+02 -0.96296921243E+01 -0.33758470300E+02  0.54367059198E+02  0.39999943053E+02 0.  0.
         12    1    3    3    0    0  0.11109293144E+02  0.96296921243E+01  0.33758470300E+02  0.36820940802E+02  0.00000000000E+00 0. -1.
         11    1    4    4    0    0 -0.75841520028E+01 -0.66891520931E+01  0.44274173784E+01  0.11039299898E+02  0.51100000000E-03 0. -1.
        -11    1    4    4    0    0  0.45420468511E+00 -0.11247831643E+02 -0.21453753368E+02  0.24227743444E+02  0.51100000000E-03 0.  1.
        -12    1    4    4    0    0 -0.39793458264E+01  0.83072916116E+01 -0.16732134310E+02  0.19100015856E+02  0.00000000000E+00 0.  1.
</event>
<event>
 8    1  0.1271559E-006  0.9118800E+02  0.7816164E-02  0.1184000E+00
        -11   -1    0    0    0    0  0.00000000000E+00  0.00000000000E+00  0.45593999997E+02  0.45594000000E+02  0.51100000000E-03 0. -1.
         11   -1    0    0    0    0 -0.00000000000E+00 -0.00000000000E+00 -0.45593999997E+02  0.45594000000E+02  0.51100000000E-03 0.  1.
         23    2    1    2    0    0  0.00000000000E+00 -0.71054273576E-14 -0.35527136788E-14  0.91188000000E+02  0.91188000000E+02 0.  0.
    9900012    2    3    3    0    0  0.10701257619E+02  0.28248025034E+02  0.21054985217E+02  0.54367078835E+02  0.39999987821E+02 0.  0.
        -12    1    3    3    0    0 -0.10701257619E+02 -0.28248025034E+02 -0.21054985217E+02  0.36820921165E+02  0.00000000000E+00 0.  1.
         11    1    4    4    0    0 -0.66067536279E+00  0.11452505300E+00  0.45479563253E+01  0.45971202857E+01  0.51100000000E-03 0. -1.
        -11    1    4    4    0    0 -0.24504762465E+01  0.67849079884E+01 -0.10459523024E+02  0.12705960507E+02  0.51100000000E-03 0.  1.
        -12    1    4    4    0    0  0.13812409228E+02  0.21348591992E+02  0.26966551915E+02  0.37063998043E+02  0.00000000000E+00 0.  1.
</event>
<event>
 8    1  0.1271559E-006  0.9118800E+02  0.7816164E-02  0.1184000E+00
        -11   -1    0    0    0    0  0.00000000000E+00  0.00000000000E+00  0.45593999997E+02  0.45594000000E+02  0.51100000000E-03 0.  1.
         11   -1    0    0    0    0 -0.00000000000E+00 -0.00000000000E+00 -0.45593999997E+02  0.45594000000E+02  0.51100000000E-03 0. -1.
         23    2    1    2    0    0  0.17763568394E-14  0.17763568394E-14  0.00000000000E+00  0.91188000000E+02  0.91188000000E+02 0.  0.
    9900012    2    3    3    0    0 -0.50415614059E+01 -0.34867171373E+01  0.36307115889E+02  0.54367065710E+02  0.39999957899E+02 0.  0.
         12    1    3    3    0    0  0.50415614059E+01  0.34867171373E+01 -0.36307115889E+02  0.36820934290E+02  0.00000000000E+00 0. -1.
         11    1    4    4    0    0 -0.16957954430E+02 -0.13634091244E+02  0.26079052061E+02  0.33964358071E+02  0.51100000000E-03 0. -1.
        -11    1    4    4    0    0  0.21033277976E+01 -0.12043665409E+01  0.26541604405E+01  0.35943086253E+01  0.51100000000E-03 0.  1.
         12    1    4    4    0    0  0.98130652266E+01  0.11351740648E+02  0.75739033872E+01  0.16808399013E+02  0.00000000000E+00 0. -1.
</event>
<event>
 8    1  0.1271559E-006  0.9118800E+02  0.7816164E-02  0.1184000E+00
        -11   -1    0    0    0    0  0.00000000000E+00  0.00000000000E+00  0.45593999997E+02  0.45594000000E+02  0.51100000000E-03 0.  1.
         11   -1    0    0    0    0 -0.00000000000E+00 -0.00000000000E+00 -0.45593999997E+02  0.45594000000E+02  0.51100000000E-03 0. -1.
         23    2    1    2    0    0  0.00000000000E+00  0.00000000000E+00  0.00000000000E+00  0.91188000000E+02  0.91188000000E+02 0.  0.
    9900012    2    3    3    0    0 -0.10498386723E+02  0.31967067006E+02 -0.14955627125E+02  0.54367078237E+02  0.39999986457E+02 0.  0.
        -12    1    3    3    0    0  0.10498386723E+02 -0.31967067006E+02  0.14955627125E+02  0.36820921763E+02  0.00000000000E+00 0.  1.
         11    1    4    4    0    0  0.14429196875E+01  0.19406939521E+02 -0.37291218601E+01  0.19814582229E+02  0.51100000000E-03 0. -1.
        -11    1    4    4    0    0 -0.37418583576E+01 -0.66696111577E+00  0.85678534656E+01  0.93730707011E+01  0.51100000000E-03 0.  1.
         12    1    4    4    0    0 -0.81994480531E+01  0.13227088601E+02 -0.19794358730E+02  0.25179425307E+02  0.00000000000E+00 0. -1.
</event>
<event>
 8    1  0.1271559E-006  0.9118800E+02  0.7816164E-02  0.1184000E+00
        -11   -1    0    0    0    0  0.00000000000E+00  0.00000000000E+00  0.45593999997E+02  0.45594000000E+02  0.51100000000E-03 0. -1.
         11   -1    0    0    0    0 -0.00000000000E+00 -0.00000000000E+00 -0.45593999997E+02  0.45594000000E+02  0.51100000000E-03 0.  1.
         23    2    1    2    0    0  0.71054273576E-14 -0.17763568394E-14 -0.88817841970E-15  0.91188000000E+02  0.91188000000E+02 0.  0.
    9900012    2    3    3    0    0  0.33145608440E+02 -0.15198018037E+02 -0.51152892333E+01  0.54367118763E+02  0.40000078845E+02 0.  0.
         12    1    3    3    0    0 -0.33145608440E+02  0.15198018037E+02  0.51152892333E+01  0.36820881237E+02  0.00000000000E+00 0. -1.
         11    1    4    4    0    0  0.31262930528E+02 -0.13751961723E+02  0.30172332811E+01  0.34286892151E+02  0.51100000000E-03 0. -1.
        -11    1    4    4    0    0  0.94705173432E+01 -0.30420321317E+01 -0.71807523889E+01  0.12268164629E+02  0.51100000000E-03 0.  1.
        -12    1    4    4    0    0 -0.75878394318E+01  0.15959758179E+01 -0.95177012553E+00  0.78120619830E+01  0.00000000000E+00 0.  1.
</event>
<event>
 8    1  0.1271559E-006  0.9118800E+02  0.7816164E-02  0.1184000E+00
        -11   -1    0    0    0    0  0.00000000000E+00  0.00000000000E+00  0.45593999997E+02  0.45594000000E+02  0.51100000000E-03 0.  1.
         11   -1    0    0    0    0 -0.00000000000E+00 -0.00000000000E+00 -0.45593999997E+02  0.45594000000E+02  0.51100000000E-03 0. -1.
         23    2    1    2    0    0 -0.17763568394E-14  0.35527136788E-14  0.17763568394E-14  0.91188000000E+02  0.91188000000E+02 0.  0.
    9900012    2    3    3    0    0 -0.13428732160E+02  0.31784780402E+02 -0.12852131147E+02  0.54367076768E+02  0.39999983109E+02 0.  0.
        -12    1    3    3    0    0  0.13428732160E+02 -0.31784780402E+02  0.12852131147E+02  0.36820923232E+02  0.00000000000E+00 0.  1.
         11    1    4    4    0    0 -0.12901344378E+02  0.25629968042E+01  0.40272897243E+01  0.13756187777E+02  0.51100000000E-03 0. -1.
        -11    1    4    4    0    0 -0.76712491347E+01  0.19940711169E+01 -0.75747446793E+01  0.10963628055E+02  0.51100000000E-03 0.  1.
         12    1    4    4    0    0  0.71438613532E+01  0.27227712481E+02 -0.93046761915E+01  0.29647260936E+02  0.00000000000E+00 0. -1.
</event>
<event>
 8    1  0.1271559E-006  0.9118800E+02  0.7816164E-02  0.1184000E+00
        -11   -1    0    0    0    0  0.00000000000E+00  0.00000000000E+00  0.45593999997E+02  0.45594000000E+02  0.51100000000E-03 0. -1.
         11   -1    0    0    0    0 -0.00000000000E+00 -0.00000000000E+00 -0.45593999997E+02  0.45594000000E+02  0.51100000000E-03 0.  1.
         23    2    1    2    0    0 -0.17763568394E-14  0.17763568394E-14  0.00000000000E+00  0.91188000000E+02  0.91188000000E+02 0.  0.
    9900012    2    3    3    0    0  0.14161017034E+02 -0.13098063913E+02 -0.31363774678E+02  0.54367081438E+02  0.39999993755E+02 0.  0.
         12    1    3    3    0    0 -0.14161017034E+02  0.13098063913E+02  0.31363774678E+02  0.36820918562E+02  0.00000000000E+00 0. -1.
         11    1    4    4    0    0 -0.52343000956E+01 -0.12858297079E+02 -0.98159895143E+01  0.17002568973E+02  0.51100000000E-03 0. -1.
        -11    1    4    4    0    0  0.23209120136E+02  0.22243748425E+01 -0.22845168629E+02  0.32642194027E+02  0.51100000000E-03 0.  1.
        -12    1    4    4    0    0 -0.38138030072E+01 -0.24641416756E+01  0.12973834654E+01  0.47223184382E+01  0.00000000000E+00 0.  1.
</event>
<event>
 8    1  0.1271559E-006  0.9118800E+02  0.7816164E-02  0.1184000E+00
        -11   -1    0    0    0    0  0.00000000000E+00  0.00000000000E+00  0.45593999997E+02  0.45594000000E+02  0.51100000000E-03 0.  1.
         11   -1    0    0    0    0 -0.00000000000E+00 -0.00000000000E+00 -0.45593999997E+02  0.45594000000E+02  0.51100000000E-03 0. -1.
         23    2    1    2    0    0  0.00000000000E+00  0.88817841970E-15  0.35527136788E-14  0.91188000000E+02  0.91188000000E+02 0.  0.
    9900012    2    3    3    0    0  0.28333411834E+02  0.37953796057E+01 -0.23207485497E+02  0.54367156507E+02  0.40000164888E+02 0.  0.
         12    1    3    3    0    0 -0.28333411834E+02 -0.37953796057E+01  0.23207485497E+02  0.36820843493E+02  0.00000000000E+00 0. -1.
         11    1    4    4    0    0  0.53505951189E+01  0.69404629987E+01 -0.74061052692E+01  0.11473852460E+02  0.51100000000E-03 0. -1.
        -11    1    4    4    0    0 -0.22393242167E+01  0.10604619538E+02 -0.19921710318E+01  0.11020039663E+02  0.51100000000E-03 0.  1.
        -12    1    4    4    0    0  0.25222140931E+02 -0.13749702931E+02 -0.13809209196E+02  0.31873264384E+02  0.00000000000E+00 0.  1.
</event>
<event>
 8    1  0.1271559E-006  0.9118800E+02  0.7816164E-02  0.1184000E+00
        -11   -1    0    0    0    0  0.00000000000E+00  0.00000000000E+00  0.45593999997E+02  0.45594000000E+02  0.51100000000E-03 0.  1.
         11   -1    0    0    0    0 -0.00000000000E+00 -0.00000000000E+00 -0.45593999997E+02  0.45594000000E+02  0.51100000000E-03 0. -1.
         23    2    1    2    0    0  0.00000000000E+00 -0.88817841970E-15 -0.35527136788E-14  0.91188000000E+02  0.91188000000E+02 0.  0.
    9900012    2    3    3    0    0  0.28921578227E+02 -0.42845993394E+01 -0.22382158070E+02  0.54367129851E+02  0.40000104122E+02 0.  0.
        -12    1    3    3    0    0 -0.28921578227E+02  0.42845993394E+01  0.22382158070E+02  0.36820870149E+02  0.00000000000E+00 0.  1.
         11    1    4    4    0    0  0.95568265491E+01 -0.12641422288E+02  0.43088811455E+01  0.16422696129E+02  0.51100000000E-03 0.  1.
        -11    1    4    4    0    0 -0.18910370014E+01  0.17114541510E+01  0.69760203911E+00  0.26441908247E+01  0.51100000000E-03 0. -1.
         12    1    4    4    0    0  0.21255788679E+02  0.66453687978E+01 -0.27388641255E+02  0.35300242897E+02  0.00000000000E+00 0. -1.
</event>
<event>
 8    1  0.1271559E-006  0.9118800E+02  0.7816164E-02  0.1184000E+00
        -11   -1    0    0    0    0  0.00000000000E+00  0.00000000000E+00  0.45593999997E+02  0.45594000000E+02  0.51100000000E-03 0. -1.
         11   -1    0    0    0    0 -0.00000000000E+00 -0.00000000000E+00 -0.45593999997E+02  0.45594000000E+02  0.51100000000E-03 0.  1.
         23    2    1    2    0    0  0.00000000000E+00  0.77715611724E-15  0.00000000000E+00  0.91188000000E+02  0.91188000000E+02 0.  0.
    9900012    2    3    3    0    0  0.14239074420E+02  0.77627133814E+00 -0.33947372604E+02  0.54367109947E+02  0.40000058747E+02 0.  0.
         12    1    3    3    0    0 -0.14239074420E+02 -0.77627133814E+00  0.33947372604E+02  0.36820890053E+02  0.00000000000E+00 0. -1.
         11    1    4    4    0    0  0.11465873448E+02  0.12611376692E+02 -0.14614724201E+01  0.17106986230E+02  0.51100000000E-03 0. -1.
        -11    1    4    4    0    0 -0.12471020249E+01 -0.12296737217E+02 -0.15636103379E+02  0.19931200134E+02  0.51100000000E-03 0.  1.
         12    1    4    4    0    0  0.40203029973E+01  0.46163186297E+00 -0.16849796805E+02  0.17328923583E+02  0.00000000000E+00 0. -1.
</event>
<event>
 8    1  0.1271559E-006  0.9118800E+02  0.7816164E-02  0.1184000E+00
        -11   -1    0    0    0    0  0.00000000000E+00  0.00000000000E+00  0.45593999997E+02  0.45594000000E+02  0.51100000000E-03 0.  1.
         11   -1    0    0    0    0 -0.00000000000E+00 -0.00000000000E+00 -0.45593999997E+02  0.45594000000E+02  0.51100000000E-03 0. -1.
         23    2    1    2    0    0 -0.35527136788E-14  0.35527136788E-14  0.00000000000E+00  0.91188000000E+02  0.91188000000E+02 0.  0.
    9900012    2    3    3    0    0  0.30691743021E+02 -0.17880335285E+02  0.97000583745E+01  0.54367073721E+02  0.39999976162E+02 0.  0.
         12    1    3    3    0    0 -0.30691743021E+02  0.17880335285E+02 -0.97000583745E+01  0.36820926279E+02  0.00000000000E+00 0. -1.
         11    1    4    4    0    0 -0.87766940999E+01 -0.57177444774E+01  0.59614686468E+01  0.12052471527E+02  0.51100000000E-03 0. -1.
        -11    1    4    4    0    0  0.14931475555E+02 -0.66615454678E+00  0.27683940282E+01  0.15200550315E+02  0.51100000000E-03 0.  1.
         12    1    4    4    0    0  0.24536961566E+02 -0.11496436260E+02  0.97019569956E+00  0.27114051879E+02  0.00000000000E+00 0. -1.
</event>
<event>
 8    1  0.1271559E-006  0.9118800E+02  0.7816164E-02  0.1184000E+00
        -11   -1    0    0    0    0  0.00000000000E+00  0.00000000000E+00  0.45593999997E+02  0.45594000000E+02  0.51100000000E-03 0.  1.
         11   -1    0    0    0    0 -0.00000000000E+00 -0.00000000000E+00 -0.45593999997E+02  0.45594000000E+02  0.51100000000E-03 0. -1.
         23    2    1    2    0    0  0.00000000000E+00  0.00000000000E+00  0.00000000000E+00  0.91188000000E+02  0.91188000000E+02 0.  0.
    9900012    2    3    3    0    0  0.28322760324E+02  0.22065702415E+02 -0.81673274471E+01  0.54367092718E+02  0.40000019469E+02 0.  0.
        -12    1    3    3    0    0 -0.28322760324E+02 -0.22065702415E+02  0.81673274471E+01  0.36820907282E+02  0.00000000000E+00 0.  1.
         11    1    4    4    0    0  0.14882028354E+02  0.30376856509E+02 -0.11682809536E+01  0.33846610760E+02  0.51100000000E-03 0. -1.
        -11    1    4    4    0    0  0.76642692134E+01 -0.77167314507E+00 -0.78329609096E+01  0.10985981016E+02  0.51100000000E-03 0.  1.
         12    1    4    4    0    0  0.57764627569E+01 -0.75394809489E+01  0.83391441614E+00  0.95345009420E+01  0.00000000000E+00 0. -1.
</event>
<event>
 8    1  0.1271559E-006  0.9118800E+02  0.7816164E-02  0.1184000E+00
        -11   -1    0    0    0    0  0.00000000000E+00  0.00000000000E+00  0.45593999997E+02  0.45594000000E+02  0.51100000000E-03 0. -1.
         11   -1    0    0    0    0 -0.00000000000E+00 -0.00000000000E+00 -0.45593999997E+02  0.45594000000E+02  0.51100000000E-03 0.  1.
         23    2    1    2    0    0 -0.17763568394E-14 -0.17763568394E-14  0.00000000000E+00  0.91188000000E+02  0.91188000000E+02 0.  0.
    9900012    2    3    3    0    0 -0.87410379087E+01  0.15617421881E+02  0.32178707711E+02  0.54367097786E+02  0.40000031022E+02 0.  0.
        -12    1    3    3    0    0  0.87410379087E+01 -0.15617421881E+02 -0.32178707711E+02  0.36820902214E+02  0.00000000000E+00 0.  1.
         11    1    4    4    0    0 -0.74249316332E+01  0.80916815675E+01  0.23314090340E+02  0.25771141398E+02  0.51100000000E-03 0. -1.
        -11    1    4    4    0    0 -0.11754390472E+02  0.11082059761E+02  0.55368962213E+01  0.17077323090E+02  0.51100000000E-03 0.  1.
         12    1    4    4    0    0  0.10438284196E+02 -0.35563194477E+01  0.33277211500E+01  0.11518633297E+02  0.00000000000E+00 0. -1.
</event>
<event>
 8    1  0.1271559E-006  0.9118800E+02  0.7816164E-02  0.1184000E+00
        -11   -1    0    0    0    0  0.00000000000E+00  0.00000000000E+00  0.45593999997E+02  0.45594000000E+02  0.51100000000E-03 0.  1.
         11   -1    0    0    0    0 -0.00000000000E+00 -0.00000000000E+00 -0.45593999997E+02  0.45594000000E+02  0.51100000000E-03 0. -1.
         23    2    1    2    0    0 -0.17763568394E-14  0.35527136788E-14  0.00000000000E+00  0.91188000000E+02  0.91188000000E+02 0.  0.
    9900012    2    3    3    0    0 -0.34616731781E+01  0.29807397107E+02 -0.21338121113E+02  0.54367088603E+02  0.40000010088E+02 0.  0.
        -12    1    3    3    0    0  0.34616731781E+01 -0.29807397107E+02  0.21338121113E+02  0.36820911397E+02  0.00000000000E+00 0.  1.
         11    1    4    4    0    0 -0.10047579341E+02  0.13982461094E+02 -0.16092811788E+02  0.23567809834E+02  0.51100000000E-03 0. -1.
        -11    1    4    4    0    0 -0.10365934893E+01 -0.26996552915E+01  0.68248803436E+01  0.74122639403E+01  0.51100000000E-03 0.  1.
         12    1    4    4    0    0  0.76224996524E+01  0.18524591305E+02 -0.12070189669E+02  0.23387014829E+02  0.00000000000E+00 0. -1.
</event>
<event>
 8    1  0.1271559E-006  0.9118800E+02  0.7816164E-02  0.1184000E+00
        -11   -1    0    0    0    0  0.00000000000E+00  0.00000000000E+00  0.45593999997E+02  0.45594000000E+02  0.51100000000E-03 0. -1.
         11   -1    0    0    0    0 -0.00000000000E+00 -0.00000000000E+00 -0.45593999997E+02  0.45594000000E+02  0.51100000000E-03 0.  1.
         23    2    1    2    0    0  0.00000000000E+00  0.00000000000E+00 -0.17763568394E-14  0.91188000000E+02  0.91188000000E+02 0.  0.
    9900012    2    3    3    0    0 -0.11190007511E+02  0.33023592168E+02  0.11832400554E+02  0.54367087320E+02  0.40000007162E+02 0.  0.
         12    1    3    3    0    0  0.11190007511E+02 -0.33023592168E+02 -0.11832400554E+02  0.36820912680E+02  0.00000000000E+00 0. -1.
         11    1    4    4    0    0 -0.14876183050E+02  0.93472994538E+01 -0.91688884807E+01  0.19817702830E+02  0.51100000000E-03 0. -1.
        -11    1    4    4    0    0 -0.97698578239E-01  0.22193994024E+02  0.20897458436E+02  0.30484203862E+02  0.51100000000E-03 0.  1.
        -12    1    4    4    0    0  0.37838741178E+01  0.14822986902E+01  0.10383059871E+00  0.40651806281E+01  0.00000000000E+00 0.  1.
</event>
<event>
 8    1  0.1271559E-006  0.9118800E+02  0.7816164E-02  0.1184000E+00
        -11   -1    0    0    0    0  0.00000000000E+00  0.00000000000E+00  0.45593999997E+02  0.45594000000E+02  0.51100000000E-03 0. -1.
         11   -1    0    0    0    0 -0.00000000000E+00 -0.00000000000E+00 -0.45593999997E+02  0.45594000000E+02  0.51100000000E-03 0.  1.
         23    2    1    2    0    0  0.00000000000E+00  0.00000000000E+00 -0.71054273576E-14  0.91188000000E+02  0.91188000000E+02 0.  0.
    9900012    2    3    3    0    0  0.15176758852E+02 -0.98261367673E+01  0.32076372238E+02  0.54367073492E+02  0.39999975639E+02 0.  0.
        -12    1    3    3    0    0 -0.15176758852E+02  0.98261367673E+01 -0.32076372238E+02  0.36820926508E+02  0.00000000000E+00 0.  1.
         11    1    4    4    0    0 -0.40355895202E+01 -0.98340373419E+01  0.13132293130E+02  0.16895306932E+02  0.51100000000E-03 0.  1.
        -11    1    4    4    0    0  0.44093352931E+01 -0.11677012685E+02  0.12170291393E+02  0.17433039202E+02  0.51100000000E-03 0. -1.
        -12    1    4    4    0    0  0.14803013079E+02  0.11684913259E+02  0.67737877145E+01  0.20038727357E+02  0.00000000000E+00 0.  1.
</event>
<event>
 8    1  0.1271559E-006  0.9118800E+02  0.7816164E-02  0.1184000E+00
        -11   -1    0    0    0    0  0.00000000000E+00  0.00000000000E+00  0.45593999997E+02  0.45594000000E+02  0.51100000000E-03 0.  1.
         11   -1    0    0    0    0 -0.00000000000E+00 -0.00000000000E+00 -0.45593999997E+02  0.45594000000E+02  0.51100000000E-03 0. -1.
         23    2    1    2    0    0 -0.17763568394E-14 -0.35527136788E-14  0.35527136788E-14  0.91188000000E+02  0.91188000000E+02 0.  0.
    9900012    2    3    3    0    0  0.15133047992E+02 -0.27012790579E+02  0.19926840726E+02  0.54367095914E+02  0.40000026754E+02 0.  0.
         12    1    3    3    0    0 -0.15133047992E+02  0.27012790579E+02 -0.19926840726E+02  0.36820904086E+02  0.00000000000E+00 0. -1.
         11    1    4    4    0    0  0.14338482658E+02 -0.63543955291E+01  0.18621733185E+01  0.15793610011E+02  0.51100000000E-03 0. -1.
        -11    1    4    4    0    0 -0.72578264160E+01 -0.78392810681E+00  0.15299901524E+02  0.16952214442E+02  0.51100000000E-03 0.  1.
        -12    1    4    4    0    0  0.80523917504E+01 -0.19874466943E+02  0.27647658833E+01  0.21621271461E+02  0.00000000000E+00 0.  1.
</event>
<event>
 8    1  0.1271559E-006  0.9118800E+02  0.7816164E-02  0.1184000E+00
        -11   -1    0    0    0    0  0.00000000000E+00  0.00000000000E+00  0.45593999997E+02  0.45594000000E+02  0.51100000000E-03 0. -1.
         11   -1    0    0    0    0 -0.00000000000E+00 -0.00000000000E+00 -0.45593999997E+02  0.45594000000E+02  0.51100000000E-03 0.  1.
         23    2    1    2    0    0 -0.17763568394E-14  0.17763568394E-14 -0.71054273576E-14  0.91188000000E+02  0.91188000000E+02 0.  0.
    9900012    2    3    3    0    0 -0.14068416207E+02  0.12745496099E+02 -0.31550117670E+02  0.54367110136E+02  0.40000059177E+02 0.  0.
         12    1    3    3    0    0  0.14068416207E+02 -0.12745496099E+02  0.31550117670E+02  0.36820889864E+02  0.00000000000E+00 0. -1.
         11    1    4    4    0    0  0.99173619770E+01  0.54052153141E+01 -0.15220996544E+02  0.18953869189E+02  0.51100000000E-03 0. -1.
        -11    1    4    4    0    0 -0.50529781339E+01  0.11038948634E+01 -0.14501385235E+02  0.15396147112E+02  0.51100000000E-03 0.  1.
         12    1    4    4    0    0 -0.18932800050E+02  0.62363859218E+01 -0.18277358905E+01  0.20017093835E+02  0.00000000000E+00 0. -1.
</event>
<event>
 8    1  0.1271559E-006  0.9118800E+02  0.7816164E-02  0.1184000E+00
        -11   -1    0    0    0    0  0.00000000000E+00  0.00000000000E+00  0.45593999997E+02  0.45594000000E+02  0.51100000000E-03 0.  1.
         11   -1    0    0    0    0 -0.00000000000E+00 -0.00000000000E+00 -0.45593999997E+02  0.45594000000E+02  0.51100000000E-03 0. -1.
         23    2    1    2    0    0  0.17763568394E-14  0.35527136788E-14  0.00000000000E+00  0.91188000000E+02  0.91188000000E+02 0.  0.
    9900012    2    3    3    0    0 -0.12122703092E+02 -0.20079876020E+02 -0.28383434944E+02  0.54367072113E+02  0.39999972497E+02 0.  0.
        -12    1    3    3    0    0  0.12122703092E+02  0.20079876020E+02  0.28383434944E+02  0.36820927887E+02  0.00000000000E+00 0.  1.
         11    1    4    4    0    0  0.92902839994E+01  0.33628165743E+01  0.19813286811E+01  0.10076883234E+02  0.51100000000E-03 0.  1.
        -11    1    4    4    0    0 -0.13220194583E+02 -0.16639212982E+02 -0.17085070853E+02  0.27267867532E+02  0.51100000000E-03 0. -1.
        -12    1    4    4    0    0 -0.81927925090E+01 -0.68034796120E+01 -0.13279692772E+02  0.17022321347E+02  0.00000000000E+00 0.  1.
</event>
<event>
 8    1  0.1271559E-006  0.9118800E+02  0.7816164E-02  0.1184000E+00
        -11   -1    0    0    0    0  0.00000000000E+00  0.00000000000E+00  0.45593999997E+02  0.45594000000E+02  0.51100000000E-03 0.  1.
         11   -1    0    0    0    0 -0.00000000000E+00 -0.00000000000E+00 -0.45593999997E+02  0.45594000000E+02  0.51100000000E-03 0. -1.
         23    2    1    2    0    0  0.00000000000E+00 -0.44408920985E-15  0.00000000000E+00  0.91188000000E+02  0.91188000000E+02 0.  0.
    9900012    2    3    3    0    0 -0.15502828392E+02 -0.30481888516E+01  0.33258822607E+02  0.54367103424E+02  0.40000043876E+02 0.  0.
         12    1    3    3    0    0  0.15502828392E+02  0.30481888516E+01 -0.33258822607E+02  0.36820896576E+02  0.00000000000E+00 0. -1.
         11    1    4    4    0    0 -0.11878689412E+02 -0.14653379665E+01 -0.45795154721E-01  0.11968816773E+02  0.51100000000E-03 0. -1.
        -11    1    4    4    0    0  0.10555889983E+02  0.72484919685E+00  0.78701141655E+01  0.13186770527E+02  0.51100000000E-03 0.  1.
        -12    1    4    4    0    0 -0.14180028963E+02 -0.23077000820E+01  0.25434503597E+02  0.29211516124E+02  0.00000000000E+00 0.  1.
</event>
<event>
 8    1  0.1271559E-006  0.9118800E+02  0.7816164E-02  0.1184000E+00
        -11   -1    0    0    0    0  0.00000000000E+00  0.00000000000E+00  0.45593999997E+02  0.45594000000E+02  0.51100000000E-03 0.  1.
         11   -1    0    0    0    0 -0.00000000000E+00 -0.00000000000E+00 -0.45593999997E+02  0.45594000000E+02  0.51100000000E-03 0. -1.
         23    2    1    2    0    0  0.00000000000E+00 -0.35527136788E-14  0.00000000000E+00  0.91188000000E+02  0.91188000000E+02 0.  0.
    9900012    2    3    3    0    0  0.33621943968E+02  0.12614523255E+02  0.81374755739E+01  0.54367084451E+02  0.40000000623E+02 0.  0.
        -12    1    3    3    0    0 -0.33621943968E+02 -0.12614523255E+02 -0.81374755739E+01  0.36820915549E+02  0.00000000000E+00 0.  1.
         11    1    4    4    0    0  0.19931220063E+02  0.15256484296E+02  0.57715155893E+01  0.25755081804E+02  0.51100000000E-03 0. -1.
        -11    1    4    4    0    0  0.16696591919E+02 -0.10636132053E+02  0.18539925769E+00  0.19797420536E+02  0.51100000000E-03 0.  1.
        -12    1    4    4    0    0 -0.30058680141E+01  0.79941710131E+01  0.21805607269E+01  0.88145821108E+01  0.00000000000E+00 0.  1.
</event>
<event>
 8    1  0.1271559E-006  0.9118800E+02  0.7816164E-02  0.1184000E+00
        -11   -1    0    0    0    0  0.00000000000E+00  0.00000000000E+00  0.45593999997E+02  0.45594000000E+02  0.51100000000E-03 0.  1.
         11   -1    0    0    0    0 -0.00000000000E+00 -0.00000000000E+00 -0.45593999997E+02  0.45594000000E+02  0.51100000000E-03 0. -1.
         23    2    1    2    0    0  0.35527136788E-14  0.00000000000E+00  0.00000000000E+00  0.91188000000E+02  0.91188000000E+02 0.  0.
    9900012    2    3    3    0    0  0.24562091354E+02 -0.18738874746E+02  0.20033431989E+02  0.54367079918E+02  0.39999990288E+02 0.  0.
         12    1    3    3    0    0 -0.24562091354E+02  0.18738874746E+02 -0.20033431989E+02  0.36820920082E+02  0.00000000000E+00 0. -1.
         11    1    4    4    0    0  0.21156229304E+02  0.36652862087E+01  0.11561135376E+02  0.24386065956E+02  0.51100000000E-03 0. -1.
        -11    1    4    4    0    0 -0.40855454395E+01 -0.17383545443E+02  0.37515220945E+00  0.17861133031E+02  0.51100000000E-03 0.  1.
        -12    1    4    4    0    0  0.74914074902E+01 -0.50206155118E+01  0.80971444030E+01  0.12119880931E+02  0.00000000000E+00 0.  1.
</event>
<event>
 8    1  0.1271559E-006  0.9118800E+02  0.7816164E-02  0.1184000E+00
        -11   -1    0    0    0    0  0.00000000000E+00  0.00000000000E+00  0.45593999997E+02  0.45594000000E+02  0.51100000000E-03 0.  1.
         11   -1    0    0    0    0 -0.00000000000E+00 -0.00000000000E+00 -0.45593999997E+02  0.45594000000E+02  0.51100000000E-03 0. -1.
         23    2    1    2    0    0  0.00000000000E+00  0.00000000000E+00  0.35527136788E-14  0.91188000000E+02  0.91188000000E+02 0.  0.
    9900012    2    3    3    0    0  0.13033287985E+02 -0.30697354940E+02  0.15607230168E+02  0.54367084347E+02  0.40000000386E+02 0.  0.
        -12    1    3    3    0    0 -0.13033287985E+02  0.30697354940E+02 -0.15607230168E+02  0.36820915653E+02  0.00000000000E+00 0.  1.
         11    1    4    4    0    0  0.80255859851E+01 -0.36565433861E+01 -0.17420012195E+00  0.88210365537E+01  0.51100000000E-03 0. -1.
        -11    1    4    4    0    0  0.11107445991E+02 -0.61281171403E+01  0.19681460721E+02  0.23415573290E+02  0.51100000000E-03 0.  1.
         12    1    4    4    0    0 -0.60997439906E+01 -0.20912694413E+02 -0.39000304311E+01  0.22130474503E+02  0.00000000000E+00 0. -1.
</event>
<event>
 8    1  0.1271559E-006  0.9118800E+02  0.7816164E-02  0.1184000E+00
        -11   -1    0    0    0    0  0.00000000000E+00  0.00000000000E+00  0.45593999997E+02  0.45594000000E+02  0.51100000000E-03 0.  1.
         11   -1    0    0    0    0 -0.00000000000E+00 -0.00000000000E+00 -0.45593999997E+02  0.45594000000E+02  0.51100000000E-03 0. -1.
         23    2    1    2    0    0  0.00000000000E+00  0.00000000000E+00  0.00000000000E+00  0.91188000000E+02  0.91188000000E+02 0.  0.
    9900012    2    3    3    0    0 -0.19327935298E+02  0.19467387945E+02  0.24560778224E+02  0.54367080630E+02  0.39999991913E+02 0.  0.
         12    1    3    3    0    0  0.19327935298E+02 -0.19467387945E+02 -0.24560778224E+02  0.36820919370E+02  0.00000000000E+00 0. -1.
         11    1    4    4    0    0 -0.14310983379E+02  0.10107364507E+02  0.11970699319E+02  0.21219347421E+02  0.51100000000E-03 0. -1.
        -11    1    4    4    0    0 -0.15160186483E+02  0.11554541002E+02  0.12453309628E+02  0.22768917254E+02  0.51100000000E-03 0.  1.
        -12    1    4    4    0    0  0.10143234565E+02 -0.21945175635E+01  0.13676927680E+00  0.10378815954E+02  0.00000000000E+00 0.  1.
</event>
<event>
 8    1  0.1271559E-006  0.9118800E+02  0.7816164E-02  0.1184000E+00
        -11   -1    0    0    0    0  0.00000000000E+00  0.00000000000E+00  0.45593999997E+02  0.45594000000E+02  0.51100000000E-03 0. -1.
         11   -1    0    0    0    0 -0.00000000000E+00 -0.00000000000E+00 -0.45593999997E+02  0.45594000000E+02  0.51100000000E-03 0.  1.
         23    2    1    2    0    0  0.00000000000E+00  0.35527136788E-14  0.00000000000E+00  0.91188000000E+02  0.91188000000E+02 0.  0.
    9900012    2    3    3    0    0  0.32322488247E+01  0.30624208403E+02 -0.20186333164E+02  0.54367114359E+02  0.40000068803E+02 0.  0.
         12    1    3    3    0    0 -0.32322488247E+01 -0.30624208403E+02  0.20186333164E+02  0.36820885641E+02  0.00000000000E+00 0. -1.
         11    1    4    4    0    0  0.19363609309E+01 -0.54136682175E+01 -0.66156193361E+01  0.87649139576E+01  0.51100000000E-03 0. -1.
        -11    1    4    4    0    0  0.33924298639E+01  0.18753608775E+02  0.54441263984E+01  0.19820316218E+02  0.51100000000E-03 0.  1.
        -12    1    4    4    0    0 -0.20965419701E+01  0.17284267846E+02 -0.19014840226E+02  0.25781884183E+02  0.00000000000E+00 0.  1.
</event>
<event>
 8    1  0.1271559E-006  0.9118800E+02  0.7816164E-02  0.1184000E+00
        -11   -1    0    0    0    0  0.00000000000E+00  0.00000000000E+00  0.45593999997E+02  0.45594000000E+02  0.51100000000E-03 0. -1.
         11   -1    0    0    0    0 -0.00000000000E+00 -0.00000000000E+00 -0.45593999997E+02  0.45594000000E+02  0.51100000000E-03 0.  1.
         23    2    1    2    0    0 -0.35527136788E-14 -0.88817841970E-15  0.00000000000E+00  0.91188000000E+02  0.91188000000E+02 0.  0.
    9900012    2    3    3    0    0  0.31486685950E+02  0.50762424979E+01  0.18401078447E+02  0.54367091293E+02  0.40000016221E+02 0.  0.
         12    1    3    3    0    0 -0.31486685950E+02 -0.50762424979E+01 -0.18401078447E+02  0.36820908707E+02  0.00000000000E+00 0. -1.
         11    1    4    4    0    0 -0.28873710055E+01 -0.15412068898E+01  0.10581288930E+02  0.11075915569E+02  0.51100000000E-03 0. -1.
        -11    1    4    4    0    0  0.26999776210E+02  0.56075136379E+01  0.16279906307E+02  0.32022921075E+02  0.51100000000E-03 0.  1.
        -12    1    4    4    0    0  0.73742807450E+01  0.10099357498E+01 -0.84601167899E+01  0.11268254649E+02  0.00000000000E+00 0.  1.
</event>
<event>
 8    1  0.1271559E-006  0.9118800E+02  0.7816164E-02  0.1184000E+00
        -11   -1    0    0    0    0  0.00000000000E+00  0.00000000000E+00  0.45593999997E+02  0.45594000000E+02  0.51100000000E-03 0.  1.
         11   -1    0    0    0    0 -0.00000000000E+00 -0.00000000000E+00 -0.45593999997E+02  0.45594000000E+02  0.51100000000E-03 0. -1.
         23    2    1    2    0    0  0.88817841970E-15 -0.71054273576E-14  0.17763568394E-14  0.91188000000E+02  0.91188000000E+02 0.  0.
    9900012    2    3    3    0    0 -0.13308506731E+01 -0.35029257784E+02  0.11267692595E+02  0.54367068985E+02  0.39999965365E+02 0.  0.
         12    1    3    3    0    0  0.13308506731E+01  0.35029257784E+02 -0.11267692595E+02  0.36820931015E+02  0.00000000000E+00 0. -1.
         11    1    4    4    0    0 -0.75265449357E+01 -0.66119348260E+00  0.46968880046E+01  0.88964494423E+01  0.51100000000E-03 0. -1.
        -11    1    4    4    0    0  0.44199587183E+01  0.20914506084E+01  0.75032895686E+01  0.89559787478E+01  0.51100000000E-03 0.  1.
        -12    1    4    4    0    0  0.17757355443E+01 -0.36459514909E+02 -0.93248497774E+00  0.36514640795E+02  0.00000000000E+00 0.  1.
</event>
<event>
 8    1  0.1271559E-006  0.9118800E+02  0.7816164E-02  0.1184000E+00
        -11   -1    0    0    0    0  0.00000000000E+00  0.00000000000E+00  0.45593999997E+02  0.45594000000E+02  0.51100000000E-03 0. -1.
         11   -1    0    0    0    0 -0.00000000000E+00 -0.00000000000E+00 -0.45593999997E+02  0.45594000000E+02  0.51100000000E-03 0.  1.
         23    2    1    2    0    0  0.00000000000E+00  0.00000000000E+00  0.00000000000E+00  0.91188000000E+02  0.91188000000E+02 0.  0.
    9900012    2    3    3    0    0  0.30963018089E+02 -0.14107991248E+02  0.14072515277E+02  0.54367087566E+02  0.40000007724E+02 0.  0.
        -12    1    3    3    0    0 -0.30963018089E+02  0.14107991248E+02 -0.14072515277E+02  0.36820912434E+02  0.00000000000E+00 0.  1.
         11    1    4    4    0    0  0.26444524716E+02 -0.92754912896E+01  0.15599502358E+02  0.32073230274E+02  0.51100000000E-03 0. -1.
        -11    1    4    4    0    0  0.18257073223E+01 -0.10575684670E+01  0.98157358942E+01  0.10039936738E+02  0.51100000000E-03 0.  1.
        -12    1    4    4    0    0  0.26927860512E+01 -0.37749314912E+01 -0.11342722975E+02  0.12253920555E+02  0.00000000000E+00 0.  1.
</event>
<event>
 8    1  0.1271559E-006  0.9118800E+02  0.7816164E-02  0.1184000E+00
        -11   -1    0    0    0    0  0.00000000000E+00  0.00000000000E+00  0.45593999997E+02  0.45594000000E+02  0.51100000000E-03 0. -1.
         11   -1    0    0    0    0 -0.00000000000E+00 -0.00000000000E+00 -0.45593999997E+02  0.45594000000E+02  0.51100000000E-03 0.  1.
         23    2    1    2    0    0  0.00000000000E+00 -0.17763568394E-14  0.71054273576E-14  0.91188000000E+02  0.91188000000E+02 0.  0.
    9900012    2    3    3    0    0 -0.45949056270E+01 -0.11993668974E+02  0.34508243831E+02  0.54367080057E+02  0.39999990605E+02 0.  0.
        -12    1    3    3    0    0  0.45949056270E+01  0.11993668974E+02 -0.34508243831E+02  0.36820919943E+02  0.00000000000E+00 0.  1.
         11    1    4    4    0    0  0.24310086654E+01  0.86966808784E+01 -0.80755266549E+00  0.90661018636E+01  0.51100000000E-03 0.  1.
        -11    1    4    4    0    0 -0.13791794106E+01  0.32055213177E+01  0.70019911216E+01  0.78233869068E+01  0.51100000000E-03 0. -1.
        -12    1    4    4    0    0 -0.56467348818E+01 -0.23895871170E+02  0.28313805375E+02  0.37477591286E+02  0.00000000000E+00 0.  1.
</event>
<event>
 8    1  0.1271559E-006  0.9118800E+02  0.7816164E-02  0.1184000E+00
        -11   -1    0    0    0    0  0.00000000000E+00  0.00000000000E+00  0.45593999997E+02  0.45594000000E+02  0.51100000000E-03 0.  1.
         11   -1    0    0    0    0 -0.00000000000E+00 -0.00000000000E+00 -0.45593999997E+02  0.45594000000E+02  0.51100000000E-03 0. -1.
         23    2    1    2    0    0  0.00000000000E+00  0.00000000000E+00 -0.13322676296E-14  0.91188000000E+02  0.91188000000E+02 0.  0.
    9900012    2    3    3    0    0  0.24129736800E+02  0.27597029371E+02  0.34553938884E+01  0.54367082371E+02  0.39999995881E+02 0.  0.
         12    1    3    3    0    0 -0.24129736800E+02 -0.27597029371E+02 -0.34553938884E+01  0.36820917629E+02  0.00000000000E+00 0. -1.
         11    1    4    4    0    0  0.30900549134E+01  0.64219493426E+01 -0.15644627210E+01  0.72963975079E+01  0.51100000000E-03 0. -1.
        -11    1    4    4    0    0  0.20330805408E+02  0.21008694699E+02 -0.10850246804E+02  0.31183886183E+02  0.51100000000E-03 0.  1.
        -12    1    4    4    0    0  0.70887647856E+00  0.16638532944E+00  0.15870103414E+02  0.15886798680E+02  0.00000000000E+00 0.  1.
</event>
<event>
 8    1  0.1271559E-006  0.9118800E+02  0.7816164E-02  0.1184000E+00
        -11   -1    0    0    0    0  0.00000000000E+00  0.00000000000E+00  0.45593999997E+02  0.45594000000E+02  0.51100000000E-03 0. -1.
         11   -1    0    0    0    0 -0.00000000000E+00 -0.00000000000E+00 -0.45593999997E+02  0.45594000000E+02  0.51100000000E-03 0.  1.
         23    2    1    2    0    0  0.00000000000E+00  0.00000000000E+00  0.00000000000E+00  0.91188000000E+02  0.91188000000E+02 0.  0.
    9900012    2    3    3    0    0 -0.12960699428E+02 -0.22967787246E+02  0.25695974138E+02  0.54367053957E+02  0.39999931105E+02 0.  0.
        -12    1    3    3    0    0  0.12960699428E+02  0.22967787246E+02 -0.25695974138E+02  0.36820946043E+02  0.00000000000E+00 0.  1.
         11    1    4    4    0    0  0.35389440122E+01 -0.14818031456E+02  0.66886972633E+01  0.16638414957E+02  0.51100000000E-03 0. -1.
        -11    1    4    4    0    0 -0.96336413599E+01 -0.17884486143E+02  0.14644357970E+02  0.25042346357E+02  0.51100000000E-03 0.  1.
        -12    1    4    4    0    0 -0.68660020806E+01  0.97347303537E+01  0.43629189049E+01  0.12686292642E+02  0.00000000000E+00 0.  1.
</event>
<event>
 8    1  0.1271559E-006  0.9118800E+02  0.7816164E-02  0.1184000E+00
        -11   -1    0    0    0    0  0.00000000000E+00  0.00000000000E+00  0.45593999997E+02  0.45594000000E+02  0.51100000000E-03 0. -1.
         11   -1    0    0    0    0 -0.00000000000E+00 -0.00000000000E+00 -0.45593999997E+02  0.45594000000E+02  0.51100000000E-03 0.  1.
         23    2    1    2    0    0  0.00000000000E+00  0.00000000000E+00 -0.71054273576E-14  0.91188000000E+02  0.91188000000E+02 0.  0.
    9900012    2    3    3    0    0 -0.68486003976E+01 -0.12877203845E+02  0.33808937575E+02  0.54367218284E+02  0.40000305720E+02 0.  0.
        -12    1    3    3    0    0  0.68486003976E+01  0.12877203845E+02 -0.33808937575E+02  0.36820781716E+02  0.00000000000E+00 0.  1.
         11    1    4    4    0    0 -0.50278251031E+01  0.12658409646E+02  0.45401813823E+01  0.14357144817E+02  0.51100000000E-03 0.  1.
        -11    1    4    4    0    0  0.10681499366E+01 -0.19756648646E+02  0.16754456851E+02  0.25926394555E+02  0.51100000000E-03 0. -1.
        -12    1    4    4    0    0 -0.28889252311E+01 -0.57789648456E+01  0.12514299342E+02  0.14083678912E+02  0.00000000000E+00 0.  1.
</event>
<event>
 8    1  0.1271559E-006  0.9118800E+02  0.7816164E-02  0.1184000E+00
        -11   -1    0    0    0    0  0.00000000000E+00  0.00000000000E+00  0.45593999997E+02  0.45594000000E+02  0.51100000000E-03 0.  1.
         11   -1    0    0    0    0 -0.00000000000E+00 -0.00000000000E+00 -0.45593999997E+02  0.45594000000E+02  0.51100000000E-03 0. -1.
         23    2    1    2    0    0  0.00000000000E+00 -0.38857805862E-15  0.00000000000E+00  0.91188000000E+02  0.91188000000E+02 0.  0.
    9900012    2    3    3    0    0 -0.10869314276E+02 -0.29150384342E+00  0.35178877491E+02  0.54367076751E+02  0.39999983070E+02 0.  0.
         12    1    3    3    0    0  0.10869314276E+02  0.29150384342E+00 -0.35178877491E+02  0.36820923249E+02  0.00000000000E+00 0. -1.
         11    1    4    4    0    0 -0.38039472633E+01  0.78136967342E+01  0.51536360186E+01  0.10103654582E+02  0.51100000000E-03 0. -1.
        -11    1    4    4    0    0 -0.11123463687E+02  0.91321913729E+01  0.17037715130E+02  0.22302737518E+02  0.51100000000E-03 0.  1.
         12    1    4    4    0    0  0.40580966746E+01 -0.17237391951E+02  0.12987526343E+02  0.21960684652E+02  0.00000000000E+00 0. -1.
</event>
<event>
 8    1  0.1271559E-006  0.9118800E+02  0.7816164E-02  0.1184000E+00
        -11   -1    0    0    0    0  0.00000000000E+00  0.00000000000E+00  0.45593999997E+02  0.45594000000E+02  0.51100000000E-03 0. -1.
         11   -1    0    0    0    0 -0.00000000000E+00 -0.00000000000E+00 -0.45593999997E+02  0.45594000000E+02  0.51100000000E-03 0.  1.
         23    2    1    2    0    0 -0.35527136788E-14  0.00000000000E+00 -0.35527136788E-14  0.91188000000E+02  0.91188000000E+02 0.  0.
    9900012    2    3    3    0    0  0.25116849233E+02 -0.59799778540E+00  0.26917918895E+02  0.54366972389E+02  0.39999745154E+02 0.  0.
        -12    1    3    3    0    0 -0.25116849233E+02  0.59799778540E+00 -0.26917918895E+02  0.36821027611E+02  0.00000000000E+00 0.  1.
         11    1    4    4    0    0 -0.28523695747E+01  0.42395670036E+00  0.12512052529E+02  0.12840062703E+02  0.51100000000E-03 0. -1.
        -11    1    4    4    0    0  0.20077413304E+01 -0.55028002018E+01  0.14002675963E+02  0.15178496951E+02  0.51100000000E-03 0.  1.
         12    1    4    4    0    0  0.25961477477E+02  0.44808457160E+01  0.40319040257E+00  0.26348412734E+02  0.00000000000E+00 0. -1.
</event>
<event>
 8    1  0.1271559E-006  0.9118800E+02  0.7816164E-02  0.1184000E+00
        -11   -1    0    0    0    0  0.00000000000E+00  0.00000000000E+00  0.45593999997E+02  0.45594000000E+02  0.51100000000E-03 0.  1.
         11   -1    0    0    0    0 -0.00000000000E+00 -0.00000000000E+00 -0.45593999997E+02  0.45594000000E+02  0.51100000000E-03 0. -1.
         23    2    1    2    0    0  0.88817841970E-15  0.13322676296E-14  0.00000000000E+00  0.91188000000E+02  0.91188000000E+02 0.  0.
    9900012    2    3    3    0    0  0.59207195220E+01 -0.37405875304E+01  0.36148765191E+02  0.54367080137E+02  0.39999990789E+02 0.  0.
         12    1    3    3    0    0 -0.59207195220E+01  0.37405875304E+01 -0.36148765191E+02  0.36820919863E+02  0.00000000000E+00 0. -1.
         11    1    4    4    0    0  0.10125690811E+02  0.10613071343E+02  0.77490752405E+00  0.14689022420E+02  0.51100000000E-03 0. -1.
        -11    1    4    4    0    0  0.20024066607E+01 -0.71885202463E+01  0.92342279706E+01  0.11872464876E+02  0.51100000000E-03 0.  1.
         12    1    4    4    0    0 -0.62073779494E+01 -0.71651386276E+01  0.26139629696E+02  0.27805592840E+02  0.00000000000E+00 0. -1.
</event>
<event>
 8    1  0.1271559E-006  0.9118800E+02  0.7816164E-02  0.1184000E+00
        -11   -1    0    0    0    0  0.00000000000E+00  0.00000000000E+00  0.45593999997E+02  0.45594000000E+02  0.51100000000E-03 0.  1.
         11   -1    0    0    0    0 -0.00000000000E+00 -0.00000000000E+00 -0.45593999997E+02  0.45594000000E+02  0.51100000000E-03 0. -1.
         23    2    1    2    0    0  0.35527136788E-14  0.88817841970E-15  0.00000000000E+00  0.91188000000E+02  0.91188000000E+02 0.  0.
    9900012    2    3    3    0    0 -0.21764710808E+02  0.43813584890E+01 -0.29374818063E+02  0.54367097309E+02  0.40000029935E+02 0.  0.
        -12    1    3    3    0    0  0.21764710808E+02 -0.43813584890E+01  0.29374818063E+02  0.36820902691E+02  0.00000000000E+00 0.  1.
         11    1    4    4    0    0  0.58049272006E+01  0.60722245489E+01 -0.26764009148E+01  0.88165873723E+01  0.51100000000E-03 0. -1.
        -11    1    4    4    0    0 -0.12622980247E+02  0.23159479645E+01  0.19587254177E+01  0.12982289891E+02  0.51100000000E-03 0.  1.
         12    1    4    4    0    0 -0.14946657761E+02 -0.40068140243E+01 -0.28657142566E+02  0.32568220045E+02  0.00000000000E+00 0. -1.
</event>
<event>
 8    1  0.1271559E-006  0.9118800E+02  0.7816164E-02  0.1184000E+00
        -11   -1    0    0    0    0  0.00000000000E+00  0.00000000000E+00  0.45593999997E+02  0.45594000000E+02  0.51100000000E-03 0. -1.
         11   -1    0    0    0    0 -0.00000000000E+00 -0.00000000000E+00 -0.45593999997E+02  0.45594000000E+02  0.51100000000E-03 0.  1.
         23    2    1    2    0    0  0.00000000000E+00  0.17763568394E-14  0.00000000000E+00  0.91188000000E+02  0.91188000000E+02 0.  0.
    9900012    2    3    3    0    0  0.18084000038E+02 -0.12155611991E+02 -0.29681456256E+02  0.54367098249E+02  0.40000032079E+02 0.  0.
         12    1    3    3    0    0 -0.18084000038E+02  0.12155611991E+02  0.29681456256E+02  0.36820901751E+02  0.00000000000E+00 0. -1.
         11    1    4    4    0    0  0.46737325564E+01  0.88331141841E+01 -0.77707843112E+01  0.12659098359E+02  0.51100000000E-03 0. -1.
        -11    1    4    4    0    0 -0.74836033798E+01 -0.39532329086E+01 -0.63502653744E+01  0.10581032112E+02  0.51100000000E-03 0.  1.
        -12    1    4    4    0    0  0.20893870861E+02 -0.17035493266E+02 -0.15560406571E+02  0.31126967778E+02  0.00000000000E+00 0.  1.
</event>
<event>
 8    1  0.1271559E-006  0.9118800E+02  0.7816164E-02  0.1184000E+00
        -11   -1    0    0    0    0  0.00000000000E+00  0.00000000000E+00  0.45593999997E+02  0.45594000000E+02  0.51100000000E-03 0.  1.
         11   -1    0    0    0    0 -0.00000000000E+00 -0.00000000000E+00 -0.45593999997E+02  0.45594000000E+02  0.51100000000E-03 0. -1.
         23    2    1    2    0    0 -0.88817841970E-15  0.71054273576E-14 -0.99920072216E-15  0.91188000000E+02  0.91188000000E+02 0.  0.
    9900012    2    3    3    0    0  0.62822844211E+01 -0.36279303250E+02  0.35012147420E+00  0.54367115615E+02  0.40000071667E+02 0.  0.
        -12    1    3    3    0    0 -0.62822844211E+01  0.36279303250E+02 -0.35012147420E+00  0.36820884385E+02  0.00000000000E+00 0.  1.
         11    1    4    4    0    0  0.16285686311E+02 -0.26632944697E+02 -0.12408887429E+02  0.33593419138E+02  0.51100000000E-03 0. -1.
        -11    1    4    4    0    0  0.11564215104E+01 -0.29871699106E+01  0.38948070759E+01  0.50428183790E+01  0.51100000000E-03 0.  1.
        -12    1    4    4    0    0 -0.11159823401E+02 -0.66591886423E+01  0.88642018272E+01  0.15730878098E+02  0.00000000000E+00 0.  1.
</event>
<event>
 8    1  0.1271559E-006  0.9118800E+02  0.7816164E-02  0.1184000E+00
        -11   -1    0    0    0    0  0.00000000000E+00  0.00000000000E+00  0.45593999997E+02  0.45594000000E+02  0.51100000000E-03 0. -1.
         11   -1    0    0    0    0 -0.00000000000E+00 -0.00000000000E+00 -0.45593999997E+02  0.45594000000E+02  0.51100000000E-03 0.  1.
         23    2    1    2    0    0 -0.35527136788E-14  0.00000000000E+00  0.17763568394E-14  0.91188000000E+02  0.91188000000E+02 0.  0.
    9900012    2    3    3    0    0  0.29637549046E+02 -0.15198081406E+02 -0.15697559566E+02  0.54367090612E+02  0.40000014667E+02 0.  0.
         12    1    3    3    0    0 -0.29637549046E+02  0.15198081406E+02  0.15697559566E+02  0.36820909388E+02  0.00000000000E+00 0. -1.
         11    1    4    4    0    0  0.38469637132E+01 -0.44448215985E+01  0.29585215214E+01  0.65809132123E+01  0.51100000000E-03 0. -1.
        -11    1    4    4    0    0  0.25046382945E+02 -0.22341528388E+01 -0.26249146362E+02  0.36350108976E+02  0.51100000000E-03 0.  1.
        -12    1    4    4    0    0  0.74420238735E+00 -0.85191069684E+01  0.75930652743E+01  0.11436068424E+02  0.00000000000E+00 0.  1.
</event>
<event>
 8    1  0.1271559E-006  0.9118800E+02  0.7816164E-02  0.1184000E+00
        -11   -1    0    0    0    0  0.00000000000E+00  0.00000000000E+00  0.45593999997E+02  0.45594000000E+02  0.51100000000E-03 0.  1.
         11   -1    0    0    0    0 -0.00000000000E+00 -0.00000000000E+00 -0.45593999997E+02  0.45594000000E+02  0.51100000000E-03 0. -1.
         23    2    1    2    0    0 -0.35527136788E-14 -0.88817841970E-15  0.00000000000E+00  0.91188000000E+02  0.91188000000E+02 0.  0.
    9900012    2    3    3    0    0  0.31525094305E+02  0.45703815515E+01  0.18467917857E+02  0.54367028415E+02  0.39999872877E+02 0.  0.
         12    1    3    3    0    0 -0.31525094305E+02 -0.45703815515E+01 -0.18467917857E+02  0.36820971585E+02  0.00000000000E+00 0. -1.
         11    1    4    4    0    0  0.36780220057E+01 -0.47570849426E+01  0.15669558728E+02  0.16783705611E+02  0.51100000000E-03 0. -1.
        -11    1    4    4    0    0  0.25589624587E+02  0.15020845124E+02  0.65692506495E+01  0.30390948144E+02  0.51100000000E-03 0.  1.
         12    1    4    4    0    0  0.22574477130E+01 -0.56933786295E+01 -0.37708915205E+01  0.71923746604E+01  0.00000000000E+00 0. -1.
</event>
<event>
 8    1  0.1271559E-006  0.9118800E+02  0.7816164E-02  0.1184000E+00
        -11   -1    0    0    0    0  0.00000000000E+00  0.00000000000E+00  0.45593999997E+02  0.45594000000E+02  0.51100000000E-03 0. -1.
         11   -1    0    0    0    0 -0.00000000000E+00 -0.00000000000E+00 -0.45593999997E+02  0.45594000000E+02  0.51100000000E-03 0.  1.
         23    2    1    2    0    0  0.00000000000E+00  0.00000000000E+00  0.35527136788E-14  0.91188000000E+02  0.91188000000E+02 0.  0.
    9900012    2    3    3    0    0 -0.10172016936E+02 -0.21449397854E+02  0.28146526163E+02  0.54367169865E+02  0.40000195340E+02 0.  0.
         12    1    3    3    0    0  0.10172016936E+02  0.21449397854E+02 -0.28146526163E+02  0.36820830135E+02  0.00000000000E+00 0. -1.
         11    1    4    4    0    0  0.75073252934E+01  0.10445678537E+01  0.19139506094E+02  0.20585717108E+02  0.51100000000E-03 0. -1.
        -11    1    4    4    0    0 -0.55097157271E+01 -0.25063101219E+01  0.84240632314E+01  0.10373205840E+02  0.51100000000E-03 0.  1.
         12    1    4    4    0    0 -0.12169626502E+02 -0.19987655585E+02  0.58295683729E+00  0.23408246916E+02  0.00000000000E+00 0. -1.
</event>
<event>
 8    1  0.1271559E-006  0.9118800E+02  0.7816164E-02  0.1184000E+00
        -11   -1    0    0    0    0  0.00000000000E+00  0.00000000000E+00  0.45593999997E+02  0.45594000000E+02  0.51100000000E-03 0.  1.
         11   -1    0    0    0    0 -0.00000000000E+00 -0.00000000000E+00 -0.45593999997E+02  0.45594000000E+02  0.51100000000E-03 0. -1.
         23    2    1    2    0    0  0.00000000000E+00  0.00000000000E+00  0.00000000000E+00  0.91188000000E+02  0.91188000000E+02 0.  0.
    9900012    2    3    3    0    0  0.27171612440E+01 -0.28555255894E+02  0.23086662800E+02  0.54367087414E+02  0.40000007379E+02 0.  0.
         12    1    3    3    0    0 -0.27171612440E+01  0.28555255894E+02 -0.23086662800E+02  0.36820912586E+02  0.00000000000E+00 0. -1.
         11    1    4    4    0    0 -0.38854223066E+01 -0.22498337763E+02  0.25274926923E+02  0.34060147384E+02  0.51100000000E-03 0. -1.
        -11    1    4    4    0    0 -0.38876900425E+01 -0.28077803511E+01  0.51979100409E+01  0.70722014550E+01  0.51100000000E-03 0.  1.
         12    1    4    4    0    0  0.10490273593E+02 -0.32491377802E+01 -0.73861741644E+01  0.13234738575E+02  0.00000000000E+00 0. -1.
</event>
<event>
 8    1  0.1271559E-006  0.9118800E+02  0.7816164E-02  0.1184000E+00
        -11   -1    0    0    0    0  0.00000000000E+00  0.00000000000E+00  0.45593999997E+02  0.45594000000E+02  0.51100000000E-03 0.  1.
         11   -1    0    0    0    0 -0.00000000000E+00 -0.00000000000E+00 -0.45593999997E+02  0.45594000000E+02  0.51100000000E-03 0. -1.
         23    2    1    2    0    0  0.35527136788E-14  0.00000000000E+00 -0.35527136788E-14  0.91188000000E+02  0.91188000000E+02 0.  0.
    9900012    2    3    3    0    0 -0.16938747688E+02 -0.16532419110E+02  0.28205289972E+02  0.54367076094E+02  0.39999981572E+02 0.  0.
         12    1    3    3    0    0  0.16938747688E+02  0.16532419110E+02 -0.28205289972E+02  0.36820923906E+02  0.00000000000E+00 0. -1.
         11    1    4    4    0    0 -0.14138864007E+02 -0.12680137241E+02 -0.34279512222E+01  0.19298813583E+02  0.51100000000E-03 0. -1.
        -11    1    4    4    0    0  0.34646046464E+01  0.35499157801E+01  0.15180547807E+02  0.15970423269E+02  0.51100000000E-03 0.  1.
        -12    1    4    4    0    0 -0.62644883275E+01 -0.74021976489E+01  0.16452693387E+02  0.19097839242E+02  0.00000000000E+00 0.  1.
</event>
<event>
 8    1  0.1271559E-006  0.9118800E+02  0.7816164E-02  0.1184000E+00
        -11   -1    0    0    0    0  0.00000000000E+00  0.00000000000E+00  0.45593999997E+02  0.45594000000E+02  0.51100000000E-03 0. -1.
         11   -1    0    0    0    0 -0.00000000000E+00 -0.00000000000E+00 -0.45593999997E+02  0.45594000000E+02  0.51100000000E-03 0.  1.
         23    2    1    2    0    0  0.00000000000E+00  0.00000000000E+00  0.00000000000E+00  0.91188000000E+02  0.91188000000E+02 0.  0.
    9900012    2    3    3    0    0  0.21883657281E+02  0.25965749314E+02  0.14236019566E+02  0.54367097696E+02  0.40000030817E+02 0.  0.
        -12    1    3    3    0    0 -0.21883657281E+02 -0.25965749314E+02 -0.14236019566E+02  0.36820902304E+02  0.00000000000E+00 0.  1.
         11    1    4    4    0    0  0.22693092405E+02  0.19106363135E+02  0.23866959451E+02  0.38074418037E+02  0.51100000000E-03 0. -1.
        -11    1    4    4    0    0 -0.10261985092E+00  0.70886509998E+01 -0.47355062360E+00  0.71051920653E+01  0.51100000000E-03 0.  1.
         12    1    4    4    0    0 -0.70681527297E+00 -0.22926482052E+00 -0.91573892619E+01  0.91874875936E+01  0.00000000000E+00 0. -1.
</event>
<event>
 8    1  0.1271559E-006  0.9118800E+02  0.7816164E-02  0.1184000E+00
        -11   -1    0    0    0    0  0.00000000000E+00  0.00000000000E+00  0.45593999997E+02  0.45594000000E+02  0.51100000000E-03 0.  1.
         11   -1    0    0    0    0 -0.00000000000E+00 -0.00000000000E+00 -0.45593999997E+02  0.45594000000E+02  0.51100000000E-03 0. -1.
         23    2    1    2    0    0  0.00000000000E+00 -0.88817841970E-15  0.00000000000E+00  0.91188000000E+02  0.91188000000E+02 0.  0.
    9900012    2    3    3    0    0 -0.14238436245E+02  0.72353672125E+01  0.33176745737E+02  0.54367081175E+02  0.39999993155E+02 0.  0.
         12    1    3    3    0    0  0.14238436245E+02 -0.72353672125E+01 -0.33176745737E+02  0.36820918825E+02  0.00000000000E+00 0. -1.
         11    1    4    4    0    0  0.22473066408E+01  0.16976077310E+02  0.18368315160E+01  0.17222413833E+02  0.51100000000E-03 0. -1.
        -11    1    4    4    0    0 -0.65639827039E+01 -0.21453110791E+01  0.15506492337E+02  0.16974673293E+02  0.51100000000E-03 0.  1.
         12    1    4    4    0    0 -0.99217601815E+01 -0.75953990182E+01  0.15833421885E+02  0.20169994049E+02  0.00000000000E+00 0. -1.
</event>
<event>
 8    1  0.1271559E-006  0.9118800E+02  0.7816164E-02  0.1184000E+00
        -11   -1    0    0    0    0  0.00000000000E+00  0.00000000000E+00  0.45593999997E+02  0.45594000000E+02  0.51100000000E-03 0.  1.
         11   -1    0    0    0    0 -0.00000000000E+00 -0.00000000000E+00 -0.45593999997E+02  0.45594000000E+02  0.51100000000E-03 0. -1.
         23    2    1    2    0    0  0.00000000000E+00  0.00000000000E+00 -0.88817841970E-15  0.91188000000E+02  0.91188000000E+02 0.  0.
    9900012    2    3    3    0    0 -0.12109864347E+02  0.34454978023E+02  0.46888948079E+01  0.54367081223E+02  0.39999993265E+02 0.  0.
         12    1    3    3    0    0  0.12109864347E+02 -0.34454978023E+02 -0.46888948079E+01  0.36820918777E+02  0.00000000000E+00 0. -1.
         11    1    4    4    0    0 -0.16416285089E+02  0.96043924307E+01  0.17110485212E+02  0.25583343693E+02  0.51100000000E-03 0. -1.
        -11    1    4    4    0    0  0.19168638718E+01  0.17285836508E+02 -0.54587748031E+01  0.18228349719E+02  0.51100000000E-03 0.  1.
         12    1    4    4    0    0  0.23895568700E+01  0.75647490839E+01 -0.69628156010E+01  0.10555387811E+02  0.00000000000E+00 0. -1.
</event>
<event>
 8    1  0.1271559E-006  0.9118800E+02  0.7816164E-02  0.1184000E+00
        -11   -1    0    0    0    0  0.00000000000E+00  0.00000000000E+00  0.45593999997E+02  0.45594000000E+02  0.51100000000E-03 0.  1.
         11   -1    0    0    0    0 -0.00000000000E+00 -0.00000000000E+00 -0.45593999997E+02  0.45594000000E+02  0.51100000000E-03 0. -1.
         23    2    1    2    0    0 -0.88817841970E-15  0.35527136788E-14  0.00000000000E+00  0.91188000000E+02  0.91188000000E+02 0.  0.
    9900012    2    3    3    0    0 -0.55334591268E+01  0.18086226529E+02  0.31591918153E+02  0.54367081318E+02  0.39999993482E+02 0.  0.
         12    1    3    3    0    0  0.55334591268E+01 -0.18086226529E+02 -0.31591918153E+02  0.36820918682E+02  0.00000000000E+00 0. -1.
         11    1    4    4    0    0  0.30430871884E+01  0.25654536692E+02  0.16784953056E+02  0.30808282682E+02  0.51100000000E-03 0. -1.
        -11    1    4    4    0    0 -0.66020694660E+01  0.26320675884E+01  0.95792813082E+01  0.11928022957E+02  0.51100000000E-03 0.  1.
         12    1    4    4    0    0 -0.19744768492E+01 -0.10200377751E+02  0.52276837891E+01  0.11630775679E+02  0.00000000000E+00 0. -1.
</event>
<event>
 8    1  0.1271559E-006  0.9118800E+02  0.7816164E-02  0.1184000E+00
        -11   -1    0    0    0    0  0.00000000000E+00  0.00000000000E+00  0.45593999997E+02  0.45594000000E+02  0.51100000000E-03 0. -1.
         11   -1    0    0    0    0 -0.00000000000E+00 -0.00000000000E+00 -0.45593999997E+02  0.45594000000E+02  0.51100000000E-03 0.  1.
         23    2    1    2    0    0  0.00000000000E+00  0.00000000000E+00  0.00000000000E+00  0.91188000000E+02  0.91188000000E+02 0.  0.
    9900012    2    3    3    0    0  0.32622469470E+02 -0.59451426513E+01 -0.16006537060E+02  0.54367089309E+02  0.40000011698E+02 0.  0.
         12    1    3    3    0    0 -0.32622469470E+02  0.59451426513E+01  0.16006537060E+02  0.36820910691E+02  0.00000000000E+00 0. -1.
         11    1    4    4    0    0  0.60712210063E+01  0.10511620888E+02 -0.11502891319E+01  0.12193320448E+02  0.51100000000E-03 0. -1.
        -11    1    4    4    0    0  0.22430183109E+02 -0.89040655329E+01 -0.20682329733E+02  0.31782924044E+02  0.51100000000E-03 0.  1.
         12    1    4    4    0    0  0.41210653541E+01 -0.75526980062E+01  0.58260818045E+01  0.10390844817E+02  0.00000000000E+00 0. -1.
</event>
<event>
 8    1  0.1271559E-006  0.9118800E+02  0.7816164E-02  0.1184000E+00
        -11   -1    0    0    0    0  0.00000000000E+00  0.00000000000E+00  0.45593999997E+02  0.45594000000E+02  0.51100000000E-03 0. -1.
         11   -1    0    0    0    0 -0.00000000000E+00 -0.00000000000E+00 -0.45593999997E+02  0.45594000000E+02  0.51100000000E-03 0.  1.
         23    2    1    2    0    0 -0.35527136788E-14  0.00000000000E+00 -0.35527136788E-14  0.91188000000E+02  0.91188000000E+02 0.  0.
    9900012    2    3    3    0    0  0.21368916492E+02  0.26650616108E+02  0.13743741913E+02  0.54367131288E+02  0.40000107396E+02 0.  0.
        -12    1    3    3    0    0 -0.21368916492E+02 -0.26650616108E+02 -0.13743741913E+02  0.36820868712E+02  0.00000000000E+00 0.  1.
         11    1    4    4    0    0  0.37404634905E+01  0.71216926058E+01  0.31914248464E+01  0.86541761887E+01  0.51100000000E-03 0. -1.
        -11    1    4    4    0    0  0.14453456164E+01  0.10493590334E+02  0.21655345250E+02  0.24107227966E+02  0.51100000000E-03 0.  1.
        -12    1    4    4    0    0  0.16183107385E+02  0.90353331679E+01 -0.11103028183E+02  0.21605727132E+02  0.00000000000E+00 0.  1.
</event>
<event>
 8    1  0.1271559E-006  0.9118800E+02  0.7816164E-02  0.1184000E+00
        -11   -1    0    0    0    0  0.00000000000E+00  0.00000000000E+00  0.45593999997E+02  0.45594000000E+02  0.51100000000E-03 0. -1.
         11   -1    0    0    0    0 -0.00000000000E+00 -0.00000000000E+00 -0.45593999997E+02  0.45594000000E+02  0.51100000000E-03 0.  1.
         23    2    1    2    0    0 -0.71054273576E-14  0.17763568394E-14  0.00000000000E+00  0.91188000000E+02  0.91188000000E+02 0.  0.
    9900012    2    3    3    0    0 -0.32764585857E+02 -0.10701278070E+02  0.12951656950E+02  0.54367070402E+02  0.39999968596E+02 0.  0.
        -12    1    3    3    0    0  0.32764585857E+02  0.10701278070E+02 -0.12951656950E+02  0.36820929598E+02  0.00000000000E+00 0.  1.
         11    1    4    4    0    0  0.35219041841E+01  0.20582497811E+01 -0.17573941318E+01  0.44416928798E+01  0.51100000000E-03 0. -1.
        -11    1    4    4    0    0  0.36717818511E+01 -0.48292849060E+01 -0.12131497994E+01  0.61867364065E+01  0.51100000000E-03 0.  1.
         12    1    4    4    0    0 -0.39958271892E+02 -0.79302429446E+01  0.15922200881E+02  0.43738641116E+02  0.00000000000E+00 0. -1.
</event>
<event>
 8    1  0.1271559E-006  0.9118800E+02  0.7816164E-02  0.1184000E+00
        -11   -1    0    0    0    0  0.00000000000E+00  0.00000000000E+00  0.45593999997E+02  0.45594000000E+02  0.51100000000E-03 0. -1.
         11   -1    0    0    0    0 -0.00000000000E+00 -0.00000000000E+00 -0.45593999997E+02  0.45594000000E+02  0.51100000000E-03 0.  1.
         23    2    1    2    0    0  0.00000000000E+00  0.00000000000E+00  0.17763568394E-14  0.91188000000E+02  0.91188000000E+02 0.  0.
    9900012    2    3    3    0    0  0.99499542450E+01  0.33560154929E+02  0.11423413280E+02  0.54367082585E+02  0.39999996369E+02 0.  0.
         12    1    3    3    0    0 -0.99499542450E+01 -0.33560154929E+02 -0.11423413280E+02  0.36820917415E+02  0.00000000000E+00 0. -1.
         11    1    4    4    0    0 -0.62123859243E+01 -0.55729471727E+01  0.64127061681E+01  0.10524936091E+02  0.51100000000E-03 0. -1.
        -11    1    4    4    0    0  0.16579560322E+02  0.36837260124E+02  0.67175463801E+01  0.40951080370E+02  0.51100000000E-03 0.  1.
        -12    1    4    4    0    0 -0.41722015249E+00  0.22958419778E+01 -0.17068392683E+01  0.28910661235E+01  0.00000000000E+00 0.  1.
</event>
<event>
 8    1  0.1271559E-006  0.9118800E+02  0.7816164E-02  0.1184000E+00
        -11   -1    0    0    0    0  0.00000000000E+00  0.00000000000E+00  0.45593999997E+02  0.45594000000E+02  0.51100000000E-03 0.  1.
         11   -1    0    0    0    0 -0.00000000000E+00 -0.00000000000E+00 -0.45593999997E+02  0.45594000000E+02  0.51100000000E-03 0. -1.
         23    2    1    2    0    0  0.17763568394E-14  0.66613381478E-15  0.71054273576E-14  0.91188000000E+02  0.91188000000E+02 0.  0.
    9900012    2    3    3    0    0 -0.46169594015E+01  0.88150992886E+00 -0.36519657654E+02  0.54367098747E+02  0.40000033214E+02 0.  0.
        -12    1    3    3    0    0  0.46169594015E+01 -0.88150992886E+00  0.36519657654E+02  0.36820901253E+02  0.00000000000E+00 0.  1.
         11    1    4    4    0    0 -0.88996309590E+01 -0.91017888348E+01 -0.36623566573E+02  0.38772820634E+02  0.51100000000E-03 0. -1.
        -11    1    4    4    0    0 -0.17570669614E+01 -0.26075096331E+00 -0.28340954335E+01  0.33447529892E+01  0.51100000000E-03 0.  1.
         12    1    4    4    0    0  0.60397385189E+01  0.10244049727E+02  0.29380043517E+01  0.12249525124E+02  0.00000000000E+00 0. -1.
</event>
<event>
 8    1  0.1271559E-006  0.9118800E+02  0.7816164E-02  0.1184000E+00
        -11   -1    0    0    0    0  0.00000000000E+00  0.00000000000E+00  0.45593999997E+02  0.45594000000E+02  0.51100000000E-03 0. -1.
         11   -1    0    0    0    0 -0.00000000000E+00 -0.00000000000E+00 -0.45593999997E+02  0.45594000000E+02  0.51100000000E-03 0.  1.
         23    2    1    2    0    0  0.00000000000E+00 -0.88817841970E-15 -0.17763568394E-14  0.91188000000E+02  0.91188000000E+02 0.  0.
    9900012    2    3    3    0    0  0.32712218627E+02  0.59597342266E+01  0.15816853216E+02  0.54367074900E+02  0.39999978850E+02 0.  0.
        -12    1    3    3    0    0 -0.32712218627E+02 -0.59597342266E+01 -0.15816853216E+02  0.36820925100E+02  0.00000000000E+00 0.  1.
         11    1    4    4    0    0  0.11217216296E+02 -0.85529485485E+01  0.93803177947E+01  0.16940166248E+02  0.51100000000E-03 0. -1.
        -11    1    4    4    0    0  0.25198344753E+02  0.48049229991E+01  0.81078734313E+01  0.26903187081E+02  0.51100000000E-03 0.  1.
        -12    1    4    4    0    0 -0.37033424219E+01  0.97077597760E+01 -0.16713380103E+01  0.10523721571E+02  0.00000000000E+00 0.  1.
</event>
<event>
 8    1  0.1271559E-006  0.9118800E+02  0.7816164E-02  0.1184000E+00
        -11   -1    0    0    0    0  0.00000000000E+00  0.00000000000E+00  0.45593999997E+02  0.45594000000E+02  0.51100000000E-03 0.  1.
         11   -1    0    0    0    0 -0.00000000000E+00 -0.00000000000E+00 -0.45593999997E+02  0.45594000000E+02  0.51100000000E-03 0. -1.
         23    2    1    2    0    0 -0.88817841970E-15  0.00000000000E+00  0.00000000000E+00  0.91188000000E+02  0.91188000000E+02 0.  0.
    9900012    2    3    3    0    0 -0.37676807062E+01 -0.33367114954E+02  0.15106972067E+02  0.54367076827E+02  0.39999983243E+02 0.  0.
         12    1    3    3    0    0  0.37676807062E+01  0.33367114954E+02 -0.15106972067E+02  0.36820923173E+02  0.00000000000E+00 0. -1.
         11    1    4    4    0    0  0.12702097513E+01 -0.27979623180E+01 -0.31377676169E+01  0.43917663672E+01  0.51100000000E-03 0. -1.
        -11    1    4    4    0    0 -0.16756376873E+02 -0.87173145251E+01  0.16564600251E+02  0.25122772940E+02  0.51100000000E-03 0.  1.
        -12    1    4    4    0    0  0.11718486415E+02 -0.21851838111E+02  0.16801394327E+01  0.24852537520E+02  0.00000000000E+00 0.  1.
</event>
<event>
 8    1  0.1271559E-006  0.9118800E+02  0.7816164E-02  0.1184000E+00
        -11   -1    0    0    0    0  0.00000000000E+00  0.00000000000E+00  0.45593999997E+02  0.45594000000E+02  0.51100000000E-03 0.  1.
         11   -1    0    0    0    0 -0.00000000000E+00 -0.00000000000E+00 -0.45593999997E+02  0.45594000000E+02  0.51100000000E-03 0. -1.
         23    2    1    2    0    0  0.00000000000E+00  0.35527136788E-14 -0.17763568394E-14  0.91188000000E+02  0.91188000000E+02 0.  0.
    9900012    2    3    3    0    0 -0.32124362752E+02  0.16908388563E+02 -0.61571226921E+01  0.54367103136E+02  0.40000043219E+02 0.  0.
        -12    1    3    3    0    0  0.32124362752E+02 -0.16908388563E+02  0.61571226921E+01  0.36820896864E+02  0.00000000000E+00 0.  1.
         11    1    4    4    0    0 -0.64460623430E+01  0.57085103451E+01 -0.18031658537E+02  0.19981979881E+02  0.51100000000E-03 0. -1.
        -11    1    4    4    0    0 -0.21167049689E+02  0.12512517834E+02  0.35740184244E+01  0.24847146779E+02  0.51100000000E-03 0.  1.
        -12    1    4    4    0    0 -0.45112507199E+01 -0.13126396161E+01  0.83005174206E+01  0.95379764766E+01  0.00000000000E+00 0.  1.
</event>
<event>
 8    1  0.1271559E-006  0.9118800E+02  0.7816164E-02  0.1184000E+00
        -11   -1    0    0    0    0  0.00000000000E+00  0.00000000000E+00  0.45593999997E+02  0.45594000000E+02  0.51100000000E-03 0.  1.
         11   -1    0    0    0    0 -0.00000000000E+00 -0.00000000000E+00 -0.45593999997E+02  0.45594000000E+02  0.51100000000E-03 0. -1.
         23    2    1    2    0    0  0.13877787808E-15  0.35527136788E-14  0.35527136788E-14  0.91188000000E+02  0.91188000000E+02 0.  0.
    9900012    2    3    3    0    0 -0.19110399149E+00 -0.26936695753E+02 -0.25102945990E+02  0.54367082084E+02  0.39999995227E+02 0.  0.
        -12    1    3    3    0    0  0.19110399149E+00  0.26936695753E+02  0.25102945990E+02  0.36820917916E+02  0.00000000000E+00 0.  1.
         11    1    4    4    0    0  0.86402846896E+01 -0.48730446169E+01 -0.70444325600E+01  0.12166557184E+02  0.51100000000E-03 0. -1.
        -11    1    4    4    0    0  0.47165490532E+01 -0.23172755731E+02 -0.69569396735E+01  0.24649978763E+02  0.51100000000E-03 0.  1.
        -12    1    4    4    0    0 -0.13547937734E+02  0.11091045948E+01 -0.11101573756E+02  0.17550546137E+02  0.00000000000E+00 0.  1.
</event>
<event>
 8    1  0.1271559E-006  0.9118800E+02  0.7816164E-02  0.1184000E+00
        -11   -1    0    0    0    0  0.00000000000E+00  0.00000000000E+00  0.45593999997E+02  0.45594000000E+02  0.51100000000E-03 0.  1.
         11   -1    0    0    0    0 -0.00000000000E+00 -0.00000000000E+00 -0.45593999997E+02  0.45594000000E+02  0.51100000000E-03 0. -1.
         23    2    1    2    0    0 -0.71054273576E-14  0.35527136788E-14  0.26645352591E-14  0.91188000000E+02  0.91188000000E+02 0.  0.
    9900012    2    3    3    0    0 -0.24804541347E+02  0.26647525000E+02  0.55159301948E+01  0.54367063755E+02  0.39999953442E+02 0.  0.
         12    1    3    3    0    0  0.24804541347E+02 -0.26647525000E+02 -0.55159301948E+01  0.36820936245E+02  0.00000000000E+00 0. -1.
         11    1    4    4    0    0  0.27704727131E+01 -0.36568857528E+01 -0.86895167478E+01  0.98262929956E+01  0.51100000000E-03 0. -1.
        -11    1    4    4    0    0 -0.76718152256E+01  0.48039334844E+01 -0.37241580829E+00  0.90594271107E+01  0.51100000000E-03 0.  1.
         12    1    4    4    0    0 -0.19903198834E+02  0.25500477268E+02  0.14577862751E+02  0.35481343649E+02  0.00000000000E+00 0. -1.
</event>
<event>
 8    1  0.1271559E-006  0.9118800E+02  0.7816164E-02  0.1184000E+00
        -11   -1    0    0    0    0  0.00000000000E+00  0.00000000000E+00  0.45593999997E+02  0.45594000000E+02  0.51100000000E-03 0.  1.
         11   -1    0    0    0    0 -0.00000000000E+00 -0.00000000000E+00 -0.45593999997E+02  0.45594000000E+02  0.51100000000E-03 0. -1.
         23    2    1    2    0    0 -0.35527136788E-14  0.00000000000E+00  0.00000000000E+00  0.91188000000E+02  0.91188000000E+02 0.  0.
    9900012    2    3    3    0    0  0.16726981161E+02 -0.16878306639E+02  0.28126697939E+02  0.54367078356E+02  0.39999986727E+02 0.  0.
         12    1    3    3    0    0 -0.16726981161E+02  0.16878306639E+02 -0.28126697939E+02  0.36820921644E+02  0.00000000000E+00 0. -1.
         11    1    4    4    0    0 -0.32444344364E+01  0.17848333195E+01  0.10086704316E+02  0.10744933178E+02  0.51100000000E-03 0. -1.
        -11    1    4    4    0    0  0.91693706846E+01 -0.15100185824E+02  0.24755917464E+02  0.30412964677E+02  0.51100000000E-03 0.  1.
         12    1    4    4    0    0  0.10802044913E+02 -0.35629541348E+01 -0.67159238406E+01  0.13209180501E+02  0.00000000000E+00 0. -1.
</event>
<event>
 8    1  0.1271559E-006  0.9118800E+02  0.7816164E-02  0.1184000E+00
        -11   -1    0    0    0    0  0.00000000000E+00  0.00000000000E+00  0.45593999997E+02  0.45594000000E+02  0.51100000000E-03 0. -1.
         11   -1    0    0    0    0 -0.00000000000E+00 -0.00000000000E+00 -0.45593999997E+02  0.45594000000E+02  0.51100000000E-03 0.  1.
         23    2    1    2    0    0  0.00000000000E+00 -0.35527136788E-14 -0.35527136788E-14  0.91188000000E+02  0.91188000000E+02 0.  0.
    9900012    2    3    3    0    0  0.14052695896E+02  0.25527316015E+02  0.22509045527E+02  0.54367092143E+02  0.40000018158E+02 0.  0.
        -12    1    3    3    0    0 -0.14052695896E+02 -0.25527316015E+02 -0.22509045527E+02  0.36820907857E+02  0.00000000000E+00 0.  1.
         11    1    4    4    0    0  0.93430077952E+01  0.58276132131E+01  0.22278373408E+02  0.24851132618E+02  0.51100000000E-03 0. -1.
        -11    1    4    4    0    0  0.81239005512E+01  0.21162791850E+01 -0.62518210954E+01  0.10467170822E+02  0.51100000000E-03 0.  1.
        -12    1    4    4    0    0 -0.34142124506E+01  0.17583423617E+02  0.64824932137E+01  0.19048788703E+02  0.00000000000E+00 0.  1.
</event>
<event>
 8    1  0.1271559E-006  0.9118800E+02  0.7816164E-02  0.1184000E+00
        -11   -1    0    0    0    0  0.00000000000E+00  0.00000000000E+00  0.45593999997E+02  0.45594000000E+02  0.51100000000E-03 0. -1.
         11   -1    0    0    0    0 -0.00000000000E+00 -0.00000000000E+00 -0.45593999997E+02  0.45594000000E+02  0.51100000000E-03 0.  1.
         23    2    1    2    0    0 -0.35527136788E-14 -0.17763568394E-14 -0.35527136788E-14  0.91188000000E+02  0.91188000000E+02 0.  0.
    9900012    2    3    3    0    0 -0.30401777607E+02  0.11286300122E+02  0.17439299034E+02  0.54367111868E+02  0.40000063125E+02 0.  0.
        -12    1    3    3    0    0  0.30401777607E+02 -0.11286300122E+02 -0.17439299034E+02  0.36820888132E+02  0.00000000000E+00 0.  1.
         11    1    4    4    0    0 -0.19426940716E+01  0.50070012993E+01 -0.52863229683E+01  0.75358697609E+01  0.51100000000E-03 0. -1.
        -11    1    4    4    0    0 -0.24667156915E+02 -0.46655799586E+01  0.24540734285E+02  0.35106750151E+02  0.51100000000E-03 0.  1.
        -12    1    4    4    0    0 -0.37919266195E+01  0.10944878781E+02 -0.18151122836E+01  0.11724491956E+02  0.00000000000E+00 0.  1.
</event>
<event>
 8    1  0.1271559E-006  0.9118800E+02  0.7816164E-02  0.1184000E+00
        -11   -1    0    0    0    0  0.00000000000E+00  0.00000000000E+00  0.45593999997E+02  0.45594000000E+02  0.51100000000E-03 0.  1.
         11   -1    0    0    0    0 -0.00000000000E+00 -0.00000000000E+00 -0.45593999997E+02  0.45594000000E+02  0.51100000000E-03 0. -1.
         23    2    1    2    0    0  0.17763568394E-14  0.00000000000E+00  0.35527136788E-14  0.91188000000E+02  0.91188000000E+02 0.  0.
    9900012    2    3    3    0    0 -0.10694955103E+02  0.15954562503E+02 -0.31414192729E+02  0.54367059841E+02  0.39999944520E+02 0.  0.
        -12    1    3    3    0    0  0.10694955103E+02 -0.15954562503E+02  0.31414192729E+02  0.36820940159E+02  0.00000000000E+00 0.  1.
         11    1    4    4    0    0 -0.49618546668E+01 -0.19228644468E+00 -0.39753878049E+01  0.63608713453E+01  0.51100000000E-03 0. -1.
        -11    1    4    4    0    0 -0.15869826165E+02 -0.33130098261E+01 -0.58796250486E+01  0.17245214049E+02  0.51100000000E-03 0.  1.
         12    1    4    4    0    0  0.10136725729E+02  0.19459858774E+02 -0.21559179876E+02  0.30760974447E+02  0.00000000000E+00 0. -1.
</event>
<event>
 8    1  0.1271559E-006  0.9118800E+02  0.7816164E-02  0.1184000E+00
        -11   -1    0    0    0    0  0.00000000000E+00  0.00000000000E+00  0.45593999997E+02  0.45594000000E+02  0.51100000000E-03 0. -1.
         11   -1    0    0    0    0 -0.00000000000E+00 -0.00000000000E+00 -0.45593999997E+02  0.45594000000E+02  0.51100000000E-03 0.  1.
         23    2    1    2    0    0  0.00000000000E+00  0.88817841970E-15 -0.17763568394E-14  0.91188000000E+02  0.91188000000E+02 0.  0.
    9900012    2    3    3    0    0 -0.35118798130E+02 -0.66234749768E+01  0.88644792337E+01  0.54367090248E+02  0.40000013839E+02 0.  0.
        -12    1    3    3    0    0  0.35118798130E+02  0.66234749768E+01 -0.88644792337E+01  0.36820909752E+02  0.00000000000E+00 0.  1.
         11    1    4    4    0    0 -0.62924538397E+01  0.54418649545E+00  0.39347750785E+01  0.74413419117E+01  0.51100000000E-03 0. -1.
        -11    1    4    4    0    0 -0.17022008686E+02 -0.14104835850E+02 -0.11999123591E+02  0.25153014556E+02  0.51100000000E-03 0.  1.
        -12    1    4    4    0    0 -0.11804335604E+02  0.69371743773E+01  0.16928827746E+02  0.21772733780E+02  0.00000000000E+00 0.  1.
</event>
<event>
 8    1  0.1271559E-006  0.9118800E+02  0.7816164E-02  0.1184000E+00
        -11   -1    0    0    0    0  0.00000000000E+00  0.00000000000E+00  0.45593999997E+02  0.45594000000E+02  0.51100000000E-03 0.  1.
         11   -1    0    0    0    0 -0.00000000000E+00 -0.00000000000E+00 -0.45593999997E+02  0.45594000000E+02  0.51100000000E-03 0. -1.
         23    2    1    2    0    0 -0.17763568394E-14  0.35527136788E-14 -0.17763568394E-14  0.91188000000E+02  0.91188000000E+02 0.  0.
    9900012    2    3    3    0    0  0.11898864157E+02 -0.31870000432E+02 -0.14088971901E+02  0.54367095272E+02  0.40000025291E+02 0.  0.
         12    1    3    3    0    0 -0.11898864157E+02  0.31870000432E+02  0.14088971901E+02  0.36820904728E+02  0.00000000000E+00 0. -1.
         11    1    4    4    0    0  0.18058444724E+02 -0.58681130986E+00 -0.26244419320E+01  0.18257586617E+02  0.51100000000E-03 0. -1.
        -11    1    4    4    0    0  0.14580256180E+00 -0.16597211646E+01  0.23010600598E+01  0.28409171743E+01  0.51100000000E-03 0.  1.
         12    1    4    4    0    0 -0.63053831288E+01 -0.29623467958E+02 -0.13765590029E+02  0.33268591481E+02  0.00000000000E+00 0. -1.
</event>
<event>
 8    1  0.1271559E-006  0.9118800E+02  0.7816164E-02  0.1184000E+00
        -11   -1    0    0    0    0  0.00000000000E+00  0.00000000000E+00  0.45593999997E+02  0.45594000000E+02  0.51100000000E-03 0. -1.
         11   -1    0    0    0    0 -0.00000000000E+00 -0.00000000000E+00 -0.45593999997E+02  0.45594000000E+02  0.51100000000E-03 0.  1.
         23    2    1    2    0    0  0.00000000000E+00  0.00000000000E+00  0.00000000000E+00  0.91188000000E+02  0.91188000000E+02 0.  0.
    9900012    2    3    3    0    0 -0.34497452459E+02  0.98549517927E+01  0.82816504815E+01  0.54367081547E+02  0.39999994004E+02 0.  0.
         12    1    3    3    0    0  0.34497452459E+02 -0.98549517927E+01 -0.82816504815E+01  0.36820918453E+02  0.00000000000E+00 0. -1.
         11    1    4    4    0    0  0.28943585882E+01  0.19240059432E+00  0.29799028629E+01  0.41586236857E+01  0.51100000000E-03 0. -1.
        -11    1    4    4    0    0  0.32641167496E+01  0.54502153940E+01  0.68020437114E+01  0.93073683127E+01  0.51100000000E-03 0.  1.
        -12    1    4    4    0    0 -0.40655927797E+02  0.42123358044E+01 -0.15002960929E+01  0.40901089549E+02  0.00000000000E+00 0.  1.
</event>
<event>
 8    1  0.1271559E-006  0.9118800E+02  0.7816164E-02  0.1184000E+00
        -11   -1    0    0    0    0  0.00000000000E+00  0.00000000000E+00  0.45593999997E+02  0.45594000000E+02  0.51100000000E-03 0. -1.
         11   -1    0    0    0    0 -0.00000000000E+00 -0.00000000000E+00 -0.45593999997E+02  0.45594000000E+02  0.51100000000E-03 0.  1.
         23    2    1    2    0    0  0.00000000000E+00  0.00000000000E+00 -0.32196467714E-14  0.91188000000E+02  0.91188000000E+02 0.  0.
    9900012    2    3    3    0    0 -0.24586744978E+02  0.27405082797E+02 -0.48228602258E+00  0.54367093010E+02  0.40000020136E+02 0.  0.
         12    1    3    3    0    0  0.24586744978E+02 -0.27405082797E+02  0.48228602258E+00  0.36820906990E+02  0.00000000000E+00 0. -1.
         11    1    4    4    0    0 -0.79511118910E+01  0.12732510504E+02  0.18202337044E+02  0.23593687252E+02  0.51100000000E-03 0. -1.
        -11    1    4    4    0    0 -0.83591716322E+00  0.64237154074E+01 -0.65437471620E+01  0.92077958448E+01  0.51100000000E-03 0.  1.
         12    1    4    4    0    0 -0.15799715924E+02  0.82488568863E+01 -0.12140875905E+02  0.21565609913E+02  0.00000000000E+00 0. -1.
</event>
<event>
 8    1  0.1271559E-006  0.9118800E+02  0.7816164E-02  0.1184000E+00
        -11   -1    0    0    0    0  0.00000000000E+00  0.00000000000E+00  0.45593999997E+02  0.45594000000E+02  0.51100000000E-03 0. -1.
         11   -1    0    0    0    0 -0.00000000000E+00 -0.00000000000E+00 -0.45593999997E+02  0.45594000000E+02  0.51100000000E-03 0.  1.
         23    2    1    2    0    0 -0.35527136788E-14  0.35527136788E-14  0.00000000000E+00  0.91188000000E+02  0.91188000000E+02 0.  0.
    9900012    2    3    3    0    0 -0.27814978011E+02 -0.23174970820E+02  0.67102938583E+01  0.54367077715E+02  0.39999985267E+02 0.  0.
        -12    1    3    3    0    0  0.27814978011E+02  0.23174970820E+02 -0.67102938583E+01  0.36820922285E+02  0.00000000000E+00 0.  1.
         11    1    4    4    0    0 -0.58760417594E+01  0.18220296356E+01 -0.32019180319E+01  0.69354118908E+01  0.51100000000E-03 0. -1.
        -11    1    4    4    0    0  0.32298291387E+01 -0.16181292089E+02 -0.45206663495E+01  0.17108548578E+02  0.51100000000E-03 0.  1.
         12    1    4    4    0    0 -0.25168765390E+02 -0.88157083670E+01  0.14432878240E+02  0.30323117247E+02  0.00000000000E+00 0. -1.
</event>
<event>
 8    1  0.1271559E-006  0.9118800E+02  0.7816164E-02  0.1184000E+00
        -11   -1    0    0    0    0  0.00000000000E+00  0.00000000000E+00  0.45593999997E+02  0.45594000000E+02  0.51100000000E-03 0.  1.
         11   -1    0    0    0    0 -0.00000000000E+00 -0.00000000000E+00 -0.45593999997E+02  0.45594000000E+02  0.51100000000E-03 0. -1.
         23    2    1    2    0    0  0.00000000000E+00 -0.44408920985E-15  0.00000000000E+00  0.91188000000E+02  0.91188000000E+02 0.  0.
    9900012    2    3    3    0    0  0.17764750473E+02  0.15596202009E+01  0.32214300983E+02  0.54367082543E+02  0.39999996274E+02 0.  0.
         12    1    3    3    0    0 -0.17764750473E+02 -0.15596202009E+01 -0.32214300983E+02  0.36820917457E+02  0.00000000000E+00 0. -1.
         11    1    4    4    0    0  0.19682771560E+02  0.68206240791E+01  0.69624457132E+01  0.21963789739E+02  0.51100000000E-03 0. -1.
        -11    1    4    4    0    0 -0.58905712849E+01 -0.10294701418E+02  0.88687049964E+01  0.14809916810E+02  0.51100000000E-03 0.  1.
        -12    1    4    4    0    0  0.39725501980E+01  0.50336975401E+01  0.16383150273E+02  0.17593375994E+02  0.00000000000E+00 0.  1.
</event>
<event>
 8    1  0.1271559E-006  0.9118800E+02  0.7816164E-02  0.1184000E+00
        -11   -1    0    0    0    0  0.00000000000E+00  0.00000000000E+00  0.45593999997E+02  0.45594000000E+02  0.51100000000E-03 0. -1.
         11   -1    0    0    0    0 -0.00000000000E+00 -0.00000000000E+00 -0.45593999997E+02  0.45594000000E+02  0.51100000000E-03 0.  1.
         23    2    1    2    0    0  0.00000000000E+00 -0.44408920985E-15  0.71054273576E-14  0.91188000000E+02  0.91188000000E+02 0.  0.
    9900012    2    3    3    0    0 -0.12203666361E+02  0.15813456783E+01  0.34703734591E+02  0.54367091247E+02  0.40000016117E+02 0.  0.
        -12    1    3    3    0    0  0.12203666361E+02 -0.15813456783E+01 -0.34703734591E+02  0.36820908753E+02  0.00000000000E+00 0.  1.
         11    1    4    4    0    0  0.96305035491E+01  0.96666788685E+01  0.13239479381E+02  0.19012498350E+02  0.51100000000E-03 0. -1.
        -11    1    4    4    0    0  0.15305850882E+01  0.19717872245E+01  0.31049249799E+01  0.39838668355E+01  0.51100000000E-03 0.  1.
        -12    1    4    4    0    0 -0.23364754999E+02 -0.10057120415E+02  0.18359330230E+02  0.31370726062E+02  0.00000000000E+00 0.  1.
</event>
<event>
 8    1  0.1271559E-006  0.9118800E+02  0.7816164E-02  0.1184000E+00
        -11   -1    0    0    0    0  0.00000000000E+00  0.00000000000E+00  0.45593999997E+02  0.45594000000E+02  0.51100000000E-03 0.  1.
         11   -1    0    0    0    0 -0.00000000000E+00 -0.00000000000E+00 -0.45593999997E+02  0.45594000000E+02  0.51100000000E-03 0. -1.
         23    2    1    2    0    0  0.00000000000E+00 -0.44408920985E-15  0.71054273576E-14  0.91188000000E+02  0.91188000000E+02 0.  0.
    9900012    2    3    3    0    0 -0.12679743321E+02  0.10051419666E+01  0.34554226428E+02  0.54367071643E+02  0.39999971424E+02 0.  0.
         12    1    3    3    0    0  0.12679743321E+02 -0.10051419666E+01 -0.34554226428E+02  0.36820928357E+02  0.00000000000E+00 0. -1.
         11    1    4    4    0    0 -0.14169815063E+02  0.51672855148E+01  0.19497348778E+01  0.15208088798E+02  0.51100000000E-03 0. -1.
        -11    1    4    4    0    0 -0.52276799342E+01  0.64173474903E+01  0.78235800330E+01  0.11389442089E+02  0.51100000000E-03 0.  1.
         12    1    4    4    0    0  0.67177516762E+01 -0.10579491039E+02  0.24780911517E+02  0.27769540756E+02  0.00000000000E+00 0. -1.
</event>
<event>
 8    1  0.1271559E-006  0.9118800E+02  0.7816164E-02  0.1184000E+00
        -11   -1    0    0    0    0  0.00000000000E+00  0.00000000000E+00  0.45593999997E+02  0.45594000000E+02  0.51100000000E-03 0. -1.
         11   -1    0    0    0    0 -0.00000000000E+00 -0.00000000000E+00 -0.45593999997E+02  0.45594000000E+02  0.51100000000E-03 0.  1.
         23    2    1    2    0    0  0.00000000000E+00  0.00000000000E+00  0.00000000000E+00  0.91188000000E+02  0.91188000000E+02 0.  0.
    9900012    2    3    3    0    0 -0.32633312473E+01 -0.33276531491E+02  0.15420884707E+02  0.54367074372E+02  0.39999977646E+02 0.  0.
        -12    1    3    3    0    0  0.32633312473E+01  0.33276531491E+02 -0.15420884707E+02  0.36820925628E+02  0.00000000000E+00 0.  1.
         11    1    4    4    0    0 -0.11981012128E+02 -0.19025374796E+02  0.54565807437E+01  0.23136201317E+02  0.51100000000E-03 0. -1.
        -11    1    4    4    0    0  0.76231092869E+01 -0.12109510397E+02 -0.56855193622E+01  0.15397310412E+02  0.51100000000E-03 0.  1.
        -12    1    4    4    0    0  0.10945715935E+01 -0.21416462991E+01  0.15649823326E+02  0.15833562643E+02  0.00000000000E+00 0.  1.
</event>
<event>
 8    1  0.1271559E-006  0.9118800E+02  0.7816164E-02  0.1184000E+00
        -11   -1    0    0    0    0  0.00000000000E+00  0.00000000000E+00  0.45593999997E+02  0.45594000000E+02  0.51100000000E-03 0. -1.
         11   -1    0    0    0    0 -0.00000000000E+00 -0.00000000000E+00 -0.45593999997E+02  0.45594000000E+02  0.51100000000E-03 0.  1.
         23    2    1    2    0    0  0.71054273576E-14  0.00000000000E+00  0.00000000000E+00  0.91188000000E+02  0.91188000000E+02 0.  0.
    9900012    2    3    3    0    0  0.35041192022E+02 -0.20700962156E+01 -0.11117850866E+02  0.54367122165E+02  0.40000086599E+02 0.  0.
         12    1    3    3    0    0 -0.35041192022E+02  0.20700962156E+01  0.11117850866E+02  0.36820877835E+02  0.00000000000E+00 0. -1.
         11    1    4    4    0    0  0.12944492291E+02 -0.27975901328E+01  0.47657858886E+01  0.14074768440E+02  0.51100000000E-03 0. -1.
        -11    1    4    4    0    0  0.28460628023E+02 -0.41954141425E+01 -0.10561577110E+02  0.30645648281E+02  0.51100000000E-03 0.  1.
         12    1    4    4    0    0 -0.63639282918E+01  0.49229080596E+01 -0.53220596447E+01  0.96467054443E+01  0.00000000000E+00 0. -1.
</event>
<event>
 8    1  0.1271559E-006  0.9118800E+02  0.7816164E-02  0.1184000E+00
        -11   -1    0    0    0    0  0.00000000000E+00  0.00000000000E+00  0.45593999997E+02  0.45594000000E+02  0.51100000000E-03 0.  1.
         11   -1    0    0    0    0 -0.00000000000E+00 -0.00000000000E+00 -0.45593999997E+02  0.45594000000E+02  0.51100000000E-03 0. -1.
         23    2    1    2    0    0  0.17763568394E-14  0.00000000000E+00  0.71054273576E-14  0.91188000000E+02  0.91188000000E+02 0.  0.
    9900012    2    3    3    0    0  0.10852015071E+02 -0.20284506978E+02 -0.28749821380E+02  0.54367086326E+02  0.40000004897E+02 0.  0.
        -12    1    3    3    0    0 -0.10852015071E+02  0.20284506978E+02  0.28749821380E+02  0.36820913674E+02  0.00000000000E+00 0.  1.
         11    1    4    4    0    0  0.59108583626E+01 -0.25305727704E+02 -0.34428585488E+02  0.43135201404E+02  0.51100000000E-03 0. -1.
        -11    1    4    4    0    0  0.59155314149E+00  0.61029851675E+00  0.49176097412E+01  0.49905195347E+01  0.51100000000E-03 0.  1.
        -12    1    4    4    0    0  0.43496035667E+01  0.44109222094E+01  0.76115436729E+00  0.62413653871E+01  0.00000000000E+00 0.  1.
</event>
<event>
 8    1  0.1271559E-006  0.9118800E+02  0.7816164E-02  0.1184000E+00
        -11   -1    0    0    0    0  0.00000000000E+00  0.00000000000E+00  0.45593999997E+02  0.45594000000E+02  0.51100000000E-03 0.  1.
         11   -1    0    0    0    0 -0.00000000000E+00 -0.00000000000E+00 -0.45593999997E+02  0.45594000000E+02  0.51100000000E-03 0. -1.
         23    2    1    2    0    0  0.17763568394E-14  0.00000000000E+00 -0.35527136788E-14  0.91188000000E+02  0.91188000000E+02 0.  0.
    9900012    2    3    3    0    0 -0.13684936359E+02  0.21801752247E+02  0.26328422141E+02  0.54367086152E+02  0.40000004500E+02 0.  0.
         12    1    3    3    0    0  0.13684936359E+02 -0.21801752247E+02 -0.26328422141E+02  0.36820913848E+02  0.00000000000E+00 0. -1.
         11    1    4    4    0    0  0.16494669199E+01 -0.56031546077E+01  0.47327960995E+01  0.75176752961E+01  0.51100000000E-03 0. -1.
        -11    1    4    4    0    0 -0.94685447182E+01 -0.68744380348E+00  0.14425416479E+02  0.17269005731E+02  0.51100000000E-03 0.  1.
         12    1    4    4    0    0 -0.58658585608E+01  0.28092350659E+02  0.71702095618E+01  0.29580405125E+02  0.00000000000E+00 0. -1.
</event>
<event>
 8    1  0.1271559E-006  0.9118800E+02  0.7816164E-02  0.1184000E+00
        -11   -1    0    0    0    0  0.00000000000E+00  0.00000000000E+00  0.45593999997E+02  0.45594000000E+02  0.51100000000E-03 0.  1.
         11   -1    0    0    0    0 -0.00000000000E+00 -0.00000000000E+00 -0.45593999997E+02  0.45594000000E+02  0.51100000000E-03 0. -1.
         23    2    1    2    0    0 -0.17763568394E-14  0.00000000000E+00  0.00000000000E+00  0.91188000000E+02  0.91188000000E+02 0.  0.
    9900012    2    3    3    0    0  0.79345649481E+01 -0.23424623684E+02  0.27278374096E+02  0.54367081911E+02  0.39999994831E+02 0.  0.
         12    1    3    3    0    0 -0.79345649481E+01  0.23424623684E+02 -0.27278374096E+02  0.36820918089E+02  0.00000000000E+00 0. -1.
         11    1    4    4    0    0  0.93997374712E+01 -0.15247980257E+02  0.16065607882E+02  0.24061581896E+02  0.51100000000E-03 0. -1.
        -11    1    4    4    0    0  0.98525504078E+01  0.30330142946E+01 -0.82113784599E+00  0.10341479240E+02  0.51100000000E-03 0.  1.
         12    1    4    4    0    0 -0.11317722931E+02 -0.11209657722E+02  0.12033904060E+02  0.19964020775E+02  0.00000000000E+00 0. -1.
</event>
<event>
 8    1  0.1271559E-006  0.9118800E+02  0.7816164E-02  0.1184000E+00
        -11   -1    0    0    0    0  0.00000000000E+00  0.00000000000E+00  0.45593999997E+02  0.45594000000E+02  0.51100000000E-03 0. -1.
         11   -1    0    0    0    0 -0.00000000000E+00 -0.00000000000E+00 -0.45593999997E+02  0.45594000000E+02  0.51100000000E-03 0.  1.
         23    2    1    2    0    0  0.00000000000E+00  0.00000000000E+00  0.00000000000E+00  0.91188000000E+02  0.91188000000E+02 0.  0.
    9900012    2    3    3    0    0  0.21313986906E+02 -0.74885272448E+01  0.29076037625E+02  0.54367081460E+02  0.39999993805E+02 0.  0.
        -12    1    3    3    0    0 -0.21313986906E+02  0.74885272448E+01 -0.29076037625E+02  0.36820918540E+02  0.00000000000E+00 0.  1.
         11    1    4    4    0    0 -0.58113144662E+01 -0.19003061472E+01  0.39700432116E+00  0.61270018745E+01  0.51100000000E-03 0. -1.
        -11    1    4    4    0    0  0.26480784569E+01 -0.90222818668E+01 -0.11816844144E+01  0.94768279458E+01  0.51100000000E-03 0.  1.
         12    1    4    4    0    0  0.24477222915E+02  0.34340607693E+01  0.29860717719E+02  0.38763251640E+02  0.00000000000E+00 0. -1.
</event>
<event>
 8    1  0.1271559E-006  0.9118800E+02  0.7816164E-02  0.1184000E+00
        -11   -1    0    0    0    0  0.00000000000E+00  0.00000000000E+00  0.45593999997E+02  0.45594000000E+02  0.51100000000E-03 0.  1.
         11   -1    0    0    0    0 -0.00000000000E+00 -0.00000000000E+00 -0.45593999997E+02  0.45594000000E+02  0.51100000000E-03 0. -1.
         23    2    1    2    0    0  0.00000000000E+00 -0.44408920985E-15  0.00000000000E+00  0.91188000000E+02  0.91188000000E+02 0.  0.
    9900012    2    3    3    0    0 -0.15920157404E+02  0.11426200141E+01 -0.33181666821E+02  0.54367081960E+02  0.39999994945E+02 0.  0.
        -12    1    3    3    0    0  0.15920157404E+02 -0.11426200141E+01  0.33181666821E+02  0.36820918040E+02  0.00000000000E+00 0.  1.
         11    1    4    4    0    0  0.62068546580E+00 -0.17119085002E+02 -0.14856083049E+02  0.22674909605E+02  0.51100000000E-03 0. -1.
        -11    1    4    4    0    0 -0.12515428318E+02  0.96966435054E+01 -0.14551183379E+02  0.21503436452E+02  0.51100000000E-03 0.  1.
         12    1    4    4    0    0 -0.40254145516E+01  0.85650615107E+01 -0.37744003929E+01  0.10188735904E+02  0.00000000000E+00 0. -1.
</event>
<event>
 8    1  0.1271559E-006  0.9118800E+02  0.7816164E-02  0.1184000E+00
        -11   -1    0    0    0    0  0.00000000000E+00  0.00000000000E+00  0.45593999997E+02  0.45594000000E+02  0.51100000000E-03 0.  1.
         11   -1    0    0    0    0 -0.00000000000E+00 -0.00000000000E+00 -0.45593999997E+02  0.45594000000E+02  0.51100000000E-03 0. -1.
         23    2    1    2    0    0  0.00000000000E+00  0.17763568394E-14  0.00000000000E+00  0.91188000000E+02  0.91188000000E+02 0.  0.
    9900012    2    3    3    0    0  0.35243471648E+02 -0.94407589272E+01  0.49547286388E+01  0.54367088023E+02  0.40000008766E+02 0.  0.
         12    1    3    3    0    0 -0.35243471648E+02  0.94407589272E+01 -0.49547286388E+01  0.36820911977E+02  0.00000000000E+00 0. -1.
         11    1    4    4    0    0 -0.12078495850E+01  0.77535651465E+01  0.40339634604E+01  0.88232383263E+01  0.51100000000E-03 0. -1.
        -11    1    4    4    0    0  0.25481202094E+02 -0.12767995472E+01  0.44339777877E+01  0.25895598786E+02  0.51100000000E-03 0.  1.
         12    1    4    4    0    0  0.10970119140E+02 -0.15917524527E+02 -0.35132126093E+01  0.19648250910E+02  0.00000000000E+00 0. -1.
</event>
<event>
 8    1  0.1271559E-006  0.9118800E+02  0.7816164E-02  0.1184000E+00
        -11   -1    0    0    0    0  0.00000000000E+00  0.00000000000E+00  0.45593999997E+02  0.45594000000E+02  0.51100000000E-03 0. -1.
         11   -1    0    0    0    0 -0.00000000000E+00 -0.00000000000E+00 -0.45593999997E+02  0.45594000000E+02  0.51100000000E-03 0.  1.
         23    2    1    2    0    0  0.00000000000E+00 -0.35527136788E-14  0.00000000000E+00  0.91188000000E+02  0.91188000000E+02 0.  0.
    9900012    2    3    3    0    0 -0.50894188182E+01 -0.28387004582E+02 -0.22892189488E+02  0.54367128845E+02  0.40000101828E+02 0.  0.
         12    1    3    3    0    0  0.50894188182E+01  0.28387004582E+02  0.22892189488E+02  0.36820871155E+02  0.00000000000E+00 0. -1.
         11    1    4    4    0    0 -0.28482505472E+01 -0.35690123560E+00 -0.41918525195E+01  0.50805056321E+01  0.51100000000E-03 0. -1.
        -11    1    4    4    0    0 -0.74735116392E+01 -0.31767317820E+02 -0.24357517680E+02  0.40722285367E+02  0.51100000000E-03 0.  1.
         12    1    4    4    0    0  0.52323433682E+01  0.37372144740E+01  0.56571807113E+01  0.85643378464E+01  0.00000000000E+00 0. -1.
</event>
<event>
 8    1  0.1271559E-006  0.9118800E+02  0.7816164E-02  0.1184000E+00
        -11   -1    0    0    0    0  0.00000000000E+00  0.00000000000E+00  0.45593999997E+02  0.45594000000E+02  0.51100000000E-03 0.  1.
         11   -1    0    0    0    0 -0.00000000000E+00 -0.00000000000E+00 -0.45593999997E+02  0.45594000000E+02  0.51100000000E-03 0. -1.
         23    2    1    2    0    0 -0.17763568394E-14  0.00000000000E+00  0.00000000000E+00  0.91188000000E+02  0.91188000000E+02 0.  0.
    9900012    2    3    3    0    0 -0.13547688980E+02 -0.18324009103E+02 -0.28921869466E+02  0.54367031521E+02  0.39999879958E+02 0.  0.
        -12    1    3    3    0    0  0.13547688980E+02  0.18324009103E+02  0.28921869466E+02  0.36820968479E+02  0.00000000000E+00 0.  1.
         11    1    4    4    0    0 -0.73338190188E+01 -0.25285678890E+02 -0.15534688287E+02  0.30569216522E+02  0.51100000000E-03 0. -1.
        -11    1    4    4    0    0  0.48586439251E+01 -0.72413535739E-02  0.29448724186E+00  0.48675657391E+01  0.51100000000E-03 0.  1.
         12    1    4    4    0    0 -0.11072513886E+02  0.69689111410E+01 -0.13681668421E+02  0.18930249260E+02  0.00000000000E+00 0. -1.
</event>
<event>
 8    1  0.1271559E-006  0.9118800E+02  0.7816164E-02  0.1184000E+00
        -11   -1    0    0    0    0  0.00000000000E+00  0.00000000000E+00  0.45593999997E+02  0.45594000000E+02  0.51100000000E-03 0. -1.
         11   -1    0    0    0    0 -0.00000000000E+00 -0.00000000000E+00 -0.45593999997E+02  0.45594000000E+02  0.51100000000E-03 0.  1.
         23    2    1    2    0    0 -0.71054273576E-14  0.00000000000E+00 -0.35527136788E-14  0.91188000000E+02  0.91188000000E+02 0.  0.
    9900012    2    3    3    0    0  0.30264143690E+02 -0.99570763213E+01  0.18458185717E+02  0.54367266953E+02  0.40000416670E+02 0.  0.
         12    1    3    3    0    0 -0.30264143690E+02  0.99570763213E+01 -0.18458185717E+02  0.36820733047E+02  0.00000000000E+00 0. -1.
         11    1    4    4    0    0 -0.17842213686E+01 -0.70624919955E+01  0.16374200013E+02  0.17921402440E+02  0.51100000000E-03 0. -1.
        -11    1    4    4    0    0  0.47835154281E+01 -0.65902446455E+01 -0.25734994843E+01  0.85402719041E+01  0.51100000000E-03 0.  1.
        -12    1    4    4    0    0  0.27264849630E+02  0.36956603198E+01  0.46574851879E+01  0.27905592609E+02  0.00000000000E+00 0.  1.
</event>
<event>
 8    1  0.1271559E-006  0.9118800E+02  0.7816164E-02  0.1184000E+00
        -11   -1    0    0    0    0  0.00000000000E+00  0.00000000000E+00  0.45593999997E+02  0.45594000000E+02  0.51100000000E-03 0.  1.
         11   -1    0    0    0    0 -0.00000000000E+00 -0.00000000000E+00 -0.45593999997E+02  0.45594000000E+02  0.51100000000E-03 0. -1.
         23    2    1    2    0    0  0.35527136788E-14 -0.26645352591E-14 -0.35527136788E-14  0.91188000000E+02  0.91188000000E+02 0.  0.
    9900012    2    3    3    0    0  0.27249364476E+02  0.47419261502E+01 -0.24305683053E+02  0.54367082620E+02  0.39999996450E+02 0.  0.
        -12    1    3    3    0    0 -0.27249364476E+02 -0.47419261502E+01  0.24305683053E+02  0.36820917380E+02  0.00000000000E+00 0.  1.
         11    1    4    4    0    0  0.49427317215E+01  0.16130090448E+02 -0.13448756572E+02  0.21574973194E+02  0.51100000000E-03 0. -1.
        -11    1    4    4    0    0  0.71492660671E+01 -0.19151710481E+01  0.49722623128E+01  0.89164610811E+01  0.51100000000E-03 0.  1.
         12    1    4    4    0    0  0.15157366688E+02 -0.94729932499E+01 -0.15829188794E+02  0.23875648345E+02  0.00000000000E+00 0. -1.
</event>
<event>
 8    1  0.1271559E-006  0.9118800E+02  0.7816164E-02  0.1184000E+00
        -11   -1    0    0    0    0  0.00000000000E+00  0.00000000000E+00  0.45593999997E+02  0.45594000000E+02  0.51100000000E-03 0. -1.
         11   -1    0    0    0    0 -0.00000000000E+00 -0.00000000000E+00 -0.45593999997E+02  0.45594000000E+02  0.51100000000E-03 0.  1.
         23    2    1    2    0    0  0.00000000000E+00  0.71054273576E-14 -0.17763568394E-14  0.91188000000E+02  0.91188000000E+02 0.  0.
    9900012    2    3    3    0    0  0.10352093038E+02 -0.32074441633E+02 -0.14827111671E+02  0.54367097283E+02  0.40000029877E+02 0.  0.
         12    1    3    3    0    0 -0.10352093038E+02  0.32074441633E+02  0.14827111671E+02  0.36820902717E+02  0.00000000000E+00 0. -1.
         11    1    4    4    0    0  0.98491847405E+01 -0.16032618979E+02 -0.68009527377E+01  0.20007605298E+02  0.51100000000E-03 0. -1.
        -11    1    4    4    0    0  0.26038045400E+01 -0.23650895749E+02 -0.10611945401E+02  0.26052985497E+02  0.51100000000E-03 0.  1.
         12    1    4    4    0    0 -0.21008962424E+01  0.76090730950E+01  0.25857864675E+01  0.83065064884E+01  0.00000000000E+00 0. -1.
</event>
<event>
 8    1  0.1271559E-006  0.9118800E+02  0.7816164E-02  0.1184000E+00
        -11   -1    0    0    0    0  0.00000000000E+00  0.00000000000E+00  0.45593999997E+02  0.45594000000E+02  0.51100000000E-03 0.  1.
         11   -1    0    0    0    0 -0.00000000000E+00 -0.00000000000E+00 -0.45593999997E+02  0.45594000000E+02  0.51100000000E-03 0. -1.
         23    2    1    2    0    0 -0.14210854715E-13 -0.44408920985E-15 -0.88817841970E-15  0.91188000000E+02  0.91188000000E+02 0.  0.
    9900012    2    3    3    0    0  0.36116716977E+02  0.54711114433E+00  0.71458208189E+01  0.54367091117E+02  0.40000015819E+02 0.  0.
         12    1    3    3    0    0 -0.36116716977E+02 -0.54711114433E+00 -0.71458208189E+01  0.36820908883E+02  0.00000000000E+00 0. -1.
         11    1    4    4    0    0  0.39560088138E+01  0.52134787866E+01  0.87132886265E+00  0.66022406076E+01  0.51100000000E-03 0. -1.
        -11    1    4    4    0    0  0.82092415067E+01  0.13402769161E+02  0.81481637592E+01  0.17703627882E+02  0.51100000000E-03 0.  1.
         12    1    4    4    0    0  0.23951466657E+02 -0.18069136803E+02 -0.18736718029E+01  0.30061222627E+02  0.00000000000E+00 0. -1.
</event>
<event>
 8    1  0.1271559E-006  0.9118800E+02  0.7816164E-02  0.1184000E+00
        -11   -1    0    0    0    0  0.00000000000E+00  0.00000000000E+00  0.45593999997E+02  0.45594000000E+02  0.51100000000E-03 0. -1.
         11   -1    0    0    0    0 -0.00000000000E+00 -0.00000000000E+00 -0.45593999997E+02  0.45594000000E+02  0.51100000000E-03 0.  1.
         23    2    1    2    0    0  0.44408920985E-15  0.00000000000E+00 -0.17763568394E-14  0.91188000000E+02  0.91188000000E+02 0.  0.
    9900012    2    3    3    0    0  0.24741153920E+01 -0.33824572462E+02  0.14337530537E+02  0.54366977050E+02  0.39999755779E+02 0.  0.
        -12    1    3    3    0    0 -0.24741153920E+01  0.33824572462E+02 -0.14337530537E+02  0.36821022950E+02  0.00000000000E+00 0.  1.
         11    1    4    4    0    0 -0.84818055181E+01 -0.10728176992E+02  0.29627177969E+01  0.13993302092E+02  0.51100000000E-03 0. -1.
        -11    1    4    4    0    0  0.34331420192E+01  0.68634674090E+01  0.76400620479E+00  0.77121562964E+01  0.51100000000E-03 0.  1.
         12    1    4    4    0    0  0.75227788908E+01 -0.29959862879E+02  0.10610806535E+02  0.32661518661E+02  0.00000000000E+00 0. -1.
</event>
<event>
 8    1  0.1271559E-006  0.9118800E+02  0.7816164E-02  0.1184000E+00
        -11   -1    0    0    0    0  0.00000000000E+00  0.00000000000E+00  0.45593999997E+02  0.45594000000E+02  0.51100000000E-03 0. -1.
         11   -1    0    0    0    0 -0.00000000000E+00 -0.00000000000E+00 -0.45593999997E+02  0.45594000000E+02  0.51100000000E-03 0.  1.
         23    2    1    2    0    0 -0.15959455979E-14  0.71054273576E-14  0.27755575616E-16  0.91188000000E+02  0.91188000000E+02 0.  0.
    9900012    2    3    3    0    0 -0.67307378686E-01 -0.36820553740E+02 -0.15834907025E+00  0.54367044249E+02  0.39999908975E+02 0.  0.
         12    1    3    3    0    0  0.67307378686E-01  0.36820553740E+02  0.15834907025E+00  0.36820955751E+02  0.00000000000E+00 0. -1.
         11    1    4    4    0    0  0.13927768130E+02 -0.86645256487E+01 -0.37036949191E+01  0.16815887907E+02  0.51100000000E-03 0.  1.
        -11    1    4    4    0    0 -0.76940013047E+00 -0.23248581573E+02  0.16855269320E+01  0.23322296692E+02  0.51100000000E-03 0. -1.
         12    1    4    4    0    0 -0.13225675378E+02 -0.49074465180E+01  0.18598189168E+01  0.14228859650E+02  0.00000000000E+00 0. -1.
</event>
<event>
 8    1  0.1271559E-006  0.9118800E+02  0.7816164E-02  0.1184000E+00
        -11   -1    0    0    0    0  0.00000000000E+00  0.00000000000E+00  0.45593999997E+02  0.45594000000E+02  0.51100000000E-03 0.  1.
         11   -1    0    0    0    0 -0.00000000000E+00 -0.00000000000E+00 -0.45593999997E+02  0.45594000000E+02  0.51100000000E-03 0. -1.
         23    2    1    2    0    0 -0.17763568394E-14  0.00000000000E+00 -0.35527136788E-14  0.91188000000E+02  0.91188000000E+02 0.  0.
    9900012    2    3    3    0    0 -0.15664316064E+02  0.14350146360E+02 -0.30074636392E+02  0.54367065025E+02  0.39999956338E+02 0.  0.
        -12    1    3    3    0    0  0.15664316064E+02 -0.14350146360E+02  0.30074636392E+02  0.36820934975E+02  0.00000000000E+00 0.  1.
         11    1    4    4    0    0 -0.10129598475E+02  0.20540212659E+02 -0.36083647964E+02  0.42738024662E+02  0.51100000000E-03 0. -1.
        -11    1    4    4    0    0 -0.11693918008E+01  0.10040172662E+01  0.92069940835E+00  0.17953315895E+01  0.51100000000E-03 0.  1.
         12    1    4    4    0    0 -0.43653257880E+01 -0.71940835654E+01  0.50883121633E+01  0.98337087740E+01  0.00000000000E+00 0. -1.
</event>
<event>
 8    1  0.1271559E-006  0.9118800E+02  0.7816164E-02  0.1184000E+00
        -11   -1    0    0    0    0  0.00000000000E+00  0.00000000000E+00  0.45593999997E+02  0.45594000000E+02  0.51100000000E-03 0.  1.
         11   -1    0    0    0    0 -0.00000000000E+00 -0.00000000000E+00 -0.45593999997E+02  0.45594000000E+02  0.51100000000E-03 0. -1.
         23    2    1    2    0    0  0.88817841970E-15  0.00000000000E+00  0.00000000000E+00  0.91188000000E+02  0.91188000000E+02 0.  0.
    9900012    2    3    3    0    0 -0.74317590175E+01 -0.33961733279E+02  0.12130543543E+02  0.54367075840E+02  0.39999980992E+02 0.  0.
         12    1    3    3    0    0  0.74317590175E+01  0.33961733279E+02 -0.12130543543E+02  0.36820924160E+02  0.00000000000E+00 0. -1.
         11    1    4    4    0    0  0.50320735590E+01  0.31206619136E+01  0.10134091650E+02  0.11737125240E+02  0.51100000000E-03 0. -1.
        -11    1    4    4    0    0 -0.67754470002E+01 -0.30018144374E+01 -0.24223508440E+01  0.77964963825E+01  0.51100000000E-03 0.  1.
        -12    1    4    4    0    0 -0.56883855762E+01 -0.34080580755E+02  0.44188027372E+01  0.34833454217E+02  0.00000000000E+00 0.  1.
</event>
<event>
 8    1  0.1271559E-006  0.9118800E+02  0.7816164E-02  0.1184000E+00
        -11   -1    0    0    0    0  0.00000000000E+00  0.00000000000E+00  0.45593999997E+02  0.45594000000E+02  0.51100000000E-03 0.  1.
         11   -1    0    0    0    0 -0.00000000000E+00 -0.00000000000E+00 -0.45593999997E+02  0.45594000000E+02  0.51100000000E-03 0. -1.
         23    2    1    2    0    0  0.00000000000E+00  0.00000000000E+00 -0.17763568394E-14  0.91188000000E+02  0.91188000000E+02 0.  0.
    9900012    2    3    3    0    0  0.24185818787E+02  0.25704064655E+02 -0.10494352187E+02  0.54367025026E+02  0.39999865151E+02 0.  0.
         12    1    3    3    0    0 -0.24185818787E+02 -0.25704064655E+02  0.10494352187E+02  0.36820974974E+02  0.00000000000E+00 0. -1.
         11    1    4    4    0    0  0.11433871916E+00 -0.21626756270E+01 -0.11592899671E+02  0.11793454212E+02  0.51100000000E-03 0. -1.
        -11    1    4    4    0    0  0.96295855739E+01  0.22206760504E+02  0.81426228190E+01  0.25537647445E+02  0.51100000000E-03 0.  1.
         12    1    4    4    0    0  0.14441894494E+02  0.56599797782E+01 -0.70440753355E+01  0.17035923368E+02  0.00000000000E+00 0. -1.
</event>
<event>
 8    1  0.1271559E-006  0.9118800E+02  0.7816164E-02  0.1184000E+00
        -11   -1    0    0    0    0  0.00000000000E+00  0.00000000000E+00  0.45593999997E+02  0.45594000000E+02  0.51100000000E-03 0. -1.
         11   -1    0    0    0    0 -0.00000000000E+00 -0.00000000000E+00 -0.45593999997E+02  0.45594000000E+02  0.51100000000E-03 0.  1.
         23    2    1    2    0    0  0.00000000000E+00  0.00000000000E+00  0.00000000000E+00  0.91188000000E+02  0.91188000000E+02 0.  0.
    9900012    2    3    3    0    0  0.17412764279E+02  0.21811205682E+01  0.32370022257E+02  0.54367082200E+02  0.39999995491E+02 0.  0.
        -12    1    3    3    0    0 -0.17412764279E+02 -0.21811205682E+01 -0.32370022257E+02  0.36820917800E+02  0.00000000000E+00 0.  1.
         11    1    4    4    0    0 -0.57307177044E+01 -0.42109857021E+01 -0.44722690254E+01  0.84008759357E+01  0.51100000000E-03 0. -1.
        -11    1    4    4    0    0  0.45219805795E+01  0.75240332401E+01  0.10485113887E+02  0.13674684568E+02  0.51100000000E-03 0.  1.
         12    1    4    4    0    0  0.18621501404E+02 -0.11319269698E+01  0.26357177395E+02  0.32291521696E+02  0.00000000000E+00 0. -1.
</event>
<event>
 8    1  0.1271559E-006  0.9118800E+02  0.7816164E-02  0.1184000E+00
        -11   -1    0    0    0    0  0.00000000000E+00  0.00000000000E+00  0.45593999997E+02  0.45594000000E+02  0.51100000000E-03 0.  1.
         11   -1    0    0    0    0 -0.00000000000E+00 -0.00000000000E+00 -0.45593999997E+02  0.45594000000E+02  0.51100000000E-03 0. -1.
         23    2    1    2    0    0  0.00000000000E+00  0.00000000000E+00  0.00000000000E+00  0.91188000000E+02  0.91188000000E+02 0.  0.
    9900012    2    3    3    0    0 -0.25550459562E+02  0.25628331642E+02 -0.67928283359E+01  0.54367083616E+02  0.39999998719E+02 0.  0.
        -12    1    3    3    0    0  0.25550459562E+02 -0.25628331642E+02  0.67928283359E+01  0.36820916384E+02  0.00000000000E+00 0.  1.
         11    1    4    4    0    0 -0.60610921981E+01 -0.32901249590E+01  0.71543069905E+01  0.99370956348E+01  0.51100000000E-03 0. -1.
        -11    1    4    4    0    0  0.19443924132E+01  0.46743638806E+01  0.48463416496E+01  0.70083783567E+01  0.51100000000E-03 0.  1.
         12    1    4    4    0    0 -0.21433759777E+02  0.24244092721E+02 -0.18793476976E+02  0.37421609624E+02  0.00000000000E+00 0. -1.
</event>
<event>
 8    1  0.1271559E-006  0.9118800E+02  0.7816164E-02  0.1184000E+00
        -11   -1    0    0    0    0  0.00000000000E+00  0.00000000000E+00  0.45593999997E+02  0.45594000000E+02  0.51100000000E-03 0.  1.
         11   -1    0    0    0    0 -0.00000000000E+00 -0.00000000000E+00 -0.45593999997E+02  0.45594000000E+02  0.51100000000E-03 0. -1.
         23    2    1    2    0    0  0.00000000000E+00 -0.35527136788E-14  0.17763568394E-14  0.91188000000E+02  0.91188000000E+02 0.  0.
    9900012    2    3    3    0    0  0.20982917667E+02 -0.28704769695E+02  0.95673215212E+01  0.54367078255E+02  0.39999986498E+02 0.  0.
         12    1    3    3    0    0 -0.20982917667E+02  0.28704769695E+02 -0.95673215212E+01  0.36820921745E+02  0.00000000000E+00 0. -1.
         11    1    4    4    0    0  0.51308316405E+01 -0.11776136128E+02 -0.64741932830E+01  0.14384644394E+02  0.51100000000E-03 0. -1.
        -11    1    4    4    0    0  0.17079356421E+02 -0.15101536142E+02 -0.97989161355E+00  0.22819311940E+02  0.51100000000E-03 0.  1.
         12    1    4    4    0    0 -0.12272703943E+01 -0.18270974262E+01  0.17021406418E+02  0.17163121921E+02  0.00000000000E+00 0. -1.
</event>
<event>
 8    1  0.1271559E-006  0.9118800E+02  0.7816164E-02  0.1184000E+00
        -11   -1    0    0    0    0  0.00000000000E+00  0.00000000000E+00  0.45593999997E+02  0.45594000000E+02  0.51100000000E-03 0.  1.
         11   -1    0    0    0    0 -0.00000000000E+00 -0.00000000000E+00 -0.45593999997E+02  0.45594000000E+02  0.51100000000E-03 0. -1.
         23    2    1    2    0    0 -0.88817841970E-15  0.00000000000E+00 -0.17763568394E-14  0.91188000000E+02  0.91188000000E+02 0.  0.
    9900012    2    3    3    0    0 -0.46384820774E+01 -0.35489150972E+02 -0.86477745079E+01  0.54367090769E+02  0.40000015026E+02 0.  0.
        -12    1    3    3    0    0  0.46384820774E+01  0.35489150972E+02  0.86477745079E+01  0.36820909231E+02  0.00000000000E+00 0.  1.
         11    1    4    4    0    0 -0.11148644921E+02 -0.77812291705E+01 -0.31175718410E+01  0.13948443118E+02  0.51100000000E-03 0. -1.
        -11    1    4    4    0    0 -0.10379146003E+02 -0.15440547887E+02 -0.59716930323E+01  0.19539659893E+02  0.51100000000E-03 0.  1.
        -12    1    4    4    0    0  0.16889308846E+02 -0.12267373914E+02  0.44149036539E+00  0.20878987758E+02  0.00000000000E+00 0.  1.
</event>
<event>
 8    1  0.1271559E-006  0.9118800E+02  0.7816164E-02  0.1184000E+00
        -11   -1    0    0    0    0  0.00000000000E+00  0.00000000000E+00  0.45593999997E+02  0.45594000000E+02  0.51100000000E-03 0.  1.
         11   -1    0    0    0    0 -0.00000000000E+00 -0.00000000000E+00 -0.45593999997E+02  0.45594000000E+02  0.51100000000E-03 0. -1.
         23    2    1    2    0    0 -0.71054273576E-14  0.19984014443E-14 -0.17763568394E-14  0.91188000000E+02  0.91188000000E+02 0.  0.
    9900012    2    3    3    0    0  0.35934149157E+02  0.75338781099E-01  0.80318637867E+01  0.54367087634E+02  0.40000007879E+02 0.  0.
         12    1    3    3    0    0 -0.35934149157E+02 -0.75338781099E-01 -0.80318637867E+01  0.36820912366E+02  0.00000000000E+00 0. -1.
         11    1    4    4    0    0  0.86521439024E+01  0.74493686361E+00  0.33547207926E+01  0.93096013286E+01  0.51100000000E-03 0. -1.
        -11    1    4    4    0    0  0.16183249908E+02 -0.17648721702E+02  0.61402726451E+01  0.24719989962E+02  0.51100000000E-03 0.  1.
         12    1    4    4    0    0  0.11098755347E+02  0.16979123620E+02 -0.14631296510E+01  0.20337496343E+02  0.00000000000E+00 0. -1.
</event>
<event>
 8    1  0.1271559E-006  0.9118800E+02  0.7816164E-02  0.1184000E+00
        -11   -1    0    0    0    0  0.00000000000E+00  0.00000000000E+00  0.45593999997E+02  0.45594000000E+02  0.51100000000E-03 0. -1.
         11   -1    0    0    0    0 -0.00000000000E+00 -0.00000000000E+00 -0.45593999997E+02  0.45594000000E+02  0.51100000000E-03 0.  1.
         23    2    1    2    0    0  0.00000000000E+00  0.00000000000E+00  0.00000000000E+00  0.91188000000E+02  0.91188000000E+02 0.  0.
    9900012    2    3    3    0    0 -0.29803796423E+02  0.90750500785E+01 -0.19625428981E+02  0.54367078259E+02  0.39999986507E+02 0.  0.
         12    1    3    3    0    0  0.29803796423E+02 -0.90750500785E+01  0.19625428981E+02  0.36820921741E+02  0.00000000000E+00 0. -1.
         11    1    4    4    0    0 -0.20312403527E+02 -0.68085757237E+00 -0.16164290918E+02  0.25968088209E+02  0.51100000000E-03 0. -1.
        -11    1    4    4    0    0 -0.15384316209E+02  0.50730981677E+01 -0.94731230059E+01  0.18765755247E+02  0.51100000000E-03 0.  1.
         12    1    4    4    0    0  0.58929233132E+01  0.46828094831E+01  0.60119849424E+01  0.96332348034E+01  0.00000000000E+00 0. -1.
</event>
<event>
 8    1  0.1271559E-006  0.9118800E+02  0.7816164E-02  0.1184000E+00
        -11   -1    0    0    0    0  0.00000000000E+00  0.00000000000E+00  0.45593999997E+02  0.45594000000E+02  0.51100000000E-03 0. -1.
         11   -1    0    0    0    0 -0.00000000000E+00 -0.00000000000E+00 -0.45593999997E+02  0.45594000000E+02  0.51100000000E-03 0.  1.
         23    2    1    2    0    0  0.00000000000E+00 -0.71054273576E-14  0.17763568394E-14  0.91188000000E+02  0.91188000000E+02 0.  0.
    9900012    2    3    3    0    0  0.37469763060E+01 -0.34573551537E+02  0.12099981538E+02  0.54367084062E+02  0.39999999737E+02 0.  0.
         12    1    3    3    0    0 -0.37469763060E+01  0.34573551537E+02 -0.12099981538E+02  0.36820915938E+02  0.00000000000E+00 0. -1.
         11    1    4    4    0    0 -0.78080595897E+01 -0.74101889069E+01  0.52884694052E+01  0.11993523381E+02  0.51100000000E-03 0. -1.
        -11    1    4    4    0    0 -0.78598045823E+01 -0.15056059053E+02 -0.33942674218E+01  0.17320002710E+02  0.51100000000E-03 0.  1.
        -12    1    4    4    0    0  0.19414840478E+02 -0.12107303576E+02  0.10205779554E+02  0.25053557971E+02  0.00000000000E+00 0.  1.
</event>
<event>
 8    1  0.1271559E-006  0.9118800E+02  0.7816164E-02  0.1184000E+00
        -11   -1    0    0    0    0  0.00000000000E+00  0.00000000000E+00  0.45593999997E+02  0.45594000000E+02  0.51100000000E-03 0.  1.
         11   -1    0    0    0    0 -0.00000000000E+00 -0.00000000000E+00 -0.45593999997E+02  0.45594000000E+02  0.51100000000E-03 0. -1.
         23    2    1    2    0    0  0.00000000000E+00  0.00000000000E+00  0.00000000000E+00  0.91188000000E+02  0.91188000000E+02 0.  0.
    9900012    2    3    3    0    0 -0.22660335910E+02 -0.19746691572E+02 -0.21268743934E+02  0.54367053242E+02  0.39999929477E+02 0.  0.
        -12    1    3    3    0    0  0.22660335910E+02  0.19746691572E+02  0.21268743934E+02  0.36820946758E+02  0.00000000000E+00 0.  1.
         11    1    4    4    0    0  0.10921621853E+02 -0.30806407431E+01 -0.19766254991E+01  0.11518646618E+02  0.51100000000E-03 0. -1.
        -11    1    4    4    0    0 -0.10711249753E+02 -0.30030444198E+01 -0.89222213734E+01  0.14260265831E+02  0.51100000000E-03 0.  1.
         12    1    4    4    0    0 -0.22870708009E+02 -0.13663006409E+02 -0.10369897062E+02  0.28588140794E+02  0.00000000000E+00 0. -1.
</event>
<event>
 8    1  0.1271559E-006  0.9118800E+02  0.7816164E-02  0.1184000E+00
        -11   -1    0    0    0    0  0.00000000000E+00  0.00000000000E+00  0.45593999997E+02  0.45594000000E+02  0.51100000000E-03 0.  1.
         11   -1    0    0    0    0 -0.00000000000E+00 -0.00000000000E+00 -0.45593999997E+02  0.45594000000E+02  0.51100000000E-03 0. -1.
         23    2    1    2    0    0  0.00000000000E+00  0.00000000000E+00  0.00000000000E+00  0.91188000000E+02  0.91188000000E+02 0.  0.
    9900012    2    3    3    0    0  0.62629122469E+01  0.32172967944E+02 -0.16776660526E+02  0.54367078304E+02  0.39999986610E+02 0.  0.
        -12    1    3    3    0    0 -0.62629122469E+01 -0.32172967944E+02  0.16776660526E+02  0.36820921696E+02  0.00000000000E+00 0.  1.
         11    1    4    4    0    0  0.34246455374E+01  0.51618142798E+01  0.38482995743E+01  0.72925944348E+01  0.51100000000E-03 0. -1.
        -11    1    4    4    0    0  0.44016483852E+01  0.13294836256E+02  0.73958861206E+01  0.15837497004E+02  0.51100000000E-03 0.  1.
         12    1    4    4    0    0 -0.15633816757E+01  0.13716317408E+02 -0.28020846220E+02  0.31236986865E+02  0.00000000000E+00 0. -1.
</event>
<event>
 8    1  0.1271559E-006  0.9118800E+02  0.7816164E-02  0.1184000E+00
        -11   -1    0    0    0    0  0.00000000000E+00  0.00000000000E+00  0.45593999997E+02  0.45594000000E+02  0.51100000000E-03 0. -1.
         11   -1    0    0    0    0 -0.00000000000E+00 -0.00000000000E+00 -0.45593999997E+02  0.45594000000E+02  0.51100000000E-03 0.  1.
         23    2    1    2    0    0 -0.35527136788E-14  0.00000000000E+00  0.00000000000E+00  0.91188000000E+02  0.91188000000E+02 0.  0.
    9900012    2    3    3    0    0  0.16485740748E+02 -0.14380549569E+02 -0.29617566314E+02  0.54367080833E+02  0.39999992376E+02 0.  0.
         12    1    3    3    0    0 -0.16485740748E+02  0.14380549569E+02  0.29617566314E+02  0.36820919167E+02  0.00000000000E+00 0. -1.
         11    1    4    4    0    0 -0.55475002667E+01 -0.90329937461E+01 -0.82861383670E+01  0.13454732421E+02  0.51100000000E-03 0. -1.
        -11    1    4    4    0    0  0.32732470538E+01  0.43263692558E+01 -0.18902558432E+02  0.19665663801E+02  0.51100000000E-03 0.  1.
        -12    1    4    4    0    0  0.18759993961E+02 -0.96739250785E+01 -0.24288695156E+01  0.21246684611E+02  0.00000000000E+00 0.  1.
</event>
<event>
 8    1  0.1271559E-006  0.9118800E+02  0.7816164E-02  0.1184000E+00
        -11   -1    0    0    0    0  0.00000000000E+00  0.00000000000E+00  0.45593999997E+02  0.45594000000E+02  0.51100000000E-03 0.  1.
         11   -1    0    0    0    0 -0.00000000000E+00 -0.00000000000E+00 -0.45593999997E+02  0.45594000000E+02  0.51100000000E-03 0. -1.
         23    2    1    2    0    0 -0.35527136788E-14 -0.35527136788E-14 -0.88817841970E-15  0.91188000000E+02  0.91188000000E+02 0.  0.
    9900012    2    3    3    0    0  0.24040458636E+02  0.27317016470E+02  0.56221467653E+01  0.54367196445E+02  0.40000255934E+02 0.  0.
        -12    1    3    3    0    0 -0.24040458636E+02 -0.27317016470E+02 -0.56221467653E+01  0.36820803555E+02  0.00000000000E+00 0.  1.
         11    1    4    4    0    0  0.19315324288E+02  0.22957382873E+02  0.54941777120E+01  0.30500969980E+02  0.51100000000E-03 0. -1.
        -11    1    4    4    0    0  0.87633193089E+01  0.25898829926E+01  0.97007235949E+01  0.13326938799E+02  0.51100000000E-03 0.  1.
         12    1    4    4    0    0 -0.40381849611E+01  0.17697506037E+01 -0.95727545417E+01  0.10539287665E+02  0.00000000000E+00 0. -1.
</event>
<event>
 8    1  0.1271559E-006  0.9118800E+02  0.7816164E-02  0.1184000E+00
        -11   -1    0    0    0    0  0.00000000000E+00  0.00000000000E+00  0.45593999997E+02  0.45594000000E+02  0.51100000000E-03 0. -1.
         11   -1    0    0    0    0 -0.00000000000E+00 -0.00000000000E+00 -0.45593999997E+02  0.45594000000E+02  0.51100000000E-03 0.  1.
         23    2    1    2    0    0  0.71054273576E-14  0.00000000000E+00  0.00000000000E+00  0.91188000000E+02  0.91188000000E+02 0.  0.
    9900012    2    3    3    0    0 -0.35298143334E+02  0.77623314637E+01 -0.70403572844E+01  0.54367090950E+02  0.40000015439E+02 0.  0.
         12    1    3    3    0    0  0.35298143334E+02 -0.77623314637E+01  0.70403572844E+01  0.36820909050E+02  0.00000000000E+00 0. -1.
         11    1    4    4    0    0  0.37692902069E+01  0.56439220649E+01 -0.78022493085E+01  0.10341010563E+02  0.51100000000E-03 0. -1.
        -11    1    4    4    0    0 -0.20976390448E+02 -0.30046865408E+01  0.95837491239E+01  0.23256941866E+02  0.51100000000E-03 0.  1.
        -12    1    4    4    0    0 -0.18091043093E+02  0.51230959397E+01 -0.88218570998E+01  0.20769138521E+02  0.00000000000E+00 0.  1.
</event>
<event>
 8    1  0.1271559E-006  0.9118800E+02  0.7816164E-02  0.1184000E+00
        -11   -1    0    0    0    0  0.00000000000E+00  0.00000000000E+00  0.45593999997E+02  0.45594000000E+02  0.51100000000E-03 0.  1.
         11   -1    0    0    0    0 -0.00000000000E+00 -0.00000000000E+00 -0.45593999997E+02  0.45594000000E+02  0.51100000000E-03 0. -1.
         23    2    1    2    0    0  0.71054273576E-14  0.35527136788E-14  0.35527136788E-14  0.91188000000E+02  0.91188000000E+02 0.  0.
    9900012    2    3    3    0    0 -0.25736759110E+02 -0.10129695634E+02 -0.24306159347E+02  0.54367070010E+02  0.39999967702E+02 0.  0.
         12    1    3    3    0    0  0.25736759110E+02  0.10129695634E+02  0.24306159347E+02  0.36820929990E+02  0.00000000000E+00 0. -1.
         11    1    4    4    0    0 -0.81014248534E+01  0.13671419062E+02 -0.13808584300E+02  0.21052738170E+02  0.51100000000E-03 0. -1.
        -11    1    4    4    0    0 -0.16636473111E+02 -0.22756468444E+02 -0.63133316277E+01  0.28887492971E+02  0.51100000000E-03 0.  1.
         12    1    4    4    0    0 -0.99886114473E+00 -0.10446462522E+01 -0.41842434201E+01  0.44268388696E+01  0.00000000000E+00 0. -1.
</event>
<event>
 8    1  0.1271559E-006  0.9118800E+02  0.7816164E-02  0.1184000E+00
        -11   -1    0    0    0    0  0.00000000000E+00  0.00000000000E+00  0.45593999997E+02  0.45594000000E+02  0.51100000000E-03 0. -1.
         11   -1    0    0    0    0 -0.00000000000E+00 -0.00000000000E+00 -0.45593999997E+02  0.45594000000E+02  0.51100000000E-03 0.  1.
         23    2    1    2    0    0 -0.71054273576E-14  0.00000000000E+00  0.22204460493E-15  0.91188000000E+02  0.91188000000E+02 0.  0.
    9900012    2    3    3    0    0  0.35363615892E+02  0.10076427240E+02 -0.19128394424E+01  0.54367100098E+02  0.40000036293E+02 0.  0.
         12    1    3    3    0    0 -0.35363615892E+02 -0.10076427240E+02  0.19128394424E+01  0.36820899902E+02  0.00000000000E+00 0. -1.
         11    1    4    4    0    0  0.18706091221E+02 -0.54384996835E+01  0.18578462636E+01  0.19569024518E+02  0.51100000000E-03 0. -1.
        -11    1    4    4    0    0  0.74642033304E+01  0.22069369561E+02 -0.22590730002E+01  0.23406725856E+02  0.51100000000E-03 0.  1.
        -12    1    4    4    0    0  0.91933213406E+01 -0.65544426382E+01 -0.15116127058E+01  0.11391349724E+02  0.00000000000E+00 0.  1.
</event>
<event>
 8    1  0.1271559E-006  0.9118800E+02  0.7816164E-02  0.1184000E+00
        -11   -1    0    0    0    0  0.00000000000E+00  0.00000000000E+00  0.45593999997E+02  0.45594000000E+02  0.51100000000E-03 0.  1.
         11   -1    0    0    0    0 -0.00000000000E+00 -0.00000000000E+00 -0.45593999997E+02  0.45594000000E+02  0.51100000000E-03 0. -1.
         23    2    1    2    0    0  0.00000000000E+00 -0.13322676296E-14  0.00000000000E+00  0.91188000000E+02  0.91188000000E+02 0.  0.
    9900012    2    3    3    0    0  0.32409385955E+02  0.36462972671E+01 -0.17091428011E+02  0.54367072619E+02  0.39999973648E+02 0.  0.
        -12    1    3    3    0    0 -0.32409385955E+02 -0.36462972671E+01  0.17091428011E+02  0.36820927381E+02  0.00000000000E+00 0.  1.
         11    1    4    4    0    0  0.93492396034E+01  0.17624983012E+02  0.31814328942E+01  0.20203213181E+02  0.51100000000E-03 0. -1.
        -11    1    4    4    0    0  0.35275229321E+00  0.78395608936E-01  0.28599121201E+00  0.46083759214E+00  0.51100000000E-03 0.  1.
        -12    1    4    4    0    0  0.22707394059E+02 -0.14057081353E+02 -0.20558852117E+02  0.33703021845E+02  0.00000000000E+00 0.  1.
</event>
<event>
 8    1  0.1271559E-006  0.9118800E+02  0.7816164E-02  0.1184000E+00
        -11   -1    0    0    0    0  0.00000000000E+00  0.00000000000E+00  0.45593999997E+02  0.45594000000E+02  0.51100000000E-03 0. -1.
         11   -1    0    0    0    0 -0.00000000000E+00 -0.00000000000E+00 -0.45593999997E+02  0.45594000000E+02  0.51100000000E-03 0.  1.
         23    2    1    2    0    0  0.00000000000E+00  0.00000000000E+00  0.00000000000E+00  0.91188000000E+02  0.91188000000E+02 0.  0.
    9900012    2    3    3    0    0  0.19188140291E+02  0.23026696710E+02  0.21386092342E+02  0.54367103285E+02  0.40000043560E+02 0.  0.
        -12    1    3    3    0    0 -0.19188140291E+02 -0.23026696710E+02 -0.21386092342E+02  0.36820896715E+02  0.00000000000E+00 0.  1.
         11    1    4    4    0    0  0.28266386778E+02  0.24653613416E+02  0.21585685269E+02  0.43275063082E+02  0.51100000000E-03 0. -1.
        -11    1    4    4    0    0 -0.90269397327E+01 -0.25279329961E+01  0.11750920509E+01  0.94475884627E+01  0.51100000000E-03 0.  1.
         12    1    4    4    0    0 -0.51306754736E-01  0.90101629046E+00 -0.13746849779E+01  0.16444517406E+01  0.00000000000E+00 0. -1.
</event>
<event>
 8    1  0.1271559E-006  0.9118800E+02  0.7816164E-02  0.1184000E+00
        -11   -1    0    0    0    0  0.00000000000E+00  0.00000000000E+00  0.45593999997E+02  0.45594000000E+02  0.51100000000E-03 0. -1.
         11   -1    0    0    0    0 -0.00000000000E+00 -0.00000000000E+00 -0.45593999997E+02  0.45594000000E+02  0.51100000000E-03 0.  1.
         23    2    1    2    0    0  0.00000000000E+00  0.00000000000E+00  0.00000000000E+00  0.91188000000E+02  0.91188000000E+02 0.  0.
    9900012    2    3    3    0    0  0.19886360580E+02  0.19169282168E+02 -0.24348530720E+02  0.54367086593E+02  0.40000005505E+02 0.  0.
         12    1    3    3    0    0 -0.19886360580E+02 -0.19169282168E+02  0.24348530720E+02  0.36820913407E+02  0.00000000000E+00 0. -1.
         11    1    4    4    0    0 -0.61076361061E+00  0.65159129882E+01  0.30709108056E+01  0.72291526263E+01  0.51100000000E-03 0. -1.
        -11    1    4    4    0    0  0.22270586590E+02  0.19180868967E+02 -0.15005459976E+02  0.33000736216E+02  0.51100000000E-03 0.  1.
         12    1    4    4    0    0 -0.17734623998E+01 -0.65274997873E+01 -0.12413981549E+02  0.14137197751E+02  0.00000000000E+00 0. -1.
</event>
<event>
 8    1  0.1271559E-006  0.9118800E+02  0.7816164E-02  0.1184000E+00
        -11   -1    0    0    0    0  0.00000000000E+00  0.00000000000E+00  0.45593999997E+02  0.45594000000E+02  0.51100000000E-03 0. -1.
         11   -1    0    0    0    0 -0.00000000000E+00 -0.00000000000E+00 -0.45593999997E+02  0.45594000000E+02  0.51100000000E-03 0.  1.
         23    2    1    2    0    0  0.71054273576E-14  0.88817841970E-15  0.35527136788E-14  0.91188000000E+02  0.91188000000E+02 0.  0.
    9900012    2    3    3    0    0 -0.35287178228E+02 -0.39102693922E+01 -0.97624123042E+01  0.54367084096E+02  0.39999999814E+02 0.  0.
        -12    1    3    3    0    0  0.35287178228E+02  0.39102693922E+01  0.97624123042E+01  0.36820915904E+02  0.00000000000E+00 0.  1.
         11    1    4    4    0    0 -0.64976161914E+01 -0.22531587350E+01  0.49608774729E+01  0.84797432755E+01  0.51100000000E-03 0. -1.
        -11    1    4    4    0    0 -0.19049492625E+02  0.19737604524E+01  0.81110841533E+01  0.20798283247E+02  0.51100000000E-03 0.  1.
        -12    1    4    4    0    0 -0.97400694111E+01 -0.36308711095E+01 -0.22834373930E+02  0.25089057574E+02  0.00000000000E+00 0.  1.
</event>
<event>
 8    1  0.1271559E-006  0.9118800E+02  0.7816164E-02  0.1184000E+00
        -11   -1    0    0    0    0  0.00000000000E+00  0.00000000000E+00  0.45593999997E+02  0.45594000000E+02  0.51100000000E-03 0.  1.
         11   -1    0    0    0    0 -0.00000000000E+00 -0.00000000000E+00 -0.45593999997E+02  0.45594000000E+02  0.51100000000E-03 0. -1.
         23    2    1    2    0    0  0.00000000000E+00  0.33306690739E-15 -0.17763568394E-14  0.91188000000E+02  0.91188000000E+02 0.  0.
    9900012    2    3    3    0    0  0.34094557452E+02 -0.36862919828E+00 -0.13899548908E+02  0.54367188016E+02  0.40000236719E+02 0.  0.
        -12    1    3    3    0    0 -0.34094557452E+02  0.36862919828E+00  0.13899548908E+02  0.36820811984E+02  0.00000000000E+00 0.  1.
         11    1    4    4    0    0  0.21568802121E+02 -0.11873744412E+02  0.52618426575E+01  0.25177093154E+02  0.51100000000E-03 0. -1.
        -11    1    4    4    0    0 -0.10134616515E+01 -0.22713211135E+01 -0.10113917539E+01  0.26849427667E+01  0.51100000000E-03 0.  1.
        -12    1    4    4    0    0  0.13539216983E+02  0.13776436327E+02 -0.18149999812E+02  0.26505152095E+02  0.00000000000E+00 0.  1.
</event>
<event>
 8    1  0.1271559E-006  0.9118800E+02  0.7816164E-02  0.1184000E+00
        -11   -1    0    0    0    0  0.00000000000E+00  0.00000000000E+00  0.45593999997E+02  0.45594000000E+02  0.51100000000E-03 0. -1.
         11   -1    0    0    0    0 -0.00000000000E+00 -0.00000000000E+00 -0.45593999997E+02  0.45594000000E+02  0.51100000000E-03 0.  1.
         23    2    1    2    0    0 -0.17763568394E-14  0.00000000000E+00  0.71054273576E-14  0.91188000000E+02  0.91188000000E+02 0.  0.
    9900012    2    3    3    0    0  0.12493425044E+02 -0.93689810414E+01 -0.33345423813E+02  0.54367071653E+02  0.39999971447E+02 0.  0.
         12    1    3    3    0    0 -0.12493425044E+02  0.93689810414E+01  0.33345423813E+02  0.36820928347E+02  0.00000000000E+00 0. -1.
         11    1    4    4    0    0 -0.10196232286E+01 -0.54763232242E+01  0.77354805645E+01  0.95324397407E+01  0.51100000000E-03 0. -1.
        -11    1    4    4    0    0 -0.14635836207E+01  0.10718194455E+01 -0.77270192536E+01  0.79371090925E+01  0.51100000000E-03 0.  1.
        -12    1    4    4    0    0  0.14976631893E+02 -0.49644772627E+01 -0.33353885124E+02  0.36897522820E+02  0.00000000000E+00 0.  1.
</event>
<event>
 8    1  0.1271559E-006  0.9118800E+02  0.7816164E-02  0.1184000E+00
        -11   -1    0    0    0    0  0.00000000000E+00  0.00000000000E+00  0.45593999997E+02  0.45594000000E+02  0.51100000000E-03 0.  1.
         11   -1    0    0    0    0 -0.00000000000E+00 -0.00000000000E+00 -0.45593999997E+02  0.45594000000E+02  0.51100000000E-03 0. -1.
         23    2    1    2    0    0  0.00000000000E+00  0.00000000000E+00  0.00000000000E+00  0.91188000000E+02  0.91188000000E+02 0.  0.
    9900012    2    3    3    0    0  0.59009273380E+01 -0.27676614995E+02 -0.23557637521E+02  0.54367105842E+02  0.40000049388E+02 0.  0.
        -12    1    3    3    0    0 -0.59009273380E+01  0.27676614995E+02  0.23557637521E+02  0.36820894158E+02  0.00000000000E+00 0.  1.
         11    1    4    4    0    0  0.10505818962E+02  0.31337826836E+01 -0.10673344574E+02  0.15300755230E+02  0.51100000000E-03 0. -1.
        -11    1    4    4    0    0 -0.95819920901E+01 -0.23151040721E+02 -0.24141088365E+01  0.25171674171E+02  0.51100000000E-03 0.  1.
        -12    1    4    4    0    0  0.49771004661E+01 -0.76593569579E+01 -0.10470184111E+02  0.13894676440E+02  0.00000000000E+00 0.  1.
</event>
<event>
 8    1  0.1271559E-006  0.9118800E+02  0.7816164E-02  0.1184000E+00
        -11   -1    0    0    0    0  0.00000000000E+00  0.00000000000E+00  0.45593999997E+02  0.45594000000E+02  0.51100000000E-03 0. -1.
         11   -1    0    0    0    0 -0.00000000000E+00 -0.00000000000E+00 -0.45593999997E+02  0.45594000000E+02  0.51100000000E-03 0.  1.
         23    2    1    2    0    0  0.35527136788E-14  0.00000000000E+00  0.17763568394E-14  0.91188000000E+02  0.91188000000E+02 0.  0.
    9900012    2    3    3    0    0  0.17037356655E+02  0.30227066395E+02 -0.12322001025E+02  0.54367098682E+02  0.40000033064E+02 0.  0.
         12    1    3    3    0    0 -0.17037356655E+02 -0.30227066395E+02  0.12322001025E+02  0.36820901318E+02  0.00000000000E+00 0. -1.
         11    1    4    4    0    0 -0.53098867215E+01  0.28321161649E+01 -0.87700496820E+01  0.10636237617E+02  0.51100000000E-03 0. -1.
        -11    1    4    4    0    0  0.28840402973E+01  0.13677768350E+02 -0.12043100901E+02  0.18450889275E+02  0.51100000000E-03 0.  1.
        -12    1    4    4    0    0  0.19463203079E+02  0.13717181880E+02  0.84911495578E+01  0.25279971789E+02  0.00000000000E+00 0.  1.
</event>
<event>
 8    1  0.1271559E-006  0.9118800E+02  0.7816164E-02  0.1184000E+00
        -11   -1    0    0    0    0  0.00000000000E+00  0.00000000000E+00  0.45593999997E+02  0.45594000000E+02  0.51100000000E-03 0.  1.
         11   -1    0    0    0    0 -0.00000000000E+00 -0.00000000000E+00 -0.45593999997E+02  0.45594000000E+02  0.51100000000E-03 0. -1.
         23    2    1    2    0    0  0.00000000000E+00  0.66613381478E-15  0.00000000000E+00  0.91188000000E+02  0.91188000000E+02 0.  0.
    9900012    2    3    3    0    0 -0.87997099526E+01 -0.96192584024E+00 -0.35741005278E+02  0.54367086719E+02  0.40000005793E+02 0.  0.
        -12    1    3    3    0    0  0.87997099526E+01  0.96192584024E+00  0.35741005278E+02  0.36820913281E+02  0.00000000000E+00 0.  1.
         11    1    4    4    0    0 -0.11331774780E+02 -0.48830241438E+01 -0.60539095294E+01  0.13744193876E+02  0.51100000000E-03 0. -1.
        -11    1    4    4    0    0  0.12293042961E+02  0.18309349890E+01 -0.39873784851E+01  0.13052601872E+02  0.51100000000E-03 0.  1.
         12    1    4    4    0    0 -0.97609781339E+01  0.20901633145E+01 -0.25699717264E+02  0.27570290971E+02  0.00000000000E+00 0. -1.
</event>
<event>
 8    1  0.1271559E-006  0.9118800E+02  0.7816164E-02  0.1184000E+00
        -11   -1    0    0    0    0  0.00000000000E+00  0.00000000000E+00  0.45593999997E+02  0.45594000000E+02  0.51100000000E-03 0. -1.
         11   -1    0    0    0    0 -0.00000000000E+00 -0.00000000000E+00 -0.45593999997E+02  0.45594000000E+02  0.51100000000E-03 0.  1.
         23    2    1    2    0    0  0.71054273576E-14  0.00000000000E+00  0.33306690739E-15  0.91188000000E+02  0.91188000000E+02 0.  0.
    9900012    2    3    3    0    0  0.36017406534E+02  0.76269371348E+01  0.59710951522E+00  0.54367078185E+02  0.39999986339E+02 0.  0.
        -12    1    3    3    0    0 -0.36017406534E+02 -0.76269371348E+01 -0.59710951522E+00  0.36820921815E+02  0.00000000000E+00 0.  1.
         11    1    4    4    0    0  0.17424916135E+02 -0.54676413895E+01  0.37317968429E+01  0.18639986926E+02  0.51100000000E-03 0. -1.
        -11    1    4    4    0    0 -0.63718194842E+01  0.21600060190E+01 -0.50402495657E+01  0.84065346896E+01  0.51100000000E-03 0.  1.
        -12    1    4    4    0    0  0.24964309883E+02  0.10934572505E+02  0.19055622379E+01  0.27320556569E+02  0.00000000000E+00 0.  1.
</event>
<event>
 8    1  0.1271559E-006  0.9118800E+02  0.7816164E-02  0.1184000E+00
        -11   -1    0    0    0    0  0.00000000000E+00  0.00000000000E+00  0.45593999997E+02  0.45594000000E+02  0.51100000000E-03 0.  1.
         11   -1    0    0    0    0 -0.00000000000E+00 -0.00000000000E+00 -0.45593999997E+02  0.45594000000E+02  0.51100000000E-03 0. -1.
         23    2    1    2    0    0 -0.77715611724E-15 -0.88817841970E-15  0.00000000000E+00  0.91188000000E+02  0.91188000000E+02 0.  0.
    9900012    2    3    3    0    0  0.72775564403E+00  0.75867791427E+01  0.36023461552E+02  0.54367100660E+02  0.40000037575E+02 0.  0.
         12    1    3    3    0    0 -0.72775564403E+00 -0.75867791427E+01 -0.36023461552E+02  0.36820899340E+02  0.00000000000E+00 0. -1.
         11    1    4    4    0    0  0.12569908638E+02 -0.84326295156E+01  0.16961937770E+02  0.22733657358E+02  0.51100000000E-03 0. -1.
        -11    1    4    4    0    0 -0.15268509416E+02  0.14534636725E+02  0.13853591890E+02  0.25225087770E+02  0.51100000000E-03 0.  1.
        -12    1    4    4    0    0  0.34263564221E+01  0.14847719337E+01  0.52079318920E+01  0.64083555315E+01  0.00000000000E+00 0.  1.
</event>
<event>
 8    1  0.1271559E-006  0.9118800E+02  0.7816164E-02  0.1184000E+00
        -11   -1    0    0    0    0  0.00000000000E+00  0.00000000000E+00  0.45593999997E+02  0.45594000000E+02  0.51100000000E-03 0.  1.
         11   -1    0    0    0    0 -0.00000000000E+00 -0.00000000000E+00 -0.45593999997E+02  0.45594000000E+02  0.51100000000E-03 0. -1.
         23    2    1    2    0    0 -0.35527136788E-14  0.35527136788E-14  0.00000000000E+00  0.91188000000E+02  0.91188000000E+02 0.  0.
    9900012    2    3    3    0    0 -0.17958040532E+02  0.17344490857E+02 -0.27063939796E+02  0.54367089906E+02  0.40000013058E+02 0.  0.
         12    1    3    3    0    0  0.17958040532E+02 -0.17344490857E+02  0.27063939796E+02  0.36820910094E+02  0.00000000000E+00 0. -1.
         11    1    4    4    0    0 -0.91518445881E+01 -0.18079720279E+01 -0.30965750760E+02  0.32340419642E+02  0.51100000000E-03 0. -1.
        -11    1    4    4    0    0 -0.23975067137E+01  0.96548596468E+01  0.79664678074E-01  0.99484018799E+01  0.51100000000E-03 0.  1.
         12    1    4    4    0    0 -0.64086892306E+01  0.94976032386E+01  0.38221462853E+01  0.12078268384E+02  0.00000000000E+00 0. -1.
</event>
<event>
 8    1  0.1271559E-006  0.9118800E+02  0.7816164E-02  0.1184000E+00
        -11   -1    0    0    0    0  0.00000000000E+00  0.00000000000E+00  0.45593999997E+02  0.45594000000E+02  0.51100000000E-03 0. -1.
         11   -1    0    0    0    0 -0.00000000000E+00 -0.00000000000E+00 -0.45593999997E+02  0.45594000000E+02  0.51100000000E-03 0.  1.
         23    2    1    2    0    0  0.00000000000E+00  0.00000000000E+00 -0.35527136788E-14  0.91188000000E+02  0.91188000000E+02 0.  0.
    9900012    2    3    3    0    0  0.18574855796E+02  0.11448028821E+02  0.29659683143E+02  0.54367089693E+02  0.40000012572E+02 0.  0.
        -12    1    3    3    0    0 -0.18574855796E+02 -0.11448028821E+02 -0.29659683143E+02  0.36820910307E+02  0.00000000000E+00 0.  1.
         11    1    4    4    0    0  0.91783737178E+00 -0.59065748222E+01  0.11162254454E+02  0.12661989430E+02  0.51100000000E-03 0. -1.
        -11    1    4    4    0    0  0.17720596805E+02  0.14598040963E+02 -0.44591836631E-01  0.22959188570E+02  0.51100000000E-03 0.  1.
        -12    1    4    4    0    0 -0.63578381172E-01  0.27565626803E+01  0.18542020525E+02  0.18745911692E+02  0.00000000000E+00 0.  1.
</event>
<event>
 8    1  0.1271559E-006  0.9118800E+02  0.7816164E-02  0.1184000E+00
        -11   -1    0    0    0    0  0.00000000000E+00  0.00000000000E+00  0.45593999997E+02  0.45594000000E+02  0.51100000000E-03 0. -1.
         11   -1    0    0    0    0 -0.00000000000E+00 -0.00000000000E+00 -0.45593999997E+02  0.45594000000E+02  0.51100000000E-03 0.  1.
         23    2    1    2    0    0  0.44408920985E-15  0.35527136788E-14  0.35527136788E-14  0.91188000000E+02  0.91188000000E+02 0.  0.
    9900012    2    3    3    0    0 -0.24933847455E+01  0.30403534479E+02  0.20620070476E+02  0.54367093130E+02  0.40000020407E+02 0.  0.
        -12    1    3    3    0    0  0.24933847455E+01 -0.30403534479E+02 -0.20620070476E+02  0.36820906870E+02  0.00000000000E+00 0.  1.
         11    1    4    4    0    0 -0.35548029848E+01  0.32891888163E+01  0.23805794302E+01  0.53965309241E+01  0.51100000000E-03 0. -1.
        -11    1    4    4    0    0 -0.11126182106E+02  0.89089965861E+01 -0.67214459478E+01  0.15758806564E+02  0.51100000000E-03 0.  1.
        -12    1    4    4    0    0  0.12187600345E+02  0.18205349077E+02  0.24960936994E+02  0.33211755642E+02  0.00000000000E+00 0.  1.
</event>
<event>
 8    1  0.1271559E-006  0.9118800E+02  0.7816164E-02  0.1184000E+00
        -11   -1    0    0    0    0  0.00000000000E+00  0.00000000000E+00  0.45593999997E+02  0.45594000000E+02  0.51100000000E-03 0. -1.
         11   -1    0    0    0    0 -0.00000000000E+00 -0.00000000000E+00 -0.45593999997E+02  0.45594000000E+02  0.51100000000E-03 0.  1.
         23    2    1    2    0    0  0.00000000000E+00  0.88817841970E-15  0.71054273576E-14  0.91188000000E+02  0.91188000000E+02 0.  0.
    9900012    2    3    3    0    0  0.16438592402E+02  0.60853626549E+01  0.32380852192E+02  0.54367101756E+02  0.40000040074E+02 0.  0.
        -12    1    3    3    0    0 -0.16438592402E+02 -0.60853626549E+01 -0.32380852192E+02  0.36820898244E+02  0.00000000000E+00 0.  1.
         11    1    4    4    0    0 -0.39768455086E+01  0.13891146165E+02  0.22490601017E+02  0.26732122556E+02  0.51100000000E-03 0. -1.
        -11    1    4    4    0    0  0.12358993165E+02 -0.10153565399E+01 -0.10512274080E+01  0.12445109091E+02  0.51100000000E-03 0.  1.
        -12    1    4    4    0    0  0.80564447452E+01 -0.67904269702E+01  0.10941478583E+02  0.15189870110E+02  0.00000000000E+00 0.  1.
</event>
<event>
 8    1  0.1271559E-006  0.9118800E+02  0.7816164E-02  0.1184000E+00
        -11   -1    0    0    0    0  0.00000000000E+00  0.00000000000E+00  0.45593999997E+02  0.45594000000E+02  0.51100000000E-03 0.  1.
         11   -1    0    0    0    0 -0.00000000000E+00 -0.00000000000E+00 -0.45593999997E+02  0.45594000000E+02  0.51100000000E-03 0. -1.
         23    2    1    2    0    0  0.00000000000E+00  0.35527136788E-14  0.00000000000E+00  0.91188000000E+02  0.91188000000E+02 0.  0.
    9900012    2    3    3    0    0  0.64168002132E+01  0.16567552396E+02  0.32250895914E+02  0.54367090117E+02  0.40000013540E+02 0.  0.
         12    1    3    3    0    0 -0.64168002132E+01 -0.16567552396E+02 -0.32250895914E+02  0.36820909883E+02  0.00000000000E+00 0. -1.
         11    1    4    4    0    0  0.12907402902E+01  0.20227595861E+02  0.33040261386E+00  0.20271428440E+02  0.51100000000E-03 0. -1.
        -11    1    4    4    0    0  0.76957853969E+01 -0.15568056692E+01  0.15880085886E+02  0.17715131520E+02  0.51100000000E-03 0.  1.
        -12    1    4    4    0    0 -0.25697254739E+01 -0.21032377958E+01  0.16040407413E+02  0.16380530157E+02  0.00000000000E+00 0.  1.
</event>
<event>
 8    1  0.1271559E-006  0.9118800E+02  0.7816164E-02  0.1184000E+00
        -11   -1    0    0    0    0  0.00000000000E+00  0.00000000000E+00  0.45593999997E+02  0.45594000000E+02  0.51100000000E-03 0. -1.
         11   -1    0    0    0    0 -0.00000000000E+00 -0.00000000000E+00 -0.45593999997E+02  0.45594000000E+02  0.51100000000E-03 0.  1.
         23    2    1    2    0    0  0.00000000000E+00  0.00000000000E+00  0.71054273576E-14  0.91188000000E+02  0.91188000000E+02 0.  0.
    9900012    2    3    3    0    0  0.99585659631E+01 -0.15151095062E+02 -0.32047648579E+02  0.54367075282E+02  0.39999979720E+02 0.  0.
         12    1    3    3    0    0 -0.99585659631E+01  0.15151095062E+02  0.32047648579E+02  0.36820924718E+02  0.00000000000E+00 0. -1.
         11    1    4    4    0    0 -0.11574290746E+01 -0.42459855766E+01 -0.36339905925E+01  0.57073569598E+01  0.51100000000E-03 0. -1.
        -11    1    4    4    0    0  0.17290641781E+02 -0.20773634953E+02 -0.15045553884E+02  0.30933459139E+02  0.51100000000E-03 0.  1.
         12    1    4    4    0    0 -0.61746467436E+01  0.98685254677E+01 -0.13368104103E+02  0.17726259183E+02  0.00000000000E+00 0. -1.
</event>
<event>
 8    1  0.1271559E-006  0.9118800E+02  0.7816164E-02  0.1184000E+00
        -11   -1    0    0    0    0  0.00000000000E+00  0.00000000000E+00  0.45593999997E+02  0.45594000000E+02  0.51100000000E-03 0.  1.
         11   -1    0    0    0    0 -0.00000000000E+00 -0.00000000000E+00 -0.45593999997E+02  0.45594000000E+02  0.51100000000E-03 0. -1.
         23    2    1    2    0    0  0.35527136788E-14  0.00000000000E+00  0.00000000000E+00  0.91188000000E+02  0.91188000000E+02 0.  0.
    9900012    2    3    3    0    0 -0.26867352589E+02 -0.17558680312E+02  0.18044899936E+02  0.54367077915E+02  0.39999985724E+02 0.  0.
         12    1    3    3    0    0  0.26867352589E+02  0.17558680312E+02 -0.18044899936E+02  0.36820922085E+02  0.00000000000E+00 0. -1.
         11    1    4    4    0    0  0.65134784618E+01  0.10687853114E+01 -0.50546238028E+01  0.83136589877E+01  0.51100000000E-03 0. -1.
        -11    1    4    4    0    0 -0.30800125510E+02 -0.20186024915E+02  0.21269147897E+02  0.42526462183E+02  0.51100000000E-03 0.  1.
         12    1    4    4    0    0 -0.25807055416E+01  0.15585592916E+01  0.18303758418E+01  0.35269567449E+01  0.00000000000E+00 0. -1.
</event>
<event>
 8    1  0.1271559E-006  0.9118800E+02  0.7816164E-02  0.1184000E+00
        -11   -1    0    0    0    0  0.00000000000E+00  0.00000000000E+00  0.45593999997E+02  0.45594000000E+02  0.51100000000E-03 0.  1.
         11   -1    0    0    0    0 -0.00000000000E+00 -0.00000000000E+00 -0.45593999997E+02  0.45594000000E+02  0.51100000000E-03 0. -1.
         23    2    1    2    0    0 -0.35527136788E-14  0.00000000000E+00 -0.88817841970E-15  0.91188000000E+02  0.91188000000E+02 0.  0.
    9900012    2    3    3    0    0 -0.27199361164E+02 -0.24420804700E+02  0.44270143080E+01  0.54367090104E+02  0.40000013510E+02 0.  0.
         12    1    3    3    0    0  0.27199361164E+02  0.24420804700E+02 -0.44270143080E+01  0.36820909896E+02  0.00000000000E+00 0. -1.
         11    1    4    4    0    0  0.39581531884E+01 -0.64497573386E+01  0.12240321834E+02  0.14390685364E+02  0.51100000000E-03 0. -1.
        -11    1    4    4    0    0 -0.91059538624E+01 -0.84309192864E+01  0.42163943102E+01  0.13106363989E+02  0.51100000000E-03 0.  1.
         12    1    4    4    0    0 -0.22051560490E+02 -0.95401280744E+01 -0.12029701836E+02  0.26870040751E+02  0.00000000000E+00 0. -1.
</event>
<event>
 8    1  0.1271559E-006  0.9118800E+02  0.7816164E-02  0.1184000E+00
        -11   -1    0    0    0    0  0.00000000000E+00  0.00000000000E+00  0.45593999997E+02  0.45594000000E+02  0.51100000000E-03 0.  1.
         11   -1    0    0    0    0 -0.00000000000E+00 -0.00000000000E+00 -0.45593999997E+02  0.45594000000E+02  0.51100000000E-03 0. -1.
         23    2    1    2    0    0  0.35527136788E-14  0.00000000000E+00  0.00000000000E+00  0.91188000000E+02  0.91188000000E+02 0.  0.
    9900012    2    3    3    0    0 -0.27114771833E+02 -0.23345534755E+02 -0.86922960637E+01  0.54367070416E+02  0.39999968628E+02 0.  0.
        -12    1    3    3    0    0  0.27114771833E+02  0.23345534755E+02  0.86922960637E+01  0.36820929584E+02  0.00000000000E+00 0.  1.
         11    1    4    4    0    0 -0.21593208775E+01  0.35997501423E+01 -0.90733964139E+01  0.99973691782E+01  0.51100000000E-03 0. -1.
        -11    1    4    4    0    0 -0.10948635156E+02 -0.23960811532E+02  0.87787262600E+01  0.27767951600E+02  0.51100000000E-03 0.  1.
        -12    1    4    4    0    0 -0.14006815800E+02 -0.29844733646E+01 -0.83976259098E+01  0.16601749638E+02  0.00000000000E+00 0.  1.
</event>
<event>
 8    1  0.1271559E-006  0.9118800E+02  0.7816164E-02  0.1184000E+00
        -11   -1    0    0    0    0  0.00000000000E+00  0.00000000000E+00  0.45593999997E+02  0.45594000000E+02  0.51100000000E-03 0.  1.
         11   -1    0    0    0    0 -0.00000000000E+00 -0.00000000000E+00 -0.45593999997E+02  0.45594000000E+02  0.51100000000E-03 0. -1.
         23    2    1    2    0    0  0.00000000000E+00 -0.35527136788E-14 -0.13322676296E-14  0.91188000000E+02  0.91188000000E+02 0.  0.
    9900012    2    3    3    0    0 -0.24620364281E+02 -0.27371630224E+02  0.64024522272E+00  0.54367103863E+02  0.40000044875E+02 0.  0.
        -12    1    3    3    0    0  0.24620364281E+02  0.27371630224E+02 -0.64024522272E+00  0.36820896137E+02  0.00000000000E+00 0.  1.
         11    1    4    4    0    0 -0.28001156333E+01 -0.20581707758E+02 -0.13221583928E+02  0.24622299317E+02  0.51100000000E-03 0. -1.
        -11    1    4    4    0    0 -0.52647443707E+01 -0.46215194324E+01  0.10641179203E+02  0.12740120495E+02  0.51100000000E-03 0.  1.
         12    1    4    4    0    0 -0.16555504277E+02 -0.21684030330E+01  0.32206499480E+01  0.17004684051E+02  0.00000000000E+00 0. -1.
</event>
<event>
 8    1  0.1271559E-006  0.9118800E+02  0.7816164E-02  0.1184000E+00
        -11   -1    0    0    0    0  0.00000000000E+00  0.00000000000E+00  0.45593999997E+02  0.45594000000E+02  0.51100000000E-03 0.  1.
         11   -1    0    0    0    0 -0.00000000000E+00 -0.00000000000E+00 -0.45593999997E+02  0.45594000000E+02  0.51100000000E-03 0. -1.
         23    2    1    2    0    0  0.00000000000E+00 -0.13322676296E-14  0.00000000000E+00  0.91188000000E+02  0.91188000000E+02 0.  0.
    9900012    2    3    3    0    0 -0.23159069019E+02  0.33929024063E+01 -0.28423988218E+02  0.54367117735E+02  0.40000076501E+02 0.  0.
        -12    1    3    3    0    0  0.23159069019E+02 -0.33929024063E+01  0.28423988218E+02  0.36820882265E+02  0.00000000000E+00 0.  1.
         11    1    4    4    0    0  0.18922633321E+01  0.11368189940E+01 -0.32606500677E+00  0.22314427156E+01  0.51100000000E-03 0. -1.
        -11    1    4    4    0    0 -0.32366383607E+02 -0.57380446470E+01 -0.18865766623E+02  0.37900199138E+02  0.51100000000E-03 0.  1.
        -12    1    4    4    0    0  0.73150512560E+01  0.79941280593E+01 -0.92321565880E+01  0.14235475881E+02  0.00000000000E+00 0.  1.
</event>
<event>
 8    1  0.1271559E-006  0.9118800E+02  0.7816164E-02  0.1184000E+00
        -11   -1    0    0    0    0  0.00000000000E+00  0.00000000000E+00  0.45593999997E+02  0.45594000000E+02  0.51100000000E-03 0. -1.
         11   -1    0    0    0    0 -0.00000000000E+00 -0.00000000000E+00 -0.45593999997E+02  0.45594000000E+02  0.51100000000E-03 0.  1.
         23    2    1    2    0    0  0.00000000000E+00  0.00000000000E+00  0.00000000000E+00  0.91188000000E+02  0.91188000000E+02 0.  0.
    9900012    2    3    3    0    0 -0.52787694865E+01 -0.24864458423E+01  0.36355611231E+02  0.54367105277E+02  0.40000048100E+02 0.  0.
        -12    1    3    3    0    0  0.52787694865E+01  0.24864458423E+01 -0.36355611231E+02  0.36820894723E+02  0.00000000000E+00 0.  1.
         11    1    4    4    0    0 -0.11522834042E+02 -0.13269255346E+02  0.12342689456E+02  0.21475353899E+02  0.51100000000E-03 0. -1.
        -11    1    4    4    0    0  0.12904046246E+02  0.83265957855E+01  0.17089018444E+02  0.22975664485E+02  0.51100000000E-03 0.  1.
         12    1    4    4    0    0 -0.66599816901E+01  0.24562137185E+01  0.69239033309E+01  0.99160868935E+01  0.00000000000E+00 0. -1.
</event>
<event>
 8    1  0.1271559E-006  0.9118800E+02  0.7816164E-02  0.1184000E+00
        -11   -1    0    0    0    0  0.00000000000E+00  0.00000000000E+00  0.45593999997E+02  0.45594000000E+02  0.51100000000E-03 0. -1.
         11   -1    0    0    0    0 -0.00000000000E+00 -0.00000000000E+00 -0.45593999997E+02  0.45594000000E+02  0.51100000000E-03 0.  1.
         23    2    1    2    0    0  0.00000000000E+00  0.00000000000E+00 -0.35527136788E-14  0.91188000000E+02  0.91188000000E+02 0.  0.
    9900012    2    3    3    0    0 -0.77361505842E+01  0.26742884421E+02 -0.24098780165E+02  0.54367067116E+02  0.39999961104E+02 0.  0.
         12    1    3    3    0    0  0.77361505842E+01 -0.26742884421E+02  0.24098780165E+02  0.36820932884E+02  0.00000000000E+00 0. -1.
         11    1    4    4    0    0  0.78525029645E+01  0.13067839963E+02 -0.12550970060E+02  0.19747331309E+02  0.51100000000E-03 0. -1.
        -11    1    4    4    0    0 -0.18542845245E+01 -0.42546570679E+01  0.48472155645E+01  0.67108849531E+01  0.51100000000E-03 0.  1.
        -12    1    4    4    0    0 -0.13734369024E+02  0.17929701525E+02 -0.16395025669E+02  0.27908850854E+02  0.00000000000E+00 0.  1.
</event>
<event>
 8    1  0.1271559E-006  0.9118800E+02  0.7816164E-02  0.1184000E+00
        -11   -1    0    0    0    0  0.00000000000E+00  0.00000000000E+00  0.45593999997E+02  0.45594000000E+02  0.51100000000E-03 0. -1.
         11   -1    0    0    0    0 -0.00000000000E+00 -0.00000000000E+00 -0.45593999997E+02  0.45594000000E+02  0.51100000000E-03 0.  1.
         23    2    1    2    0    0  0.00000000000E+00  0.35527136788E-14  0.00000000000E+00  0.91188000000E+02  0.91188000000E+02 0.  0.
    9900012    2    3    3    0    0  0.16700962873E+02  0.24723612529E+02 -0.21577753075E+02  0.54367100974E+02  0.40000038289E+02 0.  0.
         12    1    3    3    0    0 -0.16700962873E+02 -0.24723612529E+02  0.21577753075E+02  0.36820899026E+02  0.00000000000E+00 0. -1.
         11    1    4    4    0    0 -0.55597928662E+01  0.14344778788E+02 -0.13943344733E+01  0.15447593472E+02  0.51100000000E-03 0. -1.
        -11    1    4    4    0    0 -0.22443029103E+00  0.10744990665E+02 -0.74444666002E+01  0.13073839397E+02  0.51100000000E-03 0.  1.
        -12    1    4    4    0    0  0.22485186030E+02 -0.36615692422E+00 -0.12738952002E+02  0.25845668105E+02  0.00000000000E+00 0.  1.
</event>
<event>
 8    1  0.1271559E-006  0.9118800E+02  0.7816164E-02  0.1184000E+00
        -11   -1    0    0    0    0  0.00000000000E+00  0.00000000000E+00  0.45593999997E+02  0.45594000000E+02  0.51100000000E-03 0. -1.
         11   -1    0    0    0    0 -0.00000000000E+00 -0.00000000000E+00 -0.45593999997E+02  0.45594000000E+02  0.51100000000E-03 0.  1.
         23    2    1    2    0    0  0.00000000000E+00  0.35527136788E-14  0.00000000000E+00  0.91188000000E+02  0.91188000000E+02 0.  0.
    9900012    2    3    3    0    0 -0.10921891587E+02  0.27045364128E+02  0.22473217407E+02  0.54367014987E+02  0.39999842266E+02 0.  0.
        -12    1    3    3    0    0  0.10921891587E+02 -0.27045364128E+02 -0.22473217407E+02  0.36820985013E+02  0.00000000000E+00 0.  1.
         11    1    4    4    0    0 -0.13035740129E+01  0.30591820544E+02  0.24812334670E+02  0.39410794732E+02  0.51100000000E-03 0. -1.
        -11    1    4    4    0    0 -0.90636485007E+01  0.45448922864E+00  0.17124249678E+01  0.92351872821E+01  0.51100000000E-03 0.  1.
         12    1    4    4    0    0 -0.55466907382E+00 -0.40009456447E+01 -0.40515422303E+01  0.57210329729E+01  0.00000000000E+00 0. -1.
</event>
<event>
 8    1  0.1271559E-006  0.9118800E+02  0.7816164E-02  0.1184000E+00
        -11   -1    0    0    0    0  0.00000000000E+00  0.00000000000E+00  0.45593999997E+02  0.45594000000E+02  0.51100000000E-03 0.  1.
         11   -1    0    0    0    0 -0.00000000000E+00 -0.00000000000E+00 -0.45593999997E+02  0.45594000000E+02  0.51100000000E-03 0. -1.
         23    2    1    2    0    0  0.00000000000E+00  0.00000000000E+00  0.71054273576E-14  0.91188000000E+02  0.91188000000E+02 0.  0.
    9900012    2    3    3    0    0 -0.43658842056E+01 -0.50935012444E+00  0.36557624780E+02  0.54367077795E+02  0.39999985449E+02 0.  0.
         12    1    3    3    0    0  0.43658842056E+01  0.50935012444E+00 -0.36557624780E+02  0.36820922205E+02  0.00000000000E+00 0. -1.
         11    1    4    4    0    0  0.19010840474E+01 -0.12685849591E+02  0.50706394749E+01  0.13793342066E+02  0.51100000000E-03 0. -1.
        -11    1    4    4    0    0  0.49594868149E+01 -0.29900819880E+01  0.33347664165E+01  0.66826467119E+01  0.51100000000E-03 0.  1.
        -12    1    4    4    0    0 -0.11226455068E+02  0.15166581454E+02  0.28152218889E+02  0.33891089017E+02  0.00000000000E+00 0.  1.
</event>
<event>
 8    1  0.1271559E-006  0.9118800E+02  0.7816164E-02  0.1184000E+00
        -11   -1    0    0    0    0  0.00000000000E+00  0.00000000000E+00  0.45593999997E+02  0.45594000000E+02  0.51100000000E-03 0. -1.
         11   -1    0    0    0    0 -0.00000000000E+00 -0.00000000000E+00 -0.45593999997E+02  0.45594000000E+02  0.51100000000E-03 0.  1.
         23    2    1    2    0    0  0.00000000000E+00 -0.71054273576E-14  0.88817841970E-15  0.91188000000E+02  0.91188000000E+02 0.  0.
    9900012    2    3    3    0    0  0.25989714907E+02  0.25921426602E+02 -0.28973397549E+01  0.54367079103E+02  0.39999988432E+02 0.  0.
         12    1    3    3    0    0 -0.25989714907E+02 -0.25921426602E+02  0.28973397549E+01  0.36820920897E+02  0.00000000000E+00 0. -1.
         11    1    4    4    0    0  0.13516302023E+02 -0.35753177299E+01  0.82959522461E+01  0.16257187370E+02  0.51100000000E-03 0. -1.
        -11    1    4    4    0    0 -0.25283862994E+01  0.13446081065E+01 -0.47794439848E+01  0.55716957297E+01  0.51100000000E-03 0.  1.
        -12    1    4    4    0    0  0.15001799183E+02  0.28152136226E+02 -0.64138480161E+01  0.32538196004E+02  0.00000000000E+00 0.  1.
</event>
<event>
 8    1  0.1271559E-006  0.9118800E+02  0.7816164E-02  0.1184000E+00
        -11   -1    0    0    0    0  0.00000000000E+00  0.00000000000E+00  0.45593999997E+02  0.45594000000E+02  0.51100000000E-03 0. -1.
         11   -1    0    0    0    0 -0.00000000000E+00 -0.00000000000E+00 -0.45593999997E+02  0.45594000000E+02  0.51100000000E-03 0.  1.
         23    2    1    2    0    0  0.00000000000E+00 -0.17763568394E-14 -0.17763568394E-14  0.91188000000E+02  0.91188000000E+02 0.  0.
    9900012    2    3    3    0    0  0.33397076668E+02 -0.53793644767E+01  0.14542288396E+02  0.54367076003E+02  0.39999981365E+02 0.  0.
        -12    1    3    3    0    0 -0.33397076668E+02  0.53793644767E+01 -0.14542288396E+02  0.36820923997E+02  0.00000000000E+00 0.  1.
         11    1    4    4    0    0  0.15780397657E+02 -0.61372718769E+01  0.13186211080E+02  0.21460736689E+02  0.51100000000E-03 0. -1.
        -11    1    4    4    0    0  0.64375080408E+01 -0.13358458606E+02  0.14486501428E+01  0.14899278962E+02  0.51100000000E-03 0.  1.
        -12    1    4    4    0    0  0.11179170970E+02  0.14116366006E+02 -0.92572826792E-01  0.18007060352E+02  0.00000000000E+00 0.  1.
</event>
<event>
 8    1  0.1271559E-006  0.9118800E+02  0.7816164E-02  0.1184000E+00
        -11   -1    0    0    0    0  0.00000000000E+00  0.00000000000E+00  0.45593999997E+02  0.45594000000E+02  0.51100000000E-03 0.  1.
         11   -1    0    0    0    0 -0.00000000000E+00 -0.00000000000E+00 -0.45593999997E+02  0.45594000000E+02  0.51100000000E-03 0. -1.
         23    2    1    2    0    0  0.00000000000E+00  0.00000000000E+00 -0.88817841970E-15  0.91188000000E+02  0.91188000000E+02 0.  0.
    9900012    2    3    3    0    0  0.33707144504E+02 -0.13270431594E+02  0.65957397959E+01  0.54367085715E+02  0.40000003504E+02 0.  0.
        -12    1    3    3    0    0 -0.33707144504E+02  0.13270431594E+02 -0.65957397959E+01  0.36820914285E+02  0.00000000000E+00 0.  1.
         11    1    4    4    0    0  0.14880937966E+02 -0.12803601728E+02 -0.83436581701E+01  0.21330521885E+02  0.51100000000E-03 0. -1.
        -11    1    4    4    0    0 -0.21917527182E+01  0.68620071578E+01  0.34470430412E+01  0.79858016630E+01  0.51100000000E-03 0.  1.
        -12    1    4    4    0    0  0.21017959257E+02 -0.73288370235E+01  0.11492354925E+02  0.25050762167E+02  0.00000000000E+00 0.  1.
</event>
<event>
 8    1  0.1271559E-006  0.9118800E+02  0.7816164E-02  0.1184000E+00
        -11   -1    0    0    0    0  0.00000000000E+00  0.00000000000E+00  0.45593999997E+02  0.45594000000E+02  0.51100000000E-03 0.  1.
         11   -1    0    0    0    0 -0.00000000000E+00 -0.00000000000E+00 -0.45593999997E+02  0.45594000000E+02  0.51100000000E-03 0. -1.
         23    2    1    2    0    0  0.35527136788E-14 -0.17763568394E-14  0.00000000000E+00  0.91188000000E+02  0.91188000000E+02 0.  0.
    9900012    2    3    3    0    0  0.29675771248E+02 -0.11368492694E+02  0.18598022319E+02  0.54367075793E+02  0.39999980885E+02 0.  0.
         12    1    3    3    0    0 -0.29675771248E+02  0.11368492694E+02 -0.18598022319E+02  0.36820924207E+02  0.00000000000E+00 0. -1.
         11    1    4    4    0    0  0.18407709521E+02  0.67523967538E+01  0.19447576759E+00  0.19608071114E+02  0.51100000000E-03 0. -1.
        -11    1    4    4    0    0  0.81101579055E+01 -0.12280160022E+02  0.22552617492E+02  0.26929492150E+02  0.51100000000E-03 0.  1.
        -12    1    4    4    0    0  0.31579038212E+01 -0.58407294256E+01 -0.41490709406E+01  0.78295125287E+01  0.00000000000E+00 0.  1.
</event>
<event>
 8    1  0.1271559E-006  0.9118800E+02  0.7816164E-02  0.1184000E+00
        -11   -1    0    0    0    0  0.00000000000E+00  0.00000000000E+00  0.45593999997E+02  0.45594000000E+02  0.51100000000E-03 0.  1.
         11   -1    0    0    0    0 -0.00000000000E+00 -0.00000000000E+00 -0.45593999997E+02  0.45594000000E+02  0.51100000000E-03 0. -1.
         23    2    1    2    0    0 -0.71054273576E-14  0.00000000000E+00  0.00000000000E+00  0.91188000000E+02  0.91188000000E+02 0.  0.
    9900012    2    3    3    0    0  0.34447870096E+02 -0.57127489008E+01  0.11682773862E+02  0.54367102954E+02  0.40000042804E+02 0.  0.
         12    1    3    3    0    0 -0.34447870096E+02  0.57127489008E+01 -0.11682773862E+02  0.36820897046E+02  0.00000000000E+00 0. -1.
         11    1    4    4    0    0  0.55990366765E+01  0.28927950760E+01  0.19468266066E+01  0.65960298024E+01  0.51100000000E-03 0. -1.
        -11    1    4    4    0    0  0.20861357592E+01 -0.15616979724E+02 -0.48636225840E+01  0.16489294800E+02  0.51100000000E-03 0.  1.
        -12    1    4    4    0    0  0.26762697661E+02  0.70114357475E+01  0.14599569839E+02  0.31281778351E+02  0.00000000000E+00 0.  1.
</event>
<event>
 8    1  0.1271559E-006  0.9118800E+02  0.7816164E-02  0.1184000E+00
        -11   -1    0    0    0    0  0.00000000000E+00  0.00000000000E+00  0.45593999997E+02  0.45594000000E+02  0.51100000000E-03 0. -1.
         11   -1    0    0    0    0 -0.00000000000E+00 -0.00000000000E+00 -0.45593999997E+02  0.45594000000E+02  0.51100000000E-03 0.  1.
         23    2    1    2    0    0  0.00000000000E+00 -0.88817841970E-15  0.71054273576E-14  0.91188000000E+02  0.91188000000E+02 0.  0.
    9900012    2    3    3    0    0 -0.27946332615E+00 -0.51800722651E+01  0.36453657884E+02  0.54367076308E+02  0.39999982059E+02 0.  0.
        -12    1    3    3    0    0  0.27946332615E+00  0.51800722651E+01 -0.36453657884E+02  0.36820923692E+02  0.00000000000E+00 0.  1.
         11    1    4    4    0    0 -0.12077933389E+01 -0.40203555991E+01 -0.41078583387E+01  0.58733741823E+01  0.51100000000E-03 0. -1.
        -11    1    4    4    0    0  0.26456237149E+00  0.12677964331E+02  0.17995308439E+02  0.22014356655E+02  0.51100000000E-03 0.  1.
         12    1    4    4    0    0  0.66376764126E+00 -0.13837680997E+02  0.22566207783E+02  0.26479345471E+02  0.00000000000E+00 0. -1.
</event>
<event>
 8    1  0.1271559E-006  0.9118800E+02  0.7816164E-02  0.1184000E+00
        -11   -1    0    0    0    0  0.00000000000E+00  0.00000000000E+00  0.45593999997E+02  0.45594000000E+02  0.51100000000E-03 0.  1.
         11   -1    0    0    0    0 -0.00000000000E+00 -0.00000000000E+00 -0.45593999997E+02  0.45594000000E+02  0.51100000000E-03 0. -1.
         23    2    1    2    0    0 -0.35527136788E-14 -0.35527136788E-14  0.00000000000E+00  0.91188000000E+02  0.91188000000E+02 0.  0.
    9900012    2    3    3    0    0  0.26257626975E+02 -0.22041627913E+02 -0.13434456665E+02  0.54367068978E+02  0.39999965350E+02 0.  0.
         12    1    3    3    0    0 -0.26257626975E+02  0.22041627913E+02  0.13434456665E+02  0.36820931022E+02  0.00000000000E+00 0. -1.
         11    1    4    4    0    0 -0.70686145450E+01  0.70703160780E+00 -0.11364518090E+02  0.13402144491E+02  0.51100000000E-03 0. -1.
        -11    1    4    4    0    0  0.52776568313E+01 -0.12553833551E+01  0.91827133066E+00  0.55020788339E+01  0.51100000000E-03 0.  1.
         12    1    4    4    0    0  0.28048584689E+02 -0.21493276165E+02 -0.29882099056E+01  0.35462845653E+02  0.00000000000E+00 0. -1.
</event>
<event>
 8    1  0.1271559E-006  0.9118800E+02  0.7816164E-02  0.1184000E+00
        -11   -1    0    0    0    0  0.00000000000E+00  0.00000000000E+00  0.45593999997E+02  0.45594000000E+02  0.51100000000E-03 0.  1.
         11   -1    0    0    0    0 -0.00000000000E+00 -0.00000000000E+00 -0.45593999997E+02  0.45594000000E+02  0.51100000000E-03 0. -1.
         23    2    1    2    0    0 -0.88817841970E-15  0.00000000000E+00  0.17763568394E-14  0.91188000000E+02  0.91188000000E+02 0.  0.
    9900012    2    3    3    0    0 -0.56779283814E+01  0.32679984765E+02 -0.15986229953E+02  0.54367084435E+02  0.40000000586E+02 0.  0.
        -12    1    3    3    0    0  0.56779283814E+01 -0.32679984765E+02  0.15986229953E+02  0.36820915565E+02  0.00000000000E+00 0.  1.
         11    1    4    4    0    0 -0.14486269306E+02  0.19482661684E+02 -0.20452091132E+02  0.31744513489E+02  0.51100000000E-03 0. -1.
        -11    1    4    4    0    0  0.83798819158E+01  0.17457721071E+01 -0.28559342589E+01  0.90236634426E+01  0.51100000000E-03 0.  1.
        -12    1    4    4    0    0  0.42845900907E+00  0.11451550975E+02  0.73217954384E+01  0.13598907503E+02  0.00000000000E+00 0.  1.
</event>
<event>
 8    1  0.1271559E-006  0.9118800E+02  0.7816164E-02  0.1184000E+00
        -11   -1    0    0    0    0  0.00000000000E+00  0.00000000000E+00  0.45593999997E+02  0.45594000000E+02  0.51100000000E-03 0. -1.
         11   -1    0    0    0    0 -0.00000000000E+00 -0.00000000000E+00 -0.45593999997E+02  0.45594000000E+02  0.51100000000E-03 0.  1.
         23    2    1    2    0    0  0.35527136788E-14 -0.26645352591E-14  0.00000000000E+00  0.91188000000E+02  0.91188000000E+02 0.  0.
    9900012    2    3    3    0    0 -0.20747185493E+02  0.75376776862E+01  0.29470639438E+02  0.54367070087E+02  0.39999967876E+02 0.  0.
        -12    1    3    3    0    0  0.20747185493E+02 -0.75376776862E+01 -0.29470639438E+02  0.36820929913E+02  0.00000000000E+00 0.  1.
         11    1    4    4    0    0 -0.16775778428E+02 -0.12916799696E+02  0.14950983597E+02  0.25919150585E+02  0.51100000000E-03 0. -1.
        -11    1    4    4    0    0  0.14591678591E+01  0.35410303266E+01  0.91040799583E+01  0.98768587498E+01  0.51100000000E-03 0.  1.
         12    1    4    4    0    0 -0.54305749241E+01  0.16913447055E+02  0.54155758826E+01  0.18571060752E+02  0.00000000000E+00 0. -1.
</event>
<event>
 8    1  0.1271559E-006  0.9118800E+02  0.7816164E-02  0.1184000E+00
        -11   -1    0    0    0    0  0.00000000000E+00  0.00000000000E+00  0.45593999997E+02  0.45594000000E+02  0.51100000000E-03 0. -1.
         11   -1    0    0    0    0 -0.00000000000E+00 -0.00000000000E+00 -0.45593999997E+02  0.45594000000E+02  0.51100000000E-03 0.  1.
         23    2    1    2    0    0  0.00000000000E+00 -0.44408920985E-15  0.00000000000E+00  0.91188000000E+02  0.91188000000E+02 0.  0.
    9900012    2    3    3    0    0 -0.93137037998E+01  0.11434445920E+01  0.35605127378E+02  0.54367114084E+02  0.40000068177E+02 0.  0.
        -12    1    3    3    0    0  0.93137037998E+01 -0.11434445920E+01 -0.35605127378E+02  0.36820885916E+02  0.00000000000E+00 0.  1.
         11    1    4    4    0    0 -0.97671356743E+01  0.12354318904E+02  0.23566664422E+02  0.28344555158E+02  0.51100000000E-03 0. -1.
        -11    1    4    4    0    0  0.57455409151E+01  0.35847273322E+01  0.10619375273E+01  0.68548684908E+01  0.51100000000E-03 0.  1.
        -12    1    4    4    0    0 -0.52921090406E+01 -0.14795601645E+02  0.10976525430E+02  0.19167690435E+02  0.00000000000E+00 0.  1.
</event>
<event>
 8    1  0.1271559E-006  0.9118800E+02  0.7816164E-02  0.1184000E+00
        -11   -1    0    0    0    0  0.00000000000E+00  0.00000000000E+00  0.45593999997E+02  0.45594000000E+02  0.51100000000E-03 0. -1.
         11   -1    0    0    0    0 -0.00000000000E+00 -0.00000000000E+00 -0.45593999997E+02  0.45594000000E+02  0.51100000000E-03 0.  1.
         23    2    1    2    0    0  0.00000000000E+00  0.17763568394E-14  0.00000000000E+00  0.91188000000E+02  0.91188000000E+02 0.  0.
    9900012    2    3    3    0    0 -0.34604088511E+02  0.12173938706E+02 -0.31830147863E+01  0.54367091423E+02  0.40000016518E+02 0.  0.
         12    1    3    3    0    0  0.34604088511E+02 -0.12173938706E+02  0.31830147863E+01  0.36820908577E+02  0.00000000000E+00 0. -1.
         11    1    4    4    0    0 -0.58441694026E+01 -0.85085795139E+01  0.71342482040E+01  0.12547818099E+02  0.51100000000E-03 0. -1.
        -11    1    4    4    0    0 -0.22431886193E+02  0.21836916484E+02 -0.20891775537E+01  0.31375230722E+02  0.51100000000E-03 0.  1.
        -12    1    4    4    0    0 -0.63280329151E+01 -0.11543982649E+01 -0.82280854366E+01  0.10444042602E+02  0.00000000000E+00 0.  1.
</event>
<event>
 8    1  0.1271559E-006  0.9118800E+02  0.7816164E-02  0.1184000E+00
        -11   -1    0    0    0    0  0.00000000000E+00  0.00000000000E+00  0.45593999997E+02  0.45594000000E+02  0.51100000000E-03 0.  1.
         11   -1    0    0    0    0 -0.00000000000E+00 -0.00000000000E+00 -0.45593999997E+02  0.45594000000E+02  0.51100000000E-03 0. -1.
         23    2    1    2    0    0  0.00000000000E+00  0.00000000000E+00  0.00000000000E+00  0.91188000000E+02  0.91188000000E+02 0.  0.
    9900012    2    3    3    0    0  0.23674599144E+02 -0.77595984354E+00 -0.28190256995E+02  0.54367090889E+02  0.40000015300E+02 0.  0.
        -12    1    3    3    0    0 -0.23674599144E+02  0.77595984354E+00  0.28190256995E+02  0.36820909111E+02  0.00000000000E+00 0.  1.
         11    1    4    4    0    0  0.25165699891E+02 -0.51544378495E+01 -0.22879533380E+02  0.34399908845E+02  0.51100000000E-03 0. -1.
        -11    1    4    4    0    0  0.39612355419E+01  0.87575854219E+01 -0.79691492518E+01  0.12485753061E+02  0.51100000000E-03 0.  1.
         12    1    4    4    0    0 -0.54523362894E+01 -0.43791074159E+01  0.26584256367E+01  0.74814289837E+01  0.00000000000E+00 0. -1.
</event>
<event>
 8    1  0.1271559E-006  0.9118800E+02  0.7816164E-02  0.1184000E+00
        -11   -1    0    0    0    0  0.00000000000E+00  0.00000000000E+00  0.45593999997E+02  0.45594000000E+02  0.51100000000E-03 0.  1.
         11   -1    0    0    0    0 -0.00000000000E+00 -0.00000000000E+00 -0.45593999997E+02  0.45594000000E+02  0.51100000000E-03 0. -1.
         23    2    1    2    0    0  0.00000000000E+00  0.00000000000E+00  0.00000000000E+00  0.91188000000E+02  0.91188000000E+02 0.  0.
    9900012    2    3    3    0    0 -0.26905571738E+02  0.23814539849E+02  0.80459348091E+01  0.54367093361E+02  0.40000020935E+02 0.  0.
        -12    1    3    3    0    0  0.26905571738E+02 -0.23814539849E+02 -0.80459348091E+01  0.36820906639E+02  0.00000000000E+00 0.  1.
         11    1    4    4    0    0 -0.68093175868E+01  0.12470359458E+02 -0.13336917358E+02  0.19487176190E+02  0.51100000000E-03 0. -1.
        -11    1    4    4    0    0 -0.18094148384E+02  0.22382567863E+01  0.14314276508E+02  0.23179872980E+02  0.51100000000E-03 0.  1.
        -12    1    4    4    0    0 -0.20021057678E+01  0.91059236046E+01  0.70685756597E+01  0.11700044190E+02  0.00000000000E+00 0.  1.
</event>
<event>
 8    1  0.1271559E-006  0.9118800E+02  0.7816164E-02  0.1184000E+00
        -11   -1    0    0    0    0  0.00000000000E+00  0.00000000000E+00  0.45593999997E+02  0.45594000000E+02  0.51100000000E-03 0. -1.
         11   -1    0    0    0    0 -0.00000000000E+00 -0.00000000000E+00 -0.45593999997E+02  0.45594000000E+02  0.51100000000E-03 0.  1.
         23    2    1    2    0    0  0.00000000000E+00  0.00000000000E+00  0.00000000000E+00  0.91188000000E+02  0.91188000000E+02 0.  0.
    9900012    2    3    3    0    0  0.99025692966E+01  0.35600642943E+01 -0.35285192910E+02  0.54367085086E+02  0.40000002070E+02 0.  0.
         12    1    3    3    0    0 -0.99025692966E+01 -0.35600642943E+01  0.35285192910E+02  0.36820914914E+02  0.00000000000E+00 0. -1.
         11    1    4    4    0    0  0.13032119964E+02  0.28504081115E+01 -0.32356661890E+02  0.34998779209E+02  0.51100000000E-03 0.  1.
        -11    1    4    4    0    0 -0.47438636896E+00 -0.70630276699E+01 -0.72112659122E+01  0.10105135259E+02  0.51100000000E-03 0. -1.
         12    1    4    4    0    0 -0.26551642987E+01  0.77726838527E+01  0.42827348930E+01  0.92631706176E+01  0.00000000000E+00 0. -1.
</event>
<event>
 8    1  0.1271559E-006  0.9118800E+02  0.7816164E-02  0.1184000E+00
        -11   -1    0    0    0    0  0.00000000000E+00  0.00000000000E+00  0.45593999997E+02  0.45594000000E+02  0.51100000000E-03 0.  1.
         11   -1    0    0    0    0 -0.00000000000E+00 -0.00000000000E+00 -0.45593999997E+02  0.45594000000E+02  0.51100000000E-03 0. -1.
         23    2    1    2    0    0  0.00000000000E+00  0.00000000000E+00 -0.35527136788E-14  0.91188000000E+02  0.91188000000E+02 0.  0.
    9900012    2    3    3    0    0  0.24159825286E+02  0.19270879287E+02  0.20017883273E+02  0.54367087503E+02  0.40000007581E+02 0.  0.
         12    1    3    3    0    0 -0.24159825286E+02 -0.19270879287E+02 -0.20017883273E+02  0.36820912497E+02  0.00000000000E+00 0. -1.
         11    1    4    4    0    0  0.11328616807E+02  0.40844445419E+01  0.12207091210E+02  0.17147399862E+02  0.51100000000E-03 0.  1.
        -11    1    4    4    0    0  0.59893287406E+01 -0.88314603781E+01 -0.10466602165E+01  0.10722045003E+02  0.51100000000E-03 0. -1.
         12    1    4    4    0    0  0.68418797391E+01  0.24017895123E+02  0.88574522796E+01  0.26497642639E+02  0.00000000000E+00 0. -1.
</event>
<event>
 8    1  0.1271559E-006  0.9118800E+02  0.7816164E-02  0.1184000E+00
        -11   -1    0    0    0    0  0.00000000000E+00  0.00000000000E+00  0.45593999997E+02  0.45594000000E+02  0.51100000000E-03 0.  1.
         11   -1    0    0    0    0 -0.00000000000E+00 -0.00000000000E+00 -0.45593999997E+02  0.45594000000E+02  0.51100000000E-03 0. -1.
         23    2    1    2    0    0 -0.22204460493E-15  0.35527136788E-14  0.00000000000E+00  0.91188000000E+02  0.91188000000E+02 0.  0.
    9900012    2    3    3    0    0 -0.14552232358E+01  0.24041994690E+02  0.27850394903E+02  0.54367086383E+02  0.40000005028E+02 0.  0.
         12    1    3    3    0    0  0.14552232358E+01 -0.24041994690E+02 -0.27850394903E+02  0.36820913617E+02  0.00000000000E+00 0. -1.
         11    1    4    4    0    0  0.76128600794E+01  0.22586487868E+02  0.12949396240E+02  0.27125484992E+02  0.51100000000E-03 0. -1.
        -11    1    4    4    0    0 -0.34658416670E+01  0.18348094650E+01  0.19557597443E+02  0.19946884524E+02  0.51100000000E-03 0.  1.
         12    1    4    4    0    0 -0.56022416483E+01 -0.37930264331E+00 -0.46565987794E+01  0.72947168672E+01  0.00000000000E+00 0. -1.
</event>
<event>
 8    1  0.1271559E-006  0.9118800E+02  0.7816164E-02  0.1184000E+00
        -11   -1    0    0    0    0  0.00000000000E+00  0.00000000000E+00  0.45593999997E+02  0.45594000000E+02  0.51100000000E-03 0. -1.
         11   -1    0    0    0    0 -0.00000000000E+00 -0.00000000000E+00 -0.45593999997E+02  0.45594000000E+02  0.51100000000E-03 0.  1.
         23    2    1    2    0    0  0.00000000000E+00 -0.17763568394E-14 -0.23869795029E-14  0.91188000000E+02  0.91188000000E+02 0.  0.
    9900012    2    3    3    0    0  0.36799927493E+02 -0.11470596931E+01 -0.47965580782E+00  0.54367075526E+02  0.39999980276E+02 0.  0.
         12    1    3    3    0    0 -0.36799927493E+02  0.11470596931E+01  0.47965580782E+00  0.36820924474E+02  0.00000000000E+00 0. -1.
         11    1    4    4    0    0  0.76284153998E+01  0.63264284004E+01  0.12085571351E+02  0.15629377882E+02  0.51100000000E-03 0. -1.
        -11    1    4    4    0    0  0.20636074278E+02 -0.10599133655E+02 -0.16865958044E+02  0.28681871223E+02  0.51100000000E-03 0.  1.
        -12    1    4    4    0    0  0.85354378150E+01  0.31256455619E+01  0.43007308844E+01  0.10055826421E+02  0.00000000000E+00 0.  1.
</event>
<event>
 8    1  0.1271559E-006  0.9118800E+02  0.7816164E-02  0.1184000E+00
        -11   -1    0    0    0    0  0.00000000000E+00  0.00000000000E+00  0.45593999997E+02  0.45594000000E+02  0.51100000000E-03 0.  1.
         11   -1    0    0    0    0 -0.00000000000E+00 -0.00000000000E+00 -0.45593999997E+02  0.45594000000E+02  0.51100000000E-03 0. -1.
         23    2    1    2    0    0  0.00000000000E+00 -0.17763568394E-14  0.00000000000E+00  0.91188000000E+02  0.91188000000E+02 0.  0.
    9900012    2    3    3    0    0 -0.21489200901E+02 -0.87400604321E+01 -0.28593797422E+02  0.54367086612E+02  0.40000005549E+02 0.  0.
        -12    1    3    3    0    0  0.21489200901E+02  0.87400604321E+01  0.28593797422E+02  0.36820913388E+02  0.00000000000E+00 0.  1.
         11    1    4    4    0    0 -0.35895248101E+01 -0.14666441211E+02 -0.17457267428E+02  0.23081277531E+02  0.51100000000E-03 0.  1.
        -11    1    4    4    0    0  0.24083089674E+00 -0.34681152714E+01 -0.10265823723E+02  0.10838494362E+02  0.51100000000E-03 0. -1.
         12    1    4    4    0    0 -0.18140506988E+02  0.93944960501E+01 -0.87070627113E+00  0.20447314719E+02  0.00000000000E+00 0. -1.
</event>
<event>
 8    1  0.1271559E-006  0.9118800E+02  0.7816164E-02  0.1184000E+00
        -11   -1    0    0    0    0  0.00000000000E+00  0.00000000000E+00  0.45593999997E+02  0.45594000000E+02  0.51100000000E-03 0.  1.
         11   -1    0    0    0    0 -0.00000000000E+00 -0.00000000000E+00 -0.45593999997E+02  0.45594000000E+02  0.51100000000E-03 0. -1.
         23    2    1    2    0    0  0.00000000000E+00 -0.12073675393E-14  0.71054273576E-14  0.91188000000E+02  0.91188000000E+02 0.  0.
    9900012    2    3    3    0    0 -0.59168702731E+01  0.90354682707E-01  0.36342282055E+02  0.54367095845E+02  0.40000026598E+02 0.  0.
         12    1    3    3    0    0  0.59168702731E+01 -0.90354682707E-01 -0.36342282055E+02  0.36820904155E+02  0.00000000000E+00 0. -1.
         11    1    4    4    0    0  0.73657772149E+00 -0.89178489123E+01 -0.63170122596E+00  0.89704861999E+01  0.51100000000E-03 0. -1.
        -11    1    4    4    0    0 -0.20764726733E+01 -0.95307703306E+00  0.33947142877E+02  0.34023941635E+02  0.51100000000E-03 0.  1.
         12    1    4    4    0    0 -0.45769753213E+01  0.99612806281E+01  0.30268404040E+01  0.11372668010E+02  0.00000000000E+00 0. -1.
</event>
<event>
 8    1  0.1271559E-006  0.9118800E+02  0.7816164E-02  0.1184000E+00
        -11   -1    0    0    0    0  0.00000000000E+00  0.00000000000E+00  0.45593999997E+02  0.45594000000E+02  0.51100000000E-03 0.  1.
         11   -1    0    0    0    0 -0.00000000000E+00 -0.00000000000E+00 -0.45593999997E+02  0.45594000000E+02  0.51100000000E-03 0. -1.
         23    2    1    2    0    0  0.00000000000E+00 -0.44408920985E-15  0.17763568394E-14  0.91188000000E+02  0.91188000000E+02 0.  0.
    9900012    2    3    3    0    0  0.34140012769E+02  0.38011876290E+01 -0.13258536254E+02  0.54367105349E+02  0.40000048265E+02 0.  0.
        -12    1    3    3    0    0 -0.34140012769E+02 -0.38011876290E+01  0.13258536254E+02  0.36820894651E+02  0.00000000000E+00 0.  1.
         11    1    4    4    0    0  0.52002531612E+01  0.12590056855E+01 -0.81506756184E+01  0.97499354642E+01  0.51100000000E-03 0. -1.
        -11    1    4    4    0    0  0.10920784271E+02 -0.12496289599E+02 -0.11621259982E+02  0.20260169463E+02  0.51100000000E-03 0.  1.
        -12    1    4    4    0    0  0.18018975337E+02  0.15038471543E+02  0.65133993465E+01  0.24357000422E+02  0.00000000000E+00 0.  1.
</event>
<event>
 8    1  0.1271559E-006  0.9118800E+02  0.7816164E-02  0.1184000E+00
        -11   -1    0    0    0    0  0.00000000000E+00  0.00000000000E+00  0.45593999997E+02  0.45594000000E+02  0.51100000000E-03 0.  1.
         11   -1    0    0    0    0 -0.00000000000E+00 -0.00000000000E+00 -0.45593999997E+02  0.45594000000E+02  0.51100000000E-03 0. -1.
         23    2    1    2    0    0  0.35527136788E-14  0.00000000000E+00  0.17763568394E-14  0.91188000000E+02  0.91188000000E+02 0.  0.
    9900012    2    3    3    0    0 -0.28796617865E+02  0.20377191888E+02 -0.10550235814E+02  0.54367046381E+02  0.39999913834E+02 0.  0.
        -12    1    3    3    0    0  0.28796617865E+02 -0.20377191888E+02  0.10550235814E+02  0.36820953619E+02  0.00000000000E+00 0.  1.
         11    1    4    4    0    0 -0.33417717536E+02  0.14137125273E+02 -0.70674408653E+01  0.36966888927E+02  0.51100000000E-03 0. -1.
        -11    1    4    4    0    0 -0.11656021631E+00  0.10600263139E+02 -0.19008336921E+01  0.10769973718E+02  0.51100000000E-03 0.  1.
         12    1    4    4    0    0  0.47376598877E+01 -0.43601965243E+01 -0.15819612566E+01  0.66301837350E+01  0.00000000000E+00 0. -1.
</event>
<event>
 8    1  0.1271559E-006  0.9118800E+02  0.7816164E-02  0.1184000E+00
        -11   -1    0    0    0    0  0.00000000000E+00  0.00000000000E+00  0.45593999997E+02  0.45594000000E+02  0.51100000000E-03 0.  1.
         11   -1    0    0    0    0 -0.00000000000E+00 -0.00000000000E+00 -0.45593999997E+02  0.45594000000E+02  0.51100000000E-03 0. -1.
         23    2    1    2    0    0  0.35527136788E-14  0.00000000000E+00  0.00000000000E+00  0.91188000000E+02  0.91188000000E+02 0.  0.
    9900012    2    3    3    0    0 -0.22451029335E+02 -0.11835156232E+02  0.26676958335E+02  0.54367085464E+02  0.40000002933E+02 0.  0.
         12    1    3    3    0    0  0.22451029335E+02  0.11835156232E+02 -0.26676958335E+02  0.36820914536E+02  0.00000000000E+00 0. -1.
         11    1    4    4    0    0 -0.11995970388E+01  0.82120345831E+01  0.36647073597E+01  0.90722998927E+01  0.51100000000E-03 0. -1.
        -11    1    4    4    0    0 -0.11405732259E+02  0.26917521995E+01  0.15441733835E+02  0.19385133540E+02  0.51100000000E-03 0.  1.
         12    1    4    4    0    0 -0.98457000372E+01 -0.22738943014E+02  0.75705171406E+01  0.25909652032E+02  0.00000000000E+00 0. -1.
</event>
<event>
 8    1  0.1271559E-006  0.9118800E+02  0.7816164E-02  0.1184000E+00
        -11   -1    0    0    0    0  0.00000000000E+00  0.00000000000E+00  0.45593999997E+02  0.45594000000E+02  0.51100000000E-03 0. -1.
         11   -1    0    0    0    0 -0.00000000000E+00 -0.00000000000E+00 -0.45593999997E+02  0.45594000000E+02  0.51100000000E-03 0.  1.
         23    2    1    2    0    0 -0.35527136788E-14  0.00000000000E+00  0.00000000000E+00  0.91188000000E+02  0.91188000000E+02 0.  0.
    9900012    2    3    3    0    0 -0.22724088871E+02 -0.25249108071E+02 -0.14208674078E+02  0.54366972143E+02  0.39999744593E+02 0.  0.
         12    1    3    3    0    0  0.22724088871E+02  0.25249108071E+02  0.14208674078E+02  0.36821027857E+02  0.00000000000E+00 0. -1.
         11    1    4    4    0    0 -0.95368536970E+01 -0.14760217582E+02 -0.47108772567E+01  0.18193624331E+02  0.51100000000E-03 0. -1.
        -11    1    4    4    0    0  0.13523936026E+01 -0.51682695206E+01 -0.17814605262E+02  0.18598390769E+02  0.51100000000E-03 0.  1.
         12    1    4    4    0    0 -0.14539628776E+02 -0.53206209686E+01  0.83168084402E+01  0.17574957043E+02  0.00000000000E+00 0. -1.
</event>
<event>
 8    1  0.1271559E-006  0.9118800E+02  0.7816164E-02  0.1184000E+00
        -11   -1    0    0    0    0  0.00000000000E+00  0.00000000000E+00  0.45593999997E+02  0.45594000000E+02  0.51100000000E-03 0.  1.
         11   -1    0    0    0    0 -0.00000000000E+00 -0.00000000000E+00 -0.45593999997E+02  0.45594000000E+02  0.51100000000E-03 0. -1.
         23    2    1    2    0    0  0.17763568394E-14  0.00000000000E+00 -0.66613381478E-15  0.91188000000E+02  0.91188000000E+02 0.  0.
    9900012    2    3    3    0    0  0.93788362568E+01 -0.35596619584E+02 -0.83536829804E+00  0.54367085624E+02  0.40000003296E+02 0.  0.
        -12    1    3    3    0    0 -0.93788362568E+01  0.35596619584E+02  0.83536829804E+00  0.36820914376E+02  0.00000000000E+00 0.  1.
         11    1    4    4    0    0 -0.19477650286E+01 -0.19112115341E+02 -0.14294454062E+02  0.23945733620E+02  0.51100000000E-03 0. -1.
        -11    1    4    4    0    0 -0.27769163536E+01 -0.50759282343E+01  0.10573663137E+02  0.12053159929E+02  0.51100000000E-03 0.  1.
         12    1    4    4    0    0  0.14103517639E+02 -0.11408576009E+02  0.28854226272E+01  0.18368192074E+02  0.00000000000E+00 0. -1.
</event>
<event>
 8    1  0.1271559E-006  0.9118800E+02  0.7816164E-02  0.1184000E+00
        -11   -1    0    0    0    0  0.00000000000E+00  0.00000000000E+00  0.45593999997E+02  0.45594000000E+02  0.51100000000E-03 0. -1.
         11   -1    0    0    0    0 -0.00000000000E+00 -0.00000000000E+00 -0.45593999997E+02  0.45594000000E+02  0.51100000000E-03 0.  1.
         23    2    1    2    0    0  0.88817841970E-15 -0.17763568394E-14  0.00000000000E+00  0.91188000000E+02  0.91188000000E+02 0.  0.
    9900012    2    3    3    0    0 -0.78005774812E+01  0.12662680717E+02  0.33683630329E+02  0.54367089580E+02  0.40000012316E+02 0.  0.
        -12    1    3    3    0    0  0.78005774812E+01 -0.12662680717E+02 -0.33683630329E+02  0.36820910420E+02  0.00000000000E+00 0.  1.
         11    1    4    4    0    0  0.69190974785E+01  0.17597456846E+02  0.42059629287E+01  0.19370971111E+02  0.51100000000E-03 0. -1.
        -11    1    4    4    0    0 -0.75553479828E+00 -0.10704458782E+01 -0.72532738569E+00  0.14975938325E+01  0.51100000000E-03 0.  1.
        -12    1    4    4    0    0 -0.13964140161E+02 -0.38643302517E+01  0.30202994786E+02  0.33498524636E+02  0.00000000000E+00 0.  1.
</event>
<event>
 8    1  0.1271559E-006  0.9118800E+02  0.7816164E-02  0.1184000E+00
        -11   -1    0    0    0    0  0.00000000000E+00  0.00000000000E+00  0.45593999997E+02  0.45594000000E+02  0.51100000000E-03 0. -1.
         11   -1    0    0    0    0 -0.00000000000E+00 -0.00000000000E+00 -0.45593999997E+02  0.45594000000E+02  0.51100000000E-03 0.  1.
         23    2    1    2    0    0  0.66613381478E-15  0.00000000000E+00  0.74940054162E-15  0.91188000000E+02  0.91188000000E+02 0.  0.
    9900012    2    3    3    0    0  0.18686460512E+01  0.36772995687E+02 -0.18217819721E+00  0.54367105948E+02  0.40000049630E+02 0.  0.
         12    1    3    3    0    0 -0.18686460512E+01 -0.36772995687E+02  0.18217819721E+00  0.36820894052E+02  0.00000000000E+00 0. -1.
         11    1    4    4    0    0 -0.18734231658E+01  0.27024281405E+01  0.98364360053E+00  0.34322568678E+01  0.51100000000E-03 0. -1.
        -11    1    4    4    0    0  0.78964670548E+01  0.22877932964E+02  0.16730222276E+02  0.29422004458E+02  0.51100000000E-03 0.  1.
        -12    1    4    4    0    0 -0.41543978378E+01  0.11192634583E+02 -0.17896044073E+02  0.21512844623E+02  0.00000000000E+00 0.  1.
</event>
<event>
 8    1  0.1271559E-006  0.9118800E+02  0.7816164E-02  0.1184000E+00
        -11   -1    0    0    0    0  0.00000000000E+00  0.00000000000E+00  0.45593999997E+02  0.45594000000E+02  0.51100000000E-03 0.  1.
         11   -1    0    0    0    0 -0.00000000000E+00 -0.00000000000E+00 -0.45593999997E+02  0.45594000000E+02  0.51100000000E-03 0. -1.
         23    2    1    2    0    0 -0.88817841970E-15  0.00000000000E+00 -0.71054273576E-14  0.91188000000E+02  0.91188000000E+02 0.  0.
    9900012    2    3    3    0    0 -0.47523755283E+01  0.64850283104E+01 -0.35932400388E+02  0.54367108335E+02  0.40000055072E+02 0.  0.
        -12    1    3    3    0    0  0.47523755283E+01 -0.64850283104E+01  0.35932400388E+02  0.36820891665E+02  0.00000000000E+00 0.  1.
         11    1    4    4    0    0 -0.77764408292E+01  0.40509511024E+01 -0.35411781816E+02  0.36481194176E+02  0.51100000000E-03 0. -1.
        -11    1    4    4    0    0 -0.41946658321E+01  0.71006939806E+01  0.27431522299E+01  0.86913727838E+01  0.51100000000E-03 0.  1.
         12    1    4    4    0    0  0.72187311329E+01 -0.46666167727E+01 -0.32637708014E+01  0.91945413761E+01  0.00000000000E+00 0. -1.
</event>
<event>
 8    1  0.1271559E-006  0.9118800E+02  0.7816164E-02  0.1184000E+00
        -11   -1    0    0    0    0  0.00000000000E+00  0.00000000000E+00  0.45593999997E+02  0.45594000000E+02  0.51100000000E-03 0.  1.
         11   -1    0    0    0    0 -0.00000000000E+00 -0.00000000000E+00 -0.45593999997E+02  0.45594000000E+02  0.51100000000E-03 0. -1.
         23    2    1    2    0    0  0.00000000000E+00  0.00000000000E+00  0.00000000000E+00  0.91188000000E+02  0.91188000000E+02 0.  0.
    9900012    2    3    3    0    0 -0.30143873329E+02  0.16928562161E+02 -0.12670770601E+02  0.54367112670E+02  0.40000064954E+02 0.  0.
         12    1    3    3    0    0  0.30143873329E+02 -0.16928562161E+02  0.12670770601E+02  0.36820887330E+02  0.00000000000E+00 0. -1.
         11    1    4    4    0    0 -0.14312508485E+02  0.10953118870E+02 -0.23443705309E+02  0.29570695477E+02  0.51100000000E-03 0. -1.
        -11    1    4    4    0    0 -0.32011780277E+00  0.22131886948E+01  0.83601787888E+01  0.86540897412E+01  0.51100000000E-03 0.  1.
         12    1    4    4    0    0 -0.15511247042E+02  0.37622545959E+01  0.24127559197E+01  0.16142327452E+02  0.00000000000E+00 0. -1.
</event>
<event>
 8    1  0.1271559E-006  0.9118800E+02  0.7816164E-02  0.1184000E+00
        -11   -1    0    0    0    0  0.00000000000E+00  0.00000000000E+00  0.45593999997E+02  0.45594000000E+02  0.51100000000E-03 0. -1.
         11   -1    0    0    0    0 -0.00000000000E+00 -0.00000000000E+00 -0.45593999997E+02  0.45594000000E+02  0.51100000000E-03 0.  1.
         23    2    1    2    0    0  0.00000000000E+00  0.00000000000E+00  0.00000000000E+00  0.91188000000E+02  0.91188000000E+02 0.  0.
    9900012    2    3    3    0    0  0.20409327321E+02 -0.12719900957E+02  0.27882658241E+02  0.54367093538E+02  0.40000021340E+02 0.  0.
        -12    1    3    3    0    0 -0.20409327321E+02  0.12719900957E+02 -0.27882658241E+02  0.36820906462E+02  0.00000000000E+00 0.  1.
         11    1    4    4    0    0  0.14077054662E+02 -0.17194978703E+02  0.27798864021E+02  0.35589431039E+02  0.51100000000E-03 0. -1.
        -11    1    4    4    0    0  0.10203072897E+02 -0.26014614548E+01 -0.12453155255E+01  0.10602882120E+02  0.51100000000E-03 0.  1.
         12    1    4    4    0    0 -0.38708002370E+01  0.70765392009E+01  0.13291097453E+01  0.81747803794E+01  0.00000000000E+00 0. -1.
</event>
<event>
 8    1  0.1271559E-006  0.9118800E+02  0.7816164E-02  0.1184000E+00
        -11   -1    0    0    0    0  0.00000000000E+00  0.00000000000E+00  0.45593999997E+02  0.45594000000E+02  0.51100000000E-03 0.  1.
         11   -1    0    0    0    0 -0.00000000000E+00 -0.00000000000E+00 -0.45593999997E+02  0.45594000000E+02  0.51100000000E-03 0. -1.
         23    2    1    2    0    0  0.00000000000E+00 -0.71054273576E-14  0.17763568394E-14  0.91188000000E+02  0.91188000000E+02 0.  0.
    9900012    2    3    3    0    0 -0.10257249958E+02 -0.32900400560E+02  0.12966620930E+02  0.54367071277E+02  0.39999970589E+02 0.  0.
         12    1    3    3    0    0  0.10257249958E+02  0.32900400560E+02 -0.12966620930E+02  0.36820928723E+02  0.00000000000E+00 0. -1.
         11    1    4    4    0    0 -0.12799215313E+01 -0.11486227460E+02 -0.11675890913E+02  0.16428574170E+02  0.51100000000E-03 0. -1.
        -11    1    4    4    0    0 -0.10647529759E+02 -0.20948095126E+02  0.14421028586E+02  0.27570974686E+02  0.51100000000E-03 0.  1.
        -12    1    4    4    0    0  0.16702013322E+01 -0.46607797326E+00  0.10221483257E+02  0.10367522421E+02  0.00000000000E+00 0.  1.
</event>
<event>
 8    1  0.1271559E-006  0.9118800E+02  0.7816164E-02  0.1184000E+00
        -11   -1    0    0    0    0  0.00000000000E+00  0.00000000000E+00  0.45593999997E+02  0.45594000000E+02  0.51100000000E-03 0.  1.
         11   -1    0    0    0    0 -0.00000000000E+00 -0.00000000000E+00 -0.45593999997E+02  0.45594000000E+02  0.51100000000E-03 0. -1.
         23    2    1    2    0    0  0.00000000000E+00  0.00000000000E+00  0.00000000000E+00  0.91188000000E+02  0.91188000000E+02 0.  0.
    9900012    2    3    3    0    0  0.34561801394E+02 -0.44422905860E+01  0.11896536235E+02  0.54367086980E+02  0.40000006389E+02 0.  0.
         12    1    3    3    0    0 -0.34561801394E+02  0.44422905860E+01 -0.11896536235E+02  0.36820913020E+02  0.00000000000E+00 0. -1.
         11    1    4    4    0    0  0.11884975838E+02 -0.27446572476E+01 -0.53174253245E+01  0.13306419744E+02  0.51100000000E-03 0.  1.
        -11    1    4    4    0    0 -0.19765876138E-01  0.10129479569E+02  0.10525241801E+02  0.14607787726E+02  0.51100000000E-03 0. -1.
         12    1    4    4    0    0  0.22696591432E+02 -0.11827112908E+02  0.66887197585E+01  0.26452879510E+02  0.00000000000E+00 0. -1.
</event>
<event>
 8    1  0.1271559E-006  0.9118800E+02  0.7816164E-02  0.1184000E+00
        -11   -1    0    0    0    0  0.00000000000E+00  0.00000000000E+00  0.45593999997E+02  0.45594000000E+02  0.51100000000E-03 0. -1.
         11   -1    0    0    0    0 -0.00000000000E+00 -0.00000000000E+00 -0.45593999997E+02  0.45594000000E+02  0.51100000000E-03 0.  1.
         23    2    1    2    0    0  0.71054273576E-14  0.17763568394E-14  0.00000000000E+00  0.91188000000E+02  0.91188000000E+02 0.  0.
    9900012    2    3    3    0    0 -0.30877643750E+02  0.12432137172E+02  0.15741439957E+02  0.54367084067E+02  0.39999999747E+02 0.  0.
        -12    1    3    3    0    0  0.30877643750E+02 -0.12432137172E+02 -0.15741439957E+02  0.36820915933E+02  0.00000000000E+00 0.  1.
         11    1    4    4    0    0 -0.47548489180E+01  0.24495998326E+01  0.13829383698E+02  0.14827709915E+02  0.51100000000E-03 0. -1.
        -11    1    4    4    0    0 -0.48007254429E-01  0.12081483890E+02 -0.39886933215E+01  0.12722980482E+02  0.51100000000E-03 0.  1.
         12    1    4    4    0    0 -0.26074787578E+02 -0.20989465508E+01  0.59007495799E+01  0.26816393670E+02  0.00000000000E+00 0. -1.
</event>
<event>
 8    1  0.1271559E-006  0.9118800E+02  0.7816164E-02  0.1184000E+00
        -11   -1    0    0    0    0  0.00000000000E+00  0.00000000000E+00  0.45593999997E+02  0.45594000000E+02  0.51100000000E-03 0. -1.
         11   -1    0    0    0    0 -0.00000000000E+00 -0.00000000000E+00 -0.45593999997E+02  0.45594000000E+02  0.51100000000E-03 0.  1.
         23    2    1    2    0    0  0.00000000000E+00 -0.35527136788E-14  0.00000000000E+00  0.91188000000E+02  0.91188000000E+02 0.  0.
    9900012    2    3    3    0    0 -0.90484731987E+01 -0.31288697604E+02  0.17173331762E+02  0.54367071321E+02  0.39999970691E+02 0.  0.
         12    1    3    3    0    0  0.90484731987E+01  0.31288697604E+02 -0.17173331762E+02  0.36820928679E+02  0.00000000000E+00 0. -1.
         11    1    4    4    0    0 -0.24579217803E+01 -0.13959710248E+01  0.22804377845E+01  0.36318743549E+01  0.51100000000E-03 0. -1.
        -11    1    4    4    0    0 -0.36780192402E+01 -0.39057695823E+00 -0.10855885630E+02  0.11468680350E+02  0.51100000000E-03 0.  1.
        -12    1    4    4    0    0 -0.29125321782E+01 -0.29502149621E+02  0.25748779607E+02  0.39266516617E+02  0.00000000000E+00 0.  1.
</event>
<event>
 8    1  0.1271559E-006  0.9118800E+02  0.7816164E-02  0.1184000E+00
        -11   -1    0    0    0    0  0.00000000000E+00  0.00000000000E+00  0.45593999997E+02  0.45594000000E+02  0.51100000000E-03 0.  1.
         11   -1    0    0    0    0 -0.00000000000E+00 -0.00000000000E+00 -0.45593999997E+02  0.45594000000E+02  0.51100000000E-03 0. -1.
         23    2    1    2    0    0  0.00000000000E+00  0.00000000000E+00  0.00000000000E+00  0.91188000000E+02  0.91188000000E+02 0.  0.
    9900012    2    3    3    0    0  0.93092272886E+01 -0.22059633099E+01 -0.35556318084E+02  0.54367085528E+02  0.40000003079E+02 0.  0.
        -12    1    3    3    0    0 -0.93092272886E+01  0.22059633099E+01  0.35556318084E+02  0.36820914472E+02  0.00000000000E+00 0.  1.
         11    1    4    4    0    0  0.13179316341E+02 -0.22792792764E+01 -0.24249197852E+02  0.27693195734E+02  0.51100000000E-03 0. -1.
        -11    1    4    4    0    0  0.21164658257E+01 -0.11142200507E+02 -0.40992727781E+01  0.12059523096E+02  0.51100000000E-03 0.  1.
         12    1    4    4    0    0 -0.59865548780E+01  0.11215516474E+02 -0.72078474540E+01  0.14614366698E+02  0.00000000000E+00 0. -1.
</event>
<event>
 8    1  0.1271559E-006  0.9118800E+02  0.7816164E-02  0.1184000E+00
        -11   -1    0    0    0    0  0.00000000000E+00  0.00000000000E+00  0.45593999997E+02  0.45594000000E+02  0.51100000000E-03 0.  1.
         11   -1    0    0    0    0 -0.00000000000E+00 -0.00000000000E+00 -0.45593999997E+02  0.45594000000E+02  0.51100000000E-03 0. -1.
         23    2    1    2    0    0  0.17763568394E-14  0.00000000000E+00  0.00000000000E+00  0.91188000000E+02  0.91188000000E+02 0.  0.
    9900012    2    3    3    0    0 -0.15066017972E+02 -0.27104837342E+02 -0.19852541253E+02  0.54367075255E+02  0.39999979659E+02 0.  0.
        -12    1    3    3    0    0  0.15066017972E+02  0.27104837342E+02  0.19852541253E+02  0.36820924745E+02  0.00000000000E+00 0.  1.
         11    1    4    4    0    0  0.18342521603E+01 -0.65538638272E+01 -0.21883514579E+02  0.22917369453E+02  0.51100000000E-03 0. -1.
        -11    1    4    4    0    0 -0.94696031527E+01 -0.38161055406E+01  0.71178063646E+01  0.12445851239E+02  0.51100000000E-03 0.  1.
        -12    1    4    4    0    0 -0.74306669799E+01 -0.16734867974E+02 -0.50868330385E+01  0.19003854563E+02  0.00000000000E+00 0.  1.
</event>
<event>
 8    1  0.1271559E-006  0.9118800E+02  0.7816164E-02  0.1184000E+00
        -11   -1    0    0    0    0  0.00000000000E+00  0.00000000000E+00  0.45593999997E+02  0.45594000000E+02  0.51100000000E-03 0. -1.
         11   -1    0    0    0    0 -0.00000000000E+00 -0.00000000000E+00 -0.45593999997E+02  0.45594000000E+02  0.51100000000E-03 0.  1.
         23    2    1    2    0    0  0.00000000000E+00  0.35527136788E-14  0.88817841970E-15  0.91188000000E+02  0.91188000000E+02 0.  0.
    9900012    2    3    3    0    0  0.32183692849E+02  0.17246553674E+02  0.47492903422E+01  0.54366953603E+02  0.39999702328E+02 0.  0.
         12    1    3    3    0    0 -0.32183692849E+02 -0.17246553674E+02 -0.47492903422E+01  0.36821046397E+02  0.00000000000E+00 0. -1.
         11    1    4    4    0    0  0.26472845204E+01  0.13356185624E+02 -0.11417051951E+02  0.17769211723E+02  0.51100000000E-03 0. -1.
        -11    1    4    4    0    0  0.15081558105E+02 -0.39265880210E+01  0.38262087786E+01  0.16047160566E+02  0.51100000000E-03 0.  1.
         12    1    4    4    0    0  0.14454850223E+02  0.78169560710E+01  0.12340133514E+02  0.20550581314E+02  0.00000000000E+00 0. -1.
</event>
<event>
 8    1  0.1271559E-006  0.9118800E+02  0.7816164E-02  0.1184000E+00
        -11   -1    0    0    0    0  0.00000000000E+00  0.00000000000E+00  0.45593999997E+02  0.45594000000E+02  0.51100000000E-03 0.  1.
         11   -1    0    0    0    0 -0.00000000000E+00 -0.00000000000E+00 -0.45593999997E+02  0.45594000000E+02  0.51100000000E-03 0. -1.
         23    2    1    2    0    0 -0.17763568394E-14  0.22204460493E-15  0.00000000000E+00  0.91188000000E+02  0.91188000000E+02 0.  0.
    9900012    2    3    3    0    0  0.15346957186E+02  0.18595542648E+01  0.33418454575E+02  0.54367080089E+02  0.39999990678E+02 0.  0.
         12    1    3    3    0    0 -0.15346957186E+02 -0.18595542648E+01 -0.33418454575E+02  0.36820919911E+02  0.00000000000E+00 0. -1.
         11    1    4    4    0    0 -0.70729369046E+01 -0.48813929826E+01  0.22568083907E+02  0.24148971932E+02  0.51100000000E-03 0. -1.
        -11    1    4    4    0    0  0.10158440126E+02 -0.87220718193E+00  0.11991795480E+02  0.15740324338E+02  0.51100000000E-03 0.  1.
         12    1    4    4    0    0  0.12261453965E+02  0.76131544294E+01 -0.11414248120E+01  0.14477783818E+02  0.00000000000E+00 0. -1.
</event>
<event>
 8    1  0.1271559E-006  0.9118800E+02  0.7816164E-02  0.1184000E+00
        -11   -1    0    0    0    0  0.00000000000E+00  0.00000000000E+00  0.45593999997E+02  0.45594000000E+02  0.51100000000E-03 0.  1.
         11   -1    0    0    0    0 -0.00000000000E+00 -0.00000000000E+00 -0.45593999997E+02  0.45594000000E+02  0.51100000000E-03 0. -1.
         23    2    1    2    0    0  0.71054273576E-14  0.00000000000E+00  0.17763568394E-14  0.91188000000E+02  0.91188000000E+02 0.  0.
    9900012    2    3    3    0    0 -0.34732281706E+02 -0.14357300302E+01  0.12140355909E+02  0.54367069067E+02  0.39999965551E+02 0.  0.
         12    1    3    3    0    0  0.34732281706E+02  0.14357300302E+01 -0.12140355909E+02  0.36820930933E+02  0.00000000000E+00 0. -1.
         11    1    4    4    0    0 -0.13155282207E+02 -0.69557490427E+00  0.10450055537E+02  0.16815140064E+02  0.51100000000E-03 0.  1.
        -11    1    4    4    0    0 -0.25993240623E+02 -0.31749811110E+01  0.98349693734E+01  0.27972409370E+02  0.51100000000E-03 0. -1.
         12    1    4    4    0    0  0.44162411235E+01  0.24348259851E+01 -0.81446690019E+01  0.95795196324E+01  0.00000000000E+00 0. -1.
</event>
<event>
 8    1  0.1271559E-006  0.9118800E+02  0.7816164E-02  0.1184000E+00
        -11   -1    0    0    0    0  0.00000000000E+00  0.00000000000E+00  0.45593999997E+02  0.45594000000E+02  0.51100000000E-03 0. -1.
         11   -1    0    0    0    0 -0.00000000000E+00 -0.00000000000E+00 -0.45593999997E+02  0.45594000000E+02  0.51100000000E-03 0.  1.
         23    2    1    2    0    0  0.00000000000E+00  0.00000000000E+00  0.00000000000E+00  0.91188000000E+02  0.91188000000E+02 0.  0.
    9900012    2    3    3    0    0 -0.33995523944E+02 -0.23411766333E+01  0.13950075536E+02  0.54367063514E+02  0.39999952892E+02 0.  0.
        -12    1    3    3    0    0  0.33995523944E+02  0.23411766333E+01 -0.13950075536E+02  0.36820936486E+02  0.00000000000E+00 0.  1.
         11    1    4    4    0    0 -0.26786960648E+02  0.21194920510E+01 -0.67776897081E+01  0.27712282211E+02  0.51100000000E-03 0. -1.
        -11    1    4    4    0    0 -0.20034342880E+01 -0.69742163690E+01  0.27320728972E+01  0.77535582467E+01  0.51100000000E-03 0.  1.
         12    1    4    4    0    0 -0.52051290080E+01  0.25135476848E+01  0.17995692347E+02  0.18901223056E+02  0.00000000000E+00 0. -1.
</event>
<event>
 8    1  0.1271559E-006  0.9118800E+02  0.7816164E-02  0.1184000E+00
        -11   -1    0    0    0    0  0.00000000000E+00  0.00000000000E+00  0.45593999997E+02  0.45594000000E+02  0.51100000000E-03 0. -1.
         11   -1    0    0    0    0 -0.00000000000E+00 -0.00000000000E+00 -0.45593999997E+02  0.45594000000E+02  0.51100000000E-03 0.  1.
         23    2    1    2    0    0  0.00000000000E+00  0.77715611724E-15  0.71054273576E-14  0.91188000000E+02  0.91188000000E+02 0.  0.
    9900012    2    3    3    0    0 -0.21197186175E+02 -0.93817482267E+00 -0.30092858251E+02  0.54367068569E+02  0.39999964416E+02 0.  0.
         12    1    3    3    0    0  0.21197186175E+02  0.93817482267E+00  0.30092858251E+02  0.36820931431E+02  0.00000000000E+00 0. -1.
         11    1    4    4    0    0 -0.52731086801E+01  0.98020001614E+01 -0.70907263049E+00  0.11152921885E+02  0.51100000000E-03 0. -1.
        -11    1    4    4    0    0  0.37606662440E+01  0.45585177947E+01 -0.10076145761E+02  0.11681241747E+02  0.51100000000E-03 0.  1.
        -12    1    4    4    0    0 -0.19684743739E+02 -0.15298692779E+02 -0.19307639859E+02  0.31532904937E+02  0.00000000000E+00 0.  1.
</event>
<event>
 8    1  0.1271559E-006  0.9118800E+02  0.7816164E-02  0.1184000E+00
        -11   -1    0    0    0    0  0.00000000000E+00  0.00000000000E+00  0.45593999997E+02  0.45594000000E+02  0.51100000000E-03 0.  1.
         11   -1    0    0    0    0 -0.00000000000E+00 -0.00000000000E+00 -0.45593999997E+02  0.45594000000E+02  0.51100000000E-03 0. -1.
         23    2    1    2    0    0  0.00000000000E+00  0.00000000000E+00  0.00000000000E+00  0.91188000000E+02  0.91188000000E+02 0.  0.
    9900012    2    3    3    0    0  0.52888931249E+01 -0.12942492112E+02  0.34063178847E+02  0.54367073264E+02  0.39999975121E+02 0.  0.
         12    1    3    3    0    0 -0.52888931249E+01  0.12942492112E+02 -0.34063178847E+02  0.36820926736E+02  0.00000000000E+00 0. -1.
         11    1    4    4    0    0 -0.34054367815E+00 -0.50343740908E+01  0.19453149314E+02  0.20096912971E+02  0.51100000000E-03 0. -1.
        -11    1    4    4    0    0  0.78960878357E+01  0.30620049511E+01  0.20088255480E+02  0.21800506551E+02  0.51100000000E-03 0.  1.
         12    1    4    4    0    0 -0.22666510326E+01 -0.10970122972E+02 -0.54782259466E+01  0.12469653742E+02  0.00000000000E+00 0. -1.
</event>
<event>
 8    1  0.1271559E-006  0.9118800E+02  0.7816164E-02  0.1184000E+00
        -11   -1    0    0    0    0  0.00000000000E+00  0.00000000000E+00  0.45593999997E+02  0.45594000000E+02  0.51100000000E-03 0.  1.
         11   -1    0    0    0    0 -0.00000000000E+00 -0.00000000000E+00 -0.45593999997E+02  0.45594000000E+02  0.51100000000E-03 0. -1.
         23    2    1    2    0    0  0.00000000000E+00  0.00000000000E+00  0.35527136788E-14  0.91188000000E+02  0.91188000000E+02 0.  0.
    9900012    2    3    3    0    0 -0.31861937335E+02 -0.67581216684E+01 -0.17173309316E+02  0.54367111743E+02  0.40000062840E+02 0.  0.
        -12    1    3    3    0    0  0.31861937335E+02  0.67581216684E+01  0.17173309316E+02  0.36820888257E+02  0.00000000000E+00 0.  1.
         11    1    4    4    0    0 -0.36473704930E+02 -0.44372331569E+01 -0.13509378224E+02  0.39147458279E+02  0.51100000000E-03 0. -1.
        -11    1    4    4    0    0  0.54137506394E+01 -0.29039237308E+01  0.41043750398E+01  0.73883261805E+01  0.51100000000E-03 0.  1.
         12    1    4    4    0    0 -0.80198304394E+00  0.58303521931E+00 -0.77683061314E+01  0.78313272835E+01  0.00000000000E+00 0. -1.
</event>
<event>
 8    1  0.1271559E-006  0.9118800E+02  0.7816164E-02  0.1184000E+00
        -11   -1    0    0    0    0  0.00000000000E+00  0.00000000000E+00  0.45593999997E+02  0.45594000000E+02  0.51100000000E-03 0.  1.
         11   -1    0    0    0    0 -0.00000000000E+00 -0.00000000000E+00 -0.45593999997E+02  0.45594000000E+02  0.51100000000E-03 0. -1.
         23    2    1    2    0    0  0.00000000000E+00  0.00000000000E+00  0.44408920985E-15  0.91188000000E+02  0.91188000000E+02 0.  0.
    9900012    2    3    3    0    0 -0.25009981314E+02 -0.26873977032E+02  0.28408749398E+01  0.54367076909E+02  0.39999983430E+02 0.  0.
        -12    1    3    3    0    0  0.25009981314E+02  0.26873977032E+02 -0.28408749398E+01  0.36820923091E+02  0.00000000000E+00 0.  1.
         11    1    4    4    0    0 -0.21486129519E+02 -0.86704790418E+01  0.56644391501E+01  0.23851977689E+02  0.51100000000E-03 0. -1.
        -11    1    4    4    0    0 -0.60543733214E+01  0.39319584519E+01  0.24433199524E+01  0.76213874218E+01  0.51100000000E-03 0.  1.
        -12    1    4    4    0    0  0.25305215273E+01 -0.22135456442E+02 -0.52668841627E+01  0.22893711798E+02  0.00000000000E+00 0.  1.
</event>
<event>
 8    1  0.1271559E-006  0.9118800E+02  0.7816164E-02  0.1184000E+00
        -11   -1    0    0    0    0  0.00000000000E+00  0.00000000000E+00  0.45593999997E+02  0.45594000000E+02  0.51100000000E-03 0.  1.
         11   -1    0    0    0    0 -0.00000000000E+00 -0.00000000000E+00 -0.45593999997E+02  0.45594000000E+02  0.51100000000E-03 0. -1.
         23    2    1    2    0    0  0.00000000000E+00  0.00000000000E+00  0.00000000000E+00  0.91188000000E+02  0.91188000000E+02 0.  0.
    9900012    2    3    3    0    0 -0.34290276408E+02  0.11004781869E+02 -0.76715082572E+01  0.54367077699E+02  0.39999985231E+02 0.  0.
        -12    1    3    3    0    0  0.34290276408E+02 -0.11004781869E+02  0.76715082572E+01  0.36820922301E+02  0.00000000000E+00 0.  1.
         11    1    4    4    0    0 -0.65384499256E+01  0.19078223067E+02 -0.52652898932E+01  0.20843540984E+02  0.51100000000E-03 0. -1.
        -11    1    4    4    0    0 -0.64446475307E+01 -0.70009050947E+01 -0.68586038741E+01  0.11729731510E+02  0.51100000000E-03 0.  1.
         12    1    4    4    0    0 -0.21307178952E+02 -0.10725361033E+01  0.44523855101E+01  0.21793805205E+02  0.00000000000E+00 0. -1.
</event>
<event>
 8    1  0.1271559E-006  0.9118800E+02  0.7816164E-02  0.1184000E+00
        -11   -1    0    0    0    0  0.00000000000E+00  0.00000000000E+00  0.45593999997E+02  0.45594000000E+02  0.51100000000E-03 0.  1.
         11   -1    0    0    0    0 -0.00000000000E+00 -0.00000000000E+00 -0.45593999997E+02  0.45594000000E+02  0.51100000000E-03 0. -1.
         23    2    1    2    0    0  0.22204460493E-14 -0.13322676296E-14  0.00000000000E+00  0.91188000000E+02  0.91188000000E+02 0.  0.
    9900012    2    3    3    0    0 -0.30935030802E+01 -0.37735904221E+01 -0.36496147568E+02  0.54367101949E+02  0.40000040513E+02 0.  0.
        -12    1    3    3    0    0  0.30935030802E+01  0.37735904221E+01  0.36496147568E+02  0.36820898051E+02  0.00000000000E+00 0.  1.
         11    1    4    4    0    0  0.36168027569E+01 -0.93189913168E+01 -0.16071468209E+02  0.18926620195E+02  0.51100000000E-03 0.  1.
        -11    1    4    4    0    0 -0.76668766212E+01  0.16936315958E+01 -0.26802357469E+02  0.27928762079E+02  0.51100000000E-03 0. -1.
         12    1    4    4    0    0  0.95657078417E+00  0.38517692989E+01  0.63776781105E+01  0.75117196751E+01  0.00000000000E+00 0. -1.
</event>
<event>
 8    1  0.1271559E-006  0.9118800E+02  0.7816164E-02  0.1184000E+00
        -11   -1    0    0    0    0  0.00000000000E+00  0.00000000000E+00  0.45593999997E+02  0.45594000000E+02  0.51100000000E-03 0.  1.
         11   -1    0    0    0    0 -0.00000000000E+00 -0.00000000000E+00 -0.45593999997E+02  0.45594000000E+02  0.51100000000E-03 0. -1.
         23    2    1    2    0    0  0.35527136788E-14  0.00000000000E+00  0.00000000000E+00  0.91188000000E+02  0.91188000000E+02 0.  0.
    9900012    2    3    3    0    0  0.19042889608E+02 -0.25397700611E+02 -0.18657601792E+02  0.54367069192E+02  0.39999965838E+02 0.  0.
        -12    1    3    3    0    0 -0.19042889608E+02  0.25397700611E+02  0.18657601792E+02  0.36820930808E+02  0.00000000000E+00 0.  1.
         11    1    4    4    0    0  0.19809861311E+02 -0.14059540315E+02 -0.10955096822E+01  0.24316690169E+02  0.51100000000E-03 0.  1.
        -11    1    4    4    0    0 -0.64470754904E+01 -0.15848282633E+02 -0.11743194418E+02  0.20751758003E+02  0.51100000000E-03 0. -1.
        -12    1    4    4    0    0  0.56801037869E+01  0.45101223382E+01 -0.58188976923E+01  0.92986210208E+01  0.00000000000E+00 0.  1.
</event>
<event>
 8    1  0.1271559E-006  0.9118800E+02  0.7816164E-02  0.1184000E+00
        -11   -1    0    0    0    0  0.00000000000E+00  0.00000000000E+00  0.45593999997E+02  0.45594000000E+02  0.51100000000E-03 0.  1.
         11   -1    0    0    0    0 -0.00000000000E+00 -0.00000000000E+00 -0.45593999997E+02  0.45594000000E+02  0.51100000000E-03 0. -1.
         23    2    1    2    0    0  0.00000000000E+00 -0.71054273576E-14  0.00000000000E+00  0.91188000000E+02  0.91188000000E+02 0.  0.
    9900012    2    3    3    0    0  0.64945711065E+01 -0.35643653342E+02  0.65672826565E+01  0.54367099972E+02  0.40000036006E+02 0.  0.
         12    1    3    3    0    0 -0.64945711065E+01  0.35643653342E+02 -0.65672826565E+01  0.36820900028E+02  0.00000000000E+00 0. -1.
         11    1    4    4    0    0 -0.18082673933E+00  0.35153661560E+01 -0.17726003163E+01  0.39411431924E+01  0.51100000000E-03 0. -1.
        -11    1    4    4    0    0  0.16303766494E+02 -0.24699412020E+02 -0.28968312738E+01  0.29736600137E+02  0.51100000000E-03 0.  1.
        -12    1    4    4    0    0 -0.96283686477E+01 -0.14459607477E+02  0.11236714247E+02  0.20689356642E+02  0.00000000000E+00 0.  1.
</event>
<event>
 8    1  0.1271559E-006  0.9118800E+02  0.7816164E-02  0.1184000E+00
        -11   -1    0    0    0    0  0.00000000000E+00  0.00000000000E+00  0.45593999997E+02  0.45594000000E+02  0.51100000000E-03 0. -1.
         11   -1    0    0    0    0 -0.00000000000E+00 -0.00000000000E+00 -0.45593999997E+02  0.45594000000E+02  0.51100000000E-03 0.  1.
         23    2    1    2    0    0  0.00000000000E+00  0.00000000000E+00 -0.71054273576E-14  0.91188000000E+02  0.91188000000E+02 0.  0.
    9900012    2    3    3    0    0  0.13083366641E+02  0.24396465337E+02  0.24277930926E+02  0.54367082933E+02  0.39999997162E+02 0.  0.
        -12    1    3    3    0    0 -0.13083366641E+02 -0.24396465337E+02 -0.24277930926E+02  0.36820917067E+02  0.00000000000E+00 0.  1.
         11    1    4    4    0    0  0.47282148569E+01  0.82056885759E+00 -0.87104888319E+01  0.99449467035E+01  0.51100000000E-03 0. -1.
        -11    1    4    4    0    0  0.67466859404E+01  0.15285150111E+01  0.40834712121E+01  0.80329861645E+01  0.51100000000E-03 0.  1.
         12    1    4    4    0    0  0.16084658436E+01  0.22047381468E+02  0.28904948546E+02  0.36389150065E+02  0.00000000000E+00 0. -1.
</event>
<event>
 8    1  0.1271559E-006  0.9118800E+02  0.7816164E-02  0.1184000E+00
        -11   -1    0    0    0    0  0.00000000000E+00  0.00000000000E+00  0.45593999997E+02  0.45594000000E+02  0.51100000000E-03 0.  1.
         11   -1    0    0    0    0 -0.00000000000E+00 -0.00000000000E+00 -0.45593999997E+02  0.45594000000E+02  0.51100000000E-03 0. -1.
         23    2    1    2    0    0  0.00000000000E+00 -0.17763568394E-14  0.00000000000E+00  0.91188000000E+02  0.91188000000E+02 0.  0.
    9900012    2    3    3    0    0  0.19776728932E+02 -0.15500832133E+02 -0.26914398885E+02  0.54367086494E+02  0.40000005280E+02 0.  0.
         12    1    3    3    0    0 -0.19776728932E+02  0.15500832133E+02  0.26914398885E+02  0.36820913506E+02  0.00000000000E+00 0. -1.
         11    1    4    4    0    0  0.12446163306E+02 -0.98627029295E+01  0.39220471503E+01  0.16357333042E+02  0.51100000000E-03 0. -1.
        -11    1    4    4    0    0 -0.52043658989E+01 -0.52626817015E+01 -0.40593095162E+01  0.84415186496E+01  0.51100000000E-03 0.  1.
         12    1    4    4    0    0  0.12534931525E+02 -0.37544750194E+00 -0.26777136519E+02  0.29568234803E+02  0.00000000000E+00 0. -1.
</event>
<event>
 8    1  0.1271559E-006  0.9118800E+02  0.7816164E-02  0.1184000E+00
        -11   -1    0    0    0    0  0.00000000000E+00  0.00000000000E+00  0.45593999997E+02  0.45594000000E+02  0.51100000000E-03 0. -1.
         11   -1    0    0    0    0 -0.00000000000E+00 -0.00000000000E+00 -0.45593999997E+02  0.45594000000E+02  0.51100000000E-03 0.  1.
         23    2    1    2    0    0  0.00000000000E+00  0.00000000000E+00  0.35527136788E-14  0.91188000000E+02  0.91188000000E+02 0.  0.
    9900012    2    3    3    0    0 -0.20300779285E+02 -0.26893679100E+02  0.14845454315E+02  0.54367093860E+02  0.40000022073E+02 0.  0.
        -12    1    3    3    0    0  0.20300779285E+02  0.26893679100E+02 -0.14845454315E+02  0.36820906140E+02  0.00000000000E+00 0.  1.
         11    1    4    4    0    0 -0.34771159132E+01  0.51301615756E+01  0.11916220720E+02  0.13431500638E+02  0.51100000000E-03 0. -1.
        -11    1    4    4    0    0 -0.13839462413E+02 -0.12623354124E+02 -0.55750742962E+01  0.19543828767E+02  0.51100000000E-03 0.  1.
        -12    1    4    4    0    0 -0.29842009593E+01 -0.19400486552E+02  0.85043078914E+01  0.21391764455E+02  0.00000000000E+00 0.  1.
</event>
<event>
 8    1  0.1271559E-006  0.9118800E+02  0.7816164E-02  0.1184000E+00
        -11   -1    0    0    0    0  0.00000000000E+00  0.00000000000E+00  0.45593999997E+02  0.45594000000E+02  0.51100000000E-03 0.  1.
         11   -1    0    0    0    0 -0.00000000000E+00 -0.00000000000E+00 -0.45593999997E+02  0.45594000000E+02  0.51100000000E-03 0. -1.
         23    2    1    2    0    0 -0.33306690739E-15  0.00000000000E+00 -0.88817841970E-15  0.91188000000E+02  0.91188000000E+02 0.  0.
    9900012    2    3    3    0    0 -0.76456669063E+00 -0.36479093792E+02  0.49468021215E+01  0.54367086142E+02  0.40000004478E+02 0.  0.
        -12    1    3    3    0    0  0.76456669063E+00  0.36479093792E+02 -0.49468021215E+01  0.36820913858E+02  0.00000000000E+00 0.  1.
         11    1    4    4    0    0 -0.16166403731E+01 -0.21041336958E+02  0.10717525315E+02  0.23668898078E+02  0.51100000000E-03 0. -1.
        -11    1    4    4    0    0 -0.86386167016E+01 -0.10935311748E+02 -0.12081563246E+02  0.18443722842E+02  0.51100000000E-03 0.  1.
         12    1    4    4    0    0  0.94906903840E+01 -0.45024450857E+01  0.63108400523E+01  0.12254465222E+02  0.00000000000E+00 0. -1.
</event>
<event>
 8    1  0.1271559E-006  0.9118800E+02  0.7816164E-02  0.1184000E+00
        -11   -1    0    0    0    0  0.00000000000E+00  0.00000000000E+00  0.45593999997E+02  0.45594000000E+02  0.51100000000E-03 0. -1.
         11   -1    0    0    0    0 -0.00000000000E+00 -0.00000000000E+00 -0.45593999997E+02  0.45594000000E+02  0.51100000000E-03 0.  1.
         23    2    1    2    0    0  0.00000000000E+00 -0.17763568394E-14  0.00000000000E+00  0.91188000000E+02  0.91188000000E+02 0.  0.
    9900012    2    3    3    0    0 -0.23250436610E+02  0.15141024145E+02 -0.24206325348E+02  0.54367087442E+02  0.40000007442E+02 0.  0.
         12    1    3    3    0    0  0.23250436610E+02 -0.15141024145E+02  0.24206325348E+02  0.36820912558E+02  0.00000000000E+00 0. -1.
         11    1    4    4    0    0 -0.14642785990E+02  0.10616410595E+02 -0.55454958018E+00  0.18094940756E+02  0.51100000000E-03 0. -1.
        -11    1    4    4    0    0 -0.53712676988E+01  0.15211348232E+02 -0.16105597219E+02  0.22795304205E+02  0.51100000000E-03 0.  1.
         12    1    4    4    0    0 -0.32363829214E+01 -0.10686734682E+02 -0.75461785492E+01  0.13476842482E+02  0.00000000000E+00 0. -1.
</event>
<event>
 8    1  0.1271559E-006  0.9118800E+02  0.7816164E-02  0.1184000E+00
        -11   -1    0    0    0    0  0.00000000000E+00  0.00000000000E+00  0.45593999997E+02  0.45594000000E+02  0.51100000000E-03 0.  1.
         11   -1    0    0    0    0 -0.00000000000E+00 -0.00000000000E+00 -0.45593999997E+02  0.45594000000E+02  0.51100000000E-03 0. -1.
         23    2    1    2    0    0 -0.35527136788E-14 -0.35527136788E-14  0.88817841970E-15  0.91188000000E+02  0.91188000000E+02 0.  0.
    9900012    2    3    3    0    0  0.23582537287E+02  0.27152650498E+02 -0.78979352940E+01  0.54367083718E+02  0.39999998952E+02 0.  0.
         12    1    3    3    0    0 -0.23582537287E+02 -0.27152650498E+02  0.78979352940E+01  0.36820916282E+02  0.00000000000E+00 0. -1.
         11    1    4    4    0    0  0.21969120870E+02  0.10702899248E+02 -0.12470774372E+02  0.27435643565E+02  0.51100000000E-03 0. -1.
        -11    1    4    4    0    0 -0.50402618955E+01 -0.18671643653E+01  0.51374218097E+01  0.74352972943E+01  0.51100000000E-03 0.  1.
        -12    1    4    4    0    0  0.66536783127E+01  0.18316915615E+02 -0.56458273200E+00  0.19496142859E+02  0.00000000000E+00 0.  1.
</event>
<event>
 8    1  0.1271559E-006  0.9118800E+02  0.7816164E-02  0.1184000E+00
        -11   -1    0    0    0    0  0.00000000000E+00  0.00000000000E+00  0.45593999997E+02  0.45594000000E+02  0.51100000000E-03 0.  1.
         11   -1    0    0    0    0 -0.00000000000E+00 -0.00000000000E+00 -0.45593999997E+02  0.45594000000E+02  0.51100000000E-03 0. -1.
         23    2    1    2    0    0  0.00000000000E+00  0.00000000000E+00  0.00000000000E+00  0.91188000000E+02  0.91188000000E+02 0.  0.
    9900012    2    3    3    0    0  0.29686601860E+02  0.20421605233E+02  0.75800318054E+01  0.54366903161E+02  0.39999587333E+02 0.  0.
         12    1    3    3    0    0 -0.29686601860E+02 -0.20421605233E+02 -0.75800318054E+01  0.36821096839E+02  0.00000000000E+00 0. -1.
         11    1    4    4    0    0 -0.48063983529E+01 -0.21660576034E+01  0.64491669066E+01  0.83297673868E+01  0.51100000000E-03 0. -1.
        -11    1    4    4    0    0  0.12356729007E+01  0.10290182510E+02 -0.15430389581E+01  0.10478344960E+02  0.51100000000E-03 0.  1.
        -12    1    4    4    0    0  0.33257327312E+02  0.12297480326E+02  0.26739038569E+01  0.35558790814E+02  0.00000000000E+00 0.  1.
</event>
<event>
 8    1  0.1271559E-006  0.9118800E+02  0.7816164E-02  0.1184000E+00
        -11   -1    0    0    0    0  0.00000000000E+00  0.00000000000E+00  0.45593999997E+02  0.45594000000E+02  0.51100000000E-03 0.  1.
         11   -1    0    0    0    0 -0.00000000000E+00 -0.00000000000E+00 -0.45593999997E+02  0.45594000000E+02  0.51100000000E-03 0. -1.
         23    2    1    2    0    0  0.00000000000E+00  0.00000000000E+00  0.00000000000E+00  0.91188000000E+02  0.91188000000E+02 0.  0.
    9900012    2    3    3    0    0  0.29833375145E+02 -0.13081002820E+02 -0.17164991941E+02  0.54367083992E+02  0.39999999577E+02 0.  0.
        -12    1    3    3    0    0 -0.29833375145E+02  0.13081002820E+02  0.17164991941E+02  0.36820916008E+02  0.00000000000E+00 0.  1.
         11    1    4    4    0    0  0.30084185186E+02 -0.17405136930E+02 -0.87286966647E+01  0.35835556861E+02  0.51100000000E-03 0. -1.
        -11    1    4    4    0    0 -0.66478263991E+01  0.79220585465E+00 -0.89835201262E+01  0.11203785970E+02  0.51100000000E-03 0.  1.
         12    1    4    4    0    0  0.63970163580E+01  0.35319282550E+01  0.54722484949E+00  0.73277411608E+01  0.00000000000E+00 0. -1.
</event>
<event>
 8    1  0.1271559E-006  0.9118800E+02  0.7816164E-02  0.1184000E+00
        -11   -1    0    0    0    0  0.00000000000E+00  0.00000000000E+00  0.45593999997E+02  0.45594000000E+02  0.51100000000E-03 0. -1.
         11   -1    0    0    0    0 -0.00000000000E+00 -0.00000000000E+00 -0.45593999997E+02  0.45594000000E+02  0.51100000000E-03 0.  1.
         23    2    1    2    0    0 -0.17763568394E-14  0.00000000000E+00  0.00000000000E+00  0.91188000000E+02  0.91188000000E+02 0.  0.
    9900012    2    3    3    0    0  0.83805271955E+01  0.13728179578E+02  0.33122220557E+02  0.54367114008E+02  0.40000068004E+02 0.  0.
        -12    1    3    3    0    0 -0.83805271955E+01 -0.13728179578E+02 -0.33122220557E+02  0.36820885992E+02  0.00000000000E+00 0.  1.
         11    1    4    4    0    0 -0.10733173379E+02  0.18198334506E+02  0.15966940530E+02  0.26482514603E+02  0.51100000000E-03 0. -1.
        -11    1    4    4    0    0  0.90539773413E+01 -0.63477509690E+01  0.54209826249E+01  0.12314848799E+02  0.51100000000E-03 0.  1.
         12    1    4    4    0    0  0.10059723233E+02  0.18775960415E+01  0.11734297402E+02  0.15569750606E+02  0.00000000000E+00 0. -1.
</event>
<event>
 8    1  0.1271559E-006  0.9118800E+02  0.7816164E-02  0.1184000E+00
        -11   -1    0    0    0    0  0.00000000000E+00  0.00000000000E+00  0.45593999997E+02  0.45594000000E+02  0.51100000000E-03 0.  1.
         11   -1    0    0    0    0 -0.00000000000E+00 -0.00000000000E+00 -0.45593999997E+02  0.45594000000E+02  0.51100000000E-03 0. -1.
         23    2    1    2    0    0  0.00000000000E+00  0.00000000000E+00 -0.35527136788E-14  0.91188000000E+02  0.91188000000E+02 0.  0.
    9900012    2    3    3    0    0 -0.56614868012E+01 -0.32393996938E+02  0.16563666524E+02  0.54367102141E+02  0.40000040951E+02 0.  0.
        -12    1    3    3    0    0  0.56614868012E+01  0.32393996938E+02 -0.16563666524E+02  0.36820897859E+02  0.00000000000E+00 0.  1.
         11    1    4    4    0    0 -0.25267929473E+01  0.19269242898E+01 -0.15430715546E+01  0.35325330715E+01  0.51100000000E-03 0. -1.
        -11    1    4    4    0    0  0.74492077730E+00  0.62754295968E+01  0.48049558413E+01  0.79387356983E+01  0.51100000000E-03 0.  1.
         12    1    4    4    0    0 -0.38796146312E+01 -0.40596350824E+02  0.13301782237E+02  0.42895833371E+02  0.00000000000E+00 0. -1.
</event>
<event>
 8    1  0.1271559E-006  0.9118800E+02  0.7816164E-02  0.1184000E+00
        -11   -1    0    0    0    0  0.00000000000E+00  0.00000000000E+00  0.45593999997E+02  0.45594000000E+02  0.51100000000E-03 0.  1.
         11   -1    0    0    0    0 -0.00000000000E+00 -0.00000000000E+00 -0.45593999997E+02  0.45594000000E+02  0.51100000000E-03 0. -1.
         23    2    1    2    0    0  0.00000000000E+00  0.00000000000E+00  0.35527136788E-14  0.91188000000E+02  0.91188000000E+02 0.  0.
    9900012    2    3    3    0    0 -0.82484980835E+01  0.32213405192E+02 -0.15812618884E+02  0.54367080529E+02  0.39999991683E+02 0.  0.
         12    1    3    3    0    0  0.82484980835E+01 -0.32213405192E+02  0.15812618884E+02  0.36820919471E+02  0.00000000000E+00 0. -1.
         11    1    4    4    0    0 -0.31831425260E+01 -0.56495591513E+01 -0.11485161272E+02  0.13189345876E+02  0.51100000000E-03 0. -1.
        -11    1    4    4    0    0  0.30357415075E+00  0.27594261859E+02  0.25323901205E+01  0.27711882736E+02  0.51100000000E-03 0.  1.
        -12    1    4    4    0    0 -0.53689297083E+01  0.10268702484E+02 -0.68598477330E+01  0.13465851916E+02  0.00000000000E+00 0.  1.
</event>
<event>
 8    1  0.1271559E-006  0.9118800E+02  0.7816164E-02  0.1184000E+00
        -11   -1    0    0    0    0  0.00000000000E+00  0.00000000000E+00  0.45593999997E+02  0.45594000000E+02  0.51100000000E-03 0.  1.
         11   -1    0    0    0    0 -0.00000000000E+00 -0.00000000000E+00 -0.45593999997E+02  0.45594000000E+02  0.51100000000E-03 0. -1.
         23    2    1    2    0    0  0.00000000000E+00  0.35527136788E-14 -0.35527136788E-14  0.91188000000E+02  0.91188000000E+02 0.  0.
    9900012    2    3    3    0    0 -0.57782516396E+01  0.21103687740E+02 -0.29614616579E+02  0.54367090949E+02  0.40000015436E+02 0.  0.
        -12    1    3    3    0    0  0.57782516396E+01 -0.21103687740E+02  0.29614616579E+02  0.36820909051E+02  0.00000000000E+00 0.  1.
         11    1    4    4    0    0 -0.17198651904E+02  0.67163302866E+01 -0.26840256366E+02  0.32577631619E+02  0.51100000000E-03 0. -1.
        -11    1    4    4    0    0  0.67983750791E+01  0.28283813670E+01  0.31427993578E+01  0.80059248646E+01  0.51100000000E-03 0.  1.
         12    1    4    4    0    0  0.46220251848E+01  0.11558976086E+02 -0.59171595706E+01  0.13783534465E+02  0.00000000000E+00 0. -1.
</event>
<event>
 8    1  0.1271559E-006  0.9118800E+02  0.7816164E-02  0.1184000E+00
        -11   -1    0    0    0    0  0.00000000000E+00  0.00000000000E+00  0.45593999997E+02  0.45594000000E+02  0.51100000000E-03 0.  1.
         11   -1    0    0    0    0 -0.00000000000E+00 -0.00000000000E+00 -0.45593999997E+02  0.45594000000E+02  0.51100000000E-03 0. -1.
         23    2    1    2    0    0  0.00000000000E+00  0.00000000000E+00  0.00000000000E+00  0.91188000000E+02  0.91188000000E+02 0.  0.
    9900012    2    3    3    0    0  0.34566145011E+02  0.12357829745E+02 -0.28713649027E+01  0.54367094615E+02  0.40000023795E+02 0.  0.
        -12    1    3    3    0    0 -0.34566145011E+02 -0.12357829745E+02  0.28713649027E+01  0.36820905385E+02  0.00000000000E+00 0.  1.
         11    1    4    4    0    0  0.12128916893E+02  0.32909329795E+01 -0.60972211280E+01  0.13968427636E+02  0.51100000000E-03 0. -1.
        -11    1    4    4    0    0  0.26737480620E+01  0.16852129848E+02 -0.47456389496E+01  0.17710570246E+02  0.51100000000E-03 0.  1.
        -12    1    4    4    0    0  0.19763480056E+02 -0.77852330827E+01  0.79714951748E+01  0.22688096734E+02  0.00000000000E+00 0.  1.
</event>
<event>
 8    1  0.1271559E-006  0.9118800E+02  0.7816164E-02  0.1184000E+00
        -11   -1    0    0    0    0  0.00000000000E+00  0.00000000000E+00  0.45593999997E+02  0.45594000000E+02  0.51100000000E-03 0. -1.
         11   -1    0    0    0    0 -0.00000000000E+00 -0.00000000000E+00 -0.45593999997E+02  0.45594000000E+02  0.51100000000E-03 0.  1.
         23    2    1    2    0    0 -0.17763568394E-14  0.35527136788E-14  0.00000000000E+00  0.91188000000E+02  0.91188000000E+02 0.  0.
    9900012    2    3    3    0    0 -0.40179881192E+01  0.20518265383E+02  0.30309014520E+02  0.54367084694E+02  0.40000001176E+02 0.  0.
        -12    1    3    3    0    0  0.40179881192E+01 -0.20518265383E+02 -0.30309014520E+02  0.36820915306E+02  0.00000000000E+00 0.  1.
         11    1    4    4    0    0  0.96437468869E+01  0.16081249288E+02  0.18314113824E+02  0.26210974764E+02  0.51100000000E-03 0. -1.
        -11    1    4    4    0    0 -0.15433056301E+02  0.68005278125E-01  0.15808141658E+02  0.22092559708E+02  0.51100000000E-03 0.  1.
        -12    1    4    4    0    0  0.17713212950E+01  0.43690108172E+01 -0.38132409623E+01  0.60635502215E+01  0.00000000000E+00 0.  1.
</event>
<event>
 8    1  0.1271559E-006  0.9118800E+02  0.7816164E-02  0.1184000E+00
        -11   -1    0    0    0    0  0.00000000000E+00  0.00000000000E+00  0.45593999997E+02  0.45594000000E+02  0.51100000000E-03 0.  1.
         11   -1    0    0    0    0 -0.00000000000E+00 -0.00000000000E+00 -0.45593999997E+02  0.45594000000E+02  0.51100000000E-03 0. -1.
         23    2    1    2    0    0 -0.17763568394E-14  0.71054273576E-14  0.35527136788E-14  0.91188000000E+02  0.91188000000E+02 0.  0.
    9900012    2    3    3    0    0 -0.96963998295E+01  0.24504604705E+02  0.25715439775E+02  0.54367086591E+02  0.40000005502E+02 0.  0.
         12    1    3    3    0    0  0.96963998295E+01 -0.24504604705E+02 -0.25715439775E+02  0.36820913409E+02  0.00000000000E+00 0. -1.
         11    1    4    4    0    0  0.37457559024E+01 -0.83858771389E+01  0.29927718289E+01  0.96597259873E+01  0.51100000000E-03 0. -1.
        -11    1    4    4    0    0 -0.10319490424E+02  0.22538378406E+02  0.72427178331E+01  0.25824936508E+02  0.51100000000E-03 0.  1.
        -12    1    4    4    0    0 -0.31226653078E+01  0.10352103438E+02  0.15479950113E+02  0.18882424096E+02  0.00000000000E+00 0.  1.
</event>
<event>
 8    1  0.1271559E-006  0.9118800E+02  0.7816164E-02  0.1184000E+00
        -11   -1    0    0    0    0  0.00000000000E+00  0.00000000000E+00  0.45593999997E+02  0.45594000000E+02  0.51100000000E-03 0. -1.
         11   -1    0    0    0    0 -0.00000000000E+00 -0.00000000000E+00 -0.45593999997E+02  0.45594000000E+02  0.51100000000E-03 0.  1.
         23    2    1    2    0    0  0.00000000000E+00 -0.35527136788E-14 -0.35527136788E-14  0.91188000000E+02  0.91188000000E+02 0.  0.
    9900012    2    3    3    0    0  0.22917502287E+02  0.14273993381E+02 -0.25036386656E+02  0.54367089434E+02  0.40000011983E+02 0.  0.
         12    1    3    3    0    0 -0.22917502287E+02 -0.14273993381E+02  0.25036386656E+02  0.36820910566E+02  0.00000000000E+00 0. -1.
         11    1    4    4    0    0  0.10526626299E+01  0.52004508585E+01  0.77615680979E+01  0.94018470177E+01  0.51100000000E-03 0. -1.
        -11    1    4    4    0    0  0.83716905062E+01 -0.59471398370E+01 -0.81980830412E+01  0.13140100456E+02  0.51100000000E-03 0.  1.
         12    1    4    4    0    0  0.13493149151E+02  0.15020682360E+02 -0.24599871712E+02  0.31825141961E+02  0.00000000000E+00 0. -1.
</event>
<event>
 8    1  0.1271559E-006  0.9118800E+02  0.7816164E-02  0.1184000E+00
        -11   -1    0    0    0    0  0.00000000000E+00  0.00000000000E+00  0.45593999997E+02  0.45594000000E+02  0.51100000000E-03 0. -1.
         11   -1    0    0    0    0 -0.00000000000E+00 -0.00000000000E+00 -0.45593999997E+02  0.45594000000E+02  0.51100000000E-03 0.  1.
         23    2    1    2    0    0  0.17763568394E-14  0.00000000000E+00  0.00000000000E+00  0.91188000000E+02  0.91188000000E+02 0.  0.
    9900012    2    3    3    0    0 -0.96329547187E+01  0.19682260196E+02 -0.29590533712E+02  0.54367015923E+02  0.39999844399E+02 0.  0.
         12    1    3    3    0    0  0.96329547187E+01 -0.19682260196E+02  0.29590533712E+02  0.36820984077E+02  0.00000000000E+00 0. -1.
         11    1    4    4    0    0 -0.19182265548E+02  0.63735962194E+01 -0.34011233385E+01  0.20497553038E+02  0.51100000000E-03 0. -1.
        -11    1    4    4    0    0  0.79305283189E+01  0.11372091691E+02 -0.27665797937E+02  0.30945340919E+02  0.51100000000E-03 0.  1.
        -12    1    4    4    0    0  0.16187825101E+01  0.19365722859E+01  0.14763875633E+01  0.29241219658E+01  0.00000000000E+00 0.  1.
</event>
<event>
 8    1  0.1271559E-006  0.9118800E+02  0.7816164E-02  0.1184000E+00
        -11   -1    0    0    0    0  0.00000000000E+00  0.00000000000E+00  0.45593999997E+02  0.45594000000E+02  0.51100000000E-03 0.  1.
         11   -1    0    0    0    0 -0.00000000000E+00 -0.00000000000E+00 -0.45593999997E+02  0.45594000000E+02  0.51100000000E-03 0. -1.
         23    2    1    2    0    0  0.00000000000E+00  0.35527136788E-14  0.35527136788E-14  0.91188000000E+02  0.91188000000E+02 0.  0.
    9900012    2    3    3    0    0  0.26264852144E+02 -0.17248159902E+02 -0.19194739309E+02  0.54367088885E+02  0.40000010731E+02 0.  0.
        -12    1    3    3    0    0 -0.26264852144E+02  0.17248159902E+02  0.19194739309E+02  0.36820911115E+02  0.00000000000E+00 0.  1.
         11    1    4    4    0    0 -0.35627767797E+01  0.53811384606E+01 -0.38693625355E+01  0.75247588802E+01  0.51100000000E-03 0.  1.
        -11    1    4    4    0    0  0.47231604442E+00 -0.18586142425E+01 -0.10365522908E+02  0.10541422806E+02  0.51100000000E-03 0. -1.
        -12    1    4    4    0    0  0.29355312880E+02 -0.20770684121E+02 -0.49598538656E+01  0.36300907199E+02  0.00000000000E+00 0.  1.
</event>
<event>
 8    1  0.1271559E-006  0.9118800E+02  0.7816164E-02  0.1184000E+00
        -11   -1    0    0    0    0  0.00000000000E+00  0.00000000000E+00  0.45593999997E+02  0.45594000000E+02  0.51100000000E-03 0.  1.
         11   -1    0    0    0    0 -0.00000000000E+00 -0.00000000000E+00 -0.45593999997E+02  0.45594000000E+02  0.51100000000E-03 0. -1.
         23    2    1    2    0    0  0.71054273576E-14 -0.61062266354E-15  0.44408920985E-15  0.91188000000E+02  0.91188000000E+02 0.  0.
    9900012    2    3    3    0    0 -0.36666223416E+02  0.35656120424E+00 -0.33527037637E+01  0.54367086133E+02  0.40000004458E+02 0.  0.
         12    1    3    3    0    0  0.36666223416E+02 -0.35656120424E+00  0.33527037637E+01  0.36820913867E+02  0.00000000000E+00 0. -1.
         11    1    4    4    0    0 -0.34200270522E+02 -0.13005636126E+02 -0.46892881219E+01  0.36888948184E+02  0.51100000000E-03 0. -1.
        -11    1    4    4    0    0 -0.31127643579E+01 -0.69982540147E+00  0.11760968070E+01  0.34003325574E+01  0.51100000000E-03 0.  1.
         12    1    4    4    0    0  0.64681146381E+00  0.14062022732E+02  0.16048755118E+00  0.14077805391E+02  0.00000000000E+00 0. -1.
</event>
<event>
 8    1  0.1271559E-006  0.9118800E+02  0.7816164E-02  0.1184000E+00
        -11   -1    0    0    0    0  0.00000000000E+00  0.00000000000E+00  0.45593999997E+02  0.45594000000E+02  0.51100000000E-03 0.  1.
         11   -1    0    0    0    0 -0.00000000000E+00 -0.00000000000E+00 -0.45593999997E+02  0.45594000000E+02  0.51100000000E-03 0. -1.
         23    2    1    2    0    0  0.17763568394E-14 -0.17763568394E-14 -0.35527136788E-14  0.91188000000E+02  0.91188000000E+02 0.  0.
    9900012    2    3    3    0    0  0.14502039044E+02 -0.15998090136E+02 -0.29825017715E+02  0.54367086022E+02  0.40000004205E+02 0.  0.
        -12    1    3    3    0    0 -0.14502039044E+02  0.15998090136E+02  0.29825017715E+02  0.36820913978E+02  0.00000000000E+00 0.  1.
         11    1    4    4    0    0  0.10221644685E+02 -0.63092747039E+01  0.20672947782E+01  0.12188628935E+02  0.51100000000E-03 0. -1.
        -11    1    4    4    0    0  0.57941359457E+01 -0.36191660254E+01  0.24601741297E+01  0.72610488971E+01  0.51100000000E-03 0.  1.
        -12    1    4    4    0    0 -0.15137415865E+01 -0.60696494063E+01 -0.34352486623E+02  0.34917408190E+02  0.00000000000E+00 0.  1.
</event>
<event>
 8    1  0.1271559E-006  0.9118800E+02  0.7816164E-02  0.1184000E+00
        -11   -1    0    0    0    0  0.00000000000E+00  0.00000000000E+00  0.45593999997E+02  0.45594000000E+02  0.51100000000E-03 0.  1.
         11   -1    0    0    0    0 -0.00000000000E+00 -0.00000000000E+00 -0.45593999997E+02  0.45594000000E+02  0.51100000000E-03 0. -1.
         23    2    1    2    0    0  0.00000000000E+00  0.17763568394E-14 -0.35527136788E-14  0.91188000000E+02  0.91188000000E+02 0.  0.
    9900012    2    3    3    0    0  0.22277915769E+02 -0.12949668299E+02 -0.26301711298E+02  0.54367089402E+02  0.40000011909E+02 0.  0.
        -12    1    3    3    0    0 -0.22277915769E+02  0.12949668299E+02  0.26301711298E+02  0.36820910598E+02  0.00000000000E+00 0.  1.
         11    1    4    4    0    0  0.15021054321E+02 -0.61497537899E+01 -0.57568440800E+01  0.17221869777E+02  0.51100000000E-03 0. -1.
        -11    1    4    4    0    0  0.11573009072E+02 -0.16744439081E+01  0.34824461969E+01  0.12201054592E+02  0.51100000000E-03 0.  1.
         12    1    4    4    0    0 -0.43161476244E+01 -0.51254706014E+01 -0.24027313415E+02  0.24944165032E+02  0.00000000000E+00 0. -1.
</event>
<event>
 8    1  0.1271559E-006  0.9118800E+02  0.7816164E-02  0.1184000E+00
        -11   -1    0    0    0    0  0.00000000000E+00  0.00000000000E+00  0.45593999997E+02  0.45594000000E+02  0.51100000000E-03 0. -1.
         11   -1    0    0    0    0 -0.00000000000E+00 -0.00000000000E+00 -0.45593999997E+02  0.45594000000E+02  0.51100000000E-03 0.  1.
         23    2    1    2    0    0  0.35527136788E-14 -0.35527136788E-14  0.17763568394E-14  0.91188000000E+02  0.91188000000E+02 0.  0.
    9900012    2    3    3    0    0 -0.19271156101E+02 -0.27811815165E+02  0.14522599821E+02  0.54367076250E+02  0.39999981928E+02 0.  0.
        -12    1    3    3    0    0  0.19271156101E+02  0.27811815165E+02 -0.14522599821E+02  0.36820923750E+02  0.00000000000E+00 0.  1.
         11    1    4    4    0    0 -0.59744004763E+01 -0.21044554042E+02 -0.20572591466E+01  0.21972688305E+02  0.51100000000E-03 0. -1.
        -11    1    4    4    0    0 -0.66705277488E+01 -0.17488107403E+01 -0.54878704021E+01  0.88131152985E+01  0.51100000000E-03 0.  1.
         12    1    4    4    0    0 -0.66262278756E+01 -0.50184503824E+01  0.22067729370E+02  0.23581272647E+02  0.00000000000E+00 0. -1.
</event>
<event>
 8    1  0.1271559E-006  0.9118800E+02  0.7816164E-02  0.1184000E+00
        -11   -1    0    0    0    0  0.00000000000E+00  0.00000000000E+00  0.45593999997E+02  0.45594000000E+02  0.51100000000E-03 0.  1.
         11   -1    0    0    0    0 -0.00000000000E+00 -0.00000000000E+00 -0.45593999997E+02  0.45594000000E+02  0.51100000000E-03 0. -1.
         23    2    1    2    0    0  0.35527136788E-14 -0.22204460493E-14  0.00000000000E+00  0.91188000000E+02  0.91188000000E+02 0.  0.
    9900012    2    3    3    0    0 -0.31136911361E+02 -0.21397670287E+01  0.19536980443E+02  0.54367089407E+02  0.40000011922E+02 0.  0.
        -12    1    3    3    0    0  0.31136911361E+02  0.21397670287E+01 -0.19536980443E+02  0.36820910593E+02  0.00000000000E+00 0.  1.
         11    1    4    4    0    0 -0.90790017608E+01  0.15416254119E+02  0.84346410336E+01  0.19779593870E+02  0.51100000000E-03 0. -1.
        -11    1    4    4    0    0 -0.19882487724E+02 -0.15558008550E+02  0.15250786670E+02  0.29494939268E+02  0.51100000000E-03 0.  1.
        -12    1    4    4    0    0 -0.21754218764E+01 -0.19980125976E+01 -0.41484472606E+01  0.50925562691E+01  0.00000000000E+00 0.  1.
</event>
<event>
 8    1  0.1271559E-006  0.9118800E+02  0.7816164E-02  0.1184000E+00
        -11   -1    0    0    0    0  0.00000000000E+00  0.00000000000E+00  0.45593999997E+02  0.45594000000E+02  0.51100000000E-03 0. -1.
         11   -1    0    0    0    0 -0.00000000000E+00 -0.00000000000E+00 -0.45593999997E+02  0.45594000000E+02  0.51100000000E-03 0.  1.
         23    2    1    2    0    0  0.00000000000E+00 -0.17763568394E-14  0.17763568394E-14  0.91188000000E+02  0.91188000000E+02 0.  0.
    9900012    2    3    3    0    0  0.31909669616E+02 -0.13728583732E+02  0.12209777893E+02  0.54367086071E+02  0.40000004317E+02 0.  0.
         12    1    3    3    0    0 -0.31909669616E+02  0.13728583732E+02 -0.12209777893E+02  0.36820913929E+02  0.00000000000E+00 0. -1.
         11    1    4    4    0    0  0.75309164425E+01 -0.11226161036E+02  0.14354859826E+02  0.19718098158E+02  0.51100000000E-03 0. -1.
        -11    1    4    4    0    0  0.59285277542E+01  0.67125549443E+01  0.76864282445E+01  0.11801991977E+02  0.51100000000E-03 0.  1.
        -12    1    4    4    0    0  0.18450225420E+02 -0.92149776400E+01 -0.98315101773E+01  0.22846995936E+02  0.00000000000E+00 0.  1.
</event>
<event>
 8    1  0.1271559E-006  0.9118800E+02  0.7816164E-02  0.1184000E+00
        -11   -1    0    0    0    0  0.00000000000E+00  0.00000000000E+00  0.45593999997E+02  0.45594000000E+02  0.51100000000E-03 0.  1.
         11   -1    0    0    0    0 -0.00000000000E+00 -0.00000000000E+00 -0.45593999997E+02  0.45594000000E+02  0.51100000000E-03 0. -1.
         23    2    1    2    0    0 -0.17763568394E-14  0.35527136788E-14  0.35527136788E-14  0.91188000000E+02  0.91188000000E+02 0.  0.
    9900012    2    3    3    0    0  0.14161440406E+02 -0.22722148778E+02 -0.25277228049E+02  0.54367072563E+02  0.39999973521E+02 0.  0.
        -12    1    3    3    0    0 -0.14161440406E+02  0.22722148778E+02  0.25277228049E+02  0.36820927437E+02  0.00000000000E+00 0.  1.
         11    1    4    4    0    0  0.60485245928E+01 -0.63124165103E+01 -0.24698995074E+02  0.26200603235E+02  0.51100000000E-03 0. -1.
        -11    1    4    4    0    0  0.61302198192E+01  0.42044866520E+01 -0.59268557917E+00  0.74571160307E+01  0.51100000000E-03 0.  1.
        -12    1    4    4    0    0  0.19826959940E+01 -0.20614218920E+02  0.14452604371E-01  0.20709353297E+02  0.00000000000E+00 0.  1.
</event>
<event>
 8    1  0.1271559E-006  0.9118800E+02  0.7816164E-02  0.1184000E+00
        -11   -1    0    0    0    0  0.00000000000E+00  0.00000000000E+00  0.45593999997E+02  0.45594000000E+02  0.51100000000E-03 0. -1.
         11   -1    0    0    0    0 -0.00000000000E+00 -0.00000000000E+00 -0.45593999997E+02  0.45594000000E+02  0.51100000000E-03 0.  1.
         23    2    1    2    0    0  0.00000000000E+00  0.00000000000E+00  0.00000000000E+00  0.91188000000E+02  0.91188000000E+02 0.  0.
    9900012    2    3    3    0    0  0.33561879729E+02  0.11881830486E+02  0.93916181600E+01  0.54367079882E+02  0.39999990208E+02 0.  0.
        -12    1    3    3    0    0 -0.33561879729E+02 -0.11881830486E+02 -0.93916181600E+01  0.36820920118E+02  0.00000000000E+00 0.  1.
         11    1    4    4    0    0  0.41484811801E+01 -0.31530124260E+01  0.16363630152E+02  0.17173228452E+02  0.51100000000E-03 0.  1.
        -11    1    4    4    0    0  0.24452429811E+02  0.98874285387E+01  0.11158408113E+01  0.26399387640E+02  0.51100000000E-03 0. -1.
        -12    1    4    4    0    0  0.49609687377E+01  0.51474143729E+01 -0.80878528034E+01  0.10794463790E+02  0.00000000000E+00 0.  1.
</event>
<event>
 8    1  0.1271559E-006  0.9118800E+02  0.7816164E-02  0.1184000E+00
        -11   -1    0    0    0    0  0.00000000000E+00  0.00000000000E+00  0.45593999997E+02  0.45594000000E+02  0.51100000000E-03 0. -1.
         11   -1    0    0    0    0 -0.00000000000E+00 -0.00000000000E+00 -0.45593999997E+02  0.45594000000E+02  0.51100000000E-03 0.  1.
         23    2    1    2    0    0  0.00000000000E+00  0.00000000000E+00  0.88817841970E-15  0.91188000000E+02  0.91188000000E+02 0.  0.
    9900012    2    3    3    0    0 -0.11274302665E+02  0.34763899406E+02  0.44879764248E+01  0.54367074769E+02  0.39999978550E+02 0.  0.
        -12    1    3    3    0    0  0.11274302665E+02 -0.34763899406E+02 -0.44879764248E+01  0.36820925231E+02  0.00000000000E+00 0.  1.
         11    1    4    4    0    0 -0.62460953836E+01  0.19536067830E+02  0.15426408962E+02  0.25664094519E+02  0.51100000000E-03 0. -1.
        -11    1    4    4    0    0 -0.28158786059E-01 -0.24407966644E+01  0.42312941103E+01  0.48848880626E+01  0.51100000000E-03 0.  1.
         12    1    4    4    0    0 -0.50000484952E+01  0.17668628241E+02 -0.15169726647E+02  0.23818092187E+02  0.00000000000E+00 0. -1.
</event>
<event>
 8    1  0.1271559E-006  0.9118800E+02  0.7816164E-02  0.1184000E+00
        -11   -1    0    0    0    0  0.00000000000E+00  0.00000000000E+00  0.45593999997E+02  0.45594000000E+02  0.51100000000E-03 0. -1.
         11   -1    0    0    0    0 -0.00000000000E+00 -0.00000000000E+00 -0.45593999997E+02  0.45594000000E+02  0.51100000000E-03 0.  1.
         23    2    1    2    0    0  0.00000000000E+00  0.00000000000E+00  0.00000000000E+00  0.91188000000E+02  0.91188000000E+02 0.  0.
    9900012    2    3    3    0    0 -0.34779173183E+02  0.74198077653E+01  0.95465076295E+01  0.54367078739E+02  0.39999987602E+02 0.  0.
        -12    1    3    3    0    0  0.34779173183E+02 -0.74198077653E+01 -0.95465076295E+01  0.36820921261E+02  0.00000000000E+00 0.  1.
         11    1    4    4    0    0 -0.79823737210E+01  0.11271672667E+01  0.97658618808E+01  0.12663366646E+02  0.51100000000E-03 0. -1.
        -11    1    4    4    0    0  0.45492983869E+01  0.45007703276E+01  0.70028876121E+01  0.94864895786E+01  0.51100000000E-03 0.  1.
        -12    1    4    4    0    0 -0.31346097849E+02  0.17918701710E+01 -0.72222418634E+01  0.32217222515E+02  0.00000000000E+00 0.  1.
</event>
<event>
 8    1  0.1271559E-006  0.9118800E+02  0.7816164E-02  0.1184000E+00
        -11   -1    0    0    0    0  0.00000000000E+00  0.00000000000E+00  0.45593999997E+02  0.45594000000E+02  0.51100000000E-03 0. -1.
         11   -1    0    0    0    0 -0.00000000000E+00 -0.00000000000E+00 -0.45593999997E+02  0.45594000000E+02  0.51100000000E-03 0.  1.
         23    2    1    2    0    0 -0.17763568394E-14  0.00000000000E+00 -0.35527136788E-14  0.91188000000E+02  0.91188000000E+02 0.  0.
    9900012    2    3    3    0    0 -0.15906278524E+02 -0.15165467782E+02  0.29542815431E+02  0.54367094890E+02  0.40000024421E+02 0.  0.
        -12    1    3    3    0    0  0.15906278524E+02  0.15165467782E+02 -0.29542815431E+02  0.36820905110E+02  0.00000000000E+00 0.  1.
         11    1    4    4    0    0 -0.54329809857E+01 -0.14447975914E+02  0.11618563618E+02  0.19319738901E+02  0.51100000000E-03 0. -1.
        -11    1    4    4    0    0  0.46218585007E+01 -0.99386295612E+01  0.17906550006E+01  0.11106051465E+02  0.51100000000E-03 0.  1.
         12    1    4    4    0    0 -0.15095156039E+02  0.92211376931E+01  0.16133596813E+02  0.23941304524E+02  0.00000000000E+00 0. -1.
</event>
<event>
 8    1  0.1271559E-006  0.9118800E+02  0.7816164E-02  0.1184000E+00
        -11   -1    0    0    0    0  0.00000000000E+00  0.00000000000E+00  0.45593999997E+02  0.45594000000E+02  0.51100000000E-03 0.  1.
         11   -1    0    0    0    0 -0.00000000000E+00 -0.00000000000E+00 -0.45593999997E+02  0.45594000000E+02  0.51100000000E-03 0. -1.
         23    2    1    2    0    0  0.35527136788E-14  0.00000000000E+00 -0.35527136788E-14  0.91188000000E+02  0.91188000000E+02 0.  0.
    9900012    2    3    3    0    0 -0.20676438753E+02  0.14300515558E+02  0.26902787312E+02  0.54367084342E+02  0.40000000375E+02 0.  0.
         12    1    3    3    0    0  0.20676438753E+02 -0.14300515558E+02 -0.26902787312E+02  0.36820915658E+02  0.00000000000E+00 0. -1.
         11    1    4    4    0    0  0.54882813016E+01  0.82066426827E+01 -0.17789172660E+01  0.10031687927E+02  0.51100000000E-03 0. -1.
        -11    1    4    4    0    0 -0.11477838157E+02  0.23347204556E+01  0.26559106445E+02  0.29027191111E+02  0.51100000000E-03 0.  1.
         12    1    4    4    0    0 -0.14686881898E+02  0.37591524198E+01  0.21225981327E+01  0.15308205304E+02  0.00000000000E+00 0. -1.
</event>
<event>
 8    1  0.1271559E-006  0.9118800E+02  0.7816164E-02  0.1184000E+00
        -11   -1    0    0    0    0  0.00000000000E+00  0.00000000000E+00  0.45593999997E+02  0.45594000000E+02  0.51100000000E-03 0. -1.
         11   -1    0    0    0    0 -0.00000000000E+00 -0.00000000000E+00 -0.45593999997E+02  0.45594000000E+02  0.51100000000E-03 0.  1.
         23    2    1    2    0    0  0.00000000000E+00  0.00000000000E+00  0.00000000000E+00  0.91188000000E+02  0.91188000000E+02 0.  0.
    9900012    2    3    3    0    0 -0.17297176485E+02  0.31125680940E+02 -0.93691545723E+01  0.54367063215E+02  0.39999952212E+02 0.  0.
         12    1    3    3    0    0  0.17297176485E+02 -0.31125680940E+02  0.93691545723E+01  0.36820936785E+02  0.00000000000E+00 0. -1.
         11    1    4    4    0    0 -0.99009148274E+01 -0.26461629368E+01 -0.41189023819E+01  0.11045164091E+02  0.51100000000E-03 0. -1.
        -11    1    4    4    0    0 -0.11583610504E+02  0.25706334003E+02 -0.13306060476E+02  0.31177666459E+02  0.51100000000E-03 0.  1.
         12    1    4    4    0    0  0.41873488465E+01  0.80655098738E+01  0.80558082858E+01  0.12144232665E+02  0.00000000000E+00 0. -1.
</event>
<event>
 8    1  0.1271559E-006  0.9118800E+02  0.7816164E-02  0.1184000E+00
        -11   -1    0    0    0    0  0.00000000000E+00  0.00000000000E+00  0.45593999997E+02  0.45594000000E+02  0.51100000000E-03 0.  1.
         11   -1    0    0    0    0 -0.00000000000E+00 -0.00000000000E+00 -0.45593999997E+02  0.45594000000E+02  0.51100000000E-03 0. -1.
         23    2    1    2    0    0 -0.71054273576E-14 -0.17763568394E-14  0.00000000000E+00  0.91188000000E+02  0.91188000000E+02 0.  0.
    9900012    2    3    3    0    0  0.36291938768E+02  0.32474609042E+01 -0.53036291437E+01  0.54367091484E+02  0.40000016655E+02 0.  0.
        -12    1    3    3    0    0 -0.36291938768E+02 -0.32474609042E+01  0.53036291437E+01  0.36820908516E+02  0.00000000000E+00 0.  1.
         11    1    4    4    0    0  0.12276233543E+02 -0.12636781458E+02  0.64752882793E+01  0.18770282741E+02  0.51100000000E-03 0. -1.
        -11    1    4    4    0    0 -0.26929763893E+01  0.26081309105E+01 -0.97043183465E+00  0.38724936264E+01  0.51100000000E-03 0.  1.
         12    1    4    4    0    0  0.26708681614E+02  0.13276111452E+02 -0.10808485588E+02  0.31724315116E+02  0.00000000000E+00 0. -1.
</event>
<event>
 8    1  0.1271559E-006  0.9118800E+02  0.7816164E-02  0.1184000E+00
        -11   -1    0    0    0    0  0.00000000000E+00  0.00000000000E+00  0.45593999997E+02  0.45594000000E+02  0.51100000000E-03 0.  1.
         11   -1    0    0    0    0 -0.00000000000E+00 -0.00000000000E+00 -0.45593999997E+02  0.45594000000E+02  0.51100000000E-03 0. -1.
         23    2    1    2    0    0 -0.13322676296E-14  0.35527136788E-14 -0.35527136788E-14  0.91188000000E+02  0.91188000000E+02 0.  0.
    9900012    2    3    3    0    0  0.11360578484E+01 -0.30903938351E+02 -0.19985887730E+02  0.54367085544E+02  0.40000003115E+02 0.  0.
        -12    1    3    3    0    0 -0.11360578484E+01  0.30903938351E+02  0.19985887730E+02  0.36820914456E+02  0.00000000000E+00 0.  1.
         11    1    4    4    0    0  0.79350324653E+01  0.24119599882E+00  0.73167272330E+01  0.10796175869E+02  0.51100000000E-03 0. -1.
        -11    1    4    4    0    0 -0.12619399544E+01 -0.16663629277E+02 -0.20992657365E+02  0.26832083345E+02  0.51100000000E-03 0.  1.
         12    1    4    4    0    0 -0.55370346625E+01 -0.14481505072E+02 -0.63099575986E+01  0.16738826330E+02  0.00000000000E+00 0. -1.
</event>
<event>
 8    1  0.1271559E-006  0.9118800E+02  0.7816164E-02  0.1184000E+00
        -11   -1    0    0    0    0  0.00000000000E+00  0.00000000000E+00  0.45593999997E+02  0.45594000000E+02  0.51100000000E-03 0. -1.
         11   -1    0    0    0    0 -0.00000000000E+00 -0.00000000000E+00 -0.45593999997E+02  0.45594000000E+02  0.51100000000E-03 0.  1.
         23    2    1    2    0    0  0.00000000000E+00 -0.88817841970E-15 -0.17763568394E-14  0.91188000000E+02  0.91188000000E+02 0.  0.
    9900012    2    3    3    0    0  0.33993561956E+02  0.46962551896E+01 -0.13347775331E+02  0.54367079676E+02  0.39999989737E+02 0.  0.
         12    1    3    3    0    0 -0.33993561956E+02 -0.46962551896E+01  0.13347775331E+02  0.36820920324E+02  0.00000000000E+00 0. -1.
         11    1    4    4    0    0  0.11360175588E+02 -0.74926952910E+01  0.83316953441E+00  0.13634083902E+02  0.51100000000E-03 0. -1.
        -11    1    4    4    0    0  0.26965596018E+02  0.23181783463E+01 -0.12540740324E+02  0.29829305852E+02  0.51100000000E-03 0.  1.
        -12    1    4    4    0    0 -0.43322096501E+01  0.98707721343E+01 -0.16402045408E+01  0.10903689922E+02  0.00000000000E+00 0.  1.
</event>
<event>
 8    1  0.1271559E-006  0.9118800E+02  0.7816164E-02  0.1184000E+00
        -11   -1    0    0    0    0  0.00000000000E+00  0.00000000000E+00  0.45593999997E+02  0.45594000000E+02  0.51100000000E-03 0.  1.
         11   -1    0    0    0    0 -0.00000000000E+00 -0.00000000000E+00 -0.45593999997E+02  0.45594000000E+02  0.51100000000E-03 0. -1.
         23    2    1    2    0    0  0.35527136788E-14  0.00000000000E+00  0.00000000000E+00  0.91188000000E+02  0.91188000000E+02 0.  0.
    9900012    2    3    3    0    0 -0.31771076274E+02  0.17918557317E+02  0.50303438373E+01  0.54367077374E+02  0.39999984488E+02 0.  0.
         12    1    3    3    0    0  0.31771076274E+02 -0.17918557317E+02 -0.50303438373E+01  0.36820922626E+02  0.00000000000E+00 0. -1.
         11    1    4    4    0    0  0.18841610592E+01 -0.59957665425E+01  0.42073576990E+01  0.75631434204E+01  0.51100000000E-03 0. -1.
        -11    1    4    4    0    0 -0.16591876507E+01  0.26475500953E+01 -0.69377692837E+01  0.76088808679E+01  0.51100000000E-03 0.  1.
        -12    1    4    4    0    0 -0.31996049682E+02  0.21266773765E+02  0.77607554220E+01  0.39195053085E+02  0.00000000000E+00 0.  1.
</event>
<event>
 8    1  0.1271559E-006  0.9118800E+02  0.7816164E-02  0.1184000E+00
        -11   -1    0    0    0    0  0.00000000000E+00  0.00000000000E+00  0.45593999997E+02  0.45594000000E+02  0.51100000000E-03 0. -1.
         11   -1    0    0    0    0 -0.00000000000E+00 -0.00000000000E+00 -0.45593999997E+02  0.45594000000E+02  0.51100000000E-03 0.  1.
         23    2    1    2    0    0  0.00000000000E+00  0.00000000000E+00  0.22204460493E-15  0.91188000000E+02  0.91188000000E+02 0.  0.
    9900012    2    3    3    0    0 -0.27968589823E+02 -0.23869486809E+02  0.19456383557E+01  0.54367083039E+02  0.39999997405E+02 0.  0.
        -12    1    3    3    0    0  0.27968589823E+02  0.23869486809E+02 -0.19456383557E+01  0.36820916961E+02  0.00000000000E+00 0.  1.
         11    1    4    4    0    0  0.33026520198E+01 -0.94157876793E+01  0.71612381298E+01  0.12282015299E+02  0.51100000000E-03 0. -1.
        -11    1    4    4    0    0 -0.25318193873E+02 -0.22106773124E+00  0.12672523064E+01  0.25350852857E+02  0.51100000000E-03 0.  1.
         12    1    4    4    0    0 -0.59530479694E+01 -0.14232631399E+02 -0.64828520805E+01  0.16734214883E+02  0.00000000000E+00 0. -1.
</event>
<event>
 8    1  0.1271559E-006  0.9118800E+02  0.7816164E-02  0.1184000E+00
        -11   -1    0    0    0    0  0.00000000000E+00  0.00000000000E+00  0.45593999997E+02  0.45594000000E+02  0.51100000000E-03 0.  1.
         11   -1    0    0    0    0 -0.00000000000E+00 -0.00000000000E+00 -0.45593999997E+02  0.45594000000E+02  0.51100000000E-03 0. -1.
         23    2    1    2    0    0  0.00000000000E+00  0.00000000000E+00  0.17763568394E-14  0.91188000000E+02  0.91188000000E+02 0.  0.
    9900012    2    3    3    0    0 -0.31436273174E+02 -0.17352161552E+02  0.81512982550E+01  0.54367075991E+02  0.39999981338E+02 0.  0.
         12    1    3    3    0    0  0.31436273174E+02  0.17352161552E+02 -0.81512982550E+01  0.36820924009E+02  0.00000000000E+00 0. -1.
         11    1    4    4    0    0 -0.12304569133E+02  0.44779967777E+01  0.72010230757E+01  0.14943547447E+02  0.51100000000E-03 0. -1.
        -11    1    4    4    0    0 -0.43764265063E+01 -0.86710015893E+01  0.13032098340E+02  0.16253460091E+02  0.51100000000E-03 0.  1.
        -12    1    4    4    0    0 -0.14755277534E+02 -0.13159156740E+02 -0.12081823161E+02  0.23170068453E+02  0.00000000000E+00 0.  1.
</event>
<event>
 8    1  0.1271559E-006  0.9118800E+02  0.7816164E-02  0.1184000E+00
        -11   -1    0    0    0    0  0.00000000000E+00  0.00000000000E+00  0.45593999997E+02  0.45594000000E+02  0.51100000000E-03 0. -1.
         11   -1    0    0    0    0 -0.00000000000E+00 -0.00000000000E+00 -0.45593999997E+02  0.45594000000E+02  0.51100000000E-03 0.  1.
         23    2    1    2    0    0 -0.35527136788E-14  0.00000000000E+00  0.00000000000E+00  0.91188000000E+02  0.91188000000E+02 0.  0.
    9900012    2    3    3    0    0 -0.18438678101E+02 -0.29354705876E+02  0.12413651134E+02  0.54367050234E+02  0.39999922619E+02 0.  0.
         12    1    3    3    0    0  0.18438678101E+02  0.29354705876E+02 -0.12413651134E+02  0.36820949766E+02  0.00000000000E+00 0. -1.
         11    1    4    4    0    0  0.25120518545E+01 -0.95777951951E+00 -0.57573496274E+01  0.63541184377E+01  0.51100000000E-03 0. -1.
        -11    1    4    4    0    0 -0.26401673259E+02 -0.22070940643E+02  0.89172020547E+01  0.35548435471E+02  0.51100000000E-03 0.  1.
         12    1    4    4    0    0  0.54509433031E+01 -0.63259857132E+01  0.92537987069E+01  0.12464496325E+02  0.00000000000E+00 0. -1.
</event>
<event>
 8    1  0.1271559E-006  0.9118800E+02  0.7816164E-02  0.1184000E+00
        -11   -1    0    0    0    0  0.00000000000E+00  0.00000000000E+00  0.45593999997E+02  0.45594000000E+02  0.51100000000E-03 0.  1.
         11   -1    0    0    0    0 -0.00000000000E+00 -0.00000000000E+00 -0.45593999997E+02  0.45594000000E+02  0.51100000000E-03 0. -1.
         23    2    1    2    0    0  0.00000000000E+00 -0.35527136788E-14  0.00000000000E+00  0.91188000000E+02  0.91188000000E+02 0.  0.
    9900012    2    3    3    0    0 -0.92379460214E+01 -0.99898009171E+01  0.34214669217E+02  0.54367090741E+02  0.40000014961E+02 0.  0.
         12    1    3    3    0    0  0.92379460214E+01  0.99898009171E+01 -0.34214669217E+02  0.36820909259E+02  0.00000000000E+00 0. -1.
         11    1    4    4    0    0 -0.11653962074E+01  0.12776089422E+01  0.25507715764E+02  0.25566266773E+02  0.51100000000E-03 0. -1.
        -11    1    4    4    0    0 -0.91579947347E+01 -0.17816388813E+02  0.93968356449E+01  0.22126750740E+02  0.51100000000E-03 0.  1.
         12    1    4    4    0    0  0.10854449208E+01  0.65489789539E+01 -0.68988219187E+00  0.66740732280E+01  0.00000000000E+00 0. -1.
</event>
<event>
 8    1  0.1271559E-006  0.9118800E+02  0.7816164E-02  0.1184000E+00
        -11   -1    0    0    0    0  0.00000000000E+00  0.00000000000E+00  0.45593999997E+02  0.45594000000E+02  0.51100000000E-03 0.  1.
         11   -1    0    0    0    0 -0.00000000000E+00 -0.00000000000E+00 -0.45593999997E+02  0.45594000000E+02  0.51100000000E-03 0. -1.
         23    2    1    2    0    0 -0.35527136788E-14 -0.17763568394E-14  0.00000000000E+00  0.91188000000E+02  0.91188000000E+02 0.  0.
    9900012    2    3    3    0    0 -0.25428082712E+02 -0.12633175957E+02  0.23443405240E+02  0.54367112253E+02  0.40000064004E+02 0.  0.
         12    1    3    3    0    0  0.25428082712E+02  0.12633175957E+02 -0.23443405240E+02  0.36820887747E+02  0.00000000000E+00 0. -1.
         11    1    4    4    0    0  0.86630252161E-01  0.54491482208E+01  0.20318868046E+02  0.21037041619E+02  0.51100000000E-03 0. -1.
        -11    1    4    4    0    0 -0.10421869609E+02 -0.13630175555E+02 -0.56580991377E+00  0.17167329231E+02  0.51100000000E-03 0.  1.
         12    1    4    4    0    0 -0.15092843355E+02 -0.44521486235E+01  0.36903471081E+01  0.16162741404E+02  0.00000000000E+00 0. -1.
</event>
<event>
 8    1  0.1271559E-006  0.9118800E+02  0.7816164E-02  0.1184000E+00
        -11   -1    0    0    0    0  0.00000000000E+00  0.00000000000E+00  0.45593999997E+02  0.45594000000E+02  0.51100000000E-03 0. -1.
         11   -1    0    0    0    0 -0.00000000000E+00 -0.00000000000E+00 -0.45593999997E+02  0.45594000000E+02  0.51100000000E-03 0.  1.
         23    2    1    2    0    0 -0.71054273576E-14  0.00000000000E+00  0.17763568394E-14  0.91188000000E+02  0.91188000000E+02 0.  0.
    9900012    2    3    3    0    0  0.24768118464E+02 -0.23027837533E+02 -0.14561487362E+02  0.54367110441E+02  0.40000059873E+02 0.  0.
         12    1    3    3    0    0 -0.24768118464E+02  0.23027837533E+02  0.14561487362E+02  0.36820889559E+02  0.00000000000E+00 0. -1.
         11    1    4    4    0    0  0.44113554093E+01  0.33258797349E+01  0.10637313027E+02  0.11986407354E+02  0.51100000000E-03 0. -1.
        -11    1    4    4    0    0  0.87540149657E+01 -0.59633674242E+01 -0.85651338078E+01  0.13621895847E+02  0.51100000000E-03 0.  1.
        -12    1    4    4    0    0  0.11602748089E+02 -0.20390349844E+02 -0.16633666581E+02  0.28758807241E+02  0.00000000000E+00 0.  1.
</event>
<event>
 8    1  0.1271559E-006  0.9118800E+02  0.7816164E-02  0.1184000E+00
        -11   -1    0    0    0    0  0.00000000000E+00  0.00000000000E+00  0.45593999997E+02  0.45594000000E+02  0.51100000000E-03 0. -1.
         11   -1    0    0    0    0 -0.00000000000E+00 -0.00000000000E+00 -0.45593999997E+02  0.45594000000E+02  0.51100000000E-03 0.  1.
         23    2    1    2    0    0 -0.35527136788E-14  0.00000000000E+00  0.00000000000E+00  0.91188000000E+02  0.91188000000E+02 0.  0.
    9900012    2    3    3    0    0 -0.30553235777E+02 -0.14834758738E+02  0.14220039311E+02  0.54367084731E+02  0.40000001260E+02 0.  0.
         12    1    3    3    0    0  0.30553235777E+02  0.14834758738E+02 -0.14220039311E+02  0.36820915269E+02  0.00000000000E+00 0. -1.
         11    1    4    4    0    0 -0.74064422474E+01 -0.14416004415E+02  0.13158139707E+02  0.20876139750E+02  0.51100000000E-03 0. -1.
        -11    1    4    4    0    0 -0.16379335754E+02 -0.11208766396E+02  0.43889947203E+01  0.20326887582E+02  0.51100000000E-03 0.  1.
         12    1    4    4    0    0 -0.67674577757E+01  0.10790012073E+02 -0.33270951159E+01  0.13164057399E+02  0.00000000000E+00 0. -1.
</event>
<event>
 8    1  0.1271559E-006  0.9118800E+02  0.7816164E-02  0.1184000E+00
        -11   -1    0    0    0    0  0.00000000000E+00  0.00000000000E+00  0.45593999997E+02  0.45594000000E+02  0.51100000000E-03 0. -1.
         11   -1    0    0    0    0 -0.00000000000E+00 -0.00000000000E+00 -0.45593999997E+02  0.45594000000E+02  0.51100000000E-03 0.  1.
         23    2    1    2    0    0  0.00000000000E+00  0.00000000000E+00  0.00000000000E+00  0.91188000000E+02  0.91188000000E+02 0.  0.
    9900012    2    3    3    0    0  0.18880592244E+02  0.14975132804E+02  0.27839693275E+02  0.54367083558E+02  0.39999998588E+02 0.  0.
        -12    1    3    3    0    0 -0.18880592244E+02 -0.14975132804E+02 -0.27839693275E+02  0.36820916442E+02  0.00000000000E+00 0.  1.
         11    1    4    4    0    0  0.20115019703E+02  0.10608813415E+02  0.23553802469E+02  0.32740533758E+02  0.51100000000E-03 0. -1.
        -11    1    4    4    0    0 -0.78346120518E+00  0.21602458170E+01 -0.84173047927E+01  0.87253363078E+01  0.51100000000E-03 0.  1.
         12    1    4    4    0    0 -0.45096625383E+00  0.22060735719E+01  0.12703195599E+02  0.12901213493E+02  0.00000000000E+00 0. -1.
</event>
<event>
 8    1  0.1271559E-006  0.9118800E+02  0.7816164E-02  0.1184000E+00
        -11   -1    0    0    0    0  0.00000000000E+00  0.00000000000E+00  0.45593999997E+02  0.45594000000E+02  0.51100000000E-03 0. -1.
         11   -1    0    0    0    0 -0.00000000000E+00 -0.00000000000E+00 -0.45593999997E+02  0.45594000000E+02  0.51100000000E-03 0.  1.
         23    2    1    2    0    0  0.00000000000E+00 -0.44408920985E-15 -0.17763568394E-14  0.91188000000E+02  0.91188000000E+02 0.  0.
    9900012    2    3    3    0    0 -0.34965966743E+02 -0.35379791789E+01 -0.10983804638E+02  0.54367080793E+02  0.39999992283E+02 0.  0.
         12    1    3    3    0    0  0.34965966743E+02  0.35379791789E+01  0.10983804638E+02  0.36820919207E+02  0.00000000000E+00 0. -1.
         11    1    4    4    0    0  0.33851626727E+01  0.18456294710E+01  0.88796346558E+01  0.96805777899E+01  0.51100000000E-03 0.  1.
        -11    1    4    4    0    0 -0.31489645559E+01  0.24195534613E+01 -0.20772176562E+01  0.44816347663E+01  0.51100000000E-03 0. -1.
        -12    1    4    4    0    0 -0.35202164860E+02 -0.78031621113E+01 -0.17786221637E+02  0.40204868236E+02  0.00000000000E+00 0.  1.
</event>
<event>
 8    1  0.1271559E-006  0.9118800E+02  0.7816164E-02  0.1184000E+00
        -11   -1    0    0    0    0  0.00000000000E+00  0.00000000000E+00  0.45593999997E+02  0.45594000000E+02  0.51100000000E-03 0.  1.
         11   -1    0    0    0    0 -0.00000000000E+00 -0.00000000000E+00 -0.45593999997E+02  0.45594000000E+02  0.51100000000E-03 0. -1.
         23    2    1    2    0    0  0.00000000000E+00 -0.17763568394E-14 -0.35527136788E-14  0.91188000000E+02  0.91188000000E+02 0.  0.
    9900012    2    3    3    0    0 -0.20630268493E+02 -0.31777894101E+01 -0.30332827333E+02  0.54366990541E+02  0.39999786535E+02 0.  0.
        -12    1    3    3    0    0  0.20630268493E+02  0.31777894101E+01  0.30332827333E+02  0.36821009459E+02  0.00000000000E+00 0.  1.
         11    1    4    4    0    0 -0.43373386966E+01  0.69168923812E+01 -0.10699339550E+02  0.13458520507E+02  0.51100000000E-03 0. -1.
        -11    1    4    4    0    0 -0.14149666211E+01  0.78866964897E+01 -0.15156987368E+02  0.17144572856E+02  0.51100000000E-03 0.  1.
        -12    1    4    4    0    0 -0.14877963175E+02 -0.17981378281E+02 -0.44765004148E+01  0.23763897178E+02  0.00000000000E+00 0.  1.
</event>
<event>
 8    1  0.1271559E-006  0.9118800E+02  0.7816164E-02  0.1184000E+00
        -11   -1    0    0    0    0  0.00000000000E+00  0.00000000000E+00  0.45593999997E+02  0.45594000000E+02  0.51100000000E-03 0. -1.
         11   -1    0    0    0    0 -0.00000000000E+00 -0.00000000000E+00 -0.45593999997E+02  0.45594000000E+02  0.51100000000E-03 0.  1.
         23    2    1    2    0    0  0.35527136788E-14 -0.71054273576E-14  0.17763568394E-14  0.91188000000E+02  0.91188000000E+02 0.  0.
    9900012    2    3    3    0    0 -0.17069854648E+02  0.29473571998E+02 -0.13989599580E+02  0.54367078224E+02  0.39999986428E+02 0.  0.
         12    1    3    3    0    0  0.17069854648E+02 -0.29473571998E+02  0.13989599580E+02  0.36820921776E+02  0.00000000000E+00 0. -1.
         11    1    4    4    0    0  0.29016615284E+01  0.44378039625E+01 -0.16837105436E+02  0.17652248111E+02  0.51100000000E-03 0. -1.
        -11    1    4    4    0    0 -0.31718303618E+01  0.91723783659E+01 -0.66163510554E+01  0.11746026319E+02  0.51100000000E-03 0.  1.
        -12    1    4    4    0    0 -0.16799685815E+02  0.15863389670E+02  0.94638569121E+01  0.24968803795E+02  0.00000000000E+00 0.  1.
</event>
<event>
 8    1  0.1271559E-006  0.9118800E+02  0.7816164E-02  0.1184000E+00
        -11   -1    0    0    0    0  0.00000000000E+00  0.00000000000E+00  0.45593999997E+02  0.45594000000E+02  0.51100000000E-03 0.  1.
         11   -1    0    0    0    0 -0.00000000000E+00 -0.00000000000E+00 -0.45593999997E+02  0.45594000000E+02  0.51100000000E-03 0. -1.
         23    2    1    2    0    0  0.00000000000E+00  0.00000000000E+00  0.35527136788E-14  0.91188000000E+02  0.91188000000E+02 0.  0.
    9900012    2    3    3    0    0  0.12670654615E+02  0.29619411807E+02 -0.17830640088E+02  0.54366990099E+02  0.39999785529E+02 0.  0.
        -12    1    3    3    0    0 -0.12670654615E+02 -0.29619411807E+02  0.17830640088E+02  0.36821009901E+02  0.00000000000E+00 0.  1.
         11    1    4    4    0    0  0.11344416977E+00  0.14700138118E+02 -0.71587842380E+01  0.16350997594E+02  0.51100000000E-03 0. -1.
        -11    1    4    4    0    0  0.19380910506E+02  0.13973006305E+02 -0.16463666896E+02  0.29015804748E+02  0.51100000000E-03 0.  1.
        -12    1    4    4    0    0 -0.68237000605E+01  0.94626738374E+00  0.57918110464E+01  0.90001877577E+01  0.00000000000E+00 0.  1.
</event>
<event>
 8    1  0.1271559E-006  0.9118800E+02  0.7816164E-02  0.1184000E+00
        -11   -1    0    0    0    0  0.00000000000E+00  0.00000000000E+00  0.45593999997E+02  0.45594000000E+02  0.51100000000E-03 0.  1.
         11   -1    0    0    0    0 -0.00000000000E+00 -0.00000000000E+00 -0.45593999997E+02  0.45594000000E+02  0.51100000000E-03 0. -1.
         23    2    1    2    0    0 -0.71054273576E-14  0.44408920985E-15 -0.35527136788E-14  0.91188000000E+02  0.91188000000E+02 0.  0.
    9900012    2    3    3    0    0  0.32101674168E+02 -0.29602100103E+01  0.17790414705E+02  0.54367093125E+02  0.40000020397E+02 0.  0.
         12    1    3    3    0    0 -0.32101674168E+02  0.29602100103E+01 -0.17790414705E+02  0.36820906875E+02  0.00000000000E+00 0. -1.
         11    1    4    4    0    0  0.18193667665E+02  0.13078190075E+02  0.19147606932E+02  0.29473368491E+02  0.51100000000E-03 0. -1.
        -11    1    4    4    0    0  0.62177519342E+01 -0.36068524268E+01  0.52006308175E+01  0.88722254651E+01  0.51100000000E-03 0.  1.
         12    1    4    4    0    0  0.76902545695E+01 -0.12431547659E+02 -0.65578230440E+01  0.16021499169E+02  0.00000000000E+00 0. -1.
</event>
<event>
 8    1  0.1271559E-006  0.9118800E+02  0.7816164E-02  0.1184000E+00
        -11   -1    0    0    0    0  0.00000000000E+00  0.00000000000E+00  0.45593999997E+02  0.45594000000E+02  0.51100000000E-03 0.  1.
         11   -1    0    0    0    0 -0.00000000000E+00 -0.00000000000E+00 -0.45593999997E+02  0.45594000000E+02  0.51100000000E-03 0. -1.
         23    2    1    2    0    0 -0.35527136788E-14 -0.17763568394E-14  0.17763568394E-14  0.91188000000E+02  0.91188000000E+02 0.  0.
    9900012    2    3    3    0    0  0.29648917903E+02 -0.15452337618E+02 -0.15425496791E+02  0.54367095314E+02  0.40000025386E+02 0.  0.
        -12    1    3    3    0    0 -0.29648917903E+02  0.15452337618E+02  0.15425496791E+02  0.36820904686E+02  0.00000000000E+00 0.  1.
         11    1    4    4    0    0  0.25712882911E+02  0.32202003794E+01 -0.41355143402E+01  0.26241656144E+02  0.51100000000E-03 0. -1.
        -11    1    4    4    0    0 -0.18811458143E+01  0.10703115330E+01  0.25335189308E+01  0.33321156622E+01  0.51100000000E-03 0.  1.
         12    1    4    4    0    0  0.58171808071E+01 -0.19742849530E+02 -0.13823501381E+02  0.24793323507E+02  0.00000000000E+00 0. -1.
</event>
<event>
 8    1  0.1271559E-006  0.9118800E+02  0.7816164E-02  0.1184000E+00
        -11   -1    0    0    0    0  0.00000000000E+00  0.00000000000E+00  0.45593999997E+02  0.45594000000E+02  0.51100000000E-03 0.  1.
         11   -1    0    0    0    0 -0.00000000000E+00 -0.00000000000E+00 -0.45593999997E+02  0.45594000000E+02  0.51100000000E-03 0. -1.
         23    2    1    2    0    0 -0.31086244690E-14  0.71054273576E-14 -0.44408920985E-15  0.91188000000E+02  0.91188000000E+02 0.  0.
    9900012    2    3    3    0    0  0.20243980749E+01  0.36553675374E+02 -0.39384210161E+01  0.54367074821E+02  0.39999978669E+02 0.  0.
         12    1    3    3    0    0 -0.20243980749E+01 -0.36553675374E+02  0.39384210161E+01  0.36820925179E+02  0.00000000000E+00 0. -1.
         11    1    4    4    0    0 -0.16694573371E+02  0.72818778711E+01 -0.59969282269E+01  0.19175444553E+02  0.51100000000E-03 0. -1.
        -11    1    4    4    0    0  0.15580437393E+02  0.21429102944E+02  0.31211648455E+01  0.26677671424E+02  0.51100000000E-03 0.  1.
         12    1    4    4    0    0  0.31385340529E+01  0.78426945597E+01 -0.10626576347E+01  0.85139588446E+01  0.00000000000E+00 0. -1.
</event>
<event>
 8    1  0.1271559E-006  0.9118800E+02  0.7816164E-02  0.1184000E+00
        -11   -1    0    0    0    0  0.00000000000E+00  0.00000000000E+00  0.45593999997E+02  0.45594000000E+02  0.51100000000E-03 0. -1.
         11   -1    0    0    0    0 -0.00000000000E+00 -0.00000000000E+00 -0.45593999997E+02  0.45594000000E+02  0.51100000000E-03 0.  1.
         23    2    1    2    0    0  0.00000000000E+00  0.71054273576E-14  0.00000000000E+00  0.91188000000E+02  0.91188000000E+02 0.  0.
    9900012    2    3    3    0    0  0.25929763732E+02  0.23622742129E+02  0.11197930542E+02  0.54367078755E+02  0.39999987639E+02 0.  0.
        -12    1    3    3    0    0 -0.25929763732E+02 -0.23622742129E+02 -0.11197930542E+02  0.36820921245E+02  0.00000000000E+00 0.  1.
         11    1    4    4    0    0  0.11992845493E+02  0.12420669580E+02  0.24645381864E+01  0.17440622827E+02  0.51100000000E-03 0. -1.
        -11    1    4    4    0    0  0.26307718794E+01 -0.92685750396E+01 -0.38441552106E+01  0.10373281713E+02  0.51100000000E-03 0.  1.
        -12    1    4    4    0    0  0.11306146359E+02  0.20470647588E+02  0.12577547566E+02  0.26553174216E+02  0.00000000000E+00 0.  1.
</event>
<event>
 8    1  0.1271559E-006  0.9118800E+02  0.7816164E-02  0.1184000E+00
        -11   -1    0    0    0    0  0.00000000000E+00  0.00000000000E+00  0.45593999997E+02  0.45594000000E+02  0.51100000000E-03 0. -1.
         11   -1    0    0    0    0 -0.00000000000E+00 -0.00000000000E+00 -0.45593999997E+02  0.45594000000E+02  0.51100000000E-03 0.  1.
         23    2    1    2    0    0  0.00000000000E+00 -0.88817841970E-15  0.00000000000E+00  0.91188000000E+02  0.91188000000E+02 0.  0.
    9900012    2    3    3    0    0  0.35548868364E+02  0.74733371193E+01 -0.60172765860E+01  0.54367076231E+02  0.39999981885E+02 0.  0.
         12    1    3    3    0    0 -0.35548868364E+02 -0.74733371193E+01  0.60172765860E+01  0.36820923769E+02  0.00000000000E+00 0. -1.
         11    1    4    4    0    0  0.94912173822E+01 -0.91241298638E+01 -0.82802773816E+00  0.13191610340E+02  0.51100000000E-03 0. -1.
        -11    1    4    4    0    0 -0.12679609380E+01  0.76593311782E+01 -0.93200008924E+01  0.12129942124E+02  0.51100000000E-03 0.  1.
        -12    1    4    4    0    0  0.27325611920E+02  0.89381358049E+01  0.41307520445E+01  0.29045523767E+02  0.00000000000E+00 0.  1.
</event>
<event>
 8    1  0.1271559E-006  0.9118800E+02  0.7816164E-02  0.1184000E+00
        -11   -1    0    0    0    0  0.00000000000E+00  0.00000000000E+00  0.45593999997E+02  0.45594000000E+02  0.51100000000E-03 0.  1.
         11   -1    0    0    0    0 -0.00000000000E+00 -0.00000000000E+00 -0.45593999997E+02  0.45594000000E+02  0.51100000000E-03 0. -1.
         23    2    1    2    0    0  0.00000000000E+00 -0.17763568394E-14  0.17763568394E-14  0.91188000000E+02  0.91188000000E+02 0.  0.
    9900012    2    3    3    0    0 -0.33270814789E+02 -0.11391121430E+02 -0.10912200763E+02  0.54367069951E+02  0.39999967568E+02 0.  0.
        -12    1    3    3    0    0  0.33270814789E+02  0.11391121430E+02  0.10912200763E+02  0.36820930049E+02  0.00000000000E+00 0.  1.
         11    1    4    4    0    0 -0.60486865040E+01  0.42610200374E+01  0.55252468245E+01  0.92342434944E+01  0.51100000000E-03 0. -1.
        -11    1    4    4    0    0 -0.20351218039E+02 -0.18988270382E+02 -0.93350684346E+00  0.27849558758E+02  0.51100000000E-03 0.  1.
         12    1    4    4    0    0 -0.68709102466E+01  0.33361289148E+01 -0.15503940744E+02  0.17283267698E+02  0.00000000000E+00 0. -1.
</event>
<event>
 8    1  0.1271559E-006  0.9118800E+02  0.7816164E-02  0.1184000E+00
        -11   -1    0    0    0    0  0.00000000000E+00  0.00000000000E+00  0.45593999997E+02  0.45594000000E+02  0.51100000000E-03 0. -1.
         11   -1    0    0    0    0 -0.00000000000E+00 -0.00000000000E+00 -0.45593999997E+02  0.45594000000E+02  0.51100000000E-03 0.  1.
         23    2    1    2    0    0  0.00000000000E+00  0.00000000000E+00  0.71054273576E-14  0.91188000000E+02  0.91188000000E+02 0.  0.
    9900012    2    3    3    0    0  0.12660633740E+02  0.98256647356E+01 -0.33150348945E+02  0.54367068868E+02  0.39999965099E+02 0.  0.
         12    1    3    3    0    0 -0.12660633740E+02 -0.98256647356E+01  0.33150348945E+02  0.36820931132E+02  0.00000000000E+00 0. -1.
         11    1    4    4    0    0 -0.53054615647E+01 -0.50982786566E+00  0.45300961381E+01  0.69949709184E+01  0.51100000000E-03 0. -1.
        -11    1    4    4    0    0  0.17493144840E+02  0.27809779631E+01 -0.35202331271E+02  0.39407462263E+02  0.51100000000E-03 0.  1.
         12    1    4    4    0    0  0.47295046500E+00  0.75545146382E+01 -0.24781138124E+01  0.79646356871E+01  0.00000000000E+00 0. -1.
</event>
<event>
 8    1  0.1271559E-006  0.9118800E+02  0.7816164E-02  0.1184000E+00
        -11   -1    0    0    0    0  0.00000000000E+00  0.00000000000E+00  0.45593999997E+02  0.45594000000E+02  0.51100000000E-03 0. -1.
         11   -1    0    0    0    0 -0.00000000000E+00 -0.00000000000E+00 -0.45593999997E+02  0.45594000000E+02  0.51100000000E-03 0.  1.
         23    2    1    2    0    0  0.00000000000E+00 -0.71054273576E-14  0.00000000000E+00  0.91188000000E+02  0.91188000000E+02 0.  0.
    9900012    2    3    3    0    0  0.85337200985E+01  0.26406093337E+02  0.24200701495E+02  0.54367080717E+02  0.39999992110E+02 0.  0.
        -12    1    3    3    0    0 -0.85337200985E+01 -0.26406093337E+02 -0.24200701495E+02  0.36820919283E+02  0.00000000000E+00 0.  1.
         11    1    4    4    0    0  0.18768828894E+02  0.66268880393E+01  0.94202485587E+00  0.19926665407E+02  0.51100000000E-03 0. -1.
        -11    1    4    4    0    0 -0.64051669677E+01  0.21013685222E+01  0.98002615473E+01  0.11894832500E+02  0.51100000000E-03 0.  1.
        -12    1    4    4    0    0 -0.38299418280E+01  0.17677836775E+02  0.13458415091E+02  0.22545582810E+02  0.00000000000E+00 0.  1.
</event>
<event>
 8    1  0.1271559E-006  0.9118800E+02  0.7816164E-02  0.1184000E+00
        -11   -1    0    0    0    0  0.00000000000E+00  0.00000000000E+00  0.45593999997E+02  0.45594000000E+02  0.51100000000E-03 0.  1.
         11   -1    0    0    0    0 -0.00000000000E+00 -0.00000000000E+00 -0.45593999997E+02  0.45594000000E+02  0.51100000000E-03 0. -1.
         23    2    1    2    0    0 -0.44408920985E-15  0.00000000000E+00 -0.35527136788E-14  0.91188000000E+02  0.91188000000E+02 0.  0.
    9900012    2    3    3    0    0  0.31407815713E+01 -0.29741375162E+02  0.21479415889E+02  0.54367092728E+02  0.40000019492E+02 0.  0.
         12    1    3    3    0    0 -0.31407815713E+01  0.29741375162E+02 -0.21479415889E+02  0.36820907272E+02  0.00000000000E+00 0. -1.
         11    1    4    4    0    0 -0.10529273163E+02 -0.38386880729E+01 -0.58768783870E-01  0.11207344622E+02  0.51100000000E-03 0. -1.
        -11    1    4    4    0    0 -0.17855853387E+01 -0.79529460212E+01 -0.33400019253E+01  0.88087047027E+01  0.51100000000E-03 0.  1.
        -12    1    4    4    0    0  0.15455640073E+02 -0.17949741068E+02  0.24878186598E+02  0.34351043403E+02  0.00000000000E+00 0.  1.
</event>
<event>
 8    1  0.1271559E-006  0.9118800E+02  0.7816164E-02  0.1184000E+00
        -11   -1    0    0    0    0  0.00000000000E+00  0.00000000000E+00  0.45593999997E+02  0.45594000000E+02  0.51100000000E-03 0. -1.
         11   -1    0    0    0    0 -0.00000000000E+00 -0.00000000000E+00 -0.45593999997E+02  0.45594000000E+02  0.51100000000E-03 0.  1.
         23    2    1    2    0    0  0.00000000000E+00  0.44408920985E-15  0.00000000000E+00  0.91188000000E+02  0.91188000000E+02 0.  0.
    9900012    2    3    3    0    0 -0.16439666436E+02 -0.25302065487E+01  0.32849887715E+02  0.54367086098E+02  0.40000004378E+02 0.  0.
        -12    1    3    3    0    0  0.16439666436E+02  0.25302065487E+01 -0.32849887715E+02  0.36820913902E+02  0.00000000000E+00 0.  1.
         11    1    4    4    0    0  0.54700343469E+01  0.37157109230E+01  0.18751434112E+02  0.19883260923E+02  0.51100000000E-03 0. -1.
        -11    1    4    4    0    0 -0.11263529480E+02 -0.10203044354E+02  0.16958035933E+02  0.22771565458E+02  0.51100000000E-03 0.  1.
        -12    1    4    4    0    0 -0.10646171303E+02  0.39571268823E+01 -0.28595823306E+01  0.11712259717E+02  0.00000000000E+00 0.  1.
</event>
<event>
 8    1  0.1271559E-006  0.9118800E+02  0.7816164E-02  0.1184000E+00
        -11   -1    0    0    0    0  0.00000000000E+00  0.00000000000E+00  0.45593999997E+02  0.45594000000E+02  0.51100000000E-03 0. -1.
         11   -1    0    0    0    0 -0.00000000000E+00 -0.00000000000E+00 -0.45593999997E+02  0.45594000000E+02  0.51100000000E-03 0.  1.
         23    2    1    2    0    0  0.00000000000E+00  0.88817841970E-15 -0.17763568394E-14  0.91188000000E+02  0.91188000000E+02 0.  0.
    9900012    2    3    3    0    0  0.34958016461E+02 -0.42830304731E+01 -0.10741216999E+02  0.54367068350E+02  0.39999963918E+02 0.  0.
        -12    1    3    3    0    0 -0.34958016461E+02  0.42830304731E+01  0.10741216999E+02  0.36820931650E+02  0.00000000000E+00 0.  1.
         11    1    4    4    0    0  0.37750045041E+01 -0.13801180670E+02 -0.70805744597E+00  0.14325662027E+02  0.51100000000E-03 0.  1.
        -11    1    4    4    0    0  0.95778644124E+01  0.13233247182E+02 -0.74940398757E+01  0.17972616716E+02  0.51100000000E-03 0. -1.
         12    1    4    4    0    0  0.21605147545E+02 -0.37150969851E+01 -0.25391196771E+01  0.22068789608E+02  0.00000000000E+00 0. -1.
</event>
<event>
 8    1  0.1271559E-006  0.9118800E+02  0.7816164E-02  0.1184000E+00
        -11   -1    0    0    0    0  0.00000000000E+00  0.00000000000E+00  0.45593999997E+02  0.45594000000E+02  0.51100000000E-03 0. -1.
         11   -1    0    0    0    0 -0.00000000000E+00 -0.00000000000E+00 -0.45593999997E+02  0.45594000000E+02  0.51100000000E-03 0.  1.
         23    2    1    2    0    0  0.88817841970E-15  0.17763568394E-14  0.71054273576E-14  0.91188000000E+02  0.91188000000E+02 0.  0.
    9900012    2    3    3    0    0 -0.46321379784E+01 -0.91495514211E+01 -0.35363935037E+02  0.54367097040E+02  0.40000029322E+02 0.  0.
         12    1    3    3    0    0  0.46321379784E+01  0.91495514211E+01  0.35363935037E+02  0.36820902960E+02  0.00000000000E+00 0. -1.
         11    1    4    4    0    0  0.32409239639E+01 -0.47276869906E+01  0.77899619036E+01  0.96715106959E+01  0.51100000000E-03 0. -1.
        -11    1    4    4    0    0 -0.30147703865E+01  0.19699011787E+01 -0.14134195369E+02  0.14585774924E+02  0.51100000000E-03 0.  1.
         12    1    4    4    0    0 -0.48582915558E+01 -0.63917656092E+01 -0.29019701572E+02  0.30109811420E+02  0.00000000000E+00 0. -1.
</event>
<event>
 8    1  0.1271559E-006  0.9118800E+02  0.7816164E-02  0.1184000E+00
        -11   -1    0    0    0    0  0.00000000000E+00  0.00000000000E+00  0.45593999997E+02  0.45594000000E+02  0.51100000000E-03 0. -1.
         11   -1    0    0    0    0 -0.00000000000E+00 -0.00000000000E+00 -0.45593999997E+02  0.45594000000E+02  0.51100000000E-03 0.  1.
         23    2    1    2    0    0 -0.35527136788E-14 -0.35527136788E-14  0.35527136788E-14  0.91188000000E+02  0.91188000000E+02 0.  0.
    9900012    2    3    3    0    0  0.88617392389E+01 -0.21846896438E+02  0.28283609222E+02  0.54367083975E+02  0.39999999538E+02 0.  0.
        -12    1    3    3    0    0 -0.88617392389E+01  0.21846896438E+02 -0.28283609222E+02  0.36820916025E+02  0.00000000000E+00 0.  1.
         11    1    4    4    0    0 -0.40855624357E+01 -0.15506999638E+02  0.23596835501E+01  0.16208854521E+02  0.51100000000E-03 0. -1.
        -11    1    4    4    0    0 -0.31849947022E+01  0.22086624474E+01 -0.23273885044E+01  0.45209643409E+01  0.51100000000E-03 0.  1.
         12    1    4    4    0    0  0.16132296377E+02 -0.85485592479E+01  0.28251314176E+02  0.33637265113E+02  0.00000000000E+00 0. -1.
</event>
<event>
 8    1  0.1271559E-006  0.9118800E+02  0.7816164E-02  0.1184000E+00
        -11   -1    0    0    0    0  0.00000000000E+00  0.00000000000E+00  0.45593999997E+02  0.45594000000E+02  0.51100000000E-03 0.  1.
         11   -1    0    0    0    0 -0.00000000000E+00 -0.00000000000E+00 -0.45593999997E+02  0.45594000000E+02  0.51100000000E-03 0. -1.
         23    2    1    2    0    0  0.00000000000E+00  0.35527136788E-14  0.17763568394E-14  0.91188000000E+02  0.91188000000E+02 0.  0.
    9900012    2    3    3    0    0 -0.30041805370E+02 -0.18861731178E+02 -0.98743867987E+01  0.54367102570E+02  0.40000041928E+02 0.  0.
        -12    1    3    3    0    0  0.30041805370E+02  0.18861731178E+02  0.98743867987E+01  0.36820897430E+02  0.00000000000E+00 0.  1.
         11    1    4    4    0    0 -0.67774274127E+00 -0.14334603173E+02  0.30855256576E+01  0.14678578003E+02  0.51100000000E-03 0. -1.
        -11    1    4    4    0    0  0.34772357882E+01  0.12287486367E+01  0.52072767913E+00  0.37245334628E+01  0.51100000000E-03 0.  1.
        -12    1    4    4    0    0 -0.32841298417E+02 -0.57558766413E+01 -0.13480640135E+02  0.35963991104E+02  0.00000000000E+00 0.  1.
</event>
<event>
 8    1  0.1271559E-006  0.9118800E+02  0.7816164E-02  0.1184000E+00
        -11   -1    0    0    0    0  0.00000000000E+00  0.00000000000E+00  0.45593999997E+02  0.45594000000E+02  0.51100000000E-03 0. -1.
         11   -1    0    0    0    0 -0.00000000000E+00 -0.00000000000E+00 -0.45593999997E+02  0.45594000000E+02  0.51100000000E-03 0.  1.
         23    2    1    2    0    0  0.00000000000E+00  0.00000000000E+00  0.44408920985E-15  0.91188000000E+02  0.91188000000E+02 0.  0.
    9900012    2    3    3    0    0  0.32053049401E+02  0.17793485254E+02  0.34314088979E+01  0.54367073064E+02  0.39999974664E+02 0.  0.
        -12    1    3    3    0    0 -0.32053049401E+02 -0.17793485254E+02 -0.34314088979E+01  0.36820926936E+02  0.00000000000E+00 0.  1.
         11    1    4    4    0    0  0.18421432575E+02  0.17780908679E+00 -0.39417029173E+01  0.18839262627E+02  0.51100000000E-03 0. -1.
        -11    1    4    4    0    0  0.16396081554E+02  0.21129149219E+02 -0.18645182571E+00  0.26745227641E+02  0.51100000000E-03 0.  1.
        -12    1    4    4    0    0 -0.27644647274E+01 -0.35134730524E+01  0.75595636409E+01  0.87825827955E+01  0.00000000000E+00 0.  1.
</event>
<event>
 8    1  0.1271559E-006  0.9118800E+02  0.7816164E-02  0.1184000E+00
        -11   -1    0    0    0    0  0.00000000000E+00  0.00000000000E+00  0.45593999997E+02  0.45594000000E+02  0.51100000000E-03 0.  1.
         11   -1    0    0    0    0 -0.00000000000E+00 -0.00000000000E+00 -0.45593999997E+02  0.45594000000E+02  0.51100000000E-03 0. -1.
         23    2    1    2    0    0 -0.71054273576E-14  0.35527136788E-14 -0.88817841970E-15  0.91188000000E+02  0.91188000000E+02 0.  0.
    9900012    2    3    3    0    0 -0.35175906051E+02  0.10344643060E+02 -0.33802146857E+01  0.54367056803E+02  0.39999937594E+02 0.  0.
        -12    1    3    3    0    0  0.35175906051E+02 -0.10344643060E+02  0.33802146857E+01  0.36820943197E+02  0.00000000000E+00 0.  1.
         11    1    4    4    0    0 -0.20933139168E+02 -0.45113657197E+01 -0.26534807201E+01  0.21577527576E+02  0.51100000000E-03 0. -1.
        -11    1    4    4    0    0 -0.91347194440E+00 -0.68853364647E+01 -0.20833513087E+01  0.72513889816E+01  0.51100000000E-03 0.  1.
        -12    1    4    4    0    0 -0.13329294939E+02  0.21741345244E+02  0.13566173431E+01  0.25538140246E+02  0.00000000000E+00 0.  1.
</event>
<event>
 8    1  0.1271559E-006  0.9118800E+02  0.7816164E-02  0.1184000E+00
        -11   -1    0    0    0    0  0.00000000000E+00  0.00000000000E+00  0.45593999997E+02  0.45594000000E+02  0.51100000000E-03 0. -1.
         11   -1    0    0    0    0 -0.00000000000E+00 -0.00000000000E+00 -0.45593999997E+02  0.45594000000E+02  0.51100000000E-03 0.  1.
         23    2    1    2    0    0  0.00000000000E+00  0.35527136788E-14  0.00000000000E+00  0.91188000000E+02  0.91188000000E+02 0.  0.
    9900012    2    3    3    0    0 -0.39562911895E+00  0.23500209169E+02  0.28343688620E+02  0.54367067937E+02  0.39999962976E+02 0.  0.
        -12    1    3    3    0    0  0.39562911895E+00 -0.23500209169E+02 -0.28343688620E+02  0.36820932063E+02  0.00000000000E+00 0.  1.
         11    1    4    4    0    0  0.10858668094E+02  0.17235026689E+02  0.83598535995E+01  0.22019172787E+02  0.51100000000E-03 0. -1.
        -11    1    4    4    0    0 -0.13322583253E+02 -0.12618123880E+01  0.30848816150E+01  0.13733167510E+02  0.51100000000E-03 0.  1.
        -12    1    4    4    0    0  0.20682860395E+01  0.75269948683E+01  0.16898953406E+02  0.18614727640E+02  0.00000000000E+00 0.  1.
</event>
<event>
 8    1  0.1271559E-006  0.9118800E+02  0.7816164E-02  0.1184000E+00
        -11   -1    0    0    0    0  0.00000000000E+00  0.00000000000E+00  0.45593999997E+02  0.45594000000E+02  0.51100000000E-03 0. -1.
         11   -1    0    0    0    0 -0.00000000000E+00 -0.00000000000E+00 -0.45593999997E+02  0.45594000000E+02  0.51100000000E-03 0.  1.
         23    2    1    2    0    0  0.00000000000E+00  0.00000000000E+00 -0.35527136788E-14  0.91188000000E+02  0.91188000000E+02 0.  0.
    9900012    2    3    3    0    0  0.28189630739E+02 -0.11042332364E+02  0.20956991469E+02  0.54367029390E+02  0.39999875099E+02 0.  0.
        -12    1    3    3    0    0 -0.28189630739E+02  0.11042332364E+02 -0.20956991469E+02  0.36820970610E+02  0.00000000000E+00 0.  1.
         11    1    4    4    0    0  0.96374585198E+01 -0.18323322457E+02  0.25922415443E+02  0.33175237381E+02  0.51100000000E-03 0. -1.
        -11    1    4    4    0    0  0.58700767833E+01  0.29775872392E+01  0.76218788114E+00  0.66260665433E+01  0.51100000000E-03 0.  1.
         12    1    4    4    0    0  0.12682095436E+02  0.43034028533E+01 -0.57276118556E+01  0.14565725466E+02  0.00000000000E+00 0. -1.
</event>
<event>
 8    1  0.1271559E-006  0.9118800E+02  0.7816164E-02  0.1184000E+00
        -11   -1    0    0    0    0  0.00000000000E+00  0.00000000000E+00  0.45593999997E+02  0.45594000000E+02  0.51100000000E-03 0. -1.
         11   -1    0    0    0    0 -0.00000000000E+00 -0.00000000000E+00 -0.45593999997E+02  0.45594000000E+02  0.51100000000E-03 0.  1.
         23    2    1    2    0    0  0.00000000000E+00  0.00000000000E+00  0.35527136788E-14  0.91188000000E+02  0.91188000000E+02 0.  0.
    9900012    2    3    3    0    0 -0.18174170148E+02 -0.81914872366E+01  0.30957686518E+02  0.54367091832E+02  0.40000017450E+02 0.  0.
        -12    1    3    3    0    0  0.18174170148E+02  0.81914872366E+01 -0.30957686518E+02  0.36820908168E+02  0.00000000000E+00 0.  1.
         11    1    4    4    0    0 -0.51864271222E+01  0.69026126357E+01  0.49176967281E+01  0.99362381646E+01  0.51100000000E-03 0. -1.
        -11    1    4    4    0    0  0.72953578531E+01  0.38462613121E+01  0.57864334357E+01  0.10074660513E+02  0.51100000000E-03 0.  1.
         12    1    4    4    0    0 -0.20283100879E+02 -0.18940361184E+02  0.20253556355E+02  0.34356193155E+02  0.00000000000E+00 0. -1.
</event>
<event>
 8    1  0.1271559E-006  0.9118800E+02  0.7816164E-02  0.1184000E+00
        -11   -1    0    0    0    0  0.00000000000E+00  0.00000000000E+00  0.45593999997E+02  0.45594000000E+02  0.51100000000E-03 0.  1.
         11   -1    0    0    0    0 -0.00000000000E+00 -0.00000000000E+00 -0.45593999997E+02  0.45594000000E+02  0.51100000000E-03 0. -1.
         23    2    1    2    0    0  0.13322676296E-14 -0.33306690739E-15  0.00000000000E+00  0.91188000000E+02  0.91188000000E+02 0.  0.
    9900012    2    3    3    0    0 -0.77539463089E+00  0.97999309979E+00  0.36799705927E+02  0.54367082308E+02  0.39999995738E+02 0.  0.
         12    1    3    3    0    0  0.77539463089E+00 -0.97999309979E+00 -0.36799705927E+02  0.36820917692E+02  0.00000000000E+00 0. -1.
         11    1    4    4    0    0  0.74815642078E+01  0.47756095698E+01 -0.38730152199E+01  0.96840330913E+01  0.51100000000E-03 0. -1.
        -11    1    4    4    0    0 -0.86735984046E+01  0.23682987776E+01  0.10229141755E+02  0.13618938640E+02  0.51100000000E-03 0.  1.
        -12    1    4    4    0    0  0.41663956589E+00 -0.61639152476E+01  0.30443579392E+02  0.31064110577E+02  0.00000000000E+00 0.  1.
</event>
<event>
 8    1  0.1271559E-006  0.9118800E+02  0.7816164E-02  0.1184000E+00
        -11   -1    0    0    0    0  0.00000000000E+00  0.00000000000E+00  0.45593999997E+02  0.45594000000E+02  0.51100000000E-03 0.  1.
         11   -1    0    0    0    0 -0.00000000000E+00 -0.00000000000E+00 -0.45593999997E+02  0.45594000000E+02  0.51100000000E-03 0. -1.
         23    2    1    2    0    0  0.00000000000E+00  0.35527136788E-14  0.35527136788E-14  0.91188000000E+02  0.91188000000E+02 0.  0.
    9900012    2    3    3    0    0 -0.29473844071E+02  0.12825449645E+02  0.17960558489E+02  0.54367064322E+02  0.39999954736E+02 0.  0.
         12    1    3    3    0    0  0.29473844071E+02 -0.12825449645E+02 -0.17960558489E+02  0.36820935678E+02  0.00000000000E+00 0. -1.
         11    1    4    4    0    0 -0.10285672272E+02 -0.61919053578E+01 -0.90470247080E+01  0.15032744339E+02  0.51100000000E-03 0. -1.
        -11    1    4    4    0    0 -0.11214554253E+02  0.47099995825E+01  0.12713142164E+02  0.17594723843E+02  0.51100000000E-03 0.  1.
         12    1    4    4    0    0 -0.79736175466E+01  0.14307355420E+02  0.14294441033E+02  0.21739596140E+02  0.00000000000E+00 0. -1.
</event>
<event>
 8    1  0.1271559E-006  0.9118800E+02  0.7816164E-02  0.1184000E+00
        -11   -1    0    0    0    0  0.00000000000E+00  0.00000000000E+00  0.45593999997E+02  0.45594000000E+02  0.51100000000E-03 0. -1.
         11   -1    0    0    0    0 -0.00000000000E+00 -0.00000000000E+00 -0.45593999997E+02  0.45594000000E+02  0.51100000000E-03 0.  1.
         23    2    1    2    0    0  0.17763568394E-14  0.00000000000E+00  0.00000000000E+00  0.91188000000E+02  0.91188000000E+02 0.  0.
    9900012    2    3    3    0    0 -0.11783207673E+02  0.32774390919E+02 -0.11948835345E+02  0.54367090869E+02  0.40000015254E+02 0.  0.
        -12    1    3    3    0    0  0.11783207673E+02 -0.32774390919E+02  0.11948835345E+02  0.36820909131E+02  0.00000000000E+00 0.  1.
         11    1    4    4    0    0 -0.98061725775E+00  0.19281997887E+02 -0.17719956086E+02  0.26205989710E+02  0.51100000000E-03 0. -1.
        -11    1    4    4    0    0 -0.13348615495E+02  0.14145623187E+02 -0.23819098056E+01  0.19594838238E+02  0.51100000000E-03 0.  1.
        -12    1    4    4    0    0  0.25460250795E+01 -0.65323015530E+00  0.81530305469E+01  0.85662629214E+01  0.00000000000E+00 0.  1.
</event>
<event>
 8    1  0.1271559E-006  0.9118800E+02  0.7816164E-02  0.1184000E+00
        -11   -1    0    0    0    0  0.00000000000E+00  0.00000000000E+00  0.45593999997E+02  0.45594000000E+02  0.51100000000E-03 0.  1.
         11   -1    0    0    0    0 -0.00000000000E+00 -0.00000000000E+00 -0.45593999997E+02  0.45594000000E+02  0.51100000000E-03 0. -1.
         23    2    1    2    0    0  0.00000000000E+00  0.00000000000E+00  0.35527136788E-14  0.91188000000E+02  0.91188000000E+02 0.  0.
    9900012    2    3    3    0    0 -0.26411037603E+02 -0.55254494339E+01  0.25054034996E+02  0.54367106905E+02  0.40000051812E+02 0.  0.
        -12    1    3    3    0    0  0.26411037603E+02  0.55254494339E+01 -0.25054034996E+02  0.36820893095E+02  0.00000000000E+00 0.  1.
         11    1    4    4    0    0 -0.20107723967E+02 -0.15276782947E+02  0.19499156174E+02  0.31904823335E+02  0.51100000000E-03 0. -1.
        -11    1    4    4    0    0 -0.68142769637E+01 -0.19763853148E+01 -0.32344828765E+01  0.77975861130E+01  0.51100000000E-03 0.  1.
        -12    1    4    4    0    0  0.51096332728E+00  0.11727718828E+02  0.87893616988E+01  0.14664697457E+02  0.00000000000E+00 0.  1.
</event>
<event>
 8    1  0.1271559E-006  0.9118800E+02  0.7816164E-02  0.1184000E+00
        -11   -1    0    0    0    0  0.00000000000E+00  0.00000000000E+00  0.45593999997E+02  0.45594000000E+02  0.51100000000E-03 0.  1.
         11   -1    0    0    0    0 -0.00000000000E+00 -0.00000000000E+00 -0.45593999997E+02  0.45594000000E+02  0.51100000000E-03 0. -1.
         23    2    1    2    0    0 -0.71054273576E-14 -0.23158558404E-14  0.55511151231E-15  0.91188000000E+02  0.91188000000E+02 0.  0.
    9900012    2    3    3    0    0 -0.36819132324E+02 -0.51035322512E-02  0.36107095992E+00  0.54367096923E+02  0.40000029056E+02 0.  0.
         12    1    3    3    0    0  0.36819132324E+02  0.51035322512E-02 -0.36107095992E+00  0.36820903077E+02  0.00000000000E+00 0. -1.
         11    1    4    4    0    0  0.86402151544E+00 -0.86108340975E+01  0.43596426122E+01  0.96901744567E+01  0.51100000000E-03 0. -1.
        -11    1    4    4    0    0 -0.28780805410E+02 -0.16349384931E+01  0.37196919989E+01  0.29066198457E+02  0.51100000000E-03 0.  1.
         12    1    4    4    0    0 -0.89023484297E+01  0.10240669058E+02 -0.77182636512E+01  0.15610724010E+02  0.00000000000E+00 0. -1.
</event>
<event>
 8    1  0.1271559E-006  0.9118800E+02  0.7816164E-02  0.1184000E+00
        -11   -1    0    0    0    0  0.00000000000E+00  0.00000000000E+00  0.45593999997E+02  0.45594000000E+02  0.51100000000E-03 0. -1.
         11   -1    0    0    0    0 -0.00000000000E+00 -0.00000000000E+00 -0.45593999997E+02  0.45594000000E+02  0.51100000000E-03 0.  1.
         23    2    1    2    0    0  0.00000000000E+00  0.00000000000E+00  0.00000000000E+00  0.91188000000E+02  0.91188000000E+02 0.  0.
    9900012    2    3    3    0    0 -0.30752190501E+02  0.72909219658E+01  0.18892459734E+02  0.54367084768E+02  0.40000001345E+02 0.  0.
        -12    1    3    3    0    0  0.30752190501E+02 -0.72909219658E+01 -0.18892459734E+02  0.36820915232E+02  0.00000000000E+00 0.  1.
         11    1    4    4    0    0 -0.91158447722E+01 -0.71950469767E+01  0.56271837136E+01  0.12904748107E+02  0.51100000000E-03 0. -1.
        -11    1    4    4    0    0 -0.55717577804E+01 -0.76308979676E+01 -0.26734467675E+01  0.98194911495E+01  0.51100000000E-03 0.  1.
        -12    1    4    4    0    0 -0.16064587949E+02  0.22116866910E+02  0.15938722788E+02  0.31642845511E+02  0.00000000000E+00 0.  1.
</event>
<event>
 8    1  0.1271559E-006  0.9118800E+02  0.7816164E-02  0.1184000E+00
        -11   -1    0    0    0    0  0.00000000000E+00  0.00000000000E+00  0.45593999997E+02  0.45594000000E+02  0.51100000000E-03 0. -1.
         11   -1    0    0    0    0 -0.00000000000E+00 -0.00000000000E+00 -0.45593999997E+02  0.45594000000E+02  0.51100000000E-03 0.  1.
         23    2    1    2    0    0  0.00000000000E+00  0.00000000000E+00 -0.35527136788E-14  0.91188000000E+02  0.91188000000E+02 0.  0.
    9900012    2    3    3    0    0  0.16394603104E+02 -0.25229028239E+02  0.21224821040E+02  0.54367083322E+02  0.39999998050E+02 0.  0.
        -12    1    3    3    0    0 -0.16394603104E+02  0.25229028239E+02 -0.21224821040E+02  0.36820916678E+02  0.00000000000E+00 0.  1.
         11    1    4    4    0    0  0.20645340781E+01 -0.11478032872E+02  0.12373159128E+02  0.17003017575E+02  0.51100000000E-03 0. -1.
        -11    1    4    4    0    0  0.67068696853E+01 -0.13827226954E+02 -0.91003997227E+01  0.17860335428E+02  0.51100000000E-03 0.  1.
         12    1    4    4    0    0  0.76231993410E+01  0.76231587871E-01  0.17952061634E+02  0.19503730319E+02  0.00000000000E+00 0. -1.
</event>
<event>
 8    1  0.1271559E-006  0.9118800E+02  0.7816164E-02  0.1184000E+00
        -11   -1    0    0    0    0  0.00000000000E+00  0.00000000000E+00  0.45593999997E+02  0.45594000000E+02  0.51100000000E-03 0.  1.
         11   -1    0    0    0    0 -0.00000000000E+00 -0.00000000000E+00 -0.45593999997E+02  0.45594000000E+02  0.51100000000E-03 0. -1.
         23    2    1    2    0    0  0.00000000000E+00  0.00000000000E+00  0.17763568394E-14  0.91188000000E+02  0.91188000000E+02 0.  0.
    9900012    2    3    3    0    0  0.32125627760E+02 -0.12032169468E+02 -0.13377247500E+02  0.54367084589E+02  0.40000000937E+02 0.  0.
         12    1    3    3    0    0 -0.32125627760E+02  0.12032169468E+02  0.13377247500E+02  0.36820915411E+02  0.00000000000E+00 0. -1.
         11    1    4    4    0    0  0.11523224574E+02 -0.10000866224E+02 -0.16104309421E+01  0.15342604665E+02  0.51100000000E-03 0. -1.
        -11    1    4    4    0    0  0.27074370415E+02 -0.43926997190E+01 -0.15166177869E+02  0.31342148867E+02  0.51100000000E-03 0.  1.
        -12    1    4    4    0    0 -0.64719672299E+01  0.23613964749E+01  0.33993613119E+01  0.76823310567E+01  0.00000000000E+00 0.  1.
</event>
<event>
 8    1  0.1271559E-006  0.9118800E+02  0.7816164E-02  0.1184000E+00
        -11   -1    0    0    0    0  0.00000000000E+00  0.00000000000E+00  0.45593999997E+02  0.45594000000E+02  0.51100000000E-03 0.  1.
         11   -1    0    0    0    0 -0.00000000000E+00 -0.00000000000E+00 -0.45593999997E+02  0.45594000000E+02  0.51100000000E-03 0. -1.
         23    2    1    2    0    0 -0.35527136788E-14  0.17763568394E-14  0.35527136788E-14  0.91188000000E+02  0.91188000000E+02 0.  0.
    9900012    2    3    3    0    0 -0.19168891824E+02  0.12052120349E+02  0.29035869692E+02  0.54367058303E+02  0.39999941014E+02 0.  0.
         12    1    3    3    0    0  0.19168891824E+02 -0.12052120349E+02 -0.29035869692E+02  0.36820941697E+02  0.00000000000E+00 0. -1.
         11    1    4    4    0    0 -0.47009286819E+01  0.25510508355E+01 -0.48567250893E+01  0.72245670937E+01  0.51100000000E-03 0. -1.
        -11    1    4    4    0    0  0.75172620231E+01  0.75335252948E+01  0.98018914101E+01  0.14468597277E+02  0.51100000000E-03 0.  1.
         12    1    4    4    0    0 -0.21985225165E+02  0.19675442191E+01  0.24090703371E+02  0.32673893933E+02  0.00000000000E+00 0. -1.
</event>
<event>
 8    1  0.1271559E-006  0.9118800E+02  0.7816164E-02  0.1184000E+00
        -11   -1    0    0    0    0  0.00000000000E+00  0.00000000000E+00  0.45593999997E+02  0.45594000000E+02  0.51100000000E-03 0.  1.
         11   -1    0    0    0    0 -0.00000000000E+00 -0.00000000000E+00 -0.45593999997E+02  0.45594000000E+02  0.51100000000E-03 0. -1.
         23    2    1    2    0    0  0.35527136788E-14  0.00000000000E+00  0.00000000000E+00  0.91188000000E+02  0.91188000000E+02 0.  0.
    9900012    2    3    3    0    0 -0.23955019081E+02  0.18713416557E+02 -0.20778454824E+02  0.54367094481E+02  0.40000023487E+02 0.  0.
        -12    1    3    3    0    0  0.23955019081E+02 -0.18713416557E+02  0.20778454824E+02  0.36820905519E+02  0.00000000000E+00 0.  1.
         11    1    4    4    0    0 -0.11053628518E+02  0.41166801929E+00 -0.15997353617E+02  0.19449100159E+02  0.51100000000E-03 0. -1.
        -11    1    4    4    0    0 -0.18283354906E+02  0.20034304810E+02 -0.81693296128E+01  0.28326531422E+02  0.51100000000E-03 0.  1.
         12    1    4    4    0    0  0.53819643432E+01 -0.17325562728E+01  0.33882284054E+01  0.65914628996E+01  0.00000000000E+00 0. -1.
</event>
<event>
 8    1  0.1271559E-006  0.9118800E+02  0.7816164E-02  0.1184000E+00
        -11   -1    0    0    0    0  0.00000000000E+00  0.00000000000E+00  0.45593999997E+02  0.45594000000E+02  0.51100000000E-03 0.  1.
         11   -1    0    0    0    0 -0.00000000000E+00 -0.00000000000E+00 -0.45593999997E+02  0.45594000000E+02  0.51100000000E-03 0. -1.
         23    2    1    2    0    0  0.00000000000E+00  0.00000000000E+00  0.35527136788E-14  0.91188000000E+02  0.91188000000E+02 0.  0.
    9900012    2    3    3    0    0 -0.13210019134E+02 -0.27672765080E+02  0.20383493964E+02  0.54367172213E+02  0.40000200694E+02 0.  0.
         12    1    3    3    0    0  0.13210019134E+02  0.27672765080E+02 -0.20383493964E+02  0.36820827787E+02  0.00000000000E+00 0. -1.
         11    1    4    4    0    0  0.41518566346E+01 -0.21472942164E+02  0.18978344108E+01  0.21952834314E+02  0.51100000000E-03 0. -1.
        -11    1    4    4    0    0 -0.12031257978E+02 -0.89960715934E+01  0.21058734737E+02  0.25867948926E+02  0.51100000000E-03 0.  1.
        -12    1    4    4    0    0 -0.53306177906E+01  0.27962486772E+01 -0.25730751836E+01  0.65463889737E+01  0.00000000000E+00 0.  1.
</event>
<event>
 8    1  0.1271559E-006  0.9118800E+02  0.7816164E-02  0.1184000E+00
        -11   -1    0    0    0    0  0.00000000000E+00  0.00000000000E+00  0.45593999997E+02  0.45594000000E+02  0.51100000000E-03 0.  1.
         11   -1    0    0    0    0 -0.00000000000E+00 -0.00000000000E+00 -0.45593999997E+02  0.45594000000E+02  0.51100000000E-03 0. -1.
         23    2    1    2    0    0 -0.17763568394E-14  0.35527136788E-14 -0.35527136788E-14  0.91188000000E+02  0.91188000000E+02 0.  0.
    9900012    2    3    3    0    0  0.13566185373E+02 -0.16759011189E+02  0.29847543158E+02  0.54367059298E+02  0.39999943282E+02 0.  0.
         12    1    3    3    0    0 -0.13566185373E+02  0.16759011189E+02 -0.29847543158E+02  0.36820940702E+02  0.00000000000E+00 0. -1.
         11    1    4    4    0    0 -0.54960827900E+01 -0.29328535530E+01  0.83764794301E+01  0.10439059531E+02  0.51100000000E-03 0. -1.
        -11    1    4    4    0    0  0.19245376397E+02 -0.57069068998E+01  0.27332840844E+02  0.33912202640E+02  0.51100000000E-03 0.  1.
         12    1    4    4    0    0 -0.18310823402E+00 -0.81192507360E+01 -0.58617771154E+01  0.10015797127E+02  0.00000000000E+00 0. -1.
</event>
<event>
 8    1  0.1271559E-006  0.9118800E+02  0.7816164E-02  0.1184000E+00
        -11   -1    0    0    0    0  0.00000000000E+00  0.00000000000E+00  0.45593999997E+02  0.45594000000E+02  0.51100000000E-03 0.  1.
         11   -1    0    0    0    0 -0.00000000000E+00 -0.00000000000E+00 -0.45593999997E+02  0.45594000000E+02  0.51100000000E-03 0. -1.
         23    2    1    2    0    0  0.00000000000E+00  0.00000000000E+00  0.00000000000E+00  0.91188000000E+02  0.91188000000E+02 0.  0.
    9900012    2    3    3    0    0 -0.26754616109E+02  0.20308987840E+02 -0.15083635702E+02  0.54367074750E+02  0.39999978509E+02 0.  0.
        -12    1    3    3    0    0  0.26754616109E+02 -0.20308987840E+02  0.15083635702E+02  0.36820925250E+02  0.00000000000E+00 0.  1.
         11    1    4    4    0    0 -0.11242342017E+02  0.39155890664E+01 -0.49457069823E+00  0.11914977642E+02  0.51100000000E-03 0. -1.
        -11    1    4    4    0    0 -0.17808953492E+02  0.10227530081E+02  0.55433057612E+01  0.21271799056E+02  0.51100000000E-03 0.  1.
         12    1    4    4    0    0  0.22966794002E+01  0.61658686933E+01 -0.20132370765E+02  0.21180298053E+02  0.00000000000E+00 0. -1.
</event>
<event>
 8    1  0.1271559E-006  0.9118800E+02  0.7816164E-02  0.1184000E+00
        -11   -1    0    0    0    0  0.00000000000E+00  0.00000000000E+00  0.45593999997E+02  0.45594000000E+02  0.51100000000E-03 0. -1.
         11   -1    0    0    0    0 -0.00000000000E+00 -0.00000000000E+00 -0.45593999997E+02  0.45594000000E+02  0.51100000000E-03 0.  1.
         23    2    1    2    0    0  0.00000000000E+00  0.00000000000E+00 -0.35527136788E-14  0.91188000000E+02  0.91188000000E+02 0.  0.
    9900012    2    3    3    0    0  0.25652495451E+02  0.10701547704E+02 -0.24149697555E+02  0.54367061146E+02  0.39999947494E+02 0.  0.
         12    1    3    3    0    0 -0.25652495451E+02 -0.10701547704E+02  0.24149697555E+02  0.36820938854E+02  0.00000000000E+00 0. -1.
         11    1    4    4    0    0  0.62005087021E+01  0.10474862619E+02 -0.67542203284E+01  0.13920795507E+02  0.51100000000E-03 0. -1.
        -11    1    4    4    0    0  0.17834839858E+02 -0.13621407167E+02 -0.12376883275E+02  0.25628333653E+02  0.51100000000E-03 0.  1.
         12    1    4    4    0    0  0.16171468904E+01  0.13848092251E+02 -0.50185939515E+01  0.14817931985E+02  0.00000000000E+00 0. -1.
</event>
<event>
 8    1  0.1271559E-006  0.9118800E+02  0.7816164E-02  0.1184000E+00
        -11   -1    0    0    0    0  0.00000000000E+00  0.00000000000E+00  0.45593999997E+02  0.45594000000E+02  0.51100000000E-03 0.  1.
         11   -1    0    0    0    0 -0.00000000000E+00 -0.00000000000E+00 -0.45593999997E+02  0.45594000000E+02  0.51100000000E-03 0. -1.
         23    2    1    2    0    0  0.00000000000E+00  0.00000000000E+00  0.44408920985E-15  0.91188000000E+02  0.91188000000E+02 0.  0.
    9900012    2    3    3    0    0 -0.33644714874E+02  0.14721437296E+02 -0.26631127713E+01  0.54367085772E+02  0.40000003634E+02 0.  0.
         12    1    3    3    0    0  0.33644714874E+02 -0.14721437296E+02  0.26631127713E+01  0.36820914228E+02  0.00000000000E+00 0. -1.
         11    1    4    4    0    0 -0.94511366233E+00  0.13579781135E+02  0.46165689205E+01  0.14374157519E+02  0.51100000000E-03 0. -1.
        -11    1    4    4    0    0 -0.20567769198E+02  0.89936143372E+01  0.24353163075E+01  0.22579836013E+02  0.51100000000E-03 0.  1.
         12    1    4    4    0    0 -0.12131832014E+02 -0.78519581766E+01 -0.97149979993E+01  0.17413092240E+02  0.00000000000E+00 0. -1.
</event>
<event>
 8    1  0.1271559E-006  0.9118800E+02  0.7816164E-02  0.1184000E+00
        -11   -1    0    0    0    0  0.00000000000E+00  0.00000000000E+00  0.45593999997E+02  0.45594000000E+02  0.51100000000E-03 0.  1.
         11   -1    0    0    0    0 -0.00000000000E+00 -0.00000000000E+00 -0.45593999997E+02  0.45594000000E+02  0.51100000000E-03 0. -1.
         23    2    1    2    0    0  0.35527136788E-14  0.00000000000E+00 -0.71054273576E-14  0.91188000000E+02  0.91188000000E+02 0.  0.
    9900012    2    3    3    0    0  0.82679921010E+01 -0.69997212891E+01 -0.35191239794E+02  0.54367093578E+02  0.40000021429E+02 0.  0.
        -12    1    3    3    0    0 -0.82679921010E+01  0.69997212891E+01  0.35191239794E+02  0.36820906422E+02  0.00000000000E+00 0.  1.
         11    1    4    4    0    0  0.10645984127E+01  0.22456442454E+01  0.20651388874E+01  0.32312670491E+01  0.51100000000E-03 0. -1.
        -11    1    4    4    0    0 -0.13081958498E+02 -0.97056148121E+00 -0.14018667303E+02  0.19199027604E+02  0.51100000000E-03 0.  1.
         12    1    4    4    0    0  0.20285352186E+02 -0.82748040533E+01 -0.23237711379E+02  0.31936798925E+02  0.00000000000E+00 0. -1.
</event>
<event>
 8    1  0.1271559E-006  0.9118800E+02  0.7816164E-02  0.1184000E+00
        -11   -1    0    0    0    0  0.00000000000E+00  0.00000000000E+00  0.45593999997E+02  0.45594000000E+02  0.51100000000E-03 0.  1.
         11   -1    0    0    0    0 -0.00000000000E+00 -0.00000000000E+00 -0.45593999997E+02  0.45594000000E+02  0.51100000000E-03 0. -1.
         23    2    1    2    0    0  0.00000000000E+00 -0.35527136788E-14  0.00000000000E+00  0.91188000000E+02  0.91188000000E+02 0.  0.
    9900012    2    3    3    0    0 -0.68404706732E+01 -0.28501644138E+02  0.22285514145E+02  0.54367083413E+02  0.39999998256E+02 0.  0.
         12    1    3    3    0    0  0.68404706732E+01  0.28501644138E+02 -0.22285514145E+02  0.36820916587E+02  0.00000000000E+00 0. -1.
         11    1    4    4    0    0  0.45421933988E+01  0.20129231693E+01  0.27644426037E+01  0.56855539509E+01  0.51100000000E-03 0. -1.
        -11    1    4    4    0    0  0.84961473654E+01 -0.19603565536E+02  0.13301418812E+02  0.25167678567E+02  0.51100000000E-03 0.  1.
        -12    1    4    4    0    0 -0.19878811437E+02 -0.10911001772E+02  0.62196527302E+01  0.23513850895E+02  0.00000000000E+00 0.  1.
</event>
<event>
 8    1  0.1271559E-006  0.9118800E+02  0.7816164E-02  0.1184000E+00
        -11   -1    0    0    0    0  0.00000000000E+00  0.00000000000E+00  0.45593999997E+02  0.45594000000E+02  0.51100000000E-03 0.  1.
         11   -1    0    0    0    0 -0.00000000000E+00 -0.00000000000E+00 -0.45593999997E+02  0.45594000000E+02  0.51100000000E-03 0. -1.
         23    2    1    2    0    0 -0.10658141036E-13  0.22204460493E-15 -0.71054273576E-14  0.91188000000E+02  0.91188000000E+02 0.  0.
    9900012    2    3    3    0    0 -0.25658350063E+02 -0.88284133216E+00 -0.26394062177E+02  0.54367124739E+02  0.40000092468E+02 0.  0.
        -12    1    3    3    0    0  0.25658350063E+02  0.88284133216E+00  0.26394062177E+02  0.36820875261E+02  0.00000000000E+00 0.  1.
         11    1    4    4    0    0 -0.20761631799E+02 -0.91910545790E+01 -0.15373804380E+02  0.27420333708E+02  0.51100000000E-03 0. -1.
        -11    1    4    4    0    0  0.25341346399E+01 -0.50784790603E+01 -0.10128152038E+02  0.11610006542E+02  0.51100000000E-03 0.  1.
        -12    1    4    4    0    0 -0.74308529031E+01  0.13386692307E+02 -0.89210575865E+00  0.15336784490E+02  0.00000000000E+00 0.  1.
</event>
<event>
 8    1  0.1271559E-006  0.9118800E+02  0.7816164E-02  0.1184000E+00
        -11   -1    0    0    0    0  0.00000000000E+00  0.00000000000E+00  0.45593999997E+02  0.45594000000E+02  0.51100000000E-03 0.  1.
         11   -1    0    0    0    0 -0.00000000000E+00 -0.00000000000E+00 -0.45593999997E+02  0.45594000000E+02  0.51100000000E-03 0. -1.
         23    2    1    2    0    0  0.00000000000E+00  0.35527136788E-14 -0.17763568394E-14  0.91188000000E+02  0.91188000000E+02 0.  0.
    9900012    2    3    3    0    0 -0.22073404809E+02 -0.26984262201E+02  0.11848719699E+02  0.54367112383E+02  0.40000064300E+02 0.  0.
         12    1    3    3    0    0  0.22073404809E+02  0.26984262201E+02 -0.11848719699E+02  0.36820887617E+02  0.00000000000E+00 0. -1.
         11    1    4    4    0    0  0.45758189288E+00  0.60402157779E+01  0.42612700189E+01  0.74062143007E+01  0.51100000000E-03 0.  1.
        -11    1    4    4    0    0 -0.89428701111E+01 -0.31100969562E+02  0.75811359223E+01  0.33237311198E+02  0.51100000000E-03 0. -1.
         12    1    4    4    0    0 -0.13588116591E+02 -0.19235084166E+01  0.63137579532E-02  0.13723586885E+02  0.00000000000E+00 0. -1.
</event>
<event>
 8    1  0.1271559E-006  0.9118800E+02  0.7816164E-02  0.1184000E+00
        -11   -1    0    0    0    0  0.00000000000E+00  0.00000000000E+00  0.45593999997E+02  0.45594000000E+02  0.51100000000E-03 0. -1.
         11   -1    0    0    0    0 -0.00000000000E+00 -0.00000000000E+00 -0.45593999997E+02  0.45594000000E+02  0.51100000000E-03 0.  1.
         23    2    1    2    0    0  0.00000000000E+00  0.00000000000E+00 -0.17763568394E-14  0.91188000000E+02  0.91188000000E+02 0.  0.
    9900012    2    3    3    0    0 -0.26171542150E+02 -0.22661971532E+02 -0.12540084896E+02  0.54367240890E+02  0.40000357255E+02 0.  0.
         12    1    3    3    0    0  0.26171542150E+02  0.22661971532E+02  0.12540084896E+02  0.36820759110E+02  0.00000000000E+00 0. -1.
         11    1    4    4    0    0 -0.68477532571E+01 -0.92421505044E+01  0.49427464933E+01  0.12519577220E+02  0.51100000000E-03 0. -1.
        -11    1    4    4    0    0  0.77886372889E+01 -0.60580957068E+01 -0.35317079550E+01  0.10480284145E+02  0.51100000000E-03 0.  1.
         12    1    4    4    0    0 -0.27112426182E+02 -0.73617253205E+01 -0.13951123435E+02  0.31367379525E+02  0.00000000000E+00 0. -1.
</event>
<event>
 8    1  0.1271559E-006  0.9118800E+02  0.7816164E-02  0.1184000E+00
        -11   -1    0    0    0    0  0.00000000000E+00  0.00000000000E+00  0.45593999997E+02  0.45594000000E+02  0.51100000000E-03 0.  1.
         11   -1    0    0    0    0 -0.00000000000E+00 -0.00000000000E+00 -0.45593999997E+02  0.45594000000E+02  0.51100000000E-03 0. -1.
         23    2    1    2    0    0 -0.17763568394E-14  0.00000000000E+00  0.00000000000E+00  0.91188000000E+02  0.91188000000E+02 0.  0.
    9900012    2    3    3    0    0  0.82477327678E+01  0.21401240789E+02 -0.28805395960E+02  0.54366959282E+02  0.39999715275E+02 0.  0.
        -12    1    3    3    0    0 -0.82477327678E+01 -0.21401240789E+02  0.28805395960E+02  0.36821040718E+02  0.00000000000E+00 0.  1.
         11    1    4    4    0    0  0.98360281421E+01  0.60314353071E+01 -0.30073132783E+02  0.32210541398E+02  0.51100000000E-03 0. -1.
        -11    1    4    4    0    0 -0.71345887971E+01  0.14158350988E+02 -0.13363531485E+01  0.15910597098E+02  0.51100000000E-03 0.  1.
        -12    1    4    4    0    0  0.55462934228E+01  0.12114544929E+01  0.26040899713E+01  0.62458207867E+01  0.00000000000E+00 0.  1.
</event>
<event>
 8    1  0.1271559E-006  0.9118800E+02  0.7816164E-02  0.1184000E+00
        -11   -1    0    0    0    0  0.00000000000E+00  0.00000000000E+00  0.45593999997E+02  0.45594000000E+02  0.51100000000E-03 0. -1.
         11   -1    0    0    0    0 -0.00000000000E+00 -0.00000000000E+00 -0.45593999997E+02  0.45594000000E+02  0.51100000000E-03 0.  1.
         23    2    1    2    0    0 -0.44408920985E-15 -0.88817841970E-15  0.00000000000E+00  0.91188000000E+02  0.91188000000E+02 0.  0.
    9900012    2    3    3    0    0 -0.25291634339E+01  0.72731112237E+01 -0.36006712036E+02  0.54367107477E+02  0.40000053115E+02 0.  0.
         12    1    3    3    0    0  0.25291634339E+01 -0.72731112237E+01  0.36006712036E+02  0.36820892523E+02  0.00000000000E+00 0. -1.
         11    1    4    4    0    0 -0.35948574938E+01 -0.86826758304E+01 -0.17550662125E+02  0.19908229486E+02  0.51100000000E-03 0. -1.
        -11    1    4    4    0    0  0.62486265298E+01  0.90461545032E+01 -0.22408273399E+02  0.24960147471E+02  0.51100000000E-03 0.  1.
         12    1    4    4    0    0 -0.51829324699E+01  0.69096325509E+01  0.39522234882E+01  0.94987305192E+01  0.00000000000E+00 0. -1.
</event>
<event>
 8    1  0.1271559E-006  0.9118800E+02  0.7816164E-02  0.1184000E+00
        -11   -1    0    0    0    0  0.00000000000E+00  0.00000000000E+00  0.45593999997E+02  0.45594000000E+02  0.51100000000E-03 0.  1.
         11   -1    0    0    0    0 -0.00000000000E+00 -0.00000000000E+00 -0.45593999997E+02  0.45594000000E+02  0.51100000000E-03 0. -1.
         23    2    1    2    0    0  0.00000000000E+00  0.00000000000E+00  0.00000000000E+00  0.91188000000E+02  0.91188000000E+02 0.  0.
    9900012    2    3    3    0    0 -0.29439091782E+02  0.13048174766E+02 -0.17856803878E+02  0.54367076133E+02  0.39999981660E+02 0.  0.
        -12    1    3    3    0    0  0.29439091782E+02 -0.13048174766E+02  0.17856803878E+02  0.36820923867E+02  0.00000000000E+00 0.  1.
         11    1    4    4    0    0 -0.16932867784E+02 -0.37538326218E+01 -0.15923138741E+02  0.23544842713E+02  0.51100000000E-03 0. -1.
        -11    1    4    4    0    0 -0.14412363663E+02  0.19088590209E+02  0.39366947220E+01  0.24240215926E+02  0.51100000000E-03 0.  1.
         12    1    4    4    0    0  0.19061396649E+01 -0.22865828212E+01 -0.58703598588E+01  0.65820174940E+01  0.00000000000E+00 0. -1.
</event>
<event>
 8    1  0.1271559E-006  0.9118800E+02  0.7816164E-02  0.1184000E+00
        -11   -1    0    0    0    0  0.00000000000E+00  0.00000000000E+00  0.45593999997E+02  0.45594000000E+02  0.51100000000E-03 0.  1.
         11   -1    0    0    0    0 -0.00000000000E+00 -0.00000000000E+00 -0.45593999997E+02  0.45594000000E+02  0.51100000000E-03 0. -1.
         23    2    1    2    0    0 -0.88817841970E-15  0.00000000000E+00  0.00000000000E+00  0.91188000000E+02  0.91188000000E+02 0.  0.
    9900012    2    3    3    0    0 -0.14223818390E+01 -0.18080261320E+02  0.32044674100E+02  0.54367079891E+02  0.39999990228E+02 0.  0.
         12    1    3    3    0    0  0.14223818390E+01  0.18080261320E+02 -0.32044674100E+02  0.36820920109E+02  0.00000000000E+00 0. -1.
         11    1    4    4    0    0 -0.51362726156E+00  0.25977908761E+01 -0.44679979954E+01  0.51937786580E+01  0.51100000000E-03 0. -1.
        -11    1    4    4    0    0 -0.11794335857E+02 -0.90284636675E+01  0.26403519606E+02  0.30294642470E+02  0.51100000000E-03 0.  1.
        -12    1    4    4    0    0  0.10885581279E+02 -0.11649588529E+02  0.10109152489E+02  0.18878658764E+02  0.00000000000E+00 0.  1.
</event>
<event>
 8    1  0.1271559E-006  0.9118800E+02  0.7816164E-02  0.1184000E+00
        -11   -1    0    0    0    0  0.00000000000E+00  0.00000000000E+00  0.45593999997E+02  0.45594000000E+02  0.51100000000E-03 0.  1.
         11   -1    0    0    0    0 -0.00000000000E+00 -0.00000000000E+00 -0.45593999997E+02  0.45594000000E+02  0.51100000000E-03 0. -1.
         23    2    1    2    0    0 -0.71054273576E-14  0.35527136788E-14  0.00000000000E+00  0.91188000000E+02  0.91188000000E+02 0.  0.
    9900012    2    3    3    0    0  0.30845582136E+02 -0.17629208034E+02 -0.96715686958E+01  0.54367107096E+02  0.40000052247E+02 0.  0.
        -12    1    3    3    0    0 -0.30845582136E+02  0.17629208034E+02  0.96715686958E+01  0.36820892904E+02  0.00000000000E+00 0.  1.
         11    1    4    4    0    0  0.38354360165E+02 -0.94341325318E+01 -0.69191424867E+01  0.40099056514E+02  0.51100000000E-03 0. -1.
        -11    1    4    4    0    0  0.52331918113E+00  0.13885054640E+01 -0.47453666202E+00  0.15578817970E+01  0.51100000000E-03 0.  1.
        -12    1    4    4    0    0 -0.80320972108E+01 -0.95835809665E+01 -0.22778895470E+01  0.12710168785E+02  0.00000000000E+00 0.  1.
</event>
<event>
 8    1  0.1271559E-006  0.9118800E+02  0.7816164E-02  0.1184000E+00
        -11   -1    0    0    0    0  0.00000000000E+00  0.00000000000E+00  0.45593999997E+02  0.45594000000E+02  0.51100000000E-03 0.  1.
         11   -1    0    0    0    0 -0.00000000000E+00 -0.00000000000E+00 -0.45593999997E+02  0.45594000000E+02  0.51100000000E-03 0. -1.
         23    2    1    2    0    0  0.17763568394E-14  0.00000000000E+00  0.17763568394E-14  0.91188000000E+02  0.91188000000E+02 0.  0.
    9900012    2    3    3    0    0  0.10527068096E+02  0.33880478805E+02  0.98526191124E+01  0.54367080537E+02  0.39999991700E+02 0.  0.
         12    1    3    3    0    0 -0.10527068096E+02 -0.33880478805E+02 -0.98526191124E+01  0.36820919463E+02  0.00000000000E+00 0. -1.
         11    1    4    4    0    0 -0.15485415004E+01  0.10405459144E+02  0.19063014303E+02  0.21773150331E+02  0.51100000000E-03 0. -1.
        -11    1    4    4    0    0 -0.33499886489E+01  0.43125639484E+01  0.16482811104E+01  0.57041618698E+01  0.51100000000E-03 0.  1.
        -12    1    4    4    0    0  0.15425598246E+02  0.19162455712E+02 -0.10858676301E+02  0.26889768336E+02  0.00000000000E+00 0.  1.
</event>
<event>
 8    1  0.1271559E-006  0.9118800E+02  0.7816164E-02  0.1184000E+00
        -11   -1    0    0    0    0  0.00000000000E+00  0.00000000000E+00  0.45593999997E+02  0.45594000000E+02  0.51100000000E-03 0.  1.
         11   -1    0    0    0    0 -0.00000000000E+00 -0.00000000000E+00 -0.45593999997E+02  0.45594000000E+02  0.51100000000E-03 0. -1.
         23    2    1    2    0    0  0.00000000000E+00  0.17763568394E-14  0.35527136788E-14  0.91188000000E+02  0.91188000000E+02 0.  0.
    9900012    2    3    3    0    0  0.29032427182E+02  0.85113671195E+01  0.20987046741E+02  0.54367063983E+02  0.39999953961E+02 0.  0.
        -12    1    3    3    0    0 -0.29032427182E+02 -0.85113671195E+01 -0.20987046741E+02  0.36820936017E+02  0.00000000000E+00 0.  1.
         11    1    4    4    0    0  0.17992865958E+02  0.10641762910E+02  0.42276700577E+01  0.21327530040E+02  0.51100000000E-03 0. -1.
        -11    1    4    4    0    0  0.16013231157E+02 -0.13818283349E+01  0.56565131173E+00  0.16082692042E+02  0.51100000000E-03 0.  1.
        -12    1    4    4    0    0 -0.49736699341E+01 -0.74856745520E+00  0.16193725371E+02  0.16956841901E+02  0.00000000000E+00 0.  1.
</event>
<event>
 8    1  0.1271559E-006  0.9118800E+02  0.7816164E-02  0.1184000E+00
        -11   -1    0    0    0    0  0.00000000000E+00  0.00000000000E+00  0.45593999997E+02  0.45594000000E+02  0.51100000000E-03 0. -1.
         11   -1    0    0    0    0 -0.00000000000E+00 -0.00000000000E+00 -0.45593999997E+02  0.45594000000E+02  0.51100000000E-03 0.  1.
         23    2    1    2    0    0  0.00000000000E+00  0.00000000000E+00  0.00000000000E+00  0.91188000000E+02  0.91188000000E+02 0.  0.
    9900012    2    3    3    0    0 -0.10567282672E+02 -0.51235556629E+01  0.34897874952E+02  0.54367082550E+02  0.39999996290E+02 0.  0.
        -12    1    3    3    0    0  0.10567282672E+02  0.51235556629E+01 -0.34897874952E+02  0.36820917450E+02  0.00000000000E+00 0.  1.
         11    1    4    4    0    0  0.73197937189E+01 -0.11388816253E+02  0.94465687852E+00  0.13571178748E+02  0.51100000000E-03 0. -1.
        -11    1    4    4    0    0 -0.48036971047E+01  0.70503615888E+01  0.19500769613E+02  0.21285279425E+02  0.51100000000E-03 0.  1.
        -12    1    4    4    0    0 -0.13083379286E+02 -0.78510099874E+00  0.14452448460E+02  0.19510624378E+02  0.00000000000E+00 0.  1.
</event>
<event>
 8    1  0.1271559E-006  0.9118800E+02  0.7816164E-02  0.1184000E+00
        -11   -1    0    0    0    0  0.00000000000E+00  0.00000000000E+00  0.45593999997E+02  0.45594000000E+02  0.51100000000E-03 0. -1.
         11   -1    0    0    0    0 -0.00000000000E+00 -0.00000000000E+00 -0.45593999997E+02  0.45594000000E+02  0.51100000000E-03 0.  1.
         23    2    1    2    0    0  0.00000000000E+00 -0.35527136788E-14 -0.35527136788E-14  0.91188000000E+02  0.91188000000E+02 0.  0.
    9900012    2    3    3    0    0 -0.25924249848E+01  0.24163746891E+02 -0.27661770374E+02  0.54367070200E+02  0.39999968134E+02 0.  0.
         12    1    3    3    0    0  0.25924249848E+01 -0.24163746891E+02  0.27661770374E+02  0.36820929800E+02  0.00000000000E+00 0. -1.
         11    1    4    4    0    0  0.60905839142E+00 -0.67662984582E+01 -0.28291593750E+01  0.73592044393E+01  0.51100000000E-03 0. -1.
        -11    1    4    4    0    0  0.12025259702E+00  0.18659452145E+02 -0.28238969057E+02  0.33847141514E+02  0.51100000000E-03 0.  1.
         12    1    4    4    0    0 -0.33217359733E+01  0.12270593205E+02  0.34063580576E+01  0.13160724246E+02  0.00000000000E+00 0. -1.
</event>
<event>
 8    1  0.1271559E-006  0.9118800E+02  0.7816164E-02  0.1184000E+00
        -11   -1    0    0    0    0  0.00000000000E+00  0.00000000000E+00  0.45593999997E+02  0.45594000000E+02  0.51100000000E-03 0. -1.
         11   -1    0    0    0    0 -0.00000000000E+00 -0.00000000000E+00 -0.45593999997E+02  0.45594000000E+02  0.51100000000E-03 0.  1.
         23    2    1    2    0    0  0.71054273576E-14 -0.17763568394E-14 -0.35527136788E-14  0.91188000000E+02  0.91188000000E+02 0.  0.
    9900012    2    3    3    0    0 -0.25299511214E+02 -0.14364180417E+02  0.22569578337E+02  0.54367070992E+02  0.39999969940E+02 0.  0.
        -12    1    3    3    0    0  0.25299511214E+02  0.14364180417E+02 -0.22569578337E+02  0.36820929008E+02  0.00000000000E+00 0.  1.
         11    1    4    4    0    0 -0.13493117836E+02 -0.84173675289E+01  0.20176695579E+02  0.25690763900E+02  0.51100000000E-03 0. -1.
        -11    1    4    4    0    0  0.47800164030E+01  0.15882288881E+01  0.81410115146E+01  0.95732490073E+01  0.51100000000E-03 0.  1.
        -12    1    4    4    0    0 -0.16586409781E+02 -0.75350417758E+01 -0.57481287559E+01  0.19103058084E+02  0.00000000000E+00 0.  1.
</event>
<event>
 8    1  0.1271559E-006  0.9118800E+02  0.7816164E-02  0.1184000E+00
        -11   -1    0    0    0    0  0.00000000000E+00  0.00000000000E+00  0.45593999997E+02  0.45594000000E+02  0.51100000000E-03 0.  1.
         11   -1    0    0    0    0 -0.00000000000E+00 -0.00000000000E+00 -0.45593999997E+02  0.45594000000E+02  0.51100000000E-03 0. -1.
         23    2    1    2    0    0  0.88817841970E-15  0.00000000000E+00  0.00000000000E+00  0.91188000000E+02  0.91188000000E+02 0.  0.
    9900012    2    3    3    0    0 -0.38032364221E+01 -0.36543473419E+02  0.24265746125E+01  0.54367104829E+02  0.40000047079E+02 0.  0.
         12    1    3    3    0    0  0.38032364221E+01  0.36543473419E+02 -0.24265746125E+01  0.36820895171E+02  0.00000000000E+00 0. -1.
         11    1    4    4    0    0  0.69753495576E+01 -0.11285337622E+01  0.38428913340E+01  0.80434385663E+01  0.51100000000E-03 0. -1.
        -11    1    4    4    0    0 -0.87775818755E+01 -0.40050087001E+02 -0.27778574949E+01  0.41094670030E+02  0.51100000000E-03 0.  1.
        -12    1    4    4    0    0 -0.20010041042E+01  0.46351473440E+01  0.13615407734E+01  0.52289962328E+01  0.00000000000E+00 0.  1.
</event>
<event>
 8    1  0.1271559E-006  0.9118800E+02  0.7816164E-02  0.1184000E+00
        -11   -1    0    0    0    0  0.00000000000E+00  0.00000000000E+00  0.45593999997E+02  0.45594000000E+02  0.51100000000E-03 0.  1.
         11   -1    0    0    0    0 -0.00000000000E+00 -0.00000000000E+00 -0.45593999997E+02  0.45594000000E+02  0.51100000000E-03 0. -1.
         23    2    1    2    0    0  0.00000000000E+00 -0.11102230246E-15  0.00000000000E+00  0.91188000000E+02  0.91188000000E+02 0.  0.
    9900012    2    3    3    0    0 -0.19652407264E+02  0.85421174892E+00  0.31126071126E+02  0.54367094352E+02  0.40000023194E+02 0.  0.
         12    1    3    3    0    0  0.19652407264E+02 -0.85421174892E+00 -0.31126071126E+02  0.36820905648E+02  0.00000000000E+00 0. -1.
         11    1    4    4    0    0 -0.15338166219E+02 -0.78746756314E+01  0.10080544717E+02  0.19972161658E+02  0.51100000000E-03 0. -1.
        -11    1    4    4    0    0  0.10241761607E+02  0.23385024516E+01  0.44350706337E+01  0.11403162996E+02  0.51100000000E-03 0.  1.
        -12    1    4    4    0    0 -0.14556002652E+02  0.63903849288E+01  0.16610455776E+02  0.22991769698E+02  0.00000000000E+00 0.  1.
</event>
<event>
 8    1  0.1271559E-006  0.9118800E+02  0.7816164E-02  0.1184000E+00
        -11   -1    0    0    0    0  0.00000000000E+00  0.00000000000E+00  0.45593999997E+02  0.45594000000E+02  0.51100000000E-03 0. -1.
         11   -1    0    0    0    0 -0.00000000000E+00 -0.00000000000E+00 -0.45593999997E+02  0.45594000000E+02  0.51100000000E-03 0.  1.
         23    2    1    2    0    0 -0.17763568394E-14  0.00000000000E+00  0.00000000000E+00  0.91188000000E+02  0.91188000000E+02 0.  0.
    9900012    2    3    3    0    0 -0.62287445649E+01 -0.11198963025E+02 -0.34519024411E+02  0.54367121711E+02  0.40000085564E+02 0.  0.
         12    1    3    3    0    0  0.62287445649E+01  0.11198963025E+02  0.34519024411E+02  0.36820878289E+02  0.00000000000E+00 0. -1.
         11    1    4    4    0    0 -0.12348344164E+01 -0.97065370278E+01 -0.11596830391E+02  0.15173270989E+02  0.51100000000E-03 0. -1.
        -11    1    4    4    0    0  0.12704391150E+02 -0.15137667910E+01 -0.15244494302E+02  0.19901950939E+02  0.51100000000E-03 0.  1.
         12    1    4    4    0    0 -0.17698301299E+02  0.21340794188E-01 -0.76776997176E+01  0.19291899783E+02  0.00000000000E+00 0. -1.
</event>
<event>
 8    1  0.1271559E-006  0.9118800E+02  0.7816164E-02  0.1184000E+00
        -11   -1    0    0    0    0  0.00000000000E+00  0.00000000000E+00  0.45593999997E+02  0.45594000000E+02  0.51100000000E-03 0.  1.
         11   -1    0    0    0    0 -0.00000000000E+00 -0.00000000000E+00 -0.45593999997E+02  0.45594000000E+02  0.51100000000E-03 0. -1.
         23    2    1    2    0    0  0.00000000000E+00 -0.88817841970E-15  0.35527136788E-14  0.91188000000E+02  0.91188000000E+02 0.  0.
    9900012    2    3    3    0    0 -0.28352908567E+02  0.66991631777E+01 -0.22516960402E+02  0.54367085872E+02  0.40000003863E+02 0.  0.
        -12    1    3    3    0    0  0.28352908567E+02 -0.66991631777E+01  0.22516960402E+02  0.36820914128E+02  0.00000000000E+00 0.  1.
         11    1    4    4    0    0 -0.28776211857E+02  0.11681452686E+02 -0.60353922783E+01  0.31637835986E+02  0.51100000000E-03 0. -1.
        -11    1    4    4    0    0 -0.20617166539E+01  0.19865373279E+01  0.15379406442E+01  0.32499642771E+01  0.51100000000E-03 0.  1.
        -12    1    4    4    0    0  0.24850199439E+01 -0.69688268363E+01 -0.18019508768E+02  0.19479285609E+02  0.00000000000E+00 0.  1.
</event>
<event>
 8    1  0.1271559E-006  0.9118800E+02  0.7816164E-02  0.1184000E+00
        -11   -1    0    0    0    0  0.00000000000E+00  0.00000000000E+00  0.45593999997E+02  0.45594000000E+02  0.51100000000E-03 0. -1.
         11   -1    0    0    0    0 -0.00000000000E+00 -0.00000000000E+00 -0.45593999997E+02  0.45594000000E+02  0.51100000000E-03 0.  1.
         23    2    1    2    0    0 -0.12212453271E-14  0.00000000000E+00  0.00000000000E+00  0.91188000000E+02  0.91188000000E+02 0.  0.
    9900012    2    3    3    0    0 -0.93098267764E+00  0.30962385657E+02 -0.19905881636E+02  0.54367079615E+02  0.39999989598E+02 0.  0.
         12    1    3    3    0    0  0.93098267764E+00 -0.30962385657E+02  0.19905881636E+02  0.36820920385E+02  0.00000000000E+00 0. -1.
         11    1    4    4    0    0 -0.88529501047E+01  0.25461377898E+02 -0.17864180343E+02  0.32338605870E+02  0.51100000000E-03 0. -1.
        -11    1    4    4    0    0 -0.64269401111E+01 -0.42108540510E-01 -0.16748927873E+01  0.66417315838E+01  0.51100000000E-03 0.  1.
         12    1    4    4    0    0  0.14348907538E+02  0.55431162997E+01 -0.36680850490E+00  0.15386742161E+02  0.00000000000E+00 0. -1.
</event>
<event>
 8    1  0.1271559E-006  0.9118800E+02  0.7816164E-02  0.1184000E+00
        -11   -1    0    0    0    0  0.00000000000E+00  0.00000000000E+00  0.45593999997E+02  0.45594000000E+02  0.51100000000E-03 0. -1.
         11   -1    0    0    0    0 -0.00000000000E+00 -0.00000000000E+00 -0.45593999997E+02  0.45594000000E+02  0.51100000000E-03 0.  1.
         23    2    1    2    0    0  0.00000000000E+00 -0.33306690739E-15  0.00000000000E+00  0.91188000000E+02  0.91188000000E+02 0.  0.
    9900012    2    3    3    0    0 -0.15003735303E+02 -0.23445595379E+00  0.33624600227E+02  0.54367071399E+02  0.39999970867E+02 0.  0.
        -12    1    3    3    0    0  0.15003735303E+02  0.23445595379E+00 -0.33624600227E+02  0.36820928601E+02  0.00000000000E+00 0.  1.
         11    1    4    4    0    0 -0.23218743669E+02 -0.95404358797E+01  0.18276011837E+02  0.31050645457E+02  0.51100000000E-03 0.  1.
        -11    1    4    4    0    0  0.66825698409E+01 -0.24783193031E+00  0.10612310502E+02  0.12543496115E+02  0.51100000000E-03 0. -1.
        -12    1    4    4    0    0  0.15324385251E+01  0.95538118562E+01  0.47362778880E+01  0.10772929827E+02  0.00000000000E+00 0.  1.
</event>
<event>
 8    1  0.1271559E-006  0.9118800E+02  0.7816164E-02  0.1184000E+00
        -11   -1    0    0    0    0  0.00000000000E+00  0.00000000000E+00  0.45593999997E+02  0.45594000000E+02  0.51100000000E-03 0.  1.
         11   -1    0    0    0    0 -0.00000000000E+00 -0.00000000000E+00 -0.45593999997E+02  0.45594000000E+02  0.51100000000E-03 0. -1.
         23    2    1    2    0    0  0.00000000000E+00  0.00000000000E+00  0.35527136788E-14  0.91188000000E+02  0.91188000000E+02 0.  0.
    9900012    2    3    3    0    0  0.17537258774E+02  0.11790931613E+02 -0.30152922354E+02  0.54367078772E+02  0.39999987676E+02 0.  0.
        -12    1    3    3    0    0 -0.17537258774E+02 -0.11790931613E+02  0.30152922354E+02  0.36820921228E+02  0.00000000000E+00 0.  1.
         11    1    4    4    0    0 -0.18068388225E+01  0.35115298145E+01 -0.17589200797E+01  0.43231132621E+01  0.51100000000E-03 0. -1.
        -11    1    4    4    0    0 -0.33811940410E+00 -0.69994370609E+01 -0.23667486592E+02  0.24683119044E+02  0.51100000000E-03 0.  1.
         12    1    4    4    0    0  0.19682217001E+02  0.15278838859E+02 -0.47265156824E+01  0.25360846466E+02  0.00000000000E+00 0. -1.
</event>
<event>
 8    1  0.1271559E-006  0.9118800E+02  0.7816164E-02  0.1184000E+00
        -11   -1    0    0    0    0  0.00000000000E+00  0.00000000000E+00  0.45593999997E+02  0.45594000000E+02  0.51100000000E-03 0.  1.
         11   -1    0    0    0    0 -0.00000000000E+00 -0.00000000000E+00 -0.45593999997E+02  0.45594000000E+02  0.51100000000E-03 0. -1.
         23    2    1    2    0    0  0.17763568394E-14  0.00000000000E+00  0.00000000000E+00  0.91188000000E+02  0.91188000000E+02 0.  0.
    9900012    2    3    3    0    0 -0.11727426538E+02  0.27919571337E+02  0.20946297251E+02  0.54367049912E+02  0.39999921885E+02 0.  0.
         12    1    3    3    0    0  0.11727426538E+02 -0.27919571337E+02 -0.20946297251E+02  0.36820950088E+02  0.00000000000E+00 0. -1.
         11    1    4    4    0    0  0.12232790309E+01  0.33251492217E+02  0.62354938491E+01  0.33853205609E+02  0.51100000000E-03 0. -1.
        -11    1    4    4    0    0 -0.74137921544E+01 -0.15017920417E+01  0.77192503311E+01  0.10807706481E+02  0.51100000000E-03 0.  1.
         12    1    4    4    0    0 -0.55369134149E+01 -0.38301288379E+01  0.69915530706E+01  0.97061378219E+01  0.00000000000E+00 0. -1.
</event>
<event>
 8    1  0.1271559E-006  0.9118800E+02  0.7816164E-02  0.1184000E+00
        -11   -1    0    0    0    0  0.00000000000E+00  0.00000000000E+00  0.45593999997E+02  0.45594000000E+02  0.51100000000E-03 0. -1.
         11   -1    0    0    0    0 -0.00000000000E+00 -0.00000000000E+00 -0.45593999997E+02  0.45594000000E+02  0.51100000000E-03 0.  1.
         23    2    1    2    0    0  0.88817841970E-15 -0.88817841970E-15  0.00000000000E+00  0.91188000000E+02  0.91188000000E+02 0.  0.
    9900012    2    3    3    0    0 -0.40207377038E+01 -0.11082061636E+01  0.36583952861E+02  0.54367081224E+02  0.39999993267E+02 0.  0.
        -12    1    3    3    0    0  0.40207377038E+01  0.11082061636E+01 -0.36583952861E+02  0.36820918776E+02  0.00000000000E+00 0.  1.
         11    1    4    4    0    0  0.34302301738E+00  0.11554556470E+02  0.30207772183E+02  0.32344009346E+02  0.51100000000E-03 0. -1.
        -11    1    4    4    0    0 -0.17825380852E+01 -0.63557691862E+01 -0.53256631424E+01  0.84815052992E+01  0.51100000000E-03 0.  1.
         12    1    4    4    0    0 -0.25812226361E+01 -0.63069934475E+01  0.11701843820E+02  0.13541566579E+02  0.00000000000E+00 0. -1.
</event>
<event>
 8    1  0.1271559E-006  0.9118800E+02  0.7816164E-02  0.1184000E+00
        -11   -1    0    0    0    0  0.00000000000E+00  0.00000000000E+00  0.45593999997E+02  0.45594000000E+02  0.51100000000E-03 0.  1.
         11   -1    0    0    0    0 -0.00000000000E+00 -0.00000000000E+00 -0.45593999997E+02  0.45594000000E+02  0.51100000000E-03 0. -1.
         23    2    1    2    0    0  0.71054273576E-14 -0.27755575616E-16  0.00000000000E+00  0.91188000000E+02  0.91188000000E+02 0.  0.
    9900012    2    3    3    0    0 -0.35203154727E+02  0.22258743236E+00 -0.10792049087E+02  0.54367082420E+02  0.39999995993E+02 0.  0.
         12    1    3    3    0    0  0.35203154727E+02 -0.22258743236E+00  0.10792049087E+02  0.36820917580E+02  0.00000000000E+00 0. -1.
         11    1    4    4    0    0  0.22587999797E+01  0.62599963937E+01  0.39271112079E+01  0.77273497979E+01  0.51100000000E-03 0. -1.
        -11    1    4    4    0    0 -0.15866154366E+02 -0.11394403962E+02  0.73737252927E+00  0.19547660078E+02  0.51100000000E-03 0.  1.
         12    1    4    4    0    0 -0.21595800341E+02  0.53569950003E+01 -0.15456532824E+02  0.27092072545E+02  0.00000000000E+00 0. -1.
</event>
<event>
 8    1  0.1271559E-006  0.9118800E+02  0.7816164E-02  0.1184000E+00
        -11   -1    0    0    0    0  0.00000000000E+00  0.00000000000E+00  0.45593999997E+02  0.45594000000E+02  0.51100000000E-03 0.  1.
         11   -1    0    0    0    0 -0.00000000000E+00 -0.00000000000E+00 -0.45593999997E+02  0.45594000000E+02  0.51100000000E-03 0. -1.
         23    2    1    2    0    0  0.35527136788E-14  0.44408920985E-15  0.00000000000E+00  0.91188000000E+02  0.91188000000E+02 0.  0.
    9900012    2    3    3    0    0  0.26939019499E+02 -0.24520639719E+01  0.24981112628E+02  0.54367090487E+02  0.40000014382E+02 0.  0.
         12    1    3    3    0    0 -0.26939019499E+02  0.24520639719E+01 -0.24981112628E+02  0.36820909513E+02  0.00000000000E+00 0. -1.
         11    1    4    4    0    0  0.24165370650E+01 -0.56690498578E+00  0.71397032665E+01  0.75588620602E+01  0.51100000000E-03 0.  1.
        -11    1    4    4    0    0 -0.82316014335E+01 -0.54399712520E+01  0.13302070729E+01  0.99560032393E+01  0.51100000000E-03 0. -1.
         12    1    4    4    0    0  0.32754083867E+02  0.35548122658E+01  0.16511202288E+02  0.36852225187E+02  0.00000000000E+00 0. -1.
</event>
<event>
 8    1  0.1271559E-006  0.9118800E+02  0.7816164E-02  0.1184000E+00
        -11   -1    0    0    0    0  0.00000000000E+00  0.00000000000E+00  0.45593999997E+02  0.45594000000E+02  0.51100000000E-03 0.  1.
         11   -1    0    0    0    0 -0.00000000000E+00 -0.00000000000E+00 -0.45593999997E+02  0.45594000000E+02  0.51100000000E-03 0. -1.
         23    2    1    2    0    0  0.00000000000E+00  0.35527136788E-14  0.00000000000E+00  0.91188000000E+02  0.91188000000E+02 0.  0.
    9900012    2    3    3    0    0  0.17651808178E+02  0.27239428929E+02  0.17384102271E+02  0.54367084312E+02  0.40000000306E+02 0.  0.
         12    1    3    3    0    0 -0.17651808178E+02 -0.27239428929E+02 -0.17384102271E+02  0.36820915688E+02  0.00000000000E+00 0. -1.
         11    1    4    4    0    0  0.52270463749E+01  0.12170526835E+02  0.10970759091E+02  0.17198874746E+02  0.51100000000E-03 0. -1.
        -11    1    4    4    0    0  0.60492501150E+01  0.24074453498E+02  0.78654441828E+01  0.26039161865E+02  0.51100000000E-03 0.  1.
         12    1    4    4    0    0  0.63755116884E+01 -0.90055514048E+01 -0.14521010024E+01  0.11129047700E+02  0.00000000000E+00 0. -1.
</event>
<event>
 8    1  0.1271559E-006  0.9118800E+02  0.7816164E-02  0.1184000E+00
        -11   -1    0    0    0    0  0.00000000000E+00  0.00000000000E+00  0.45593999997E+02  0.45594000000E+02  0.51100000000E-03 0. -1.
         11   -1    0    0    0    0 -0.00000000000E+00 -0.00000000000E+00 -0.45593999997E+02  0.45594000000E+02  0.51100000000E-03 0.  1.
         23    2    1    2    0    0  0.17763568394E-14  0.88817841970E-15  0.71054273576E-14  0.91188000000E+02  0.91188000000E+02 0.  0.
    9900012    2    3    3    0    0  0.13973440869E+01 -0.46505206773E+01 -0.36499359515E+02  0.54367039148E+02  0.39999897345E+02 0.  0.
         12    1    3    3    0    0 -0.13973440869E+01  0.46505206773E+01  0.36499359515E+02  0.36820960852E+02  0.00000000000E+00 0. -1.
         11    1    4    4    0    0  0.14690781478E+02 -0.18558792366E+01 -0.10153212249E+02  0.17954137891E+02  0.51100000000E-03 0.  1.
        -11    1    4    4    0    0 -0.37959211286E+01 -0.91749469653E+01 -0.22065733977E+02  0.24196803203E+02  0.51100000000E-03 0. -1.
         12    1    4    4    0    0 -0.94975162623E+01  0.63803055245E+01 -0.42804132887E+01  0.12216098054E+02  0.00000000000E+00 0. -1.
</event>
<event>
 8    1  0.1271559E-006  0.9118800E+02  0.7816164E-02  0.1184000E+00
        -11   -1    0    0    0    0  0.00000000000E+00  0.00000000000E+00  0.45593999997E+02  0.45594000000E+02  0.51100000000E-03 0.  1.
         11   -1    0    0    0    0 -0.00000000000E+00 -0.00000000000E+00 -0.45593999997E+02  0.45594000000E+02  0.51100000000E-03 0. -1.
         23    2    1    2    0    0  0.00000000000E+00  0.00000000000E+00  0.00000000000E+00  0.91188000000E+02  0.91188000000E+02 0.  0.
    9900012    2    3    3    0    0 -0.31948270559E+02 -0.16272089478E+02 -0.83848974856E+01  0.54367090267E+02  0.40000013882E+02 0.  0.
        -12    1    3    3    0    0  0.31948270559E+02  0.16272089478E+02  0.83848974856E+01  0.36820909733E+02  0.00000000000E+00 0.  1.
         11    1    4    4    0    0 -0.28073405764E+02 -0.22431891720E+02 -0.77725619100E+01  0.36765725836E+02  0.51100000000E-03 0. -1.
        -11    1    4    4    0    0 -0.73471862953E+01 -0.10274841032E+01  0.39527684038E+01  0.84060245274E+01  0.51100000000E-03 0.  1.
        -12    1    4    4    0    0  0.34723215000E+01  0.71872863452E+01 -0.45651039794E+01  0.91953399040E+01  0.00000000000E+00 0.  1.
</event>
<event>
 8    1  0.1271559E-006  0.9118800E+02  0.7816164E-02  0.1184000E+00
        -11   -1    0    0    0    0  0.00000000000E+00  0.00000000000E+00  0.45593999997E+02  0.45594000000E+02  0.51100000000E-03 0. -1.
         11   -1    0    0    0    0 -0.00000000000E+00 -0.00000000000E+00 -0.45593999997E+02  0.45594000000E+02  0.51100000000E-03 0.  1.
         23    2    1    2    0    0 -0.35527136788E-14 -0.17763568394E-14 -0.71054273576E-14  0.91188000000E+02  0.91188000000E+02 0.  0.
    9900012    2    3    3    0    0 -0.30780189130E+02 -0.26669306195E+01 -0.20031155376E+02  0.54367085461E+02  0.40000002925E+02 0.  0.
         12    1    3    3    0    0  0.30780189130E+02  0.26669306195E+01  0.20031155376E+02  0.36820914539E+02  0.00000000000E+00 0. -1.
         11    1    4    4    0    0 -0.10425101642E+02  0.12819225630E+02  0.12582707325E+01  0.16571014921E+02  0.51100000000E-03 0. -1.
        -11    1    4    4    0    0 -0.55104734467E+01 -0.27020493706E+01  0.28002740436E+01  0.67459560767E+01  0.51100000000E-03 0.  1.
        -12    1    4    4    0    0 -0.14844614041E+02 -0.12784106879E+02 -0.24089700153E+02  0.31050114463E+02  0.00000000000E+00 0.  1.
</event>
<event>
 8    1  0.1271559E-006  0.9118800E+02  0.7816164E-02  0.1184000E+00
        -11   -1    0    0    0    0  0.00000000000E+00  0.00000000000E+00  0.45593999997E+02  0.45594000000E+02  0.51100000000E-03 0.  1.
         11   -1    0    0    0    0 -0.00000000000E+00 -0.00000000000E+00 -0.45593999997E+02  0.45594000000E+02  0.51100000000E-03 0. -1.
         23    2    1    2    0    0  0.00000000000E+00  0.00000000000E+00 -0.17763568394E-14  0.91188000000E+02  0.91188000000E+02 0.  0.
    9900012    2    3    3    0    0 -0.12441758738E+02 -0.32285755024E+02 -0.12594138755E+02  0.54367086527E+02  0.40000005356E+02 0.  0.
        -12    1    3    3    0    0  0.12441758738E+02  0.32285755024E+02  0.12594138755E+02  0.36820913473E+02  0.00000000000E+00 0.  1.
         11    1    4    4    0    0  0.10414640553E+01 -0.54202912118E-01  0.22005471684E+01  0.24351577846E+01  0.51100000000E-03 0. -1.
        -11    1    4    4    0    0 -0.12245131155E+00  0.62453100323E+01 -0.87565785503E+01  0.10756233537E+02  0.51100000000E-03 0.  1.
         12    1    4    4    0    0 -0.13360771482E+02 -0.38476862144E+02 -0.60381073728E+01  0.41175695206E+02  0.00000000000E+00 0. -1.
</event>
<event>
 8    1  0.1271559E-006  0.9118800E+02  0.7816164E-02  0.1184000E+00
        -11   -1    0    0    0    0  0.00000000000E+00  0.00000000000E+00  0.45593999997E+02  0.45594000000E+02  0.51100000000E-03 0.  1.
         11   -1    0    0    0    0 -0.00000000000E+00 -0.00000000000E+00 -0.45593999997E+02  0.45594000000E+02  0.51100000000E-03 0. -1.
         23    2    1    2    0    0  0.17763568394E-14  0.00000000000E+00  0.00000000000E+00  0.91188000000E+02  0.91188000000E+02 0.  0.
    9900012    2    3    3    0    0  0.92509470020E+01  0.22765181922E+02  0.27421640417E+02  0.54367083505E+02  0.39999998467E+02 0.  0.
         12    1    3    3    0    0 -0.92509470020E+01 -0.22765181922E+02 -0.27421640417E+02  0.36820916495E+02  0.00000000000E+00 0. -1.
         11    1    4    4    0    0  0.10034360670E+02  0.17937277298E+02  0.16554295152E+01  0.20619766198E+02  0.51100000000E-03 0. -1.
        -11    1    4    4    0    0  0.32348072120E+01  0.12521291586E+02  0.13240626277E+02  0.18508400935E+02  0.51100000000E-03 0.  1.
        -12    1    4    4    0    0 -0.40182208800E+01 -0.76933869631E+01  0.12525584625E+02  0.15238916372E+02  0.00000000000E+00 0.  1.
</event>
<event>
 8    1  0.1271559E-006  0.9118800E+02  0.7816164E-02  0.1184000E+00
        -11   -1    0    0    0    0  0.00000000000E+00  0.00000000000E+00  0.45593999997E+02  0.45594000000E+02  0.51100000000E-03 0. -1.
         11   -1    0    0    0    0 -0.00000000000E+00 -0.00000000000E+00 -0.45593999997E+02  0.45594000000E+02  0.51100000000E-03 0.  1.
         23    2    1    2    0    0 -0.33306690739E-15  0.00000000000E+00  0.00000000000E+00  0.91188000000E+02  0.91188000000E+02 0.  0.
    9900012    2    3    3    0    0 -0.82336762799E+00 -0.28281536343E+02  0.23563905321E+02  0.54367070270E+02  0.39999968294E+02 0.  0.
        -12    1    3    3    0    0  0.82336762799E+00  0.28281536343E+02 -0.23563905321E+02  0.36820929730E+02  0.00000000000E+00 0.  1.
         11    1    4    4    0    0  0.63744710328E+01 -0.75819851585E+01  0.11133330994E+02  0.14902061574E+02  0.51100000000E-03 0. -1.
        -11    1    4    4    0    0  0.24881296534E+00  0.71021664682E+01 -0.18382814266E+01  0.73404329095E+01  0.51100000000E-03 0.  1.
        -12    1    4    4    0    0 -0.74466516261E+01 -0.27801717653E+02  0.14268855754E+02  0.32124575786E+02  0.00000000000E+00 0.  1.
</event>
<event>
 8    1  0.1271559E-006  0.9118800E+02  0.7816164E-02  0.1184000E+00
        -11   -1    0    0    0    0  0.00000000000E+00  0.00000000000E+00  0.45593999997E+02  0.45594000000E+02  0.51100000000E-03 0. -1.
         11   -1    0    0    0    0 -0.00000000000E+00 -0.00000000000E+00 -0.45593999997E+02  0.45594000000E+02  0.51100000000E-03 0.  1.
         23    2    1    2    0    0  0.88817841970E-15  0.00000000000E+00  0.00000000000E+00  0.91188000000E+02  0.91188000000E+02 0.  0.
    9900012    2    3    3    0    0  0.33789290623E+01 -0.46481352765E+01 -0.36369729344E+02  0.54367088337E+02  0.40000009481E+02 0.  0.
         12    1    3    3    0    0 -0.33789290623E+01  0.46481352765E+01  0.36369729344E+02  0.36820911663E+02  0.00000000000E+00 0. -1.
         11    1    4    4    0    0 -0.12524056339E+02 -0.72046078491E+01 -0.17035521637E+02  0.22337577289E+02  0.51100000000E-03 0. -1.
        -11    1    4    4    0    0  0.15819827117E+02 -0.58001925206E+01 -0.10423605359E+02  0.19813144935E+02  0.51100000000E-03 0.  1.
        -12    1    4    4    0    0  0.83158284023E-01  0.83566650933E+01 -0.89106023478E+01  0.12216366112E+02  0.00000000000E+00 0.  1.
</event>
<event>
 8    1  0.1271559E-006  0.9118800E+02  0.7816164E-02  0.1184000E+00
        -11   -1    0    0    0    0  0.00000000000E+00  0.00000000000E+00  0.45593999997E+02  0.45594000000E+02  0.51100000000E-03 0.  1.
         11   -1    0    0    0    0 -0.00000000000E+00 -0.00000000000E+00 -0.45593999997E+02  0.45594000000E+02  0.51100000000E-03 0. -1.
         23    2    1    2    0    0 -0.17763568394E-14  0.35527136788E-14  0.00000000000E+00  0.91188000000E+02  0.91188000000E+02 0.  0.
    9900012    2    3    3    0    0 -0.12283499108E+02 -0.30086038526E+02  0.17312627390E+02  0.54367066665E+02  0.39999960075E+02 0.  0.
         12    1    3    3    0    0  0.12283499108E+02  0.30086038526E+02 -0.17312627390E+02  0.36820933335E+02  0.00000000000E+00 0. -1.
         11    1    4    4    0    0  0.71210577434E+01 -0.25124930158E+02  0.47929663422E+01  0.26550783518E+02  0.51100000000E-03 0.  1.
        -11    1    4    4    0    0  0.42070340536E+00 -0.40850933899E+01  0.52873586815E+01  0.66948593299E+01  0.51100000000E-03 0. -1.
         12    1    4    4    0    0 -0.19825260257E+02 -0.87601497840E+00  0.72323023664E+01  0.21121423816E+02  0.00000000000E+00 0. -1.
</event>
<event>
 8    1  0.1271559E-006  0.9118800E+02  0.7816164E-02  0.1184000E+00
        -11   -1    0    0    0    0  0.00000000000E+00  0.00000000000E+00  0.45593999997E+02  0.45594000000E+02  0.51100000000E-03 0. -1.
         11   -1    0    0    0    0 -0.00000000000E+00 -0.00000000000E+00 -0.45593999997E+02  0.45594000000E+02  0.51100000000E-03 0.  1.
         23    2    1    2    0    0  0.00000000000E+00  0.00000000000E+00 -0.35527136788E-14  0.91188000000E+02  0.91188000000E+02 0.  0.
    9900012    2    3    3    0    0 -0.17984583454E+02  0.23842200361E+02  0.21537963276E+02  0.54367087163E+02  0.40000006805E+02 0.  0.
        -12    1    3    3    0    0  0.17984583454E+02 -0.23842200361E+02 -0.21537963276E+02  0.36820912837E+02  0.00000000000E+00 0.  1.
         11    1    4    4    0    0  0.32009938719E+01  0.35318939891E+01 -0.20059816383E+01  0.51715181052E+01  0.51100000000E-03 0. -1.
        -11    1    4    4    0    0 -0.18871558228E+01 -0.83058409256E+01  0.64184276621E+01  0.10665109680E+02  0.51100000000E-03 0.  1.
         12    1    4    4    0    0 -0.19298421504E+02  0.28616147298E+02  0.17125517252E+02  0.38530459377E+02  0.00000000000E+00 0. -1.
</event>
<event>
 8    1  0.1271559E-006  0.9118800E+02  0.7816164E-02  0.1184000E+00
        -11   -1    0    0    0    0  0.00000000000E+00  0.00000000000E+00  0.45593999997E+02  0.45594000000E+02  0.51100000000E-03 0.  1.
         11   -1    0    0    0    0 -0.00000000000E+00 -0.00000000000E+00 -0.45593999997E+02  0.45594000000E+02  0.51100000000E-03 0. -1.
         23    2    1    2    0    0  0.13322676296E-14  0.00000000000E+00  0.00000000000E+00  0.91188000000E+02  0.91188000000E+02 0.  0.
    9900012    2    3    3    0    0 -0.14055677324E+01  0.30035759574E+02 -0.21252236596E+02  0.54367081568E+02  0.39999994051E+02 0.  0.
        -12    1    3    3    0    0  0.14055677324E+01 -0.30035759574E+02  0.21252236596E+02  0.36820918432E+02  0.00000000000E+00 0.  1.
         11    1    4    4    0    0  0.86415478037E+01  0.16284457233E+02  0.52895559773E+01  0.19179137064E+02  0.51100000000E-03 0.  1.
        -11    1    4    4    0    0 -0.63470189332E+01 -0.17975906341E+01 -0.46004857868E+01  0.80424157541E+01  0.51100000000E-03 0. -1.
        -12    1    4    4    0    0 -0.37000966029E+01  0.15548892975E+02 -0.21941306787E+02  0.27145528750E+02  0.00000000000E+00 0.  1.
</event>
<event>
 8    1  0.1271559E-006  0.9118800E+02  0.7816164E-02  0.1184000E+00
        -11   -1    0    0    0    0  0.00000000000E+00  0.00000000000E+00  0.45593999997E+02  0.45594000000E+02  0.51100000000E-03 0. -1.
         11   -1    0    0    0    0 -0.00000000000E+00 -0.00000000000E+00 -0.45593999997E+02  0.45594000000E+02  0.51100000000E-03 0.  1.
         23    2    1    2    0    0  0.00000000000E+00  0.44408920985E-15  0.00000000000E+00  0.91188000000E+02  0.91188000000E+02 0.  0.
    9900012    2    3    3    0    0 -0.29796536465E+02 -0.27010476973E+01 -0.21462792848E+02  0.54367072244E+02  0.39999972795E+02 0.  0.
         12    1    3    3    0    0  0.29796536465E+02  0.27010476973E+01  0.21462792848E+02  0.36820927756E+02  0.00000000000E+00 0. -1.
         11    1    4    4    0    0 -0.47154531115E+01  0.79662105167E+01  0.80071853812E+01  0.12239731453E+02  0.51100000000E-03 0. -1.
        -11    1    4    4    0    0 -0.26494195402E+02 -0.92589655962E+01 -0.28041492090E+02  0.39673619860E+02  0.51100000000E-03 0.  1.
         12    1    4    4    0    0  0.14131120488E+01 -0.14082926177E+01 -0.14284861387E+01  0.24537209312E+01  0.00000000000E+00 0. -1.
</event>
<event>
 8    1  0.1271559E-006  0.9118800E+02  0.7816164E-02  0.1184000E+00
        -11   -1    0    0    0    0  0.00000000000E+00  0.00000000000E+00  0.45593999997E+02  0.45594000000E+02  0.51100000000E-03 0. -1.
         11   -1    0    0    0    0 -0.00000000000E+00 -0.00000000000E+00 -0.45593999997E+02  0.45594000000E+02  0.51100000000E-03 0.  1.
         23    2    1    2    0    0 -0.35527136788E-14  0.00000000000E+00 -0.35527136788E-14  0.91188000000E+02  0.91188000000E+02 0.  0.
    9900012    2    3    3    0    0 -0.26866871631E+02 -0.12678655532E+02 -0.21753272842E+02  0.54367055191E+02  0.39999933918E+02 0.  0.
         12    1    3    3    0    0  0.26866871631E+02  0.12678655532E+02  0.21753272842E+02  0.36820944809E+02  0.00000000000E+00 0. -1.
         11    1    4    4    0    0 -0.50728308519E+01  0.83191402832E+01 -0.94792542661E+01  0.13594041695E+02  0.51100000000E-03 0. -1.
        -11    1    4    4    0    0 -0.17159734895E+01 -0.66919542547E+01  0.67304293605E+01  0.96449725972E+01  0.51100000000E-03 0.  1.
        -12    1    4    4    0    0 -0.20078067289E+02 -0.14305841560E+02 -0.19004447936E+02  0.31128040899E+02  0.00000000000E+00 0.  1.
</event>
<event>
 8    1  0.1271559E-006  0.9118800E+02  0.7816164E-02  0.1184000E+00
        -11   -1    0    0    0    0  0.00000000000E+00  0.00000000000E+00  0.45593999997E+02  0.45594000000E+02  0.51100000000E-03 0.  1.
         11   -1    0    0    0    0 -0.00000000000E+00 -0.00000000000E+00 -0.45593999997E+02  0.45594000000E+02  0.51100000000E-03 0. -1.
         23    2    1    2    0    0  0.35527136788E-14  0.35527136788E-14  0.00000000000E+00  0.91188000000E+02  0.91188000000E+02 0.  0.
    9900012    2    3    3    0    0 -0.91848452997E+01 -0.29719441148E+02 -0.19702121682E+02  0.54367079804E+02  0.39999990029E+02 0.  0.
        -12    1    3    3    0    0  0.91848452997E+01  0.29719441148E+02  0.19702121682E+02  0.36820920196E+02  0.00000000000E+00 0.  1.
         11    1    4    4    0    0 -0.30373147026E+01  0.13339007632E+01 -0.12653591644E+02  0.13081206121E+02  0.51100000000E-03 0. -1.
        -11    1    4    4    0    0  0.61477340427E+01 -0.25783806815E+02 -0.84862770899E+01  0.27831928192E+02  0.51100000000E-03 0.  1.
        -12    1    4    4    0    0 -0.12295264640E+02 -0.52695350960E+01  0.14377470519E+01  0.13453945491E+02  0.00000000000E+00 0.  1.
</event>
<event>
 8    1  0.1271559E-006  0.9118800E+02  0.7816164E-02  0.1184000E+00
        -11   -1    0    0    0    0  0.00000000000E+00  0.00000000000E+00  0.45593999997E+02  0.45594000000E+02  0.51100000000E-03 0.  1.
         11   -1    0    0    0    0 -0.00000000000E+00 -0.00000000000E+00 -0.45593999997E+02  0.45594000000E+02  0.51100000000E-03 0. -1.
         23    2    1    2    0    0  0.00000000000E+00  0.00000000000E+00  0.00000000000E+00  0.91188000000E+02  0.91188000000E+02 0.  0.
    9900012    2    3    3    0    0  0.27167211913E+01 -0.29763945234E+02 -0.21505956247E+02  0.54367093384E+02  0.40000020987E+02 0.  0.
        -12    1    3    3    0    0 -0.27167211913E+01  0.29763945234E+02  0.21505956247E+02  0.36820906616E+02  0.00000000000E+00 0.  1.
         11    1    4    4    0    0 -0.67891316347E+00 -0.21297864988E+01 -0.23409762800E+02  0.23516247750E+02  0.51100000000E-03 0. -1.
        -11    1    4    4    0    0  0.34328243711E+01 -0.59804046195E+00  0.15466151236E+01  0.38123423454E+01  0.51100000000E-03 0.  1.
         12    1    4    4    0    0 -0.37190016374E-01 -0.27036118273E+02  0.35719142908E+00  0.27038503289E+02  0.00000000000E+00 0. -1.
</event>
<event>
 8    1  0.1271559E-006  0.9118800E+02  0.7816164E-02  0.1184000E+00
        -11   -1    0    0    0    0  0.00000000000E+00  0.00000000000E+00  0.45593999997E+02  0.45594000000E+02  0.51100000000E-03 0.  1.
         11   -1    0    0    0    0 -0.00000000000E+00 -0.00000000000E+00 -0.45593999997E+02  0.45594000000E+02  0.51100000000E-03 0. -1.
         23    2    1    2    0    0  0.00000000000E+00 -0.88817841970E-15  0.00000000000E+00  0.91188000000E+02  0.91188000000E+02 0.  0.
    9900012    2    3    3    0    0 -0.17237296532E+02  0.32780179770E+01  0.32371445314E+02  0.54367078430E+02  0.39999986896E+02 0.  0.
         12    1    3    3    0    0  0.17237296532E+02 -0.32780179770E+01 -0.32371445314E+02  0.36820921570E+02  0.00000000000E+00 0. -1.
         11    1    4    4    0    0 -0.18480706719E+01  0.15116091396E+02  0.30713741285E+01  0.15535279965E+02  0.51100000000E-03 0. -1.
        -11    1    4    4    0    0  0.19327234325E+01 -0.24356589602E+01 -0.45372952767E+00  0.31422484278E+01  0.51100000000E-03 0.  1.
        -12    1    4    4    0    0 -0.17321949293E+02 -0.94024144589E+01  0.29753800713E+02  0.35689550037E+02  0.00000000000E+00 0.  1.
</event>
<event>
 8    1  0.1271559E-006  0.9118800E+02  0.7816164E-02  0.1184000E+00
        -11   -1    0    0    0    0  0.00000000000E+00  0.00000000000E+00  0.45593999997E+02  0.45594000000E+02  0.51100000000E-03 0.  1.
         11   -1    0    0    0    0 -0.00000000000E+00 -0.00000000000E+00 -0.45593999997E+02  0.45594000000E+02  0.51100000000E-03 0. -1.
         23    2    1    2    0    0  0.00000000000E+00  0.00000000000E+00  0.71054273576E-14  0.91188000000E+02  0.91188000000E+02 0.  0.
    9900012    2    3    3    0    0  0.16786276946E+02  0.70368242999E+01 -0.32007556756E+02  0.54367086385E+02  0.40000005033E+02 0.  0.
        -12    1    3    3    0    0 -0.16786276946E+02 -0.70368242999E+01  0.32007556756E+02  0.36820913615E+02  0.00000000000E+00 0.  1.
         11    1    4    4    0    0  0.98347078599E+01  0.46153145743E+01 -0.88421127369E+01  0.14007339691E+02  0.51100000000E-03 0. -1.
        -11    1    4    4    0    0  0.95280897952E+01  0.30065890295E+01  0.56132349601E+01  0.11460038382E+02  0.51100000000E-03 0.  1.
        -12    1    4    4    0    0 -0.25765207088E+01 -0.58507930397E+00 -0.28778678979E+02  0.28899708312E+02  0.00000000000E+00 0.  1.
</event>
<event>
 8    1  0.1271559E-006  0.9118800E+02  0.7816164E-02  0.1184000E+00
        -11   -1    0    0    0    0  0.00000000000E+00  0.00000000000E+00  0.45593999997E+02  0.45594000000E+02  0.51100000000E-03 0. -1.
         11   -1    0    0    0    0 -0.00000000000E+00 -0.00000000000E+00 -0.45593999997E+02  0.45594000000E+02  0.51100000000E-03 0.  1.
         23    2    1    2    0    0  0.00000000000E+00  0.35527136788E-14 -0.35527136788E-14  0.91188000000E+02  0.91188000000E+02 0.  0.
    9900012    2    3    3    0    0 -0.94722461598E+01  0.31106290817E+02 -0.17275853902E+02  0.54367083339E+02  0.39999998087E+02 0.  0.
        -12    1    3    3    0    0  0.94722461598E+01 -0.31106290817E+02  0.17275853902E+02  0.36820916661E+02  0.00000000000E+00 0.  1.
         11    1    4    4    0    0 -0.11775535987E+02  0.21903557544E+02 -0.12189950231E+02  0.27695197557E+02  0.51100000000E-03 0.  1.
        -11    1    4    4    0    0 -0.61075364212E+01  0.13822785308E+02 -0.73614403877E+01  0.16809586540E+02  0.51100000000E-03 0. -1.
        -12    1    4    4    0    0  0.84108262482E+01 -0.46200520339E+01  0.22755367166E+01  0.98622992411E+01  0.00000000000E+00 0.  1.
</event>
<event>
 8    1  0.1271559E-006  0.9118800E+02  0.7816164E-02  0.1184000E+00
        -11   -1    0    0    0    0  0.00000000000E+00  0.00000000000E+00  0.45593999997E+02  0.45594000000E+02  0.51100000000E-03 0.  1.
         11   -1    0    0    0    0 -0.00000000000E+00 -0.00000000000E+00 -0.45593999997E+02  0.45594000000E+02  0.51100000000E-03 0. -1.
         23    2    1    2    0    0 -0.35527136788E-14  0.00000000000E+00 -0.35527136788E-14  0.91188000000E+02  0.91188000000E+02 0.  0.
    9900012    2    3    3    0    0 -0.21120767969E+02 -0.92008064631E+01  0.28723390685E+02  0.54367151943E+02  0.40000154485E+02 0.  0.
         12    1    3    3    0    0  0.21120767969E+02  0.92008064631E+01 -0.28723390685E+02  0.36820848057E+02  0.00000000000E+00 0. -1.
         11    1    4    4    0    0 -0.13598860187E+02 -0.70986151328E+01  0.27219489102E+01  0.15579741375E+02  0.51100000000E-03 0. -1.
        -11    1    4    4    0    0 -0.17672489704E+02 -0.36271568808E+01  0.13072013398E+02  0.22278929371E+02  0.51100000000E-03 0.  1.
         12    1    4    4    0    0  0.10150581922E+02  0.15249655506E+01  0.12929428376E+02  0.16508481197E+02  0.00000000000E+00 0. -1.
</event>
<event>
 8    1  0.1271559E-006  0.9118800E+02  0.7816164E-02  0.1184000E+00
        -11   -1    0    0    0    0  0.00000000000E+00  0.00000000000E+00  0.45593999997E+02  0.45594000000E+02  0.51100000000E-03 0. -1.
         11   -1    0    0    0    0 -0.00000000000E+00 -0.00000000000E+00 -0.45593999997E+02  0.45594000000E+02  0.51100000000E-03 0.  1.
         23    2    1    2    0    0  0.00000000000E+00 -0.17763568394E-14 -0.17763568394E-14  0.91188000000E+02  0.91188000000E+02 0.  0.
    9900012    2    3    3    0    0 -0.35045000630E+02 -0.95904244667E+01 -0.59708642055E+01  0.54367088414E+02  0.40000009658E+02 0.  0.
         12    1    3    3    0    0  0.35045000630E+02  0.95904244667E+01  0.59708642055E+01  0.36820911586E+02  0.00000000000E+00 0. -1.
         11    1    4    4    0    0 -0.14522434056E+02  0.82567127319E+01  0.64574312985E+01  0.17910131638E+02  0.51100000000E-03 0. -1.
        -11    1    4    4    0    0 -0.91588510817E+01 -0.16512502678E+02  0.88413953676E+00  0.18903147907E+02  0.51100000000E-03 0.  1.
        -12    1    4    4    0    0 -0.11363715493E+02 -0.13346345205E+01 -0.13312435041E+02  0.17553808869E+02  0.00000000000E+00 0.  1.
</event>
<event>
 8    1  0.1271559E-006  0.9118800E+02  0.7816164E-02  0.1184000E+00
        -11   -1    0    0    0    0  0.00000000000E+00  0.00000000000E+00  0.45593999997E+02  0.45594000000E+02  0.51100000000E-03 0.  1.
         11   -1    0    0    0    0 -0.00000000000E+00 -0.00000000000E+00 -0.45593999997E+02  0.45594000000E+02  0.51100000000E-03 0. -1.
         23    2    1    2    0    0  0.35527136788E-14  0.00000000000E+00  0.00000000000E+00  0.91188000000E+02  0.91188000000E+02 0.  0.
    9900012    2    3    3    0    0 -0.16817491898E+02  0.14419953809E+02  0.29411165795E+02  0.54367085088E+02  0.40000002074E+02 0.  0.
         12    1    3    3    0    0  0.16817491898E+02 -0.14419953809E+02 -0.29411165795E+02  0.36820914912E+02  0.00000000000E+00 0. -1.
         11    1    4    4    0    0 -0.16295549215E+02  0.21180341084E+02  0.25142085417E+02  0.36691637085E+02  0.51100000000E-03 0. -1.
        -11    1    4    4    0    0 -0.20100496779E+01 -0.31037479400E+01  0.10030970039E+02  0.10690833044E+02  0.51100000000E-03 0.  1.
        -12    1    4    4    0    0  0.14881069949E+01 -0.36566393351E+01 -0.57618896611E+01  0.69846149588E+01  0.00000000000E+00 0.  1.
</event>
<event>
 8    1  0.1271559E-006  0.9118800E+02  0.7816164E-02  0.1184000E+00
        -11   -1    0    0    0    0  0.00000000000E+00  0.00000000000E+00  0.45593999997E+02  0.45594000000E+02  0.51100000000E-03 0.  1.
         11   -1    0    0    0    0 -0.00000000000E+00 -0.00000000000E+00 -0.45593999997E+02  0.45594000000E+02  0.51100000000E-03 0. -1.
         23    2    1    2    0    0 -0.35527136788E-14  0.00000000000E+00  0.88817841970E-15  0.91188000000E+02  0.91188000000E+02 0.  0.
    9900012    2    3    3    0    0 -0.16424308064E+02 -0.32862519087E+02  0.24649862685E+01  0.54367092713E+02  0.40000019458E+02 0.  0.
        -12    1    3    3    0    0  0.16424308064E+02  0.32862519087E+02 -0.24649862685E+01  0.36820907287E+02  0.00000000000E+00 0.  1.
         11    1    4    4    0    0 -0.70350589018E+01 -0.32531137804E+02  0.10670489964E+02  0.34951771585E+02  0.51100000000E-03 0. -1.
        -11    1    4    4    0    0  0.37860698460E+01  0.18765051675E+01 -0.16743118078E+01  0.45452081155E+01  0.51100000000E-03 0.  1.
        -12    1    4    4    0    0 -0.13175319008E+02 -0.22078864508E+01 -0.65311918878E+01  0.14870113013E+02  0.00000000000E+00 0.  1.
</event>
<event>
 8    1  0.1271559E-006  0.9118800E+02  0.7816164E-02  0.1184000E+00
        -11   -1    0    0    0    0  0.00000000000E+00  0.00000000000E+00  0.45593999997E+02  0.45594000000E+02  0.51100000000E-03 0.  1.
         11   -1    0    0    0    0 -0.00000000000E+00 -0.00000000000E+00 -0.45593999997E+02  0.45594000000E+02  0.51100000000E-03 0. -1.
         23    2    1    2    0    0  0.00000000000E+00  0.00000000000E+00  0.00000000000E+00  0.91188000000E+02  0.91188000000E+02 0.  0.
    9900012    2    3    3    0    0  0.21485106673E+02 -0.12601884822E+02 -0.27117548334E+02  0.54367099176E+02  0.40000034192E+02 0.  0.
        -12    1    3    3    0    0 -0.21485106673E+02  0.12601884822E+02  0.27117548334E+02  0.36820900824E+02  0.00000000000E+00 0.  1.
         11    1    4    4    0    0  0.89137174211E+01 -0.18429434253E+01 -0.16518775715E+02  0.18860560705E+02  0.51100000000E-03 0. -1.
        -11    1    4    4    0    0 -0.28255019676E+01  0.23485314230E+01 -0.14461009958E+02  0.14920451417E+02  0.51100000000E-03 0.  1.
        -12    1    4    4    0    0  0.15396891220E+02 -0.13107472819E+02  0.38622373390E+01  0.20586087054E+02  0.00000000000E+00 0.  1.
</event>
<event>
 8    1  0.1271559E-006  0.9118800E+02  0.7816164E-02  0.1184000E+00
        -11   -1    0    0    0    0  0.00000000000E+00  0.00000000000E+00  0.45593999997E+02  0.45594000000E+02  0.51100000000E-03 0.  1.
         11   -1    0    0    0    0 -0.00000000000E+00 -0.00000000000E+00 -0.45593999997E+02  0.45594000000E+02  0.51100000000E-03 0. -1.
         23    2    1    2    0    0  0.88817841970E-15  0.00000000000E+00  0.00000000000E+00  0.91188000000E+02  0.91188000000E+02 0.  0.
    9900012    2    3    3    0    0  0.71818861957E+01 -0.97364879146E+01  0.34776447006E+02  0.54367082676E+02  0.39999996575E+02 0.  0.
         12    1    3    3    0    0 -0.71818861957E+01  0.97364879146E+01 -0.34776447006E+02  0.36820917324E+02  0.00000000000E+00 0. -1.
         11    1    4    4    0    0  0.24151276270E+01 -0.23799361889E+01 -0.48957267348E+01  0.59552563539E+01  0.51100000000E-03 0. -1.
        -11    1    4    4    0    0  0.11677612456E+02 -0.13091697433E+02  0.32445776015E+02  0.36884787594E+02  0.51100000000E-03 0.  1.
        -12    1    4    4    0    0 -0.69108538874E+01  0.57351457075E+01  0.72263977255E+01  0.11527038728E+02  0.00000000000E+00 0.  1.
</event>
<event>
 8    1  0.1271559E-006  0.9118800E+02  0.7816164E-02  0.1184000E+00
        -11   -1    0    0    0    0  0.00000000000E+00  0.00000000000E+00  0.45593999997E+02  0.45594000000E+02  0.51100000000E-03 0.  1.
         11   -1    0    0    0    0 -0.00000000000E+00 -0.00000000000E+00 -0.45593999997E+02  0.45594000000E+02  0.51100000000E-03 0. -1.
         23    2    1    2    0    0 -0.17763568394E-14  0.35527136788E-14 -0.35527136788E-14  0.91188000000E+02  0.91188000000E+02 0.  0.
    9900012    2    3    3    0    0  0.13924650331E+02 -0.23836307621E+02  0.24366255543E+02  0.54367083974E+02  0.39999999535E+02 0.  0.
         12    1    3    3    0    0 -0.13924650331E+02  0.23836307621E+02 -0.24366255543E+02  0.36820916026E+02  0.00000000000E+00 0. -1.
         11    1    4    4    0    0  0.12140579468E+02  0.49690201884E+01  0.31346159512E+01  0.13487425584E+02  0.51100000000E-03 0. -1.
        -11    1    4    4    0    0  0.85049733718E+01 -0.25436300868E+02  0.13250315004E+02  0.29915060119E+02  0.51100000000E-03 0.  1.
         12    1    4    4    0    0 -0.67209025097E+01 -0.33690269406E+01  0.79813245879E+01  0.10964598271E+02  0.00000000000E+00 0. -1.
</event>
<event>
 8    1  0.1271559E-006  0.9118800E+02  0.7816164E-02  0.1184000E+00
        -11   -1    0    0    0    0  0.00000000000E+00  0.00000000000E+00  0.45593999997E+02  0.45594000000E+02  0.51100000000E-03 0.  1.
         11   -1    0    0    0    0 -0.00000000000E+00 -0.00000000000E+00 -0.45593999997E+02  0.45594000000E+02  0.51100000000E-03 0. -1.
         23    2    1    2    0    0  0.00000000000E+00  0.00000000000E+00  0.17763568394E-14  0.91188000000E+02  0.91188000000E+02 0.  0.
    9900012    2    3    3    0    0  0.34269087353E+02 -0.97775703756E+01 -0.92632806839E+01  0.54367087471E+02  0.40000007507E+02 0.  0.
         12    1    3    3    0    0 -0.34269087353E+02  0.97775703756E+01  0.92632806839E+01  0.36820912529E+02  0.00000000000E+00 0. -1.
         11    1    4    4    0    0  0.91180387837E+01  0.12001988478E+02  0.26651682477E+01  0.15306517590E+02  0.51100000000E-03 0. -1.
        -11    1    4    4    0    0  0.83744554022E+01 -0.12032060816E+02  0.25129285981E+01  0.14873358772E+02  0.51100000000E-03 0.  1.
        -12    1    4    4    0    0  0.16776593167E+02 -0.97474980376E+01 -0.14441377530E+02  0.24187211109E+02  0.00000000000E+00 0.  1.
</event>
<event>
 8    1  0.1271559E-006  0.9118800E+02  0.7816164E-02  0.1184000E+00
        -11   -1    0    0    0    0  0.00000000000E+00  0.00000000000E+00  0.45593999997E+02  0.45594000000E+02  0.51100000000E-03 0. -1.
         11   -1    0    0    0    0 -0.00000000000E+00 -0.00000000000E+00 -0.45593999997E+02  0.45594000000E+02  0.51100000000E-03 0.  1.
         23    2    1    2    0    0 -0.35527136788E-14  0.00000000000E+00  0.00000000000E+00  0.91188000000E+02  0.91188000000E+02 0.  0.
    9900012    2    3    3    0    0 -0.27624815127E+02 -0.15772975028E+02 -0.18543298619E+02  0.54367203217E+02  0.40000271373E+02 0.  0.
         12    1    3    3    0    0  0.27624815127E+02  0.15772975028E+02  0.18543298619E+02  0.36820796783E+02  0.00000000000E+00 0. -1.
         11    1    4    4    0    0 -0.27499341907E+01  0.51404082802E+01 -0.37441554860E+01  0.69285377898E+01  0.51100000000E-03 0. -1.
        -11    1    4    4    0    0 -0.21436093896E+02  0.38354265472E+00 -0.29163234202E+00  0.21441508253E+02  0.51100000000E-03 0.  1.
         12    1    4    4    0    0 -0.34387870409E+01 -0.21296925963E+02 -0.14507510791E+02  0.25997157174E+02  0.00000000000E+00 0. -1.
</event>
<event>
 8    1  0.1271559E-006  0.9118800E+02  0.7816164E-02  0.1184000E+00
        -11   -1    0    0    0    0  0.00000000000E+00  0.00000000000E+00  0.45593999997E+02  0.45594000000E+02  0.51100000000E-03 0. -1.
         11   -1    0    0    0    0 -0.00000000000E+00 -0.00000000000E+00 -0.45593999997E+02  0.45594000000E+02  0.51100000000E-03 0.  1.
         23    2    1    2    0    0  0.00000000000E+00  0.00000000000E+00  0.00000000000E+00  0.91188000000E+02  0.91188000000E+02 0.  0.
    9900012    2    3    3    0    0  0.33157280343E+01 -0.33197091452E+02 -0.15580088464E+02  0.54367080812E+02  0.39999992327E+02 0.  0.
         12    1    3    3    0    0 -0.33157280343E+01  0.33197091452E+02  0.15580088464E+02  0.36820919188E+02  0.00000000000E+00 0. -1.
         11    1    4    4    0    0 -0.60501007406E+01 -0.73502483248E+01 -0.85357355638E+01  0.12786268075E+02  0.51100000000E-03 0.  1.
        -11    1    4    4    0    0  0.10187186300E+01 -0.30184863935E+02 -0.65514810131E+00  0.30209154535E+02  0.51100000000E-03 0. -1.
        -12    1    4    4    0    0  0.83471101449E+01  0.43380208077E+01 -0.63892047991E+01  0.11371658202E+02  0.00000000000E+00 0.  1.
</event>
<event>
 8    1  0.1271559E-006  0.9118800E+02  0.7816164E-02  0.1184000E+00
        -11   -1    0    0    0    0  0.00000000000E+00  0.00000000000E+00  0.45593999997E+02  0.45594000000E+02  0.51100000000E-03 0. -1.
         11   -1    0    0    0    0 -0.00000000000E+00 -0.00000000000E+00 -0.45593999997E+02  0.45594000000E+02  0.51100000000E-03 0.  1.
         23    2    1    2    0    0 -0.17763568394E-14  0.00000000000E+00 -0.35527136788E-14  0.91188000000E+02  0.91188000000E+02 0.  0.
    9900012    2    3    3    0    0  0.13088841869E+02  0.24059044072E+02 -0.24609427801E+02  0.54367091268E+02  0.40000016165E+02 0.  0.
         12    1    3    3    0    0 -0.13088841869E+02 -0.24059044072E+02  0.24609427801E+02  0.36820908732E+02  0.00000000000E+00 0. -1.
         11    1    4    4    0    0 -0.93327412160E+00  0.49854671207E+01  0.79311489699E+01  0.94142980217E+01  0.51100000000E-03 0. -1.
        -11    1    4    4    0    0 -0.33677239405E+01 -0.17511679939E+01 -0.51737371102E+01  0.64168302010E+01  0.51100000000E-03 0.  1.
        -12    1    4    4    0    0  0.17389839931E+02  0.20824744945E+02 -0.27366839661E+02  0.38535963046E+02  0.00000000000E+00 0.  1.
</event>
<event>
 8    1  0.1271559E-006  0.9118800E+02  0.7816164E-02  0.1184000E+00
        -11   -1    0    0    0    0  0.00000000000E+00  0.00000000000E+00  0.45593999997E+02  0.45594000000E+02  0.51100000000E-03 0.  1.
         11   -1    0    0    0    0 -0.00000000000E+00 -0.00000000000E+00 -0.45593999997E+02  0.45594000000E+02  0.51100000000E-03 0. -1.
         23    2    1    2    0    0  0.35527136788E-14 -0.22204460493E-15 -0.35527136788E-14  0.91188000000E+02  0.91188000000E+02 0.  0.
    9900012    2    3    3    0    0  0.29195164771E+02  0.76915399381E+00  0.22424142287E+02  0.54366927213E+02  0.39999642166E+02 0.  0.
         12    1    3    3    0    0 -0.29195164771E+02 -0.76915399381E+00 -0.22424142287E+02  0.36821072787E+02  0.00000000000E+00 0. -1.
         11    1    4    4    0    0 -0.33008691604E+01  0.97288757968E-01 -0.54052793040E+01  0.63342124161E+01  0.51100000000E-03 0. -1.
        -11    1    4    4    0    0  0.15491098414E+02 -0.44972951296E+01  0.14111967184E+01  0.16192321328E+02  0.51100000000E-03 0.  1.
        -12    1    4    4    0    0  0.17004935517E+02  0.51691603654E+01  0.26418224872E+02  0.31840393469E+02  0.00000000000E+00 0.  1.
</event>
<event>
 8    1  0.1271559E-006  0.9118800E+02  0.7816164E-02  0.1184000E+00
        -11   -1    0    0    0    0  0.00000000000E+00  0.00000000000E+00  0.45593999997E+02  0.45594000000E+02  0.51100000000E-03 0. -1.
         11   -1    0    0    0    0 -0.00000000000E+00 -0.00000000000E+00 -0.45593999997E+02  0.45594000000E+02  0.51100000000E-03 0.  1.
         23    2    1    2    0    0  0.00000000000E+00  0.00000000000E+00  0.00000000000E+00  0.91188000000E+02  0.91188000000E+02 0.  0.
    9900012    2    3    3    0    0 -0.20080151768E+02  0.28862012899E+02  0.10934103841E+02  0.54367042511E+02  0.39999905012E+02 0.  0.
        -12    1    3    3    0    0  0.20080151768E+02 -0.28862012899E+02 -0.10934103841E+02  0.36820957489E+02  0.00000000000E+00 0.  1.
         11    1    4    4    0    0 -0.47682342063E+01  0.12793679624E+02  0.11477870420E+02  0.17836922532E+02  0.51100000000E-03 0. -1.
        -11    1    4    4    0    0  0.85513189963E+01  0.37611220569E+01  0.20207117262E+01  0.95579480980E+01  0.51100000000E-03 0.  1.
         12    1    4    4    0    0 -0.23863236558E+02  0.12307211218E+02 -0.25644783055E+01  0.26972171881E+02  0.00000000000E+00 0. -1.
</event>
<event>
 8    1  0.1271559E-006  0.9118800E+02  0.7816164E-02  0.1184000E+00
        -11   -1    0    0    0    0  0.00000000000E+00  0.00000000000E+00  0.45593999997E+02  0.45594000000E+02  0.51100000000E-03 0. -1.
         11   -1    0    0    0    0 -0.00000000000E+00 -0.00000000000E+00 -0.45593999997E+02  0.45594000000E+02  0.51100000000E-03 0.  1.
         23    2    1    2    0    0 -0.15543122345E-14  0.00000000000E+00  0.71054273576E-14  0.91188000000E+02  0.91188000000E+02 0.  0.
    9900012    2    3    3    0    0 -0.48049325799E+00 -0.73251205855E+01 -0.36081734607E+02  0.54367084237E+02  0.40000000136E+02 0.  0.
         12    1    3    3    0    0  0.48049325799E+00  0.73251205855E+01  0.36081734607E+02  0.36820915763E+02  0.00000000000E+00 0. -1.
         11    1    4    4    0    0 -0.56739386510E+01  0.54630788866E+01 -0.20356165991E+01  0.81352655725E+01  0.51100000000E-03 0. -1.
        -11    1    4    4    0    0  0.45766902528E+01 -0.94238111574E+01 -0.38904375649E+02  0.40290256332E+02  0.51100000000E-03 0.  1.
        -12    1    4    4    0    0  0.61675514019E+00 -0.33643883146E+01  0.48582576416E+01  0.59415623322E+01  0.00000000000E+00 0.  1.
</event>
<event>
 8    1  0.1271559E-006  0.9118800E+02  0.7816164E-02  0.1184000E+00
        -11   -1    0    0    0    0  0.00000000000E+00  0.00000000000E+00  0.45593999997E+02  0.45594000000E+02  0.51100000000E-03 0.  1.
         11   -1    0    0    0    0 -0.00000000000E+00 -0.00000000000E+00 -0.45593999997E+02  0.45594000000E+02  0.51100000000E-03 0. -1.
         23    2    1    2    0    0  0.88817841970E-15  0.00000000000E+00  0.00000000000E+00  0.91188000000E+02  0.91188000000E+02 0.  0.
    9900012    2    3    3    0    0  0.14600107042E+01  0.34777617441E+02 -0.12006898155E+02  0.54367083262E+02  0.39999997912E+02 0.  0.
         12    1    3    3    0    0 -0.14600107042E+01 -0.34777617441E+02  0.12006898155E+02  0.36820916738E+02  0.00000000000E+00 0. -1.
         11    1    4    4    0    0  0.98083462488E+01 -0.39820250598E+01 -0.32760519975E+01  0.11081186609E+02  0.51100000000E-03 0. -1.
        -11    1    4    4    0    0 -0.11513600356E+02  0.31240898910E+02 -0.32399539438E+01  0.33452265390E+02  0.51100000000E-03 0.  1.
        -12    1    4    4    0    0  0.31652648118E+01  0.75187435908E+01 -0.54908922137E+01  0.98336312629E+01  0.00000000000E+00 0.  1.
</event>
<event>
 8    1  0.1271559E-006  0.9118800E+02  0.7816164E-02  0.1184000E+00
        -11   -1    0    0    0    0  0.00000000000E+00  0.00000000000E+00  0.45593999997E+02  0.45594000000E+02  0.51100000000E-03 0.  1.
         11   -1    0    0    0    0 -0.00000000000E+00 -0.00000000000E+00 -0.45593999997E+02  0.45594000000E+02  0.51100000000E-03 0. -1.
         23    2    1    2    0    0 -0.17763568394E-14  0.12490009027E-15  0.00000000000E+00  0.91188000000E+02  0.91188000000E+02 0.  0.
    9900012    2    3    3    0    0  0.49923886795E+01 -0.49150066899E-01 -0.36480856943E+02  0.54367091759E+02  0.40000017282E+02 0.  0.
        -12    1    3    3    0    0 -0.49923886795E+01  0.49150066899E-01  0.36480856943E+02  0.36820908241E+02  0.00000000000E+00 0.  1.
         11    1    4    4    0    0  0.37755758984E-01  0.49499138426E+01  0.32755530645E+01  0.59356819900E+01  0.51100000000E-03 0. -1.
        -11    1    4    4    0    0 -0.40309868608E+01 -0.97488719261E+01 -0.40391668679E+01  0.11296204148E+02  0.51100000000E-03 0.  1.
         12    1    4    4    0    0  0.89856197813E+01  0.47498080166E+01 -0.35717243139E+02  0.37135205621E+02  0.00000000000E+00 0. -1.
</event>
<event>
 8    1  0.1271559E-006  0.9118800E+02  0.7816164E-02  0.1184000E+00
        -11   -1    0    0    0    0  0.00000000000E+00  0.00000000000E+00  0.45593999997E+02  0.45594000000E+02  0.51100000000E-03 0.  1.
         11   -1    0    0    0    0 -0.00000000000E+00 -0.00000000000E+00 -0.45593999997E+02  0.45594000000E+02  0.51100000000E-03 0. -1.
         23    2    1    2    0    0  0.55511151231E-16 -0.44408920985E-15  0.00000000000E+00  0.91188000000E+02  0.91188000000E+02 0.  0.
    9900012    2    3    3    0    0 -0.31795657449E+00 -0.29085718354E+01 -0.36704462391E+02  0.54367103135E+02  0.40000043217E+02 0.  0.
        -12    1    3    3    0    0  0.31795657449E+00  0.29085718354E+01  0.36704462391E+02  0.36820896865E+02  0.00000000000E+00 0.  1.
         11    1    4    4    0    0 -0.51565798238E+01 -0.14491984310E+02 -0.34187509634E+02  0.37488581461E+02  0.51100000000E-03 0. -1.
        -11    1    4    4    0    0  0.44964429932E+01  0.10724066865E+02 -0.61325039079E+01  0.13146528597E+02  0.51100000000E-03 0.  1.
         12    1    4    4    0    0  0.34218025610E+00  0.85934560936E+00  0.36155511505E+01  0.37319930769E+01  0.00000000000E+00 0. -1.
</event>
<event>
 8    1  0.1271559E-006  0.9118800E+02  0.7816164E-02  0.1184000E+00
        -11   -1    0    0    0    0  0.00000000000E+00  0.00000000000E+00  0.45593999997E+02  0.45594000000E+02  0.51100000000E-03 0.  1.
         11   -1    0    0    0    0 -0.00000000000E+00 -0.00000000000E+00 -0.45593999997E+02  0.45594000000E+02  0.51100000000E-03 0. -1.
         23    2    1    2    0    0  0.00000000000E+00 -0.44408920985E-15  0.00000000000E+00  0.91188000000E+02  0.91188000000E+02 0.  0.
    9900012    2    3    3    0    0 -0.45095366387E+01  0.16478190479E+01 -0.36506575069E+02  0.54367065036E+02  0.39999956363E+02 0.  0.
        -12    1    3    3    0    0  0.45095366387E+01 -0.16478190479E+01  0.36506575069E+02  0.36820934964E+02  0.00000000000E+00 0.  1.
         11    1    4    4    0    0  0.10332297363E+02  0.17514114550E+01 -0.21244680929E+02  0.23688821814E+02  0.51100000000E-03 0. -1.
        -11    1    4    4    0    0 -0.70469610385E+01 -0.75721581646E+01 -0.16845005307E+02  0.19767433905E+02  0.51100000000E-03 0.  1.
        -12    1    4    4    0    0 -0.77948729637E+01  0.74685657576E+01  0.15831111664E+01  0.10910809317E+02  0.00000000000E+00 0.  1.
</event>
<event>
 8    1  0.1271559E-006  0.9118800E+02  0.7816164E-02  0.1184000E+00
        -11   -1    0    0    0    0  0.00000000000E+00  0.00000000000E+00  0.45593999997E+02  0.45594000000E+02  0.51100000000E-03 0.  1.
         11   -1    0    0    0    0 -0.00000000000E+00 -0.00000000000E+00 -0.45593999997E+02  0.45594000000E+02  0.51100000000E-03 0. -1.
         23    2    1    2    0    0 -0.17763568394E-14  0.00000000000E+00  0.00000000000E+00  0.91188000000E+02  0.91188000000E+02 0.  0.
    9900012    2    3    3    0    0  0.12749712288E+02  0.21842026758E+02 -0.26761003108E+02  0.54367074106E+02  0.39999977040E+02 0.  0.
        -12    1    3    3    0    0 -0.12749712288E+02 -0.21842026758E+02  0.26761003108E+02  0.36820925894E+02  0.00000000000E+00 0.  1.
         11    1    4    4    0    0  0.20325464155E+01  0.48485265449E+01 -0.14361763757E+02  0.15293780208E+02  0.51100000000E-03 0. -1.
        -11    1    4    4    0    0 -0.10121795536E+02 -0.41582657719E-01 -0.28768457490E+01  0.10522771295E+02  0.51100000000E-03 0.  1.
         12    1    4    4    0    0  0.20838961409E+02  0.17035082871E+02 -0.95223936017E+01  0.28550522603E+02  0.00000000000E+00 0. -1.
</event>
<event>
 8    1  0.1271559E-006  0.9118800E+02  0.7816164E-02  0.1184000E+00
        -11   -1    0    0    0    0  0.00000000000E+00  0.00000000000E+00  0.45593999997E+02  0.45594000000E+02  0.51100000000E-03 0.  1.
         11   -1    0    0    0    0 -0.00000000000E+00 -0.00000000000E+00 -0.45593999997E+02  0.45594000000E+02  0.51100000000E-03 0. -1.
         23    2    1    2    0    0  0.44408920985E-15  0.00000000000E+00  0.35527136788E-14  0.91188000000E+02  0.91188000000E+02 0.  0.
    9900012    2    3    3    0    0  0.25576980129E+01 -0.20481032828E+02  0.30492048766E+02  0.54367087969E+02  0.40000008643E+02 0.  0.
         12    1    3    3    0    0 -0.25576980129E+01  0.20481032828E+02 -0.30492048766E+02  0.36820912031E+02  0.00000000000E+00 0. -1.
         11    1    4    4    0    0 -0.46545312858E+01 -0.10893210880E+02 -0.42996591570E+01  0.12602133704E+02  0.51100000000E-03 0. -1.
        -11    1    4    4    0    0  0.35509589576E+01 -0.72529225147E+01  0.36285126033E+02  0.37172900963E+02  0.51100000000E-03 0.  1.
        -12    1    4    4    0    0  0.36612703412E+01 -0.23348994332E+01 -0.14934181101E+01  0.45920533017E+01  0.00000000000E+00 0.  1.
</event>
<event>
 8    1  0.1271559E-006  0.9118800E+02  0.7816164E-02  0.1184000E+00
        -11   -1    0    0    0    0  0.00000000000E+00  0.00000000000E+00  0.45593999997E+02  0.45594000000E+02  0.51100000000E-03 0. -1.
         11   -1    0    0    0    0 -0.00000000000E+00 -0.00000000000E+00 -0.45593999997E+02  0.45594000000E+02  0.51100000000E-03 0.  1.
         23    2    1    2    0    0  0.00000000000E+00  0.17763568394E-14  0.00000000000E+00  0.91188000000E+02  0.91188000000E+02 0.  0.
    9900012    2    3    3    0    0  0.38627002877E+01  0.87309623899E+01 -0.35561634830E+02  0.54367081630E+02  0.39999994193E+02 0.  0.
         12    1    3    3    0    0 -0.38627002877E+01 -0.87309623899E+01  0.35561634830E+02  0.36820918370E+02  0.00000000000E+00 0. -1.
         11    1    4    4    0    0  0.34389140687E+01  0.82108594971E+01 -0.16117402708E+02  0.18412360359E+02  0.51100000000E-03 0. -1.
        -11    1    4    4    0    0 -0.33649014138E+01  0.19750745875E+01 -0.27052104308E+02  0.27332029360E+02  0.51100000000E-03 0.  1.
         12    1    4    4    0    0  0.37886876328E+01 -0.14549716947E+01  0.76078721861E+01  0.86226919122E+01  0.00000000000E+00 0. -1.
</event>
<event>
 8    1  0.1271559E-006  0.9118800E+02  0.7816164E-02  0.1184000E+00
        -11   -1    0    0    0    0  0.00000000000E+00  0.00000000000E+00  0.45593999997E+02  0.45594000000E+02  0.51100000000E-03 0. -1.
         11   -1    0    0    0    0 -0.00000000000E+00 -0.00000000000E+00 -0.45593999997E+02  0.45594000000E+02  0.51100000000E-03 0.  1.
         23    2    1    2    0    0  0.00000000000E+00  0.00000000000E+00 -0.35527136788E-14  0.91188000000E+02  0.91188000000E+02 0.  0.
    9900012    2    3    3    0    0  0.19932083453E+02  0.23115207225E+02 -0.20595604595E+02  0.54367086317E+02  0.40000004877E+02 0.  0.
         12    1    3    3    0    0 -0.19932083453E+02 -0.23115207225E+02  0.20595604595E+02  0.36820913683E+02  0.00000000000E+00 0. -1.
         11    1    4    4    0    0  0.10985397815E+02  0.33508098323E+01  0.10063241744E+02  0.15270092545E+02  0.51100000000E-03 0. -1.
        -11    1    4    4    0    0 -0.18208766641E+01  0.30967827376E+01 -0.91655889696E+01  0.98444744182E+01  0.51100000000E-03 0.  1.
         12    1    4    4    0    0  0.10767562302E+02  0.16667614655E+02 -0.21493257369E+02  0.29252519354E+02  0.00000000000E+00 0. -1.
</event>
<event>
 8    1  0.1271559E-006  0.9118800E+02  0.7816164E-02  0.1184000E+00
        -11   -1    0    0    0    0  0.00000000000E+00  0.00000000000E+00  0.45593999997E+02  0.45594000000E+02  0.51100000000E-03 0.  1.
         11   -1    0    0    0    0 -0.00000000000E+00 -0.00000000000E+00 -0.45593999997E+02  0.45594000000E+02  0.51100000000E-03 0. -1.
         23    2    1    2    0    0 -0.88817841970E-15 -0.17763568394E-14  0.00000000000E+00  0.91188000000E+02  0.91188000000E+02 0.  0.
    9900012    2    3    3    0    0  0.58176059059E+01  0.75563359889E+01 -0.35564562423E+02  0.54367070458E+02  0.39999968722E+02 0.  0.
        -12    1    3    3    0    0 -0.58176059059E+01 -0.75563359889E+01  0.35564562423E+02  0.36820929542E+02  0.00000000000E+00 0.  1.
         11    1    4    4    0    0  0.81914114755E+01  0.18178372907E+01 -0.18708446799E+01  0.85967327779E+01  0.51100000000E-03 0. -1.
        -11    1    4    4    0    0 -0.57952702976E+01  0.17214768266E+02 -0.14938384196E+02  0.23517838483E+02  0.51100000000E-03 0.  1.
         12    1    4    4    0    0  0.34214647279E+01 -0.11476269567E+02 -0.18755333546E+02  0.22252499197E+02  0.00000000000E+00 0. -1.
</event>
<event>
 8    1  0.1271559E-006  0.9118800E+02  0.7816164E-02  0.1184000E+00
        -11   -1    0    0    0    0  0.00000000000E+00  0.00000000000E+00  0.45593999997E+02  0.45594000000E+02  0.51100000000E-03 0.  1.
         11   -1    0    0    0    0 -0.00000000000E+00 -0.00000000000E+00 -0.45593999997E+02  0.45594000000E+02  0.51100000000E-03 0. -1.
         23    2    1    2    0    0  0.00000000000E+00  0.00000000000E+00 -0.35527136788E-14  0.91188000000E+02  0.91188000000E+02 0.  0.
    9900012    2    3    3    0    0 -0.16453250337E+02  0.10649863373E+02 -0.31171311793E+02  0.54367085897E+02  0.40000003920E+02 0.  0.
        -12    1    3    3    0    0  0.16453250337E+02 -0.10649863373E+02  0.31171311793E+02  0.36820914103E+02  0.00000000000E+00 0.  1.
         11    1    4    4    0    0  0.71036438830E+01  0.20647958631E+01 -0.19456709424E+02  0.20815587435E+02  0.51100000000E-03 0. -1.
        -11    1    4    4    0    0 -0.87351592812E+01 -0.58557154493E+01 -0.58923594312E+01  0.12054555613E+02  0.51100000000E-03 0.  1.
         12    1    4    4    0    0 -0.14821734938E+02  0.14440782959E+02 -0.58222429370E+01  0.21496942849E+02  0.00000000000E+00 0. -1.
</event>
<event>
 8    1  0.1271559E-006  0.9118800E+02  0.7816164E-02  0.1184000E+00
        -11   -1    0    0    0    0  0.00000000000E+00  0.00000000000E+00  0.45593999997E+02  0.45594000000E+02  0.51100000000E-03 0. -1.
         11   -1    0    0    0    0 -0.00000000000E+00 -0.00000000000E+00 -0.45593999997E+02  0.45594000000E+02  0.51100000000E-03 0.  1.
         23    2    1    2    0    0  0.00000000000E+00  0.17763568394E-14 -0.35527136788E-14  0.91188000000E+02  0.91188000000E+02 0.  0.
    9900012    2    3    3    0    0 -0.12978039714E+02 -0.15380097256E+02  0.30835120569E+02  0.54367060754E+02  0.39999946601E+02 0.  0.
        -12    1    3    3    0    0  0.12978039714E+02  0.15380097256E+02 -0.30835120569E+02  0.36820939246E+02  0.00000000000E+00 0.  1.
         11    1    4    4    0    0 -0.14041070996E+02 -0.15030429524E+02  0.29923515100E+02  0.36310910793E+02  0.51100000000E-03 0. -1.
        -11    1    4    4    0    0  0.42371191553E+01  0.36157480488E+01  0.77460896801E+01  0.95408971424E+01  0.51100000000E-03 0.  1.
         12    1    4    4    0    0 -0.31740878735E+01 -0.39654157811E+01 -0.68344842107E+01  0.85152528191E+01  0.00000000000E+00 0. -1.
</event>
<event>
 8    1  0.1271559E-006  0.9118800E+02  0.7816164E-02  0.1184000E+00
        -11   -1    0    0    0    0  0.00000000000E+00  0.00000000000E+00  0.45593999997E+02  0.45594000000E+02  0.51100000000E-03 0.  1.
         11   -1    0    0    0    0 -0.00000000000E+00 -0.00000000000E+00 -0.45593999997E+02  0.45594000000E+02  0.51100000000E-03 0. -1.
         23    2    1    2    0    0 -0.35527136788E-14  0.35527136788E-14  0.44408920985E-15  0.91188000000E+02  0.91188000000E+02 0.  0.
    9900012    2    3    3    0    0 -0.28313866864E+02  0.23524521695E+02  0.83767426819E+00  0.54367083716E+02  0.39999998948E+02 0.  0.
        -12    1    3    3    0    0  0.28313866864E+02 -0.23524521695E+02 -0.83767426819E+00  0.36820916284E+02  0.00000000000E+00 0.  1.
         11    1    4    4    0    0 -0.97290358490E+01  0.17744550325E+01 -0.71170321281E+01  0.12184210101E+02  0.51100000000E-03 0. -1.
        -11    1    4    4    0    0  0.60153091445E+01  0.11593030772E+02  0.84640329427E+01  0.15563488057E+02  0.51100000000E-03 0.  1.
         12    1    4    4    0    0 -0.24600140160E+02  0.10157035891E+02 -0.50932654632E+00  0.26619385558E+02  0.00000000000E+00 0. -1.
</event>
<event>
 8    1  0.1271559E-006  0.9118800E+02  0.7816164E-02  0.1184000E+00
        -11   -1    0    0    0    0  0.00000000000E+00  0.00000000000E+00  0.45593999997E+02  0.45594000000E+02  0.51100000000E-03 0. -1.
         11   -1    0    0    0    0 -0.00000000000E+00 -0.00000000000E+00 -0.45593999997E+02  0.45594000000E+02  0.51100000000E-03 0.  1.
         23    2    1    2    0    0 -0.26645352591E-14 -0.17763568394E-14  0.00000000000E+00  0.91188000000E+02  0.91188000000E+02 0.  0.
    9900012    2    3    3    0    0  0.62301548077E+01 -0.13154374086E+02  0.33822002608E+02  0.54367078679E+02  0.39999987465E+02 0.  0.
        -12    1    3    3    0    0 -0.62301548077E+01  0.13154374086E+02 -0.33822002608E+02  0.36820921321E+02  0.00000000000E+00 0.  1.
         11    1    4    4    0    0 -0.39315995519E-02 -0.95640424048E+01 -0.13094161997E+00  0.95649395475E+01  0.51100000000E-03 0. -1.
        -11    1    4    4    0    0 -0.11383877698E+02 -0.15458616741E+01  0.13794642866E+02  0.17952006346E+02  0.51100000000E-03 0.  1.
         12    1    4    4    0    0  0.17617964106E+02 -0.20444700073E+01  0.20158301362E+02  0.26850132786E+02  0.00000000000E+00 0. -1.
</event>
<event>
 8    1  0.1271559E-006  0.9118800E+02  0.7816164E-02  0.1184000E+00
        -11   -1    0    0    0    0  0.00000000000E+00  0.00000000000E+00  0.45593999997E+02  0.45594000000E+02  0.51100000000E-03 0.  1.
         11   -1    0    0    0    0 -0.00000000000E+00 -0.00000000000E+00 -0.45593999997E+02  0.45594000000E+02  0.51100000000E-03 0. -1.
         23    2    1    2    0    0  0.00000000000E+00  0.00000000000E+00 -0.44408920985E-15  0.91188000000E+02  0.91188000000E+02 0.  0.
    9900012    2    3    3    0    0  0.32441390736E+02 -0.17061972319E+02 -0.34965953137E+01  0.54367069660E+02  0.39999966904E+02 0.  0.
        -12    1    3    3    0    0 -0.32441390736E+02  0.17061972319E+02  0.34965953137E+01  0.36820930340E+02  0.00000000000E+00 0.  1.
         11    1    4    4    0    0  0.22981439957E+02  0.11741241265E+01  0.88936714993E+00  0.23028593621E+02  0.51100000000E-03 0. -1.
        -11    1    4    4    0    0  0.90572115926E+01 -0.22360680033E+02 -0.84225112721E+01  0.25553312696E+02  0.51100000000E-03 0.  1.
        -12    1    4    4    0    0  0.40273918669E+00  0.41245835871E+01  0.40365488084E+01  0.57851633428E+01  0.00000000000E+00 0.  1.
</event>
<event>
 8    1  0.1271559E-006  0.9118800E+02  0.7816164E-02  0.1184000E+00
        -11   -1    0    0    0    0  0.00000000000E+00  0.00000000000E+00  0.45593999997E+02  0.45594000000E+02  0.51100000000E-03 0.  1.
         11   -1    0    0    0    0 -0.00000000000E+00 -0.00000000000E+00 -0.45593999997E+02  0.45594000000E+02  0.51100000000E-03 0. -1.
         23    2    1    2    0    0  0.35527136788E-14  0.00000000000E+00  0.17763568394E-14  0.91188000000E+02  0.91188000000E+02 0.  0.
    9900012    2    3    3    0    0 -0.26446255405E+02 -0.21143009742E+02 -0.14468884139E+02  0.54367083470E+02  0.39999998386E+02 0.  0.
        -12    1    3    3    0    0  0.26446255405E+02  0.21143009742E+02  0.14468884139E+02  0.36820916530E+02  0.00000000000E+00 0.  1.
         11    1    4    4    0    0 -0.21233549077E+02  0.99539655445E+00 -0.70849828332E+01  0.22406503581E+02  0.51100000000E-03 0. -1.
        -11    1    4    4    0    0  0.23550348873E+00  0.41927981183E+01 -0.75753171901E+00  0.42671855503E+01  0.51100000000E-03 0.  1.
         12    1    4    4    0    0 -0.54482098172E+01 -0.26331204414E+02 -0.66263695863E+01  0.27693394339E+02  0.00000000000E+00 0. -1.
</event>
<event>
 8    1  0.1271559E-006  0.9118800E+02  0.7816164E-02  0.1184000E+00
        -11   -1    0    0    0    0  0.00000000000E+00  0.00000000000E+00  0.45593999997E+02  0.45594000000E+02  0.51100000000E-03 0.  1.
         11   -1    0    0    0    0 -0.00000000000E+00 -0.00000000000E+00 -0.45593999997E+02  0.45594000000E+02  0.51100000000E-03 0. -1.
         23    2    1    2    0    0  0.22204460493E-15  0.00000000000E+00  0.00000000000E+00  0.91188000000E+02  0.91188000000E+02 0.  0.
    9900012    2    3    3    0    0 -0.13714736588E+01  0.24166087900E+02 -0.27746910407E+02  0.54367193633E+02  0.40000249523E+02 0.  0.
        -12    1    3    3    0    0  0.13714736588E+01 -0.24166087900E+02  0.27746910407E+02  0.36820806367E+02  0.00000000000E+00 0.  1.
         11    1    4    4    0    0  0.23559822142E+01  0.43592599069E+00 -0.28825252367E+02  0.28924658303E+02  0.51100000000E-03 0. -1.
        -11    1    4    4    0    0  0.18959313186E+01  0.10973247764E+02  0.25489606408E+01  0.11423831348E+02  0.51100000000E-03 0.  1.
         12    1    4    4    0    0 -0.56233871916E+01  0.12756914146E+02 -0.14706186813E+01  0.14018703982E+02  0.00000000000E+00 0. -1.
</event>
<event>
 8    1  0.1271559E-006  0.9118800E+02  0.7816164E-02  0.1184000E+00
        -11   -1    0    0    0    0  0.00000000000E+00  0.00000000000E+00  0.45593999997E+02  0.45594000000E+02  0.51100000000E-03 0.  1.
         11   -1    0    0    0    0 -0.00000000000E+00 -0.00000000000E+00 -0.45593999997E+02  0.45594000000E+02  0.51100000000E-03 0. -1.
         23    2    1    2    0    0  0.00000000000E+00  0.00000000000E+00  0.00000000000E+00  0.91188000000E+02  0.91188000000E+02 0.  0.
    9900012    2    3    3    0    0  0.72212536380E+01  0.26871729689E+02  0.24115276141E+02  0.54367042599E+02  0.39999905212E+02 0.  0.
         12    1    3    3    0    0 -0.72212536380E+01 -0.26871729689E+02 -0.24115276141E+02  0.36820957401E+02  0.00000000000E+00 0. -1.
         11    1    4    4    0    0  0.20829785307E+02  0.64924296780E+01  0.48785164349E+01  0.22356912174E+02  0.51100000000E-03 0. -1.
        -11    1    4    4    0    0 -0.12785016107E+02  0.20974879334E+02  0.18351928573E+02  0.30662607237E+02  0.51100000000E-03 0.  1.
         12    1    4    4    0    0 -0.82351556169E+00 -0.59557932287E+00  0.88483113243E+00  0.13475231883E+01  0.00000000000E+00 0. -1.
</event>
<event>
 8    1  0.1271559E-006  0.9118800E+02  0.7816164E-02  0.1184000E+00
        -11   -1    0    0    0    0  0.00000000000E+00  0.00000000000E+00  0.45593999997E+02  0.45594000000E+02  0.51100000000E-03 0.  1.
         11   -1    0    0    0    0 -0.00000000000E+00 -0.00000000000E+00 -0.45593999997E+02  0.45594000000E+02  0.51100000000E-03 0. -1.
         23    2    1    2    0    0  0.11102230246E-14 -0.88817841970E-15 -0.14210854715E-13  0.91188000000E+02  0.91188000000E+02 0.  0.
    9900012    2    3    3    0    0 -0.63721666779E+00  0.71088802620E+01  0.36122535773E+02  0.54367084554E+02  0.40000000857E+02 0.  0.
         12    1    3    3    0    0  0.63721666779E+00 -0.71088802620E+01 -0.36122535773E+02  0.36820915446E+02  0.00000000000E+00 0. -1.
         11    1    4    4    0    0 -0.57144575473E+01  0.52608314394E+01  0.24121008795E+01  0.81332406461E+01  0.51100000000E-03 0. -1.
        -11    1    4    4    0    0 -0.11687811801E+02 -0.55794361047E+01  0.10623401516E+02  0.16750871977E+02  0.51100000000E-03 0.  1.
         12    1    4    4    0    0  0.16765052681E+02  0.74274849273E+01  0.23087033377E+02  0.29482971931E+02  0.00000000000E+00 0. -1.
</event>
<event>
 8    1  0.1271559E-006  0.9118800E+02  0.7816164E-02  0.1184000E+00
        -11   -1    0    0    0    0  0.00000000000E+00  0.00000000000E+00  0.45593999997E+02  0.45594000000E+02  0.51100000000E-03 0. -1.
         11   -1    0    0    0    0 -0.00000000000E+00 -0.00000000000E+00 -0.45593999997E+02  0.45594000000E+02  0.51100000000E-03 0.  1.
         23    2    1    2    0    0  0.00000000000E+00  0.00000000000E+00  0.88817841970E-15  0.91188000000E+02  0.91188000000E+02 0.  0.
    9900012    2    3    3    0    0 -0.23310766515E+02  0.28471322359E+02  0.13310946893E+01  0.54367084131E+02  0.39999999893E+02 0.  0.
        -12    1    3    3    0    0  0.23310766515E+02 -0.28471322359E+02 -0.13310946893E+01  0.36820915869E+02  0.00000000000E+00 0.  1.
         11    1    4    4    0    0 -0.53166693409E+01  0.18468254611E+02 -0.20508751126E+01  0.19327428443E+02  0.51100000000E-03 0.  1.
        -11    1    4    4    0    0 -0.17290950275E+02  0.16662634936E+01  0.13435296097E+02  0.21960432075E+02  0.51100000000E-03 0. -1.
        -12    1    4    4    0    0 -0.70314689935E+00  0.83368042543E+01 -0.10053326295E+02  0.13079223613E+02  0.00000000000E+00 0.  1.
</event>
<event>
 8    1  0.1271559E-006  0.9118800E+02  0.7816164E-02  0.1184000E+00
        -11   -1    0    0    0    0  0.00000000000E+00  0.00000000000E+00  0.45593999997E+02  0.45594000000E+02  0.51100000000E-03 0.  1.
         11   -1    0    0    0    0 -0.00000000000E+00 -0.00000000000E+00 -0.45593999997E+02  0.45594000000E+02  0.51100000000E-03 0. -1.
         23    2    1    2    0    0  0.00000000000E+00  0.17763568394E-14  0.17763568394E-14  0.91188000000E+02  0.91188000000E+02 0.  0.
    9900012    2    3    3    0    0 -0.33641521078E+02 -0.14319423955E+02 -0.43572201723E+01  0.54367038437E+02  0.39999895724E+02 0.  0.
        -12    1    3    3    0    0  0.33641521078E+02  0.14319423955E+02  0.43572201723E+01  0.36820961563E+02  0.00000000000E+00 0.  1.
         11    1    4    4    0    0  0.25478003613E+01 -0.44116308228E+01  0.42041356759E+01  0.66051896445E+01  0.51100000000E-03 0. -1.
        -11    1    4    4    0    0 -0.27939211036E+01 -0.74515853037E+01  0.72186624936E+01  0.10744356990E+02  0.51100000000E-03 0.  1.
         12    1    4    4    0    0 -0.33395400335E+02 -0.24562078288E+01 -0.15780018342E+02  0.37017491802E+02  0.00000000000E+00 0. -1.
</event>
<event>
 8    1  0.1271559E-006  0.9118800E+02  0.7816164E-02  0.1184000E+00
        -11   -1    0    0    0    0  0.00000000000E+00  0.00000000000E+00  0.45593999997E+02  0.45594000000E+02  0.51100000000E-03 0.  1.
         11   -1    0    0    0    0 -0.00000000000E+00 -0.00000000000E+00 -0.45593999997E+02  0.45594000000E+02  0.51100000000E-03 0. -1.
         23    2    1    2    0    0  0.00000000000E+00  0.00000000000E+00  0.00000000000E+00  0.91188000000E+02  0.91188000000E+02 0.  0.
    9900012    2    3    3    0    0  0.21504234438E+02 -0.72106104211E+01 -0.29006112275E+02  0.54367088133E+02  0.40000009017E+02 0.  0.
        -12    1    3    3    0    0 -0.21504234438E+02  0.72106104211E+01  0.29006112275E+02  0.36820911867E+02  0.00000000000E+00 0.  1.
         11    1    4    4    0    0  0.16741607796E+02 -0.14900503313E+02 -0.28338737705E+02  0.36130188009E+02  0.51100000000E-03 0. -1.
        -11    1    4    4    0    0  0.76427329772E+01  0.30532011025E+01  0.55781513937E+01  0.99422923697E+01  0.51100000000E-03 0.  1.
        -12    1    4    4    0    0 -0.28801063348E+01  0.46366917892E+01 -0.62455259632E+01  0.82946077547E+01  0.00000000000E+00 0.  1.
</event>
<event>
 8    1  0.1271559E-006  0.9118800E+02  0.7816164E-02  0.1184000E+00
        -11   -1    0    0    0    0  0.00000000000E+00  0.00000000000E+00  0.45593999997E+02  0.45594000000E+02  0.51100000000E-03 0. -1.
         11   -1    0    0    0    0 -0.00000000000E+00 -0.00000000000E+00 -0.45593999997E+02  0.45594000000E+02  0.51100000000E-03 0.  1.
         23    2    1    2    0    0  0.44408920985E-15 -0.35527136788E-14 -0.35527136788E-14  0.91188000000E+02  0.91188000000E+02 0.  0.
    9900012    2    3    3    0    0  0.78528739305E+00 -0.28751500975E+02  0.22989410251E+02  0.54367102831E+02  0.40000042525E+02 0.  0.
        -12    1    3    3    0    0 -0.78528739305E+00  0.28751500975E+02 -0.22989410251E+02  0.36820897169E+02  0.00000000000E+00 0.  1.
         11    1    4    4    0    0  0.33401359596E+00  0.24720934264E+01  0.64611954035E+01  0.69260275263E+01  0.51100000000E-03 0. -1.
        -11    1    4    4    0    0 -0.38216319004E+01 -0.33078839321E+01  0.18454963039E+02  0.19134592431E+02  0.51100000000E-03 0.  1.
         12    1    4    4    0    0  0.42729056975E+01 -0.27915710469E+02 -0.19267481910E+01  0.28306482874E+02  0.00000000000E+00 0. -1.
</event>
<event>
 8    1  0.1271559E-006  0.9118800E+02  0.7816164E-02  0.1184000E+00
        -11   -1    0    0    0    0  0.00000000000E+00  0.00000000000E+00  0.45593999997E+02  0.45594000000E+02  0.51100000000E-03 0. -1.
         11   -1    0    0    0    0 -0.00000000000E+00 -0.00000000000E+00 -0.45593999997E+02  0.45594000000E+02  0.51100000000E-03 0.  1.
         23    2    1    2    0    0  0.71054273576E-14  0.00000000000E+00 -0.35527136788E-14  0.91188000000E+02  0.91188000000E+02 0.  0.
    9900012    2    3    3    0    0 -0.29298243829E+02 -0.13527436276E+02  0.17731370603E+02  0.54367080305E+02  0.39999991172E+02 0.  0.
        -12    1    3    3    0    0  0.29298243829E+02  0.13527436276E+02 -0.17731370603E+02  0.36820919695E+02  0.00000000000E+00 0.  1.
         11    1    4    4    0    0 -0.22448962692E+02 -0.12262435877E+02  0.23283218298E+02  0.34589471146E+02  0.51100000000E-03 0.  1.
        -11    1    4    4    0    0 -0.44656876474E+01 -0.55742807638E+01  0.45991584126E+01  0.84951298144E+01  0.51100000000E-03 0. -1.
        -12    1    4    4    0    0 -0.23835934898E+01  0.43092803645E+01 -0.10151006107E+02  0.11282479345E+02  0.00000000000E+00 0.  1.
</event>
<event>
 8    1  0.1271559E-006  0.9118800E+02  0.7816164E-02  0.1184000E+00
        -11   -1    0    0    0    0  0.00000000000E+00  0.00000000000E+00  0.45593999997E+02  0.45594000000E+02  0.51100000000E-03 0.  1.
         11   -1    0    0    0    0 -0.00000000000E+00 -0.00000000000E+00 -0.45593999997E+02  0.45594000000E+02  0.51100000000E-03 0. -1.
         23    2    1    2    0    0  0.00000000000E+00  0.35527136788E-14  0.00000000000E+00  0.91188000000E+02  0.91188000000E+02 0.  0.
    9900012    2    3    3    0    0 -0.19223634287E+02 -0.30183717470E+02  0.86703816680E+01  0.54367076142E+02  0.39999981681E+02 0.  0.
        -12    1    3    3    0    0  0.19223634287E+02  0.30183717470E+02 -0.86703816680E+01  0.36820923858E+02  0.00000000000E+00 0.  1.
         11    1    4    4    0    0 -0.45006065162E+01 -0.16709655838E+02  0.61378440001E+01  0.18361404807E+02  0.51100000000E-03 0. -1.
        -11    1    4    4    0    0 -0.60824715888E+01  0.45594329039E+01  0.11743894017E+02  0.13989422289E+02  0.51100000000E-03 0.  1.
         12    1    4    4    0    0 -0.86405561817E+01 -0.18033494535E+02 -0.92113563491E+01  0.22016249046E+02  0.00000000000E+00 0. -1.
</event>
<event>
 8    1  0.1271559E-006  0.9118800E+02  0.7816164E-02  0.1184000E+00
        -11   -1    0    0    0    0  0.00000000000E+00  0.00000000000E+00  0.45593999997E+02  0.45594000000E+02  0.51100000000E-03 0. -1.
         11   -1    0    0    0    0 -0.00000000000E+00 -0.00000000000E+00 -0.45593999997E+02  0.45594000000E+02  0.51100000000E-03 0.  1.
         23    2    1    2    0    0 -0.71054273576E-14  0.00000000000E+00  0.00000000000E+00  0.91188000000E+02  0.91188000000E+02 0.  0.
    9900012    2    3    3    0    0 -0.31868393983E+02  0.16907191361E+02 -0.73710326632E+01  0.54367085056E+02  0.40000002002E+02 0.  0.
        -12    1    3    3    0    0  0.31868393983E+02 -0.16907191361E+02  0.73710326632E+01  0.36820914944E+02  0.00000000000E+00 0.  1.
         11    1    4    4    0    0 -0.21942819230E+02  0.13795835348E+02  0.31744234373E+01  0.26113011184E+02  0.51100000000E-03 0. -1.
        -11    1    4    4    0    0 -0.10882637918E+02 -0.75987143930E+01 -0.11490538401E+00  0.13273487559E+02  0.51100000000E-03 0.  1.
        -12    1    4    4    0    0  0.95706316396E+00  0.10710070406E+02 -0.10430550716E+02  0.14980586312E+02  0.00000000000E+00 0.  1.
</event>
<event>
 8    1  0.1271559E-006  0.9118800E+02  0.7816164E-02  0.1184000E+00
        -11   -1    0    0    0    0  0.00000000000E+00  0.00000000000E+00  0.45593999997E+02  0.45594000000E+02  0.51100000000E-03 0. -1.
         11   -1    0    0    0    0 -0.00000000000E+00 -0.00000000000E+00 -0.45593999997E+02  0.45594000000E+02  0.51100000000E-03 0.  1.
         23    2    1    2    0    0  0.00000000000E+00 -0.35527136788E-14 -0.88817841970E-15  0.91188000000E+02  0.91188000000E+02 0.  0.
    9900012    2    3    3    0    0 -0.27273123338E+02  0.23587794257E+02 -0.74544136764E+01  0.54367142082E+02  0.40000132005E+02 0.  0.
        -12    1    3    3    0    0  0.27273123338E+02 -0.23587794257E+02  0.74544136764E+01  0.36820857918E+02  0.00000000000E+00 0.  1.
         11    1    4    4    0    0 -0.35824056226E+01  0.21356362469E+02  0.90499362713E+01  0.23469750632E+02  0.51100000000E-03 0. -1.
        -11    1    4    4    0    0 -0.14976293856E+02  0.18586849830E+01 -0.39309441563E+01  0.15594755841E+02  0.51100000000E-03 0.  1.
         12    1    4    4    0    0 -0.87144238595E+01  0.37274680494E+00 -0.12573405791E+02  0.15302635609E+02  0.00000000000E+00 0. -1.
</event>
<event>
 8    1  0.1271559E-006  0.9118800E+02  0.7816164E-02  0.1184000E+00
        -11   -1    0    0    0    0  0.00000000000E+00  0.00000000000E+00  0.45593999997E+02  0.45594000000E+02  0.51100000000E-03 0.  1.
         11   -1    0    0    0    0 -0.00000000000E+00 -0.00000000000E+00 -0.45593999997E+02  0.45594000000E+02  0.51100000000E-03 0. -1.
         23    2    1    2    0    0  0.00000000000E+00 -0.17763568394E-14  0.00000000000E+00  0.91188000000E+02  0.91188000000E+02 0.  0.
    9900012    2    3    3    0    0  0.15651090267E+02 -0.10095952946E+02 -0.31763108866E+02  0.54367082341E+02  0.39999995813E+02 0.  0.
        -12    1    3    3    0    0 -0.15651090267E+02  0.10095952946E+02  0.31763108866E+02  0.36820917659E+02  0.00000000000E+00 0.  1.
         11    1    4    4    0    0 -0.14038519766E+01  0.14317732502E+01 -0.11903648349E+01  0.23318970204E+01  0.51100000000E-03 0. -1.
        -11    1    4    4    0    0  0.14719126741E+02 -0.17057021198E+02 -0.17540625374E+01  0.22598039734E+02  0.51100000000E-03 0.  1.
        -12    1    4    4    0    0  0.23358155033E+01  0.55292950019E+01 -0.28818681493E+02  0.29437145587E+02  0.00000000000E+00 0.  1.
</event>
<event>
 8    1  0.1271559E-006  0.9118800E+02  0.7816164E-02  0.1184000E+00
        -11   -1    0    0    0    0  0.00000000000E+00  0.00000000000E+00  0.45593999997E+02  0.45594000000E+02  0.51100000000E-03 0. -1.
         11   -1    0    0    0    0 -0.00000000000E+00 -0.00000000000E+00 -0.45593999997E+02  0.45594000000E+02  0.51100000000E-03 0.  1.
         23    2    1    2    0    0 -0.35527136788E-14  0.00000000000E+00  0.00000000000E+00  0.91188000000E+02  0.91188000000E+02 0.  0.
    9900012    2    3    3    0    0  0.27032740545E+02  0.23748267961E+02 -0.78121958321E+01  0.54367086157E+02  0.40000004512E+02 0.  0.
        -12    1    3    3    0    0 -0.27032740545E+02 -0.23748267961E+02  0.78121958321E+01  0.36820913843E+02  0.00000000000E+00 0.  1.
         11    1    4    4    0    0  0.48683602154E+01  0.42257011114E+01  0.35107595075E+01  0.73404981882E+01  0.51100000000E-03 0. -1.
        -11    1    4    4    0    0  0.17404879392E+02  0.28627228862E+02 -0.14153879572E+02  0.36370047651E+02  0.51100000000E-03 0.  1.
         12    1    4    4    0    0  0.47595009374E+01 -0.91046620122E+01  0.28309242328E+01  0.10656540318E+02  0.00000000000E+00 0. -1.
</event>
<event>
 8    1  0.1271559E-006  0.9118800E+02  0.7816164E-02  0.1184000E+00
        -11   -1    0    0    0    0  0.00000000000E+00  0.00000000000E+00  0.45593999997E+02  0.45594000000E+02  0.51100000000E-03 0.  1.
         11   -1    0    0    0    0 -0.00000000000E+00 -0.00000000000E+00 -0.45593999997E+02  0.45594000000E+02  0.51100000000E-03 0. -1.
         23    2    1    2    0    0  0.17763568394E-14  0.00000000000E+00 -0.35527136788E-14  0.91188000000E+02  0.91188000000E+02 0.  0.
    9900012    2    3    3    0    0 -0.91153537749E+01 -0.28305635438E+02  0.21713607062E+02  0.54367090130E+02  0.40000013570E+02 0.  0.
         12    1    3    3    0    0  0.91153537749E+01  0.28305635438E+02 -0.21713607062E+02  0.36820909870E+02  0.00000000000E+00 0. -1.
         11    1    4    4    0    0 -0.20843555508E+01  0.26246910532E+01  0.41172250227E+01  0.53089625480E+01  0.51100000000E-03 0. -1.
        -11    1    4    4    0    0  0.13279636822E+02 -0.13769172663E+02  0.59896858520E+01  0.20045328803E+02  0.51100000000E-03 0.  1.
        -12    1    4    4    0    0 -0.20310635046E+02 -0.17161153828E+02  0.11606696187E+02  0.29012798780E+02  0.00000000000E+00 0.  1.
</event>
<event>
 8    1  0.1271559E-006  0.9118800E+02  0.7816164E-02  0.1184000E+00
        -11   -1    0    0    0    0  0.00000000000E+00  0.00000000000E+00  0.45593999997E+02  0.45594000000E+02  0.51100000000E-03 0.  1.
         11   -1    0    0    0    0 -0.00000000000E+00 -0.00000000000E+00 -0.45593999997E+02  0.45594000000E+02  0.51100000000E-03 0. -1.
         23    2    1    2    0    0  0.35527136788E-14  0.00000000000E+00  0.00000000000E+00  0.91188000000E+02  0.91188000000E+02 0.  0.
    9900012    2    3    3    0    0  0.26368603802E+02  0.15686921107E+02  0.20356743150E+02  0.54367085400E+02  0.40000002785E+02 0.  0.
         12    1    3    3    0    0 -0.26368603802E+02 -0.15686921107E+02 -0.20356743150E+02  0.36820914600E+02  0.00000000000E+00 0. -1.
         11    1    4    4    0    0  0.69756611578E+01 -0.56412481530E+01  0.12157213653E+01  0.90532595241E+01  0.51100000000E-03 0. -1.
        -11    1    4    4    0    0  0.25104115161E+02  0.10175755451E+02  0.72538126349E+01  0.28042474838E+02  0.51100000000E-03 0.  1.
        -12    1    4    4    0    0 -0.57111725164E+01  0.11152413809E+02  0.11887209150E+02  0.17271351038E+02  0.00000000000E+00 0.  1.
</event>
<event>
 8    1  0.1271559E-006  0.9118800E+02  0.7816164E-02  0.1184000E+00
        -11   -1    0    0    0    0  0.00000000000E+00  0.00000000000E+00  0.45593999997E+02  0.45594000000E+02  0.51100000000E-03 0. -1.
         11   -1    0    0    0    0 -0.00000000000E+00 -0.00000000000E+00 -0.45593999997E+02  0.45594000000E+02  0.51100000000E-03 0.  1.
         23    2    1    2    0    0 -0.55511151231E-15  0.00000000000E+00 -0.35527136788E-14  0.91188000000E+02  0.91188000000E+02 0.  0.
    9900012    2    3    3    0    0  0.39045239490E+00 -0.26211492853E+02  0.25857200900E+02  0.54366951006E+02  0.39999696406E+02 0.  0.
        -12    1    3    3    0    0 -0.39045239490E+00  0.26211492853E+02 -0.25857200900E+02  0.36821048994E+02  0.00000000000E+00 0.  1.
         11    1    4    4    0    0 -0.79111851267E+00  0.10421597771E+01  0.92513178076E+01  0.93433851971E+01  0.51100000000E-03 0. -1.
        -11    1    4    4    0    0  0.16027418098E+02 -0.18982862414E+02  0.10366910823E+02  0.26920253278E+02  0.51100000000E-03 0.  1.
        -12    1    4    4    0    0 -0.14845847190E+02 -0.82707902163E+01  0.62389722695E+01  0.18103312530E+02  0.00000000000E+00 0.  1.
</event>
<event>
 8    1  0.1271559E-006  0.9118800E+02  0.7816164E-02  0.1184000E+00
        -11   -1    0    0    0    0  0.00000000000E+00  0.00000000000E+00  0.45593999997E+02  0.45594000000E+02  0.51100000000E-03 0.  1.
         11   -1    0    0    0    0 -0.00000000000E+00 -0.00000000000E+00 -0.45593999997E+02  0.45594000000E+02  0.51100000000E-03 0. -1.
         23    2    1    2    0    0  0.00000000000E+00  0.00000000000E+00  0.00000000000E+00  0.91188000000E+02  0.91188000000E+02 0.  0.
    9900012    2    3    3    0    0  0.15871557122E+01 -0.33351037626E+02  0.15523164108E+02  0.54367090208E+02  0.40000013747E+02 0.  0.
        -12    1    3    3    0    0 -0.15871557122E+01  0.33351037626E+02 -0.15523164108E+02  0.36820909792E+02  0.00000000000E+00 0.  1.
         11    1    4    4    0    0  0.33165022521E-02 -0.14709607575E+01 -0.38757948846E+01  0.41455425215E+01  0.51100000000E-03 0. -1.
        -11    1    4    4    0    0  0.14736742094E+02 -0.37718280034E+01  0.77656628407E+01  0.17079337623E+02  0.51100000000E-03 0.  1.
         12    1    4    4    0    0 -0.13152902884E+02 -0.28108248865E+02  0.11633296151E+02  0.33142210063E+02  0.00000000000E+00 0. -1.
</event>
<event>
 8    1  0.1271559E-006  0.9118800E+02  0.7816164E-02  0.1184000E+00
        -11   -1    0    0    0    0  0.00000000000E+00  0.00000000000E+00  0.45593999997E+02  0.45594000000E+02  0.51100000000E-03 0.  1.
         11   -1    0    0    0    0 -0.00000000000E+00 -0.00000000000E+00 -0.45593999997E+02  0.45594000000E+02  0.51100000000E-03 0. -1.
         23    2    1    2    0    0  0.66613381478E-15  0.00000000000E+00  0.00000000000E+00  0.91188000000E+02  0.91188000000E+02 0.  0.
    9900012    2    3    3    0    0 -0.52140702200E+00 -0.23567266325E+02  0.28285900477E+02  0.54367081039E+02  0.39999992846E+02 0.  0.
         12    1    3    3    0    0  0.52140702200E+00  0.23567266325E+02 -0.28285900477E+02  0.36820918961E+02  0.00000000000E+00 0. -1.
         11    1    4    4    0    0  0.10394002439E+01 -0.11887624167E+02  0.44887966454E+01  0.12749323778E+02  0.51100000000E-03 0. -1.
        -11    1    4    4    0    0  0.32610297830E+01 -0.15251602245E+02  0.29481088982E+02  0.33352365645E+02  0.51100000000E-03 0.  1.
         12    1    4    4    0    0 -0.48218370489E+01  0.35719600873E+01 -0.56839851503E+01  0.82653916168E+01  0.00000000000E+00 0. -1.
</event>
<event>
 8    1  0.1271559E-006  0.9118800E+02  0.7816164E-02  0.1184000E+00
        -11   -1    0    0    0    0  0.00000000000E+00  0.00000000000E+00  0.45593999997E+02  0.45594000000E+02  0.51100000000E-03 0.  1.
         11   -1    0    0    0    0 -0.00000000000E+00 -0.00000000000E+00 -0.45593999997E+02  0.45594000000E+02  0.51100000000E-03 0. -1.
         23    2    1    2    0    0  0.17763568394E-14  0.35527136788E-14  0.00000000000E+00  0.91188000000E+02  0.91188000000E+02 0.  0.
    9900012    2    3    3    0    0  0.99542560249E+01 -0.27658084380E+02 -0.22174815346E+02  0.54367091806E+02  0.40000017391E+02 0.  0.
        -12    1    3    3    0    0 -0.99542560249E+01  0.27658084380E+02  0.22174815346E+02  0.36820908194E+02  0.00000000000E+00 0.  1.
         11    1    4    4    0    0 -0.88747431282E+01 -0.20353324897E+02 -0.93159543760E+01  0.24079159166E+02  0.51100000000E-03 0.  1.
        -11    1    4    4    0    0  0.15175947470E+02 -0.72746347108E+00 -0.16063222997E+02  0.22110307959E+02  0.51100000000E-03 0. -1.
        -12    1    4    4    0    0  0.36530516835E+01 -0.65772960115E+01  0.32043620274E+01  0.81776246812E+01  0.00000000000E+00 0.  1.
</event>
<event>
 8    1  0.1271559E-006  0.9118800E+02  0.7816164E-02  0.1184000E+00
        -11   -1    0    0    0    0  0.00000000000E+00  0.00000000000E+00  0.45593999997E+02  0.45594000000E+02  0.51100000000E-03 0. -1.
         11   -1    0    0    0    0 -0.00000000000E+00 -0.00000000000E+00 -0.45593999997E+02  0.45594000000E+02  0.51100000000E-03 0.  1.
         23    2    1    2    0    0  0.35527136788E-14  0.00000000000E+00  0.35527136788E-14  0.91188000000E+02  0.91188000000E+02 0.  0.
    9900012    2    3    3    0    0  0.18584015199E+02 -0.20128691417E+02  0.24601830198E+02  0.54367083551E+02  0.39999998571E+02 0.  0.
        -12    1    3    3    0    0 -0.18584015199E+02  0.20128691417E+02 -0.24601830198E+02  0.36820916449E+02  0.00000000000E+00 0.  1.
         11    1    4    4    0    0  0.39323878704E+01 -0.41361661040E+01  0.52537700678E+01  0.77571673045E+01  0.51100000000E-03 0. -1.
        -11    1    4    4    0    0  0.16465100394E+01  0.10760842988E+02 -0.41909876697E+00  0.10894144352E+02  0.51100000000E-03 0.  1.
        -12    1    4    4    0    0  0.13005117289E+02 -0.26753368301E+02  0.19767158897E+02  0.35715771894E+02  0.00000000000E+00 0.  1.
</event>
<event>
 8    1  0.1271559E-006  0.9118800E+02  0.7816164E-02  0.1184000E+00
        -11   -1    0    0    0    0  0.00000000000E+00  0.00000000000E+00  0.45593999997E+02  0.45594000000E+02  0.51100000000E-03 0.  1.
         11   -1    0    0    0    0 -0.00000000000E+00 -0.00000000000E+00 -0.45593999997E+02  0.45594000000E+02  0.51100000000E-03 0. -1.
         23    2    1    2    0    0  0.17763568394E-14  0.00000000000E+00  0.00000000000E+00  0.91188000000E+02  0.91188000000E+02 0.  0.
    9900012    2    3    3    0    0  0.13871501932E+02  0.79171113541E+01  0.33176495888E+02  0.54367094288E+02  0.40000023049E+02 0.  0.
         12    1    3    3    0    0 -0.13871501932E+02 -0.79171113541E+01 -0.33176495888E+02  0.36820905712E+02  0.00000000000E+00 0. -1.
         11    1    4    4    0    0  0.95488584920E+01  0.19700910150E+02  0.98333332213E+01  0.24000020870E+02  0.51100000000E-03 0. -1.
        -11    1    4    4    0    0  0.94761628690E+01 -0.46413911383E+01  0.11492058696E+02  0.15601525174E+02  0.51100000000E-03 0.  1.
         12    1    4    4    0    0 -0.51535194290E+01 -0.71424076576E+01  0.11851103971E+02  0.14765548245E+02  0.00000000000E+00 0. -1.
</event>
<event>
 8    1  0.1271559E-006  0.9118800E+02  0.7816164E-02  0.1184000E+00
        -11   -1    0    0    0    0  0.00000000000E+00  0.00000000000E+00  0.45593999997E+02  0.45594000000E+02  0.51100000000E-03 0.  1.
         11   -1    0    0    0    0 -0.00000000000E+00 -0.00000000000E+00 -0.45593999997E+02  0.45594000000E+02  0.51100000000E-03 0. -1.
         23    2    1    2    0    0  0.00000000000E+00 -0.35527136788E-14  0.00000000000E+00  0.91188000000E+02  0.91188000000E+02 0.  0.
    9900012    2    3    3    0    0 -0.22900879571E+02  0.25364815604E+02  0.13709592758E+02  0.54367121557E+02  0.40000085212E+02 0.  0.
        -12    1    3    3    0    0  0.22900879571E+02 -0.25364815604E+02 -0.13709592758E+02  0.36820878443E+02  0.00000000000E+00 0.  1.
         11    1    4    4    0    0 -0.19707099464E+02  0.33648341492E+02  0.44366501620E+01  0.39246203885E+02  0.51100000000E-03 0. -1.
        -11    1    4    4    0    0 -0.52147099444E+00 -0.55059573174E+01  0.51765464946E+00  0.55547695341E+01  0.51100000000E-03 0.  1.
         12    1    4    4    0    0 -0.26723091119E+01 -0.27775685704E+01  0.87552879468E+01  0.95661481373E+01  0.00000000000E+00 0. -1.
</event>
<event>
 8    1  0.1271559E-006  0.9118800E+02  0.7816164E-02  0.1184000E+00
        -11   -1    0    0    0    0  0.00000000000E+00  0.00000000000E+00  0.45593999997E+02  0.45594000000E+02  0.51100000000E-03 0. -1.
         11   -1    0    0    0    0 -0.00000000000E+00 -0.00000000000E+00 -0.45593999997E+02  0.45594000000E+02  0.51100000000E-03 0.  1.
         23    2    1    2    0    0  0.35527136788E-14  0.88817841970E-15 -0.35527136788E-14  0.91188000000E+02  0.91188000000E+02 0.  0.
    9900012    2    3    3    0    0 -0.19659849835E+02 -0.34069935702E+01 -0.30946116090E+02  0.54367090155E+02  0.40000013627E+02 0.  0.
         12    1    3    3    0    0  0.19659849835E+02  0.34069935702E+01  0.30946116090E+02  0.36820909845E+02  0.00000000000E+00 0. -1.
         11    1    4    4    0    0 -0.17846574774E+02  0.10912820610E+02 -0.68252272561E+01  0.22003945378E+02  0.51100000000E-03 0. -1.
        -11    1    4    4    0    0 -0.31388456555E+01 -0.38088263809E+01 -0.20624546900E+02  0.21206872602E+02  0.51100000000E-03 0.  1.
         12    1    4    4    0    0  0.13255705945E+01 -0.10510987800E+02 -0.34963419337E+01  0.11156272175E+02  0.00000000000E+00 0. -1.
</event>
<event>
 8    1  0.1271559E-006  0.9118800E+02  0.7816164E-02  0.1184000E+00
        -11   -1    0    0    0    0  0.00000000000E+00  0.00000000000E+00  0.45593999997E+02  0.45594000000E+02  0.51100000000E-03 0. -1.
         11   -1    0    0    0    0 -0.00000000000E+00 -0.00000000000E+00 -0.45593999997E+02  0.45594000000E+02  0.51100000000E-03 0.  1.
         23    2    1    2    0    0  0.00000000000E+00  0.00000000000E+00 -0.55511151231E-16  0.91188000000E+02  0.91188000000E+02 0.  0.
    9900012    2    3    3    0    0  0.30419459754E+02 -0.20743825605E+02 -0.35895313975E+00  0.54367099959E+02  0.40000035976E+02 0.  0.
        -12    1    3    3    0    0 -0.30419459754E+02  0.20743825605E+02  0.35895313975E+00  0.36820900041E+02  0.00000000000E+00 0.  1.
         11    1    4    4    0    0 -0.24059163555E+01  0.21316947920E+01 -0.21636697571E+01  0.38747933203E+01  0.51100000000E-03 0. -1.
        -11    1    4    4    0    0  0.15812865092E+02 -0.28312031415E+02 -0.82821432379E+00  0.32439231873E+02  0.51100000000E-03 0.  1.
         12    1    4    4    0    0  0.17012511018E+02  0.54365110177E+01  0.26329309411E+01  0.18053074766E+02  0.00000000000E+00 0. -1.
</event>
<event>
 8    1  0.1271559E-006  0.9118800E+02  0.7816164E-02  0.1184000E+00
        -11   -1    0    0    0    0  0.00000000000E+00  0.00000000000E+00  0.45593999997E+02  0.45594000000E+02  0.51100000000E-03 0. -1.
         11   -1    0    0    0    0 -0.00000000000E+00 -0.00000000000E+00 -0.45593999997E+02  0.45594000000E+02  0.51100000000E-03 0.  1.
         23    2    1    2    0    0 -0.17763568394E-14  0.00000000000E+00  0.00000000000E+00  0.91188000000E+02  0.91188000000E+02 0.  0.
    9900012    2    3    3    0    0  0.99712554073E+01 -0.80150660016E+01  0.34526975771E+02  0.54367091900E+02  0.40000017604E+02 0.  0.
        -12    1    3    3    0    0 -0.99712554073E+01  0.80150660016E+01 -0.34526975771E+02  0.36820908100E+02  0.00000000000E+00 0.  1.
         11    1    4    4    0    0  0.10932912600E+02  0.87984076816E+01  0.21551491047E+02  0.25717840544E+02  0.51100000000E-03 0. -1.
        -11    1    4    4    0    0  0.87586937526E+00 -0.80402132726E+01  0.16998298730E+02  0.18824301756E+02  0.51100000000E-03 0.  1.
        -12    1    4    4    0    0 -0.18375265677E+01 -0.87732604106E+01 -0.40228140054E+01  0.98249495999E+01  0.00000000000E+00 0.  1.
</event>
<event>
 8    1  0.1271559E-006  0.9118800E+02  0.7816164E-02  0.1184000E+00
        -11   -1    0    0    0    0  0.00000000000E+00  0.00000000000E+00  0.45593999997E+02  0.45594000000E+02  0.51100000000E-03 0. -1.
         11   -1    0    0    0    0 -0.00000000000E+00 -0.00000000000E+00 -0.45593999997E+02  0.45594000000E+02  0.51100000000E-03 0.  1.
         23    2    1    2    0    0 -0.17763568394E-14 -0.44408920985E-15  0.00000000000E+00  0.91188000000E+02  0.91188000000E+02 0.  0.
    9900012    2    3    3    0    0 -0.10820003935E+02 -0.29052605985E+01  0.35075159016E+02  0.54367084689E+02  0.40000001167E+02 0.  0.
        -12    1    3    3    0    0  0.10820003935E+02  0.29052605985E+01 -0.35075159016E+02  0.36820915311E+02  0.00000000000E+00 0.  1.
         11    1    4    4    0    0 -0.55983288802E+00  0.12968930783E+01 -0.24219284240E+00  0.14331790373E+01  0.51100000000E-03 0. -1.
        -11    1    4    4    0    0 -0.25231870039E+01 -0.11434398020E+02  0.39760437544E+02  0.41448815721E+02  0.51100000000E-03 0.  1.
        -12    1    4    4    0    0 -0.77369840428E+01  0.72322443429E+01 -0.44430856855E+01  0.11485089931E+02  0.00000000000E+00 0.  1.
</event>
<event>
 8    1  0.1271559E-006  0.9118800E+02  0.7816164E-02  0.1184000E+00
        -11   -1    0    0    0    0  0.00000000000E+00  0.00000000000E+00  0.45593999997E+02  0.45594000000E+02  0.51100000000E-03 0.  1.
         11   -1    0    0    0    0 -0.00000000000E+00 -0.00000000000E+00 -0.45593999997E+02  0.45594000000E+02  0.51100000000E-03 0. -1.
         23    2    1    2    0    0  0.00000000000E+00  0.00000000000E+00  0.00000000000E+00  0.91188000000E+02  0.91188000000E+02 0.  0.
    9900012    2    3    3    0    0 -0.12838376436E+02  0.32508355377E+02 -0.11582906714E+02  0.54367071077E+02  0.39999970133E+02 0.  0.
        -12    1    3    3    0    0  0.12838376436E+02 -0.32508355377E+02  0.11582906714E+02  0.36820928923E+02  0.00000000000E+00 0.  1.
         11    1    4    4    0    0 -0.24772154638E+00  0.59543787067E+00 -0.11997857134E+02  0.12015177414E+02  0.51100000000E-03 0. -1.
        -11    1    4    4    0    0  0.36411940420E+01 -0.20871041464E+01  0.19862707450E+01  0.46432283492E+01  0.51100000000E-03 0.  1.
         12    1    4    4    0    0 -0.16231848932E+02  0.34000021653E+02 -0.15713203247E+01  0.37708665313E+02  0.00000000000E+00 0. -1.
</event>
<event>
 8    1  0.1271559E-006  0.9118800E+02  0.7816164E-02  0.1184000E+00
        -11   -1    0    0    0    0  0.00000000000E+00  0.00000000000E+00  0.45593999997E+02  0.45594000000E+02  0.51100000000E-03 0. -1.
         11   -1    0    0    0    0 -0.00000000000E+00 -0.00000000000E+00 -0.45593999997E+02  0.45594000000E+02  0.51100000000E-03 0.  1.
         23    2    1    2    0    0  0.00000000000E+00  0.00000000000E+00  0.88817841970E-15  0.91188000000E+02  0.91188000000E+02 0.  0.
    9900012    2    3    3    0    0  0.29524186095E+02  0.21969961678E+02  0.11927491723E+01  0.54367089754E+02  0.40000012713E+02 0.  0.
        -12    1    3    3    0    0 -0.29524186095E+02 -0.21969961678E+02 -0.11927491723E+01  0.36820910246E+02  0.00000000000E+00 0.  1.
         11    1    4    4    0    0  0.20029044894E+02  0.10129998231E+01 -0.95537538954E+01  0.22214027590E+02  0.51100000000E-03 0. -1.
        -11    1    4    4    0    0 -0.19439923598E+01  0.91267689536E+00 -0.41580727958E+01  0.46799204103E+01  0.51100000000E-03 0.  1.
         12    1    4    4    0    0  0.11439133561E+02  0.20044284960E+02  0.14904575864E+02  0.27473141754E+02  0.00000000000E+00 0. -1.
</event>
<event>
 8    1  0.1271559E-006  0.9118800E+02  0.7816164E-02  0.1184000E+00
        -11   -1    0    0    0    0  0.00000000000E+00  0.00000000000E+00  0.45593999997E+02  0.45594000000E+02  0.51100000000E-03 0.  1.
         11   -1    0    0    0    0 -0.00000000000E+00 -0.00000000000E+00 -0.45593999997E+02  0.45594000000E+02  0.51100000000E-03 0. -1.
         23    2    1    2    0    0  0.35527136788E-14  0.00000000000E+00  0.17763568394E-14  0.91188000000E+02  0.91188000000E+02 0.  0.
    9900012    2    3    3    0    0 -0.27758836790E+02  0.23302745597E+02 -0.64968479330E+01  0.54367081959E+02  0.39999994943E+02 0.  0.
        -12    1    3    3    0    0  0.27758836790E+02 -0.23302745597E+02  0.64968479330E+01  0.36820918041E+02  0.00000000000E+00 0.  1.
         11    1    4    4    0    0 -0.10937617321E+02  0.90062968676E+01 -0.19244786893E+02  0.23897838370E+02  0.51100000000E-03 0. -1.
        -11    1    4    4    0    0 -0.34697281875E+01 -0.39511208262E+00  0.97948277420E+01  0.10398739251E+02  0.51100000000E-03 0.  1.
         12    1    4    4    0    0 -0.13351491282E+02  0.14691560812E+02  0.29531112183E+01  0.20070504339E+02  0.00000000000E+00 0. -1.
</event>
<event>
 8    1  0.1271559E-006  0.9118800E+02  0.7816164E-02  0.1184000E+00
        -11   -1    0    0    0    0  0.00000000000E+00  0.00000000000E+00  0.45593999997E+02  0.45594000000E+02  0.51100000000E-03 0.  1.
         11   -1    0    0    0    0 -0.00000000000E+00 -0.00000000000E+00 -0.45593999997E+02  0.45594000000E+02  0.51100000000E-03 0. -1.
         23    2    1    2    0    0  0.44408920985E-15  0.00000000000E+00  0.00000000000E+00  0.91188000000E+02  0.91188000000E+02 0.  0.
    9900012    2    3    3    0    0 -0.24646413340E+01  0.86437314283E+01 -0.35707047860E+02  0.54367057361E+02  0.39999938866E+02 0.  0.
        -12    1    3    3    0    0  0.24646413340E+01 -0.86437314283E+01  0.35707047860E+02  0.36820942639E+02  0.00000000000E+00 0.  1.
         11    1    4    4    0    0 -0.17878819042E+01  0.13581249587E+02 -0.32393243816E+02  0.35170571608E+02  0.51100000000E-03 0. -1.
        -11    1    4    4    0    0 -0.55314755137E+01 -0.47362900375E+01 -0.90907795722E+01  0.11647829762E+02  0.51100000000E-03 0.  1.
         12    1    4    4    0    0  0.48547160839E+01 -0.20122812130E+00  0.57769755282E+01  0.75486559907E+01  0.00000000000E+00 0. -1.
</event>
<event>
 8    1  0.1271559E-006  0.9118800E+02  0.7816164E-02  0.1184000E+00
        -11   -1    0    0    0    0  0.00000000000E+00  0.00000000000E+00  0.45593999997E+02  0.45594000000E+02  0.51100000000E-03 0.  1.
         11   -1    0    0    0    0 -0.00000000000E+00 -0.00000000000E+00 -0.45593999997E+02  0.45594000000E+02  0.51100000000E-03 0. -1.
         23    2    1    2    0    0  0.17763568394E-14  0.00000000000E+00  0.00000000000E+00  0.91188000000E+02  0.91188000000E+02 0.  0.
    9900012    2    3    3    0    0  0.10666090269E+02 -0.29583912937E+02 -0.19152178317E+02  0.54367091258E+02  0.40000016142E+02 0.  0.
        -12    1    3    3    0    0 -0.10666090269E+02  0.29583912937E+02  0.19152178317E+02  0.36820908742E+02  0.00000000000E+00 0.  1.
         11    1    4    4    0    0  0.16928853102E+02 -0.30828917022E+02 -0.71101209510E+01  0.35882614346E+02  0.51100000000E-03 0. -1.
        -11    1    4    4    0    0  0.22052771018E+01  0.44153887391E+01 -0.49802279555E+01  0.70115316132E+01  0.51100000000E-03 0.  1.
         12    1    4    4    0    0 -0.84680399354E+01 -0.31703846533E+01 -0.70618294110E+01  0.11472945299E+02  0.00000000000E+00 0. -1.
</event>
<event>
 8    1  0.1271559E-006  0.9118800E+02  0.7816164E-02  0.1184000E+00
        -11   -1    0    0    0    0  0.00000000000E+00  0.00000000000E+00  0.45593999997E+02  0.45594000000E+02  0.51100000000E-03 0.  1.
         11   -1    0    0    0    0 -0.00000000000E+00 -0.00000000000E+00 -0.45593999997E+02  0.45594000000E+02  0.51100000000E-03 0. -1.
         23    2    1    2    0    0  0.00000000000E+00 -0.26645352591E-14  0.00000000000E+00  0.91188000000E+02  0.91188000000E+02 0.  0.
    9900012    2    3    3    0    0  0.18297162337E+02  0.63414243534E+01  0.31317422598E+02  0.54367071568E+02  0.39999971253E+02 0.  0.
         12    1    3    3    0    0 -0.18297162337E+02 -0.63414243534E+01 -0.31317422598E+02  0.36820928432E+02  0.00000000000E+00 0. -1.
         11    1    4    4    0    0  0.11789815293E+02 -0.40159131645E+01  0.13983370222E+02  0.18725969834E+02  0.51100000000E-03 0. -1.
        -11    1    4    4    0    0  0.64763167204E+01 -0.89015955642E+01  0.23911561301E+01  0.11264932745E+02  0.51100000000E-03 0.  1.
         12    1    4    4    0    0  0.31030323532E-01  0.19258933082E+02  0.14942896246E+02  0.24376168989E+02  0.00000000000E+00 0. -1.
</event>
<event>
 8    1  0.1271559E-006  0.9118800E+02  0.7816164E-02  0.1184000E+00
        -11   -1    0    0    0    0  0.00000000000E+00  0.00000000000E+00  0.45593999997E+02  0.45594000000E+02  0.51100000000E-03 0.  1.
         11   -1    0    0    0    0 -0.00000000000E+00 -0.00000000000E+00 -0.45593999997E+02  0.45594000000E+02  0.51100000000E-03 0. -1.
         23    2    1    2    0    0 -0.35527136788E-14  0.00000000000E+00  0.00000000000E+00  0.91188000000E+02  0.91188000000E+02 0.  0.
    9900012    2    3    3    0    0  0.17758328282E+02  0.89691381713E+01 -0.30983414740E+02  0.54367141077E+02  0.40000129713E+02 0.  0.
        -12    1    3    3    0    0 -0.17758328282E+02 -0.89691381713E+01  0.30983414740E+02  0.36820858923E+02  0.00000000000E+00 0.  1.
         11    1    4    4    0    0  0.21075537002E+02  0.72387372633E+01 -0.33071032276E+02  0.39878198971E+02  0.51100000000E-03 0. -1.
        -11    1    4    4    0    0  0.43868892495E+01  0.77785654216E+00 -0.28500214207E+01  0.52889016296E+01  0.51100000000E-03 0.  1.
        -12    1    4    4    0    0 -0.77040979701E+01  0.95254436583E+00  0.49376389572E+01  0.92000404767E+01  0.00000000000E+00 0.  1.
</event>
<event>
 8    1  0.1271559E-006  0.9118800E+02  0.7816164E-02  0.1184000E+00
        -11   -1    0    0    0    0  0.00000000000E+00  0.00000000000E+00  0.45593999997E+02  0.45594000000E+02  0.51100000000E-03 0. -1.
         11   -1    0    0    0    0 -0.00000000000E+00 -0.00000000000E+00 -0.45593999997E+02  0.45594000000E+02  0.51100000000E-03 0.  1.
         23    2    1    2    0    0  0.00000000000E+00 -0.17763568394E-14  0.00000000000E+00  0.91188000000E+02  0.91188000000E+02 0.  0.
    9900012    2    3    3    0    0  0.33435776134E+02  0.10319595216E+02  0.11460123333E+02  0.54367087492E+02  0.40000007556E+02 0.  0.
         12    1    3    3    0    0 -0.33435776134E+02 -0.10319595216E+02 -0.11460123333E+02  0.36820912508E+02  0.00000000000E+00 0. -1.
         11    1    4    4    0    0  0.57712625781E+01  0.10608216610E+02  0.13690338347E+02  0.18255604502E+02  0.51100000000E-03 0. -1.
        -11    1    4    4    0    0  0.89977343337E+01  0.92733174751E+01  0.51042753821E+01  0.13892705553E+02  0.51100000000E-03 0.  1.
        -12    1    4    4    0    0  0.18666779222E+02 -0.95619388693E+01 -0.73344903964E+01  0.22218777438E+02  0.00000000000E+00 0.  1.
</event>
<event>
 8    1  0.1271559E-006  0.9118800E+02  0.7816164E-02  0.1184000E+00
        -11   -1    0    0    0    0  0.00000000000E+00  0.00000000000E+00  0.45593999997E+02  0.45594000000E+02  0.51100000000E-03 0. -1.
         11   -1    0    0    0    0 -0.00000000000E+00 -0.00000000000E+00 -0.45593999997E+02  0.45594000000E+02  0.51100000000E-03 0.  1.
         23    2    1    2    0    0  0.00000000000E+00  0.88817841970E-15  0.00000000000E+00  0.91188000000E+02  0.91188000000E+02 0.  0.
    9900012    2    3    3    0    0  0.14554466584E+02 -0.48409331277E+01  0.33474050166E+02  0.54367093362E+02  0.40000020938E+02 0.  0.
        -12    1    3    3    0    0 -0.14554466584E+02  0.48409331277E+01 -0.33474050166E+02  0.36820906638E+02  0.00000000000E+00 0.  1.
         11    1    4    4    0    0 -0.13522659445E+01 -0.34028373425E+01  0.71515267001E+01  0.80344420819E+01  0.51100000000E-03 0. -1.
        -11    1    4    4    0    0 -0.59846637094E+00  0.26158071541E+01  0.29002954536E+02  0.29126825799E+02  0.51100000000E-03 0.  1.
        -12    1    4    4    0    0  0.16505198900E+02 -0.40539029393E+01 -0.26804310704E+01  0.17205825481E+02  0.00000000000E+00 0.  1.
</event>
<event>
 8    1  0.1271559E-006  0.9118800E+02  0.7816164E-02  0.1184000E+00
        -11   -1    0    0    0    0  0.00000000000E+00  0.00000000000E+00  0.45593999997E+02  0.45594000000E+02  0.51100000000E-03 0.  1.
         11   -1    0    0    0    0 -0.00000000000E+00 -0.00000000000E+00 -0.45593999997E+02  0.45594000000E+02  0.51100000000E-03 0. -1.
         23    2    1    2    0    0  0.71054273576E-14 -0.44408920985E-15 -0.66613381478E-15  0.91188000000E+02  0.91188000000E+02 0.  0.
    9900012    2    3    3    0    0 -0.36633022464E+02  0.34281306258E+01  0.14317907305E+01  0.54367076069E+02  0.39999981514E+02 0.  0.
        -12    1    3    3    0    0  0.36633022464E+02 -0.34281306258E+01 -0.14317907305E+01  0.36820923931E+02  0.00000000000E+00 0.  1.
         11    1    4    4    0    0 -0.10289174119E+02  0.11435453282E+02 -0.50341675406E+01  0.16185781999E+02  0.51100000000E-03 0. -1.
        -11    1    4    4    0    0 -0.30547646153E+02 -0.27653787898E+01  0.69308327829E+01  0.31445865367E+02  0.51100000000E-03 0.  1.
        -12    1    4    4    0    0  0.42037978072E+01 -0.52419438669E+01 -0.46487451178E+00  0.67354287034E+01  0.00000000000E+00 0.  1.
</event>
<event>
 8    1  0.1271559E-006  0.9118800E+02  0.7816164E-02  0.1184000E+00
        -11   -1    0    0    0    0  0.00000000000E+00  0.00000000000E+00  0.45593999997E+02  0.45594000000E+02  0.51100000000E-03 0. -1.
         11   -1    0    0    0    0 -0.00000000000E+00 -0.00000000000E+00 -0.45593999997E+02  0.45594000000E+02  0.51100000000E-03 0.  1.
         23    2    1    2    0    0  0.00000000000E+00  0.35527136788E-14  0.17763568394E-14  0.91188000000E+02  0.91188000000E+02 0.  0.
    9900012    2    3    3    0    0  0.21370970466E+02  0.28310543334E+02  0.98771005140E+01  0.54367321610E+02  0.40000541271E+02 0.  0.
         12    1    3    3    0    0 -0.21370970466E+02 -0.28310543334E+02 -0.98771005140E+01  0.36820678390E+02  0.00000000000E+00 0. -1.
         11    1    4    4    0    0 -0.19806682043E+01  0.18061381146E+02  0.11947434806E+02  0.21745752094E+02  0.51100000000E-03 0. -1.
        -11    1    4    4    0    0  0.61277787625E+01  0.37126564778E+01  0.87088435631E+01  0.11277297866E+02  0.51100000000E-03 0.  1.
        -12    1    4    4    0    0  0.17223859908E+02  0.65365057108E+01 -0.10779177856E+02  0.21344271650E+02  0.00000000000E+00 0.  1.
</event>
<event>
 8    1  0.1271559E-006  0.9118800E+02  0.7816164E-02  0.1184000E+00
        -11   -1    0    0    0    0  0.00000000000E+00  0.00000000000E+00  0.45593999997E+02  0.45594000000E+02  0.51100000000E-03 0. -1.
         11   -1    0    0    0    0 -0.00000000000E+00 -0.00000000000E+00 -0.45593999997E+02  0.45594000000E+02  0.51100000000E-03 0.  1.
         23    2    1    2    0    0 -0.17763568394E-14 -0.17763568394E-14 -0.71054273576E-14  0.91188000000E+02  0.91188000000E+02 0.  0.
    9900012    2    3    3    0    0 -0.15871964865E+02 -0.81875303480E+01 -0.32199765098E+02  0.54367084826E+02  0.40000001478E+02 0.  0.
         12    1    3    3    0    0  0.15871964865E+02  0.81875303480E+01  0.32199765098E+02  0.36820915174E+02  0.00000000000E+00 0. -1.
         11    1    4    4    0    0 -0.20026528622E+01 -0.17662587944E-01 -0.86490137988E+01  0.88778584358E+01  0.51100000000E-03 0. -1.
        -11    1    4    4    0    0 -0.62101363642E+01 -0.76990365062E+01 -0.32341540621E+02  0.33820351962E+02  0.51100000000E-03 0.  1.
         12    1    4    4    0    0 -0.76591756385E+01 -0.47083125390E+00  0.87907893219E+01  0.11668874429E+02  0.00000000000E+00 0. -1.
</event>
<event>
 8    1  0.1271559E-006  0.9118800E+02  0.7816164E-02  0.1184000E+00
        -11   -1    0    0    0    0  0.00000000000E+00  0.00000000000E+00  0.45593999997E+02  0.45594000000E+02  0.51100000000E-03 0.  1.
         11   -1    0    0    0    0 -0.00000000000E+00 -0.00000000000E+00 -0.45593999997E+02  0.45594000000E+02  0.51100000000E-03 0. -1.
         23    2    1    2    0    0  0.00000000000E+00 -0.24424906542E-14  0.00000000000E+00  0.91188000000E+02  0.91188000000E+02 0.  0.
    9900012    2    3    3    0    0 -0.36188763968E+02 -0.16702539609E+01  0.65854781858E+01  0.54367015375E+02  0.39999843150E+02 0.  0.
         12    1    3    3    0    0  0.36188763968E+02  0.16702539609E+01 -0.65854781858E+01  0.36820984625E+02  0.00000000000E+00 0. -1.
         11    1    4    4    0    0 -0.15892098323E+01  0.10758289910E+02 -0.15645916087E+00  0.10876160600E+02  0.51100000000E-03 0. -1.
        -11    1    4    4    0    0 -0.26164697072E+02 -0.17648936702E+02  0.11435248667E+00  0.31560884277E+02  0.51100000000E-03 0.  1.
        -12    1    4    4    0    0 -0.84348570634E+01  0.52203928315E+01  0.66275848600E+01  0.11929970498E+02  0.00000000000E+00 0.  1.
</event>
<event>
 8    1  0.1271559E-006  0.9118800E+02  0.7816164E-02  0.1184000E+00
        -11   -1    0    0    0    0  0.00000000000E+00  0.00000000000E+00  0.45593999997E+02  0.45594000000E+02  0.51100000000E-03 0. -1.
         11   -1    0    0    0    0 -0.00000000000E+00 -0.00000000000E+00 -0.45593999997E+02  0.45594000000E+02  0.51100000000E-03 0.  1.
         23    2    1    2    0    0 -0.17763568394E-14  0.00000000000E+00 -0.88817841970E-15  0.91188000000E+02  0.91188000000E+02 0.  0.
    9900012    2    3    3    0    0  0.88316860597E+01  0.35255461667E+02 -0.59018544092E+01  0.54367107269E+02  0.40000052642E+02 0.  0.
         12    1    3    3    0    0 -0.88316860597E+01 -0.35255461667E+02  0.59018544092E+01  0.36820892731E+02  0.00000000000E+00 0. -1.
         11    1    4    4    0    0  0.11052187279E+02  0.17497109227E+02  0.51169841014E+01  0.21318611622E+02  0.51100000000E-03 0. -1.
        -11    1    4    4    0    0 -0.77078714924E+01  0.21656151916E+02 -0.12486698146E+02  0.26159469215E+02  0.51100000000E-03 0.  1.
        -12    1    4    4    0    0  0.54873702733E+01 -0.38977994760E+01  0.14678596355E+01  0.68890264320E+01  0.00000000000E+00 0.  1.
</event>
<event>
 8    1  0.1271559E-006  0.9118800E+02  0.7816164E-02  0.1184000E+00
        -11   -1    0    0    0    0  0.00000000000E+00  0.00000000000E+00  0.45593999997E+02  0.45594000000E+02  0.51100000000E-03 0.  1.
         11   -1    0    0    0    0 -0.00000000000E+00 -0.00000000000E+00 -0.45593999997E+02  0.45594000000E+02  0.51100000000E-03 0. -1.
         23    2    1    2    0    0  0.00000000000E+00  0.00000000000E+00  0.26645352591E-14  0.91188000000E+02  0.91188000000E+02 0.  0.
    9900012    2    3    3    0    0 -0.36368265196E+02  0.41709062670E+01  0.39664541637E+01  0.54367082968E+02  0.39999997242E+02 0.  0.
         12    1    3    3    0    0  0.36368265196E+02 -0.41709062670E+01 -0.39664541637E+01  0.36820917032E+02  0.00000000000E+00 0. -1.
         11    1    4    4    0    0 -0.22352769558E+02  0.10863777501E+02  0.17219233422E+02  0.30235243812E+02  0.51100000000E-03 0.  1.
        -11    1    4    4    0    0 -0.10293425680E+02 -0.13561942158E+01 -0.14164215716E+02  0.17561858731E+02  0.51100000000E-03 0. -1.
         12    1    4    4    0    0 -0.37220699587E+01 -0.53366770176E+01  0.91143645738E+00  0.65699804249E+01  0.00000000000E+00 0. -1.
</event>
<event>
 8    1  0.1271559E-006  0.9118800E+02  0.7816164E-02  0.1184000E+00
        -11   -1    0    0    0    0  0.00000000000E+00  0.00000000000E+00  0.45593999997E+02  0.45594000000E+02  0.51100000000E-03 0. -1.
         11   -1    0    0    0    0 -0.00000000000E+00 -0.00000000000E+00 -0.45593999997E+02  0.45594000000E+02  0.51100000000E-03 0.  1.
         23    2    1    2    0    0 -0.71054273576E-14  0.35527136788E-14 -0.35527136788E-14  0.91188000000E+02  0.91188000000E+02 0.  0.
    9900012    2    3    3    0    0 -0.30506023771E+02 -0.15648530339E+02  0.13427063550E+02  0.54367081711E+02  0.39999994376E+02 0.  0.
        -12    1    3    3    0    0  0.30506023771E+02  0.15648530339E+02 -0.13427063550E+02  0.36820918289E+02  0.00000000000E+00 0.  1.
         11    1    4    4    0    0  0.21120523833E+01  0.22325715539E+01  0.11443619657E+01  0.32794367783E+01  0.51100000000E-03 0. -1.
        -11    1    4    4    0    0  0.27293994530E+00  0.64589521615E+01 -0.33551810459E+01  0.72835293196E+01  0.51100000000E-03 0.  1.
        -12    1    4    4    0    0 -0.32891016100E+02 -0.24340054054E+02  0.15637882631E+02  0.43804115613E+02  0.00000000000E+00 0.  1.
</event>
<event>
 8    1  0.1271559E-006  0.9118800E+02  0.7816164E-02  0.1184000E+00
        -11   -1    0    0    0    0  0.00000000000E+00  0.00000000000E+00  0.45593999997E+02  0.45594000000E+02  0.51100000000E-03 0.  1.
         11   -1    0    0    0    0 -0.00000000000E+00 -0.00000000000E+00 -0.45593999997E+02  0.45594000000E+02  0.51100000000E-03 0. -1.
         23    2    1    2    0    0  0.00000000000E+00  0.00000000000E+00 -0.66613381478E-15  0.91188000000E+02  0.91188000000E+02 0.  0.
    9900012    2    3    3    0    0  0.32093694457E+02  0.17955688194E+02  0.18363161668E+01  0.54367027451E+02  0.39999870679E+02 0.  0.
        -12    1    3    3    0    0 -0.32093694457E+02 -0.17955688194E+02 -0.18363161668E+01  0.36820972549E+02  0.00000000000E+00 0.  1.
         11    1    4    4    0    0  0.93600022115E+00  0.80026569252E+01  0.14483393044E+02  0.16573692666E+02  0.51100000000E-03 0.  1.
        -11    1    4    4    0    0  0.85787945701E+01  0.32402258961E+01  0.28430418452E+01  0.96009201292E+01  0.51100000000E-03 0. -1.
         12    1    4    4    0    0  0.22578899666E+02  0.67128053727E+01 -0.15490118722E+02  0.28192414655E+02  0.00000000000E+00 0. -1.
</event>
<event>
 8    1  0.1271559E-006  0.9118800E+02  0.7816164E-02  0.1184000E+00
        -11   -1    0    0    0    0  0.00000000000E+00  0.00000000000E+00  0.45593999997E+02  0.45594000000E+02  0.51100000000E-03 0. -1.
         11   -1    0    0    0    0 -0.00000000000E+00 -0.00000000000E+00 -0.45593999997E+02  0.45594000000E+02  0.51100000000E-03 0.  1.
         23    2    1    2    0    0 -0.88817841970E-15  0.00000000000E+00 -0.10658141036E-13  0.91188000000E+02  0.91188000000E+02 0.  0.
    9900012    2    3    3    0    0 -0.60210043837E+01 -0.19514481023E+02 -0.30638392336E+02  0.54367101745E+02  0.40000040047E+02 0.  0.
         12    1    3    3    0    0  0.60210043837E+01  0.19514481023E+02  0.30638392336E+02  0.36820898255E+02  0.00000000000E+00 0. -1.
         11    1    4    4    0    0  0.26664499361E+01 -0.12973544135E+01  0.39655248084E+01  0.49516129699E+01  0.51100000000E-03 0. -1.
        -11    1    4    4    0    0 -0.10207844857E+02 -0.95167907395E+01 -0.26455994244E+00  0.13958488271E+02  0.51100000000E-03 0.  1.
        -12    1    4    4    0    0  0.15203905369E+01 -0.87003358702E+01 -0.34339357202E+02  0.35457000503E+02  0.00000000000E+00 0.  1.
</event>
<event>
 8    1  0.1271559E-006  0.9118800E+02  0.7816164E-02  0.1184000E+00
        -11   -1    0    0    0    0  0.00000000000E+00  0.00000000000E+00  0.45593999997E+02  0.45594000000E+02  0.51100000000E-03 0. -1.
         11   -1    0    0    0    0 -0.00000000000E+00 -0.00000000000E+00 -0.45593999997E+02  0.45594000000E+02  0.51100000000E-03 0.  1.
         23    2    1    2    0    0 -0.17763568394E-14  0.00000000000E+00  0.44408920985E-15  0.91188000000E+02  0.91188000000E+02 0.  0.
    9900012    2    3    3    0    0 -0.11885275590E+02 -0.34677998291E+02  0.34578938238E+01  0.54367076994E+02  0.39999983623E+02 0.  0.
        -12    1    3    3    0    0  0.11885275590E+02  0.34677998291E+02 -0.34578938238E+01  0.36820923006E+02  0.00000000000E+00 0.  1.
         11    1    4    4    0    0 -0.50426036285E+00 -0.15590767008E+02  0.35663351559E+01  0.16001407473E+02  0.51100000000E-03 0. -1.
        -11    1    4    4    0    0  0.90570868980E+01  0.11846827377E+01  0.24744249431E+01  0.94634600082E+01  0.51100000000E-03 0.  1.
        -12    1    4    4    0    0 -0.20438102125E+02 -0.20271914021E+02 -0.25828662752E+01  0.28902209513E+02  0.00000000000E+00 0.  1.
</event>
<event>
 8    1  0.1271559E-006  0.9118800E+02  0.7816164E-02  0.1184000E+00
        -11   -1    0    0    0    0  0.00000000000E+00  0.00000000000E+00  0.45593999997E+02  0.45594000000E+02  0.51100000000E-03 0.  1.
         11   -1    0    0    0    0 -0.00000000000E+00 -0.00000000000E+00 -0.45593999997E+02  0.45594000000E+02  0.51100000000E-03 0. -1.
         23    2    1    2    0    0  0.00000000000E+00  0.17763568394E-14  0.88817841970E-15  0.91188000000E+02  0.91188000000E+02 0.  0.
    9900012    2    3    3    0    0 -0.35617240783E+02 -0.65590324464E+01 -0.66460407476E+01  0.54367100972E+02  0.40000038286E+02 0.  0.
        -12    1    3    3    0    0  0.35617240783E+02  0.65590324464E+01  0.66460407476E+01  0.36820899028E+02  0.00000000000E+00 0.  1.
         11    1    4    4    0    0 -0.22415767431E+02  0.35671648972E+01 -0.55808499690E+01  0.23373856797E+02  0.51100000000E-03 0. -1.
        -11    1    4    4    0    0 -0.17604603035E+01  0.85399092142E+01  0.18294510372E+01  0.89093300099E+01  0.51100000000E-03 0.  1.
         12    1    4    4    0    0 -0.11441013048E+02 -0.18666106558E+02 -0.28946418157E+01  0.22083914165E+02  0.00000000000E+00 0. -1.
</event>
<event>
 8    1  0.1271559E-006  0.9118800E+02  0.7816164E-02  0.1184000E+00
        -11   -1    0    0    0    0  0.00000000000E+00  0.00000000000E+00  0.45593999997E+02  0.45594000000E+02  0.51100000000E-03 0.  1.
         11   -1    0    0    0    0 -0.00000000000E+00 -0.00000000000E+00 -0.45593999997E+02  0.45594000000E+02  0.51100000000E-03 0. -1.
         23    2    1    2    0    0  0.00000000000E+00  0.00000000000E+00  0.35527136788E-14  0.91188000000E+02  0.91188000000E+02 0.  0.
    9900012    2    3    3    0    0 -0.28251594926E+02 -0.10177506149E+02 -0.21308346962E+02  0.54367083424E+02  0.39999998282E+02 0.  0.
        -12    1    3    3    0    0  0.28251594926E+02  0.10177506149E+02  0.21308346962E+02  0.36820916576E+02  0.00000000000E+00 0.  1.
         11    1    4    4    0    0 -0.21520714079E+01 -0.14102411489E+02  0.30837312880E+01  0.14595164270E+02  0.51100000000E-03 0. -1.
        -11    1    4    4    0    0 -0.55941654850E+01 -0.61490913117E+01 -0.88391384945E+01  0.12134099926E+02  0.51100000000E-03 0.  1.
         12    1    4    4    0    0 -0.20505358033E+02  0.10073996653E+02 -0.15552939755E+02  0.27637819227E+02  0.00000000000E+00 0. -1.
</event>
<event>
 8    1  0.1271559E-006  0.9118800E+02  0.7816164E-02  0.1184000E+00
        -11   -1    0    0    0    0  0.00000000000E+00  0.00000000000E+00  0.45593999997E+02  0.45594000000E+02  0.51100000000E-03 0.  1.
         11   -1    0    0    0    0 -0.00000000000E+00 -0.00000000000E+00 -0.45593999997E+02  0.45594000000E+02  0.51100000000E-03 0. -1.
         23    2    1    2    0    0 -0.88817841970E-15  0.00000000000E+00  0.00000000000E+00  0.91188000000E+02  0.91188000000E+02 0.  0.
    9900012    2    3    3    0    0 -0.59608299214E+01  0.13377285868E+02  0.33783080849E+02  0.54367084446E+02  0.40000000612E+02 0.  0.
         12    1    3    3    0    0  0.59608299214E+01 -0.13377285868E+02 -0.33783080849E+02  0.36820915554E+02  0.00000000000E+00 0. -1.
         11    1    4    4    0    0  0.48097423161E+01 -0.29096216022E+01  0.12671786856E+02  0.13862672953E+02  0.51100000000E-03 0. -1.
        -11    1    4    4    0    0 -0.75654618835E+01  0.57073098940E+01  0.26545564100E+02  0.28186460817E+02  0.51100000000E-03 0.  1.
        -12    1    4    4    0    0 -0.32051103540E+01  0.10579597577E+02 -0.54342701070E+01  0.12317950676E+02  0.00000000000E+00 0.  1.
</event>
<event>
 8    1  0.1271559E-006  0.9118800E+02  0.7816164E-02  0.1184000E+00
        -11   -1    0    0    0    0  0.00000000000E+00  0.00000000000E+00  0.45593999997E+02  0.45594000000E+02  0.51100000000E-03 0.  1.
         11   -1    0    0    0    0 -0.00000000000E+00 -0.00000000000E+00 -0.45593999997E+02  0.45594000000E+02  0.51100000000E-03 0. -1.
         23    2    1    2    0    0  0.35527136788E-14  0.71054273576E-14 -0.17763568394E-14  0.91188000000E+02  0.91188000000E+02 0.  0.
    9900012    2    3    3    0    0  0.27648208380E+02  0.22404175972E+02 -0.94556098579E+01  0.54367094452E+02  0.40000023422E+02 0.  0.
        -12    1    3    3    0    0 -0.27648208380E+02 -0.22404175972E+02  0.94556098579E+01  0.36820905548E+02  0.00000000000E+00 0.  1.
         11    1    4    4    0    0  0.16430679448E+02 -0.62437464680E+01 -0.48354496552E+01  0.18230007425E+02  0.51100000000E-03 0. -1.
        -11    1    4    4    0    0 -0.72067460080E+00  0.11573431176E+02  0.56614842192E+01  0.12904111162E+02  0.51100000000E-03 0.  1.
        -12    1    4    4    0    0  0.11938203533E+02  0.17074491264E+02 -0.10281644422E+02  0.23232975865E+02  0.00000000000E+00 0.  1.
</event>
<event>
 8    1  0.1271559E-006  0.9118800E+02  0.7816164E-02  0.1184000E+00
        -11   -1    0    0    0    0  0.00000000000E+00  0.00000000000E+00  0.45593999997E+02  0.45594000000E+02  0.51100000000E-03 0. -1.
         11   -1    0    0    0    0 -0.00000000000E+00 -0.00000000000E+00 -0.45593999997E+02  0.45594000000E+02  0.51100000000E-03 0.  1.
         23    2    1    2    0    0  0.71054273576E-14  0.17763568394E-14  0.17763568394E-14  0.91188000000E+02  0.91188000000E+02 0.  0.
    9900012    2    3    3    0    0 -0.34956127230E+02 -0.80359636191E+01 -0.83229315972E+01  0.54367099243E+02  0.40000034344E+02 0.  0.
         12    1    3    3    0    0  0.34956127230E+02  0.80359636191E+01  0.83229315972E+01  0.36820900757E+02  0.00000000000E+00 0. -1.
         11    1    4    4    0    0 -0.43667903642E+01 -0.71647599637E+01 -0.59370628459E+01  0.10278684688E+02  0.51100000000E-03 0. -1.
        -11    1    4    4    0    0 -0.65295761392E+01  0.12566891336E+02 -0.75526182050E+01  0.16050051851E+02  0.51100000000E-03 0.  1.
         12    1    4    4    0    0 -0.24059760727E+02 -0.13438094991E+02  0.51667494538E+01  0.28038362704E+02  0.00000000000E+00 0. -1.
</event>
<event>
 8    1  0.1271559E-006  0.9118800E+02  0.7816164E-02  0.1184000E+00
        -11   -1    0    0    0    0  0.00000000000E+00  0.00000000000E+00  0.45593999997E+02  0.45594000000E+02  0.51100000000E-03 0. -1.
         11   -1    0    0    0    0 -0.00000000000E+00 -0.00000000000E+00 -0.45593999997E+02  0.45594000000E+02  0.51100000000E-03 0.  1.
         23    2    1    2    0    0 -0.35527136788E-14  0.00000000000E+00 -0.22204460493E-15  0.91188000000E+02  0.91188000000E+02 0.  0.
    9900012    2    3    3    0    0 -0.30339270000E+02  0.20825236635E+02  0.12720416054E+01  0.54367083731E+02  0.39999998981E+02 0.  0.
         12    1    3    3    0    0  0.30339270000E+02 -0.20825236635E+02 -0.12720416054E+01  0.36820916269E+02  0.00000000000E+00 0. -1.
         11    1    4    4    0    0 -0.41052654588E+01 -0.59281805080E+01  0.62516971174E+01  0.95435971065E+01  0.51100000000E-03 0. -1.
        -11    1    4    4    0    0 -0.72311939366E+01  0.40187068049E+01  0.88584856678E+01  0.12120764775E+02  0.51100000000E-03 0.  1.
        -12    1    4    4    0    0 -0.19002810605E+02  0.22734710338E+02 -0.13838141180E+02  0.32702721850E+02  0.00000000000E+00 0.  1.
</event>
<event>
 8    1  0.1271559E-006  0.9118800E+02  0.7816164E-02  0.1184000E+00
        -11   -1    0    0    0    0  0.00000000000E+00  0.00000000000E+00  0.45593999997E+02  0.45594000000E+02  0.51100000000E-03 0. -1.
         11   -1    0    0    0    0 -0.00000000000E+00 -0.00000000000E+00 -0.45593999997E+02  0.45594000000E+02  0.51100000000E-03 0.  1.
         23    2    1    2    0    0  0.17763568394E-14  0.17763568394E-14 -0.71054273576E-14  0.91188000000E+02  0.91188000000E+02 0.  0.
    9900012    2    3    3    0    0  0.32277677499E+01  0.11965067768E+02 -0.34672739303E+02  0.54367079559E+02  0.39999989471E+02 0.  0.
         12    1    3    3    0    0 -0.32277677499E+01 -0.11965067768E+02  0.34672739303E+02  0.36820920441E+02  0.00000000000E+00 0. -1.
         11    1    4    4    0    0 -0.40662010405E+01 -0.11198348137E+01  0.26095118595E+01  0.49595940678E+01  0.51100000000E-03 0. -1.
        -11    1    4    4    0    0  0.13675731174E+02  0.80313061921E+00 -0.55366608001E+01  0.14775833479E+02  0.51100000000E-03 0.  1.
        -12    1    4    4    0    0 -0.63817623835E+01  0.12281771962E+02 -0.31745590362E+02  0.34631652012E+02  0.00000000000E+00 0.  1.
</event>
<event>
 8    1  0.1271559E-006  0.9118800E+02  0.7816164E-02  0.1184000E+00
        -11   -1    0    0    0    0  0.00000000000E+00  0.00000000000E+00  0.45593999997E+02  0.45594000000E+02  0.51100000000E-03 0.  1.
         11   -1    0    0    0    0 -0.00000000000E+00 -0.00000000000E+00 -0.45593999997E+02  0.45594000000E+02  0.51100000000E-03 0. -1.
         23    2    1    2    0    0  0.00000000000E+00  0.17763568394E-14  0.00000000000E+00  0.91188000000E+02  0.91188000000E+02 0.  0.
    9900012    2    3    3    0    0  0.28436009528E+02 -0.68148736393E+01  0.22377012865E+02  0.54367084132E+02  0.39999999897E+02 0.  0.
         12    1    3    3    0    0 -0.28436009528E+02  0.68148736393E+01 -0.22377012865E+02  0.36820915868E+02  0.00000000000E+00 0. -1.
         11    1    4    4    0    0  0.14658762665E+02  0.41391686385E+01  0.26984059382E+02  0.30986311508E+02  0.51100000000E-03 0. -1.
        -11    1    4    4    0    0  0.32567841382E+01  0.36207932851E+01 -0.17777459292E+01  0.51843194139E+01  0.51100000000E-03 0.  1.
        -12    1    4    4    0    0  0.10520462725E+02 -0.14574835563E+02 -0.28293005878E+01  0.18196453211E+02  0.00000000000E+00 0.  1.
</event>
<event>
 8    1  0.1271559E-006  0.9118800E+02  0.7816164E-02  0.1184000E+00
        -11   -1    0    0    0    0  0.00000000000E+00  0.00000000000E+00  0.45593999997E+02  0.45594000000E+02  0.51100000000E-03 0.  1.
         11   -1    0    0    0    0 -0.00000000000E+00 -0.00000000000E+00 -0.45593999997E+02  0.45594000000E+02  0.51100000000E-03 0. -1.
         23    2    1    2    0    0  0.00000000000E+00 -0.71054273576E-14 -0.44408920985E-15  0.91188000000E+02  0.91188000000E+02 0.  0.
    9900012    2    3    3    0    0 -0.84829637289E+01 -0.35827998985E+02  0.41491605367E+00  0.54367104571E+02  0.40000046489E+02 0.  0.
         12    1    3    3    0    0  0.84829637289E+01  0.35827998985E+02 -0.41491605367E+00  0.36820895429E+02  0.00000000000E+00 0. -1.
         11    1    4    4    0    0 -0.89510060610E+01 -0.60095196838E+01 -0.61408674696E+01  0.12407461057E+02  0.51100000000E-03 0. -1.
        -11    1    4    4    0    0 -0.10978317427E+02 -0.27575590432E+02  0.60093542779E+01  0.30282816585E+02  0.51100000000E-03 0.  1.
         12    1    4    4    0    0  0.11446359759E+02 -0.22428888689E+01  0.54642924545E+00  0.11676826929E+02  0.00000000000E+00 0. -1.
</event>
<event>
 8    1  0.1271559E-006  0.9118800E+02  0.7816164E-02  0.1184000E+00
        -11   -1    0    0    0    0  0.00000000000E+00  0.00000000000E+00  0.45593999997E+02  0.45594000000E+02  0.51100000000E-03 0. -1.
         11   -1    0    0    0    0 -0.00000000000E+00 -0.00000000000E+00 -0.45593999997E+02  0.45594000000E+02  0.51100000000E-03 0.  1.
         23    2    1    2    0    0  0.00000000000E+00 -0.35527136788E-14 -0.17763568394E-14  0.91188000000E+02  0.91188000000E+02 0.  0.
    9900012    2    3    3    0    0  0.29546188007E+02 -0.18018440033E+02 -0.12575304283E+02  0.54367086313E+02  0.40000004867E+02 0.  0.
         12    1    3    3    0    0 -0.29546188007E+02  0.18018440033E+02  0.12575304283E+02  0.36820913687E+02  0.00000000000E+00 0. -1.
         11    1    4    4    0    0 -0.59151885862E+01 -0.24045981669E+01 -0.22024163025E+01  0.67544197520E+01  0.51100000000E-03 0. -1.
        -11    1    4    4    0    0  0.10004537647E+02  0.66897909745E+01 -0.61182952863E+01  0.13501022713E+02  0.51100000000E-03 0.  1.
         12    1    4    4    0    0  0.25456838946E+02 -0.22303632841E+02 -0.42545926942E+01  0.34111643848E+02  0.00000000000E+00 0. -1.
</event>
<event>
 8    1  0.1271559E-006  0.9118800E+02  0.7816164E-02  0.1184000E+00
        -11   -1    0    0    0    0  0.00000000000E+00  0.00000000000E+00  0.45593999997E+02  0.45594000000E+02  0.51100000000E-03 0.  1.
         11   -1    0    0    0    0 -0.00000000000E+00 -0.00000000000E+00 -0.45593999997E+02  0.45594000000E+02  0.51100000000E-03 0. -1.
         23    2    1    2    0    0  0.33306690739E-15  0.00000000000E+00  0.00000000000E+00  0.91188000000E+02  0.91188000000E+02 0.  0.
    9900012    2    3    3    0    0 -0.58087323604E+00 -0.20374126544E+02 -0.30664919407E+02  0.54367085720E+02  0.40000003515E+02 0.  0.
        -12    1    3    3    0    0  0.58087323604E+00  0.20374126544E+02  0.30664919407E+02  0.36820914280E+02  0.00000000000E+00 0.  1.
         11    1    4    4    0    0  0.38659346421E+01 -0.12121381165E+02 -0.11365354792E+02  0.17060029948E+02  0.51100000000E-03 0. -1.
        -11    1    4    4    0    0  0.94123886178E+01  0.50091290605E+01 -0.85609675347E+00  0.10696603917E+02  0.51100000000E-03 0.  1.
         12    1    4    4    0    0 -0.13859196496E+02 -0.13261874440E+02 -0.18443467862E+02  0.26610451856E+02  0.00000000000E+00 0. -1.
</event>
<event>
 8    1  0.1271559E-006  0.9118800E+02  0.7816164E-02  0.1184000E+00
        -11   -1    0    0    0    0  0.00000000000E+00  0.00000000000E+00  0.45593999997E+02  0.45594000000E+02  0.51100000000E-03 0. -1.
         11   -1    0    0    0    0 -0.00000000000E+00 -0.00000000000E+00 -0.45593999997E+02  0.45594000000E+02  0.51100000000E-03 0.  1.
         23    2    1    2    0    0 -0.44408920985E-15  0.00000000000E+00  0.00000000000E+00  0.91188000000E+02  0.91188000000E+02 0.  0.
    9900012    2    3    3    0    0  0.70611807484E+00 -0.33791164012E+02 -0.14609580796E+02  0.54367065478E+02  0.39999957370E+02 0.  0.
        -12    1    3    3    0    0 -0.70611807484E+00  0.33791164012E+02  0.14609580796E+02  0.36820934522E+02  0.00000000000E+00 0.  1.
         11    1    4    4    0    0  0.24761582691E+01 -0.13389581287E+02 -0.13791836023E+02  0.19381098729E+02  0.51100000000E-03 0. -1.
        -11    1    4    4    0    0 -0.11631325294E+02 -0.28218962645E+01 -0.70463464016E+01  0.13888910126E+02  0.51100000000E-03 0.  1.
         12    1    4    4    0    0  0.98612850999E+01 -0.17579686461E+02  0.62286016286E+01  0.21097056622E+02  0.00000000000E+00 0. -1.
</event>
<event>
 8    1  0.1271559E-006  0.9118800E+02  0.7816164E-02  0.1184000E+00
        -11   -1    0    0    0    0  0.00000000000E+00  0.00000000000E+00  0.45593999997E+02  0.45594000000E+02  0.51100000000E-03 0. -1.
         11   -1    0    0    0    0 -0.00000000000E+00 -0.00000000000E+00 -0.45593999997E+02  0.45594000000E+02  0.51100000000E-03 0.  1.
         23    2    1    2    0    0  0.00000000000E+00 -0.88817841970E-15  0.00000000000E+00  0.91188000000E+02  0.91188000000E+02 0.  0.
    9900012    2    3    3    0    0  0.35199605183E+01 -0.70873236881E+01  0.35960528965E+02  0.54367083083E+02  0.39999997505E+02 0.  0.
        -12    1    3    3    0    0 -0.35199605183E+01  0.70873236881E+01 -0.35960528965E+02  0.36820916917E+02  0.00000000000E+00 0.  1.
         11    1    4    4    0    0  0.68370815813E+01 -0.35450741493E+01 -0.49384045828E+01  0.91488291796E+01  0.51100000000E-03 0. -1.
        -11    1    4    4    0    0 -0.56840551915E+01  0.36409777633E+01  0.34949836970E+02  0.35595734393E+02  0.51100000000E-03 0.  1.
         12    1    4    4    0    0  0.23669341285E+01 -0.71832273020E+01  0.59490965783E+01  0.96225195110E+01  0.00000000000E+00 0. -1.
</event>
<event>
 8    1  0.1271559E-006  0.9118800E+02  0.7816164E-02  0.1184000E+00
        -11   -1    0    0    0    0  0.00000000000E+00  0.00000000000E+00  0.45593999997E+02  0.45594000000E+02  0.51100000000E-03 0. -1.
         11   -1    0    0    0    0 -0.00000000000E+00 -0.00000000000E+00 -0.45593999997E+02  0.45594000000E+02  0.51100000000E-03 0.  1.
         23    2    1    2    0    0 -0.35527136788E-14  0.00000000000E+00  0.00000000000E+00  0.91188000000E+02  0.91188000000E+02 0.  0.
    9900012    2    3    3    0    0  0.21085658604E+02 -0.13584735362E+02  0.26956066200E+02  0.54367088298E+02  0.40000009392E+02 0.  0.
        -12    1    3    3    0    0 -0.21085658604E+02  0.13584735362E+02 -0.26956066200E+02  0.36820911702E+02  0.00000000000E+00 0.  1.
         11    1    4    4    0    0  0.13545670101E+02 -0.11086765684E+02  0.57527944767E+01  0.18425422556E+02  0.51100000000E-03 0. -1.
        -11    1    4    4    0    0  0.16009604974E+02 -0.60163032337E+01  0.20566114989E+02  0.26748241849E+02  0.51100000000E-03 0.  1.
        -12    1    4    4    0    0 -0.84696164709E+01  0.35183335552E+01  0.63715673466E+00  0.91934238929E+01  0.00000000000E+00 0.  1.
</event>
<event>
 8    1  0.1271559E-006  0.9118800E+02  0.7816164E-02  0.1184000E+00
        -11   -1    0    0    0    0  0.00000000000E+00  0.00000000000E+00  0.45593999997E+02  0.45594000000E+02  0.51100000000E-03 0.  1.
         11   -1    0    0    0    0 -0.00000000000E+00 -0.00000000000E+00 -0.45593999997E+02  0.45594000000E+02  0.51100000000E-03 0. -1.
         23    2    1    2    0    0  0.00000000000E+00 -0.17763568394E-14  0.00000000000E+00  0.91188000000E+02  0.91188000000E+02 0.  0.
    9900012    2    3    3    0    0  0.76074867718E+00  0.14473594112E+02  0.33848427230E+02  0.54367086228E+02  0.40000004674E+02 0.  0.
         12    1    3    3    0    0 -0.76074867718E+00 -0.14473594112E+02 -0.33848427230E+02  0.36820913772E+02  0.00000000000E+00 0. -1.
         11    1    4    4    0    0  0.14823725911E+02  0.14995575902E+02  0.30020167556E+02  0.36685427718E+02  0.51100000000E-03 0. -1.
        -11    1    4    4    0    0 -0.86267471581E+01  0.45795737971E+01  0.27675397286E+01  0.10151479651E+02  0.51100000000E-03 0.  1.
        -12    1    4    4    0    0 -0.54362300755E+01 -0.51015555877E+01  0.10607199455E+01  0.75301788592E+01  0.00000000000E+00 0.  1.
</event>
<event>
 8    1  0.1271559E-006  0.9118800E+02  0.7816164E-02  0.1184000E+00
        -11   -1    0    0    0    0  0.00000000000E+00  0.00000000000E+00  0.45593999997E+02  0.45594000000E+02  0.51100000000E-03 0. -1.
         11   -1    0    0    0    0 -0.00000000000E+00 -0.00000000000E+00 -0.45593999997E+02  0.45594000000E+02  0.51100000000E-03 0.  1.
         23    2    1    2    0    0 -0.17763568394E-14  0.00000000000E+00 -0.35527136788E-14  0.91188000000E+02  0.91188000000E+02 0.  0.
    9900012    2    3    3    0    0 -0.79248609084E+01 -0.34657270480E+02  0.95838508683E+01  0.54367081828E+02  0.39999994644E+02 0.  0.
         12    1    3    3    0    0  0.79248609084E+01  0.34657270480E+02 -0.95838508683E+01  0.36820918172E+02  0.00000000000E+00 0. -1.
         11    1    4    4    0    0 -0.47303326450E+01  0.20733382917E+01  0.49446314831E+01  0.71501160389E+01  0.51100000000E-03 0. -1.
        -11    1    4    4    0    0 -0.85191178325E+01 -0.96719276684E+01 -0.97029661005E+01  0.16132857926E+02  0.51100000000E-03 0.  1.
        -12    1    4    4    0    0  0.53245895691E+01 -0.27058681103E+02  0.14342185486E+02  0.31084107863E+02  0.00000000000E+00 0.  1.
</event>
<event>
 8    1  0.1271559E-006  0.9118800E+02  0.7816164E-02  0.1184000E+00
        -11   -1    0    0    0    0  0.00000000000E+00  0.00000000000E+00  0.45593999997E+02  0.45594000000E+02  0.51100000000E-03 0.  1.
         11   -1    0    0    0    0 -0.00000000000E+00 -0.00000000000E+00 -0.45593999997E+02  0.45594000000E+02  0.51100000000E-03 0. -1.
         23    2    1    2    0    0 -0.35527136788E-14 -0.35527136788E-14  0.00000000000E+00  0.91188000000E+02  0.91188000000E+02 0.  0.
    9900012    2    3    3    0    0 -0.21335333306E+02 -0.18548246023E+02  0.23591228743E+02  0.54367082692E+02  0.39999996612E+02 0.  0.
         12    1    3    3    0    0  0.21335333306E+02  0.18548246023E+02 -0.23591228743E+02  0.36820917308E+02  0.00000000000E+00 0. -1.
         11    1    4    4    0    0 -0.31408036936E+00  0.50594238297E+01  0.17811426505E+02  0.18518729178E+02  0.51100000000E-03 0. -1.
        -11    1    4    4    0    0 -0.80768380813E+01 -0.16735547890E+02  0.92942899806E+01  0.20777336285E+02  0.51100000000E-03 0.  1.
         12    1    4    4    0    0 -0.12944414855E+02 -0.68721219622E+01 -0.35144877425E+01  0.15071017229E+02  0.00000000000E+00 0. -1.
</event>
<event>
 8    1  0.1271559E-006  0.9118800E+02  0.7816164E-02  0.1184000E+00
        -11   -1    0    0    0    0  0.00000000000E+00  0.00000000000E+00  0.45593999997E+02  0.45594000000E+02  0.51100000000E-03 0.  1.
         11   -1    0    0    0    0 -0.00000000000E+00 -0.00000000000E+00 -0.45593999997E+02  0.45594000000E+02  0.51100000000E-03 0. -1.
         23    2    1    2    0    0  0.44408920985E-15  0.00000000000E+00  0.00000000000E+00  0.91188000000E+02  0.91188000000E+02 0.  0.
    9900012    2    3    3    0    0 -0.24760459578E+01  0.12096586305E+02 -0.34688924704E+02  0.54367086093E+02  0.40000004365E+02 0.  0.
        -12    1    3    3    0    0  0.24760459578E+01 -0.12096586305E+02  0.34688924704E+02  0.36820913907E+02  0.00000000000E+00 0.  1.
         11    1    4    4    0    0  0.91660557659E+01  0.40930191070E+01 -0.19889400368E+02  0.22279085057E+02  0.51100000000E-03 0. -1.
        -11    1    4    4    0    0  0.14305500094E+01 -0.71680424998E+01 -0.21347863071E+00  0.73125152988E+01  0.51100000000E-03 0.  1.
        -12    1    4    4    0    0 -0.13072651733E+02  0.15171609698E+02 -0.14586045705E+02  0.24775485737E+02  0.00000000000E+00 0.  1.
</event>
<event>
 8    1  0.1271559E-006  0.9118800E+02  0.7816164E-02  0.1184000E+00
        -11   -1    0    0    0    0  0.00000000000E+00  0.00000000000E+00  0.45593999997E+02  0.45594000000E+02  0.51100000000E-03 0. -1.
         11   -1    0    0    0    0 -0.00000000000E+00 -0.00000000000E+00 -0.45593999997E+02  0.45594000000E+02  0.51100000000E-03 0.  1.
         23    2    1    2    0    0  0.00000000000E+00  0.00000000000E+00  0.00000000000E+00  0.91188000000E+02  0.91188000000E+02 0.  0.
    9900012    2    3    3    0    0 -0.27235145679E+02 -0.20742753898E+02  0.13556028403E+02  0.54367069736E+02  0.39999967077E+02 0.  0.
         12    1    3    3    0    0  0.27235145679E+02  0.20742753898E+02 -0.13556028403E+02  0.36820930264E+02  0.00000000000E+00 0. -1.
         11    1    4    4    0    0 -0.35423431148E+02 -0.14638076809E+02  0.16217905953E+02  0.41618664571E+02  0.51100000000E-03 0. -1.
        -11    1    4    4    0    0  0.31794340275E+01 -0.66008173525E+01 -0.23942973059E+01  0.77079342438E+01  0.51100000000E-03 0.  1.
         12    1    4    4    0    0  0.50088514413E+01  0.49614026283E+00 -0.26758024329E+00  0.50404709213E+01  0.00000000000E+00 0. -1.
</event>
<event>
 8    1  0.1271559E-006  0.9118800E+02  0.7816164E-02  0.1184000E+00
        -11   -1    0    0    0    0  0.00000000000E+00  0.00000000000E+00  0.45593999997E+02  0.45594000000E+02  0.51100000000E-03 0. -1.
         11   -1    0    0    0    0 -0.00000000000E+00 -0.00000000000E+00 -0.45593999997E+02  0.45594000000E+02  0.51100000000E-03 0.  1.
         23    2    1    2    0    0 -0.35527136788E-14  0.00000000000E+00  0.00000000000E+00  0.91188000000E+02  0.91188000000E+02 0.  0.
    9900012    2    3    3    0    0  0.19782389224E+02  0.36572914542E+01 -0.30839282942E+02  0.54367080992E+02  0.39999992738E+02 0.  0.
         12    1    3    3    0    0 -0.19782389224E+02 -0.36572914542E+01  0.30839282942E+02  0.36820919008E+02  0.00000000000E+00 0. -1.
         11    1    4    4    0    0 -0.61137456149E+01 -0.49033407151E+01 -0.63416022041E+01  0.10081495642E+02  0.51100000000E-03 0. -1.
        -11    1    4    4    0    0 -0.37901434864E+01  0.59431470087E+01 -0.38671713065E+01  0.80399750118E+01  0.51100000000E-03 0.  1.
        -12    1    4    4    0    0  0.29686278325E+02  0.26174851606E+01 -0.20630509432E+02  0.36245610338E+02  0.00000000000E+00 0.  1.
</event>
<event>
 8    1  0.1271559E-006  0.9118800E+02  0.7816164E-02  0.1184000E+00
        -11   -1    0    0    0    0  0.00000000000E+00  0.00000000000E+00  0.45593999997E+02  0.45594000000E+02  0.51100000000E-03 0. -1.
         11   -1    0    0    0    0 -0.00000000000E+00 -0.00000000000E+00 -0.45593999997E+02  0.45594000000E+02  0.51100000000E-03 0.  1.
         23    2    1    2    0    0 -0.71054273576E-14  0.17763568394E-14  0.00000000000E+00  0.91188000000E+02  0.91188000000E+02 0.  0.
    9900012    2    3    3    0    0  0.29327374690E+02 -0.14227191365E+02  0.17125051880E+02  0.54367146096E+02  0.40000141156E+02 0.  0.
        -12    1    3    3    0    0 -0.29327374690E+02  0.14227191365E+02 -0.17125051880E+02  0.36820853904E+02  0.00000000000E+00 0.  1.
         11    1    4    4    0    0  0.97700831044E+01  0.56793907975E+01  0.17587074349E+01  0.11436916359E+02  0.51100000000E-03 0.  1.
        -11    1    4    4    0    0  0.24419648387E+02 -0.11217274497E+02  0.29795076177E+01  0.27037454399E+02  0.51100000000E-03 0. -1.
         12    1    4    4    0    0 -0.48623568018E+01 -0.86893076659E+01  0.12386836827E+02  0.15892775338E+02  0.00000000000E+00 0. -1.
</event>
<event>
 8    1  0.1271559E-006  0.9118800E+02  0.7816164E-02  0.1184000E+00
        -11   -1    0    0    0    0  0.00000000000E+00  0.00000000000E+00  0.45593999997E+02  0.45594000000E+02  0.51100000000E-03 0.  1.
         11   -1    0    0    0    0 -0.00000000000E+00 -0.00000000000E+00 -0.45593999997E+02  0.45594000000E+02  0.51100000000E-03 0. -1.
         23    2    1    2    0    0  0.88817841970E-15  0.35527136788E-14  0.00000000000E+00  0.91188000000E+02  0.91188000000E+02 0.  0.
    9900012    2    3    3    0    0  0.62198276280E+01  0.28293478952E+02  0.22728382312E+02  0.54366992824E+02  0.39999791741E+02 0.  0.
         12    1    3    3    0    0 -0.62198276280E+01 -0.28293478952E+02 -0.22728382312E+02  0.36821007176E+02  0.00000000000E+00 0. -1.
         11    1    4    4    0    0  0.49479878784E+01  0.21356208980E+02 -0.27618440319E+01  0.22095203750E+02  0.51100000000E-03 0. -1.
        -11    1    4    4    0    0  0.81543248540E+01  0.24539721666E+01  0.21530280269E+02  0.23153141513E+02  0.51100000000E-03 0.  1.
        -12    1    4    4    0    0 -0.68824851043E+01  0.44832978058E+01  0.39599460751E+01  0.91186475612E+01  0.00000000000E+00 0.  1.
</event>
<event>
 8    1  0.1271559E-006  0.9118800E+02  0.7816164E-02  0.1184000E+00
        -11   -1    0    0    0    0  0.00000000000E+00  0.00000000000E+00  0.45593999997E+02  0.45594000000E+02  0.51100000000E-03 0.  1.
         11   -1    0    0    0    0 -0.00000000000E+00 -0.00000000000E+00 -0.45593999997E+02  0.45594000000E+02  0.51100000000E-03 0. -1.
         23    2    1    2    0    0 -0.88817841970E-15  0.66613381478E-15  0.71054273576E-14  0.91188000000E+02  0.91188000000E+02 0.  0.
    9900012    2    3    3    0    0  0.55457731153E+01 -0.77463269528E+00  0.36392641054E+02  0.54367082329E+02  0.39999995785E+02 0.  0.
         12    1    3    3    0    0 -0.55457731153E+01  0.77463269528E+00 -0.36392641054E+02  0.36820917671E+02  0.00000000000E+00 0. -1.
         11    1    4    4    0    0 -0.59578644620E+01 -0.27508654708E+01  0.11864218463E+02  0.13558137401E+02  0.51100000000E-03 0. -1.
        -11    1    4    4    0    0 -0.20130691972E+01  0.14226460741E+02  0.11150560172E+02  0.18187347944E+02  0.51100000000E-03 0.  1.
         12    1    4    4    0    0  0.13516706774E+02 -0.12250227965E+02  0.13377862419E+02  0.22621596984E+02  0.00000000000E+00 0. -1.
</event>
<event>
 8    1  0.1271559E-006  0.9118800E+02  0.7816164E-02  0.1184000E+00
        -11   -1    0    0    0    0  0.00000000000E+00  0.00000000000E+00  0.45593999997E+02  0.45594000000E+02  0.51100000000E-03 0.  1.
         11   -1    0    0    0    0 -0.00000000000E+00 -0.00000000000E+00 -0.45593999997E+02  0.45594000000E+02  0.51100000000E-03 0. -1.
         23    2    1    2    0    0  0.88817841970E-15  0.00000000000E+00  0.00000000000E+00  0.91188000000E+02  0.91188000000E+02 0.  0.
    9900012    2    3    3    0    0  0.49149674980E+01  0.26918325558E+02  0.24637912488E+02  0.54367083551E+02  0.39999998571E+02 0.  0.
         12    1    3    3    0    0 -0.49149674980E+01 -0.26918325558E+02 -0.24637912488E+02  0.36820916449E+02  0.00000000000E+00 0. -1.
         11    1    4    4    0    0 -0.48813778076E+01  0.49349735516E+01  0.25512471769E+02  0.26439894653E+02  0.51100000000E-03 0.  1.
        -11    1    4    4    0    0 -0.15715832754E+00  0.16572740010E+02 -0.13484607628E+00  0.16574033725E+02  0.51100000000E-03 0. -1.
        -12    1    4    4    0    0  0.99535036331E+01  0.54106119966E+01 -0.73971320456E+00  0.11353155173E+02  0.00000000000E+00 0.  1.
</event>
<event>
 8    1  0.1271559E-006  0.9118800E+02  0.7816164E-02  0.1184000E+00
        -11   -1    0    0    0    0  0.00000000000E+00  0.00000000000E+00  0.45593999997E+02  0.45594000000E+02  0.51100000000E-03 0.  1.
         11   -1    0    0    0    0 -0.00000000000E+00 -0.00000000000E+00 -0.45593999997E+02  0.45594000000E+02  0.51100000000E-03 0. -1.
         23    2    1    2    0    0  0.17763568394E-14  0.00000000000E+00  0.71054273576E-14  0.91188000000E+02  0.91188000000E+02 0.  0.
    9900012    2    3    3    0    0 -0.10948092008E+02  0.88947982878E+01 -0.34011664782E+02  0.54367197504E+02  0.40000258349E+02 0.  0.
        -12    1    3    3    0    0  0.10948092008E+02 -0.88947982878E+01  0.34011664782E+02  0.36820802496E+02  0.00000000000E+00 0.  1.
         11    1    4    4    0    0  0.83194149518E+01  0.11387679021E+02 -0.13428183423E+02  0.19473263952E+02  0.51100000000E-03 0. -1.
        -11    1    4    4    0    0 -0.10980388062E+02  0.17489763908E+01  0.12205446970E+01  0.11185596543E+02  0.51100000000E-03 0.  1.
        -12    1    4    4    0    0 -0.82871188982E+01 -0.42418571243E+01 -0.21804026056E+02  0.23708337009E+02  0.00000000000E+00 0.  1.
</event>
<event>
 8    1  0.1271559E-006  0.9118800E+02  0.7816164E-02  0.1184000E+00
        -11   -1    0    0    0    0  0.00000000000E+00  0.00000000000E+00  0.45593999997E+02  0.45594000000E+02  0.51100000000E-03 0.  1.
         11   -1    0    0    0    0 -0.00000000000E+00 -0.00000000000E+00 -0.45593999997E+02  0.45594000000E+02  0.51100000000E-03 0. -1.
         23    2    1    2    0    0  0.00000000000E+00 -0.88817841970E-15  0.00000000000E+00  0.91188000000E+02  0.91188000000E+02 0.  0.
    9900012    2    3    3    0    0 -0.31104464664E+02  0.57221684150E+01  0.18856206559E+02  0.54366980742E+02  0.39999764196E+02 0.  0.
         12    1    3    3    0    0  0.31104464664E+02 -0.57221684150E+01 -0.18856206559E+02  0.36821019258E+02  0.00000000000E+00 0. -1.
         11    1    4    4    0    0  0.30943391521E+01 -0.10910954743E+01 -0.36652175686E+01  0.49192727316E+01  0.51100000000E-03 0. -1.
        -11    1    4    4    0    0 -0.33052694826E+02  0.20003713843E+01  0.27037231941E+02  0.42749199200E+02  0.51100000000E-03 0.  1.
        -12    1    4    4    0    0 -0.11461089901E+01  0.48128925050E+01 -0.45158078128E+01  0.66985088105E+01  0.00000000000E+00 0.  1.
</event>
<event>
 8    1  0.1271559E-006  0.9118800E+02  0.7816164E-02  0.1184000E+00
        -11   -1    0    0    0    0  0.00000000000E+00  0.00000000000E+00  0.45593999997E+02  0.45594000000E+02  0.51100000000E-03 0. -1.
         11   -1    0    0    0    0 -0.00000000000E+00 -0.00000000000E+00 -0.45593999997E+02  0.45594000000E+02  0.51100000000E-03 0.  1.
         23    2    1    2    0    0 -0.35527136788E-14 -0.35527136788E-14  0.00000000000E+00  0.91188000000E+02  0.91188000000E+02 0.  0.
    9900012    2    3    3    0    0 -0.21656433910E+02 -0.16752491864E+02  0.24619796267E+02  0.54367061914E+02  0.39999949244E+02 0.  0.
        -12    1    3    3    0    0  0.21656433910E+02  0.16752491864E+02 -0.24619796267E+02  0.36820938086E+02  0.00000000000E+00 0.  1.
         11    1    4    4    0    0 -0.97558819954E+01 -0.12635017686E+02  0.89082249388E+00  0.15987947661E+02  0.51100000000E-03 0. -1.
        -11    1    4    4    0    0  0.19775085927E+01 -0.99033437689E+01 -0.22015616889E+00  0.10101248786E+02  0.51100000000E-03 0.  1.
         12    1    4    4    0    0 -0.13878060508E+02  0.57858695912E+01  0.23949129942E+02  0.28277865466E+02  0.00000000000E+00 0. -1.
</event>
<event>
 8    1  0.1271559E-006  0.9118800E+02  0.7816164E-02  0.1184000E+00
        -11   -1    0    0    0    0  0.00000000000E+00  0.00000000000E+00  0.45593999997E+02  0.45594000000E+02  0.51100000000E-03 0. -1.
         11   -1    0    0    0    0 -0.00000000000E+00 -0.00000000000E+00 -0.45593999997E+02  0.45594000000E+02  0.51100000000E-03 0.  1.
         23    2    1    2    0    0  0.00000000000E+00  0.00000000000E+00  0.00000000000E+00  0.91188000000E+02  0.91188000000E+02 0.  0.
    9900012    2    3    3    0    0  0.18904326679E+02 -0.31574595904E+02 -0.12046217462E+01  0.54367084921E+02  0.40000001694E+02 0.  0.
        -12    1    3    3    0    0 -0.18904326679E+02  0.31574595904E+02  0.12046217462E+01  0.36820915079E+02  0.00000000000E+00 0.  1.
         11    1    4    4    0    0 -0.18348627154E+00 -0.33620861707E+02 -0.45582513654E+01  0.33928950247E+02  0.51100000000E-03 0. -1.
        -11    1    4    4    0    0  0.15551182376E+02  0.37376316943E+01  0.13920548317E+01  0.16054500331E+02  0.51100000000E-03 0.  1.
         12    1    4    4    0    0  0.35366305746E+01 -0.16913658921E+01  0.19615747874E+01  0.43836343425E+01  0.00000000000E+00 0. -1.
</event>
<event>
 8    1  0.1271559E-006  0.9118800E+02  0.7816164E-02  0.1184000E+00
        -11   -1    0    0    0    0  0.00000000000E+00  0.00000000000E+00  0.45593999997E+02  0.45594000000E+02  0.51100000000E-03 0. -1.
         11   -1    0    0    0    0 -0.00000000000E+00 -0.00000000000E+00 -0.45593999997E+02  0.45594000000E+02  0.51100000000E-03 0.  1.
         23    2    1    2    0    0  0.35527136788E-14 -0.35527136788E-14 -0.35527136788E-14  0.91188000000E+02  0.91188000000E+02 0.  0.
    9900012    2    3    3    0    0  0.18461838721E+02  0.23546724052E+02 -0.21459092536E+02  0.54367077212E+02  0.39999984119E+02 0.  0.
         12    1    3    3    0    0 -0.18461838721E+02 -0.23546724052E+02  0.21459092536E+02  0.36820922788E+02  0.00000000000E+00 0. -1.
         11    1    4    4    0    0 -0.79697110434E+01  0.88600344614E+01 -0.30257162650E+01  0.12295180517E+02  0.51100000000E-03 0. -1.
        -11    1    4    4    0    0 -0.32890950626E+01  0.17543711846E+01 -0.65753208855E+01  0.75584925477E+01  0.51100000000E-03 0.  1.
         12    1    4    4    0    0  0.29720644827E+02  0.12932318406E+02 -0.11858055385E+02  0.34513404147E+02  0.00000000000E+00 0. -1.
</event>
<event>
 8    1  0.1271559E-006  0.9118800E+02  0.7816164E-02  0.1184000E+00
        -11   -1    0    0    0    0  0.00000000000E+00  0.00000000000E+00  0.45593999997E+02  0.45594000000E+02  0.51100000000E-03 0.  1.
         11   -1    0    0    0    0 -0.00000000000E+00 -0.00000000000E+00 -0.45593999997E+02  0.45594000000E+02  0.51100000000E-03 0. -1.
         23    2    1    2    0    0 -0.88817841970E-15  0.55511151231E-16  0.00000000000E+00  0.91188000000E+02  0.91188000000E+02 0.  0.
    9900012    2    3    3    0    0 -0.73578549131E+01 -0.40025062428E+00  0.36076085497E+02  0.54367052507E+02  0.39999927800E+02 0.  0.
         12    1    3    3    0    0  0.73578549131E+01  0.40025062428E+00 -0.36076085497E+02  0.36820947493E+02  0.00000000000E+00 0. -1.
         11    1    4    4    0    0  0.87812193844E+00 -0.46542683805E+01  0.87771191368E+01  0.99735215896E+01  0.51100000000E-03 0. -1.
        -11    1    4    4    0    0 -0.11005379430E+02  0.11042007246E+01 -0.47744006617E+01  0.12047096645E+02  0.51100000000E-03 0.  1.
        -12    1    4    4    0    0  0.27694025784E+01  0.31498170316E+01  0.32073367022E+02  0.32346434272E+02  0.00000000000E+00 0.  1.
</event>
<event>
 8    1  0.1271559E-006  0.9118800E+02  0.7816164E-02  0.1184000E+00
        -11   -1    0    0    0    0  0.00000000000E+00  0.00000000000E+00  0.45593999997E+02  0.45594000000E+02  0.51100000000E-03 0.  1.
         11   -1    0    0    0    0 -0.00000000000E+00 -0.00000000000E+00 -0.45593999997E+02  0.45594000000E+02  0.51100000000E-03 0. -1.
         23    2    1    2    0    0  0.00000000000E+00  0.17763568394E-14  0.00000000000E+00  0.91188000000E+02  0.91188000000E+02 0.  0.
    9900012    2    3    3    0    0 -0.32601349347E+02  0.15617574225E+02 -0.70017063656E+01  0.54367075298E+02  0.39999979756E+02 0.  0.
         12    1    3    3    0    0  0.32601349347E+02 -0.15617574225E+02  0.70017063656E+01  0.36820924702E+02  0.00000000000E+00 0. -1.
         11    1    4    4    0    0 -0.27759955515E+00  0.11753383187E+02 -0.19566301894E+01  0.11918367330E+02  0.51100000000E-03 0. -1.
        -11    1    4    4    0    0 -0.16240156755E+01  0.10055034833E+02  0.19226858002E+01  0.10365224231E+02  0.51100000000E-03 0.  1.
         12    1    4    4    0    0 -0.30699734116E+02 -0.61908437956E+01 -0.69677619764E+01  0.32083483737E+02  0.00000000000E+00 0. -1.
</event>
<event>
 8    1  0.1271559E-006  0.9118800E+02  0.7816164E-02  0.1184000E+00
        -11   -1    0    0    0    0  0.00000000000E+00  0.00000000000E+00  0.45593999997E+02  0.45594000000E+02  0.51100000000E-03 0. -1.
         11   -1    0    0    0    0 -0.00000000000E+00 -0.00000000000E+00 -0.45593999997E+02  0.45594000000E+02  0.51100000000E-03 0.  1.
         23    2    1    2    0    0  0.17763568394E-14  0.00000000000E+00 -0.88817841970E-15  0.91188000000E+02  0.91188000000E+02 0.  0.
    9900012    2    3    3    0    0 -0.11341907775E+02  0.34434881509E+02  0.64325938904E+01  0.54367106466E+02  0.40000050810E+02 0.  0.
        -12    1    3    3    0    0  0.11341907775E+02 -0.34434881509E+02 -0.64325938904E+01  0.36820893534E+02  0.00000000000E+00 0.  1.
         11    1    4    4    0    0 -0.15050626130E+02 -0.16071028363E+01  0.21036413256E+01  0.15281669854E+02  0.51100000000E-03 0. -1.
        -11    1    4    4    0    0  0.23706128776E+01 -0.37623469480E+00  0.36057110805E+00  0.24272144006E+01  0.51100000000E-03 0.  1.
         12    1    4    4    0    0  0.13381054773E+01  0.36418219040E+02  0.39683814567E+01  0.36658222211E+02  0.00000000000E+00 0. -1.
</event>
<event>
 8    1  0.1271559E-006  0.9118800E+02  0.7816164E-02  0.1184000E+00
        -11   -1    0    0    0    0  0.00000000000E+00  0.00000000000E+00  0.45593999997E+02  0.45594000000E+02  0.51100000000E-03 0.  1.
         11   -1    0    0    0    0 -0.00000000000E+00 -0.00000000000E+00 -0.45593999997E+02  0.45594000000E+02  0.51100000000E-03 0. -1.
         23    2    1    2    0    0  0.00000000000E+00  0.00000000000E+00  0.00000000000E+00  0.91188000000E+02  0.91188000000E+02 0.  0.
    9900012    2    3    3    0    0  0.28869538695E+01 -0.36258059199E+02  0.57270241417E+01  0.54367079791E+02  0.39999989999E+02 0.  0.
        -12    1    3    3    0    0 -0.28869538695E+01  0.36258059199E+02 -0.57270241417E+01  0.36820920209E+02  0.00000000000E+00 0.  1.
         11    1    4    4    0    0 -0.84270668122E+01  0.21600654260E+00  0.71086517609E+01  0.11027014283E+02  0.51100000000E-03 0. -1.
        -11    1    4    4    0    0 -0.57278893262E+01 -0.61556340710E+01 -0.16018077399E+01  0.85595756464E+01  0.51100000000E-03 0.  1.
         12    1    4    4    0    0  0.17041910008E+02 -0.30318431671E+02  0.22018012076E+00  0.34780489861E+02  0.00000000000E+00 0. -1.
</event>
<event>
 8    1  0.1271559E-006  0.9118800E+02  0.7816164E-02  0.1184000E+00
        -11   -1    0    0    0    0  0.00000000000E+00  0.00000000000E+00  0.45593999997E+02  0.45594000000E+02  0.51100000000E-03 0.  1.
         11   -1    0    0    0    0 -0.00000000000E+00 -0.00000000000E+00 -0.45593999997E+02  0.45594000000E+02  0.51100000000E-03 0. -1.
         23    2    1    2    0    0  0.00000000000E+00  0.00000000000E+00  0.17763568394E-14  0.91188000000E+02  0.91188000000E+02 0.  0.
    9900012    2    3    3    0    0 -0.15049123254E+02 -0.31280078495E+02  0.12282535341E+02  0.54367080731E+02  0.39999992143E+02 0.  0.
         12    1    3    3    0    0  0.15049123254E+02  0.31280078495E+02 -0.12282535341E+02  0.36820919269E+02  0.00000000000E+00 0. -1.
         11    1    4    4    0    0 -0.36283440622E+01 -0.13390821365E+02  0.19477553719E+02  0.23913470610E+02  0.51100000000E-03 0. -1.
        -11    1    4    4    0    0 -0.88727237113E+00 -0.15513985853E+02  0.27416527206E+01  0.15779343117E+02  0.51100000000E-03 0.  1.
         12    1    4    4    0    0 -0.10533506821E+02 -0.23752712772E+01 -0.99366710989E+01  0.14674267004E+02  0.00000000000E+00 0. -1.
</event>
<event>
 8    1  0.1271559E-006  0.9118800E+02  0.7816164E-02  0.1184000E+00
        -11   -1    0    0    0    0  0.00000000000E+00  0.00000000000E+00  0.45593999997E+02  0.45594000000E+02  0.51100000000E-03 0. -1.
         11   -1    0    0    0    0 -0.00000000000E+00 -0.00000000000E+00 -0.45593999997E+02  0.45594000000E+02  0.51100000000E-03 0.  1.
         23    2    1    2    0    0  0.00000000000E+00  0.00000000000E+00  0.00000000000E+00  0.91188000000E+02  0.91188000000E+02 0.  0.
    9900012    2    3    3    0    0  0.29005604515E+02 -0.19480782141E+02  0.11616963012E+02  0.54367084806E+02  0.40000001432E+02 0.  0.
        -12    1    3    3    0    0 -0.29005604515E+02  0.19480782141E+02 -0.11616963012E+02  0.36820915194E+02  0.00000000000E+00 0.  1.
         11    1    4    4    0    0  0.22092668595E+02 -0.10575327705E+02  0.11555909109E+02  0.27082514604E+02  0.51100000000E-03 0. -1.
        -11    1    4    4    0    0  0.75304171949E+01  0.75665764946E+01  0.13020050865E+01  0.10754323804E+02  0.51100000000E-03 0.  1.
        -12    1    4    4    0    0 -0.61748127462E+00 -0.16472030931E+02 -0.12409511843E+01  0.16530246398E+02  0.00000000000E+00 0.  1.
</event>
<event>
 8    1  0.1271559E-006  0.9118800E+02  0.7816164E-02  0.1184000E+00
        -11   -1    0    0    0    0  0.00000000000E+00  0.00000000000E+00  0.45593999997E+02  0.45594000000E+02  0.51100000000E-03 0.  1.
         11   -1    0    0    0    0 -0.00000000000E+00 -0.00000000000E+00 -0.45593999997E+02  0.45594000000E+02  0.51100000000E-03 0. -1.
         23    2    1    2    0    0  0.35527136788E-14  0.00000000000E+00  0.35527136788E-14  0.91188000000E+02  0.91188000000E+02 0.  0.
    9900012    2    3    3    0    0 -0.27807377527E+02  0.89982034708E+01 -0.22395553799E+02  0.54367099133E+02  0.40000034094E+02 0.  0.
        -12    1    3    3    0    0  0.27807377527E+02 -0.89982034708E+01  0.22395553799E+02  0.36820900867E+02  0.00000000000E+00 0.  1.
         11    1    4    4    0    0 -0.16141909907E+01  0.40389772781E+01  0.17348520262E+01  0.46828049096E+01  0.51100000000E-03 0.  1.
        -11    1    4    4    0    0  0.84372382266E+01  0.82966967702E-01 -0.53135901395E+01  0.99713646429E+01  0.51100000000E-03 0. -1.
         12    1    4    4    0    0 -0.34630424763E+02  0.48762592250E+01 -0.18816815686E+02  0.39712929581E+02  0.00000000000E+00 0. -1.
</event>
<event>
 8    1  0.1271559E-006  0.9118800E+02  0.7816164E-02  0.1184000E+00
        -11   -1    0    0    0    0  0.00000000000E+00  0.00000000000E+00  0.45593999997E+02  0.45594000000E+02  0.51100000000E-03 0.  1.
         11   -1    0    0    0    0 -0.00000000000E+00 -0.00000000000E+00 -0.45593999997E+02  0.45594000000E+02  0.51100000000E-03 0. -1.
         23    2    1    2    0    0  0.00000000000E+00  0.00000000000E+00  0.00000000000E+00  0.91188000000E+02  0.91188000000E+02 0.  0.
    9900012    2    3    3    0    0 -0.97818142603E+01 -0.33550565185E+02  0.11595450340E+02  0.54367098557E+02  0.40000032780E+02 0.  0.
        -12    1    3    3    0    0  0.97818142603E+01  0.33550565185E+02 -0.11595450340E+02  0.36820901443E+02  0.00000000000E+00 0.  1.
         11    1    4    4    0    0  0.12635651899E+02 -0.25853272040E+02  0.10203934363E+02  0.30531486221E+02  0.51100000000E-03 0. -1.
        -11    1    4    4    0    0 -0.51701224886E+01 -0.85766988699E+00  0.34381470738E+00  0.52520446492E+01  0.51100000000E-03 0.  1.
         12    1    4    4    0    0 -0.17247343671E+02 -0.68396232581E+01  0.10477012693E+01  0.18583567687E+02  0.00000000000E+00 0. -1.
</event>
<event>
 8    1  0.1271559E-006  0.9118800E+02  0.7816164E-02  0.1184000E+00
        -11   -1    0    0    0    0  0.00000000000E+00  0.00000000000E+00  0.45593999997E+02  0.45594000000E+02  0.51100000000E-03 0.  1.
         11   -1    0    0    0    0 -0.00000000000E+00 -0.00000000000E+00 -0.45593999997E+02  0.45594000000E+02  0.51100000000E-03 0. -1.
         23    2    1    2    0    0  0.71054273576E-14 -0.35527136788E-14  0.13322676296E-14  0.91188000000E+02  0.91188000000E+02 0.  0.
    9900012    2    3    3    0    0 -0.25711302914E+02  0.26333777593E+02 -0.11140708611E+01  0.54367080759E+02  0.39999992206E+02 0.  0.
        -12    1    3    3    0    0  0.25711302914E+02 -0.26333777593E+02  0.11140708611E+01  0.36820919241E+02  0.00000000000E+00 0.  1.
         11    1    4    4    0    0 -0.45724636744E+01  0.38141572852E+00  0.99264969304E+01  0.10935640977E+02  0.51100000000E-03 0. -1.
        -11    1    4    4    0    0  0.28555434126E+01 -0.21280370221E+01 -0.47929253617E+01  0.59711643364E+01  0.51100000000E-03 0.  1.
         12    1    4    4    0    0 -0.23994382653E+02  0.28080398887E+02 -0.62476424299E+01  0.37460275445E+02  0.00000000000E+00 0. -1.
</event>
<event>
 8    1  0.1271559E-006  0.9118800E+02  0.7816164E-02  0.1184000E+00
        -11   -1    0    0    0    0  0.00000000000E+00  0.00000000000E+00  0.45593999997E+02  0.45594000000E+02  0.51100000000E-03 0. -1.
         11   -1    0    0    0    0 -0.00000000000E+00 -0.00000000000E+00 -0.45593999997E+02  0.45594000000E+02  0.51100000000E-03 0.  1.
         23    2    1    2    0    0  0.17763568394E-14 -0.35527136788E-14  0.35527136788E-14  0.91188000000E+02  0.91188000000E+02 0.  0.
    9900012    2    3    3    0    0 -0.13759834099E+02  0.30079916541E+02  0.16175374324E+02  0.54367120759E+02  0.40000083394E+02 0.  0.
         12    1    3    3    0    0  0.13759834099E+02 -0.30079916541E+02 -0.16175374324E+02  0.36820879241E+02  0.00000000000E+00 0. -1.
         11    1    4    4    0    0  0.43482394696E+01  0.16623182491E+01 -0.66141240785E+01  0.80880854368E+01  0.51100000000E-03 0. -1.
        -11    1    4    4    0    0 -0.99136835253E+01  0.76696939067E+00  0.11765803674E+02  0.15404658368E+02  0.51100000000E-03 0.  1.
         12    1    4    4    0    0 -0.81943900433E+01  0.27650628902E+02  0.11023694728E+02  0.30874376954E+02  0.00000000000E+00 0. -1.
</event>
<event>
 8    1  0.1271559E-006  0.9118800E+02  0.7816164E-02  0.1184000E+00
        -11   -1    0    0    0    0  0.00000000000E+00  0.00000000000E+00  0.45593999997E+02  0.45594000000E+02  0.51100000000E-03 0.  1.
         11   -1    0    0    0    0 -0.00000000000E+00 -0.00000000000E+00 -0.45593999997E+02  0.45594000000E+02  0.51100000000E-03 0. -1.
         23    2    1    2    0    0  0.00000000000E+00  0.17763568394E-14 -0.35527136788E-14  0.91188000000E+02  0.91188000000E+02 0.  0.
    9900012    2    3    3    0    0  0.13060793934E+02 -0.14242509361E+02 -0.31342406783E+02  0.54367083743E+02  0.39999999009E+02 0.  0.
        -12    1    3    3    0    0 -0.13060793934E+02  0.14242509361E+02  0.31342406783E+02  0.36820916257E+02  0.00000000000E+00 0.  1.
         11    1    4    4    0    0  0.11577429209E+02  0.21170775405E+01 -0.29239916886E+02  0.31519702159E+02  0.51100000000E-03 0. -1.
        -11    1    4    4    0    0  0.94988193950E+00 -0.17560819269E+02 -0.61195319379E+01  0.18620776582E+02  0.51100000000E-03 0.  1.
         12    1    4    4    0    0  0.53348278576E+00  0.12012323680E+01  0.40170420415E+01  0.42266050026E+01  0.00000000000E+00 0. -1.
</event>
<event>
 8    1  0.1271559E-006  0.9118800E+02  0.7816164E-02  0.1184000E+00
        -11   -1    0    0    0    0  0.00000000000E+00  0.00000000000E+00  0.45593999997E+02  0.45594000000E+02  0.51100000000E-03 0. -1.
         11   -1    0    0    0    0 -0.00000000000E+00 -0.00000000000E+00 -0.45593999997E+02  0.45594000000E+02  0.51100000000E-03 0.  1.
         23    2    1    2    0    0  0.71054273576E-14  0.00000000000E+00 -0.17763568394E-14  0.91188000000E+02  0.91188000000E+02 0.  0.
    9900012    2    3    3    0    0  0.34408570622E+02 -0.83936888806E+01 -0.10068576872E+02  0.54367082229E+02  0.39999995558E+02 0.  0.
         12    1    3    3    0    0 -0.34408570622E+02  0.83936888806E+01  0.10068576872E+02  0.36820917771E+02  0.00000000000E+00 0. -1.
         11    1    4    4    0    0 -0.27168160730E+01  0.40631775631E+01 -0.47233937788E+01  0.67971281093E+01  0.51100000000E-03 0. -1.
        -11    1    4    4    0    0  0.12958392229E+02 -0.63096532905E+01 -0.15025287163E+02  0.20820444482E+02  0.51100000000E-03 0.  1.
        -12    1    4    4    0    0  0.24166994466E+02 -0.61472131533E+01  0.96801040705E+01  0.26749509638E+02  0.00000000000E+00 0.  1.
</event>
<event>
 8    1  0.1271559E-006  0.9118800E+02  0.7816164E-02  0.1184000E+00
        -11   -1    0    0    0    0  0.00000000000E+00  0.00000000000E+00  0.45593999997E+02  0.45594000000E+02  0.51100000000E-03 0.  1.
         11   -1    0    0    0    0 -0.00000000000E+00 -0.00000000000E+00 -0.45593999997E+02  0.45594000000E+02  0.51100000000E-03 0. -1.
         23    2    1    2    0    0  0.00000000000E+00 -0.17763568394E-14  0.00000000000E+00  0.91188000000E+02  0.91188000000E+02 0.  0.
    9900012    2    3    3    0    0  0.33615639463E+01 -0.11386472316E+02 -0.34854334973E+02  0.54367129147E+02  0.40000102516E+02 0.  0.
        -12    1    3    3    0    0 -0.33615639463E+01  0.11386472316E+02  0.34854334973E+02  0.36820870853E+02  0.00000000000E+00 0.  1.
         11    1    4    4    0    0  0.70297809073E+01 -0.13562258712E+02 -0.26049312010E+02  0.30198002210E+02  0.51100000000E-03 0. -1.
        -11    1    4    4    0    0  0.38028444398E+01  0.68367237756E+01  0.38758566565E+01  0.87306748250E+01  0.51100000000E-03 0.  1.
        -12    1    4    4    0    0 -0.74710614008E+01 -0.46609373800E+01 -0.12680879619E+02  0.15438452112E+02  0.00000000000E+00 0.  1.
</event>
<event>
 8    1  0.1271559E-006  0.9118800E+02  0.7816164E-02  0.1184000E+00
        -11   -1    0    0    0    0  0.00000000000E+00  0.00000000000E+00  0.45593999997E+02  0.45594000000E+02  0.51100000000E-03 0.  1.
         11   -1    0    0    0    0 -0.00000000000E+00 -0.00000000000E+00 -0.45593999997E+02  0.45594000000E+02  0.51100000000E-03 0. -1.
         23    2    1    2    0    0  0.00000000000E+00 -0.14432899320E-14 -0.35527136788E-14  0.91188000000E+02  0.91188000000E+02 0.  0.
    9900012    2    3    3    0    0 -0.28033872226E+02  0.40191690309E+00  0.23868899349E+02  0.54367029272E+02  0.39999874832E+02 0.  0.
         12    1    3    3    0    0  0.28033872226E+02 -0.40191690309E+00 -0.23868899349E+02  0.36820970728E+02  0.00000000000E+00 0. -1.
         11    1    4    4    0    0 -0.17993500001E+02 -0.82028749951E+01  0.26968496232E+02  0.33441785086E+02  0.51100000000E-03 0. -1.
        -11    1    4    4    0    0 -0.12703132802E+02  0.11016119629E+02 -0.38635649585E+01  0.17252582680E+02  0.51100000000E-03 0.  1.
         12    1    4    4    0    0  0.26627605773E+01 -0.24113277310E+01  0.76396807570E+00  0.36726615062E+01  0.00000000000E+00 0. -1.
</event>
<event>
 8    1  0.1271559E-006  0.9118800E+02  0.7816164E-02  0.1184000E+00
        -11   -1    0    0    0    0  0.00000000000E+00  0.00000000000E+00  0.45593999997E+02  0.45594000000E+02  0.51100000000E-03 0. -1.
         11   -1    0    0    0    0 -0.00000000000E+00 -0.00000000000E+00 -0.45593999997E+02  0.45594000000E+02  0.51100000000E-03 0.  1.
         23    2    1    2    0    0  0.88817841970E-15 -0.17763568394E-14  0.00000000000E+00  0.91188000000E+02  0.91188000000E+02 0.  0.
    9900012    2    3    3    0    0 -0.66055980473E+01 -0.12996191656E+02 -0.33811953958E+02  0.54367039209E+02  0.39999897484E+02 0.  0.
        -12    1    3    3    0    0  0.66055980473E+01  0.12996191656E+02  0.33811953958E+02  0.36820960791E+02  0.00000000000E+00 0.  1.
         11    1    4    4    0    0 -0.50511774265E+01  0.19538066546E+01  0.88013200405E+00  0.54869286894E+01  0.51100000000E-03 0. -1.
        -11    1    4    4    0    0  0.69821810748E+01 -0.93844143451E+01  0.10211264774E+01  0.11741413233E+02  0.51100000000E-03 0.  1.
        -12    1    4    4    0    0 -0.85366016956E+01 -0.55655839655E+01 -0.35713212440E+02  0.37138697287E+02  0.00000000000E+00 0.  1.
</event>
<event>
 8    1  0.1271559E-006  0.9118800E+02  0.7816164E-02  0.1184000E+00
        -11   -1    0    0    0    0  0.00000000000E+00  0.00000000000E+00  0.45593999997E+02  0.45594000000E+02  0.51100000000E-03 0. -1.
         11   -1    0    0    0    0 -0.00000000000E+00 -0.00000000000E+00 -0.45593999997E+02  0.45594000000E+02  0.51100000000E-03 0.  1.
         23    2    1    2    0    0  0.00000000000E+00  0.00000000000E+00 -0.35527136788E-14  0.91188000000E+02  0.91188000000E+02 0.  0.
    9900012    2    3    3    0    0 -0.23722043364E+01  0.32417273159E+02 -0.17299517599E+02  0.54367078480E+02  0.39999987010E+02 0.  0.
         12    1    3    3    0    0  0.23722043364E+01 -0.32417273159E+02  0.17299517599E+02  0.36820921520E+02  0.00000000000E+00 0. -1.
         11    1    4    4    0    0  0.83971549447E+01  0.10905545925E+02  0.50997319200E+01  0.14678229083E+02  0.51100000000E-03 0. -1.
        -11    1    4    4    0    0 -0.45914096152E+01  0.14271383631E+02 -0.25583493538E+02  0.29652463218E+02  0.51100000000E-03 0.  1.
         12    1    4    4    0    0 -0.61779496660E+01  0.72403436028E+01  0.31842440196E+01  0.10036386179E+02  0.00000000000E+00 0. -1.
</event>
<event>
 8    1  0.1271559E-006  0.9118800E+02  0.7816164E-02  0.1184000E+00
        -11   -1    0    0    0    0  0.00000000000E+00  0.00000000000E+00  0.45593999997E+02  0.45594000000E+02  0.51100000000E-03 0.  1.
         11   -1    0    0    0    0 -0.00000000000E+00 -0.00000000000E+00 -0.45593999997E+02  0.45594000000E+02  0.51100000000E-03 0. -1.
         23    2    1    2    0    0 -0.35527136788E-14  0.35527136788E-14  0.17763568394E-14  0.91188000000E+02  0.91188000000E+02 0.  0.
    9900012    2    3    3    0    0  0.28498701975E+02  0.19661519720E+02  0.12531005434E+02  0.54367116399E+02  0.40000073455E+02 0.  0.
         12    1    3    3    0    0 -0.28498701975E+02 -0.19661519720E+02 -0.12531005434E+02  0.36820883601E+02  0.00000000000E+00 0. -1.
         11    1    4    4    0    0  0.16378147643E+02 -0.26703873529E+01 -0.95699046602E+01  0.19156141686E+02  0.51100000000E-03 0. -1.
        -11    1    4    4    0    0  0.30311843583E+01  0.14327063360E+02  0.15856474768E+02  0.21584267777E+02  0.51100000000E-03 0.  1.
         12    1    4    4    0    0  0.90893699740E+01  0.80048437126E+01  0.62444353265E+01  0.13626706937E+02  0.00000000000E+00 0. -1.
</event>
<event>
 8    1  0.1271559E-006  0.9118800E+02  0.7816164E-02  0.1184000E+00
        -11   -1    0    0    0    0  0.00000000000E+00  0.00000000000E+00  0.45593999997E+02  0.45594000000E+02  0.51100000000E-03 0. -1.
         11   -1    0    0    0    0 -0.00000000000E+00 -0.00000000000E+00 -0.45593999997E+02  0.45594000000E+02  0.51100000000E-03 0.  1.
         23    2    1    2    0    0  0.00000000000E+00  0.35527136788E-14  0.00000000000E+00  0.91188000000E+02  0.91188000000E+02 0.  0.
    9900012    2    3    3    0    0  0.18963608461E+02  0.15785971268E+02 -0.27330667817E+02  0.54367072010E+02  0.39999972262E+02 0.  0.
         12    1    3    3    0    0 -0.18963608461E+02 -0.15785971268E+02  0.27330667817E+02  0.36820927990E+02  0.00000000000E+00 0. -1.
         11    1    4    4    0    0  0.17091396222E+02 -0.12256512517E+01 -0.11507723458E+02  0.20640875593E+02  0.51100000000E-03 0. -1.
        -11    1    4    4    0    0  0.91134322350E+01  0.67806404339E+01 -0.17720893297E+02  0.21049033026E+02  0.51100000000E-03 0.  1.
        -12    1    4    4    0    0 -0.72412199966E+01  0.10230982086E+02  0.18979489388E+01  0.12677163391E+02  0.00000000000E+00 0.  1.
</event>
<event>
 8    1  0.1271559E-006  0.9118800E+02  0.7816164E-02  0.1184000E+00
        -11   -1    0    0    0    0  0.00000000000E+00  0.00000000000E+00  0.45593999997E+02  0.45594000000E+02  0.51100000000E-03 0.  1.
         11   -1    0    0    0    0 -0.00000000000E+00 -0.00000000000E+00 -0.45593999997E+02  0.45594000000E+02  0.51100000000E-03 0. -1.
         23    2    1    2    0    0  0.17763568394E-14 -0.35527136788E-14  0.35527136788E-14  0.91188000000E+02  0.91188000000E+02 0.  0.
    9900012    2    3    3    0    0 -0.10293041390E+02 -0.27362252411E+02 -0.22386167445E+02  0.54367081340E+02  0.39999993532E+02 0.  0.
         12    1    3    3    0    0  0.10293041390E+02  0.27362252411E+02  0.22386167445E+02  0.36820918660E+02  0.00000000000E+00 0. -1.
         11    1    4    4    0    0 -0.36063204393E+01  0.73023638677E+01  0.40083959441E+01  0.90772960441E+01  0.51100000000E-03 0. -1.
        -11    1    4    4    0    0 -0.39131184631E+00 -0.28192746575E+01  0.78439261469E+00  0.29524069148E+01  0.51100000000E-03 0.  1.
         12    1    4    4    0    0 -0.62954091045E+01 -0.31845341621E+02 -0.27178956004E+02  0.42337378382E+02  0.00000000000E+00 0. -1.
</event>
<event>
 8    1  0.1271559E-006  0.9118800E+02  0.7816164E-02  0.1184000E+00
        -11   -1    0    0    0    0  0.00000000000E+00  0.00000000000E+00  0.45593999997E+02  0.45594000000E+02  0.51100000000E-03 0. -1.
         11   -1    0    0    0    0 -0.00000000000E+00 -0.00000000000E+00 -0.45593999997E+02  0.45594000000E+02  0.51100000000E-03 0.  1.
         23    2    1    2    0    0 -0.35527136788E-14  0.35527136788E-14  0.00000000000E+00  0.91188000000E+02  0.91188000000E+02 0.  0.
    9900012    2    3    3    0    0 -0.27521623872E+02 -0.38158522761E+01 -0.24161498122E+02  0.54367102392E+02  0.40000041524E+02 0.  0.
         12    1    3    3    0    0  0.27521623872E+02  0.38158522761E+01  0.24161498122E+02  0.36820897608E+02  0.00000000000E+00 0. -1.
         11    1    4    4    0    0 -0.10904588674E+02  0.12793415673E+02 -0.55165204151E+01  0.17692188573E+02  0.51100000000E-03 0. -1.
        -11    1    4    4    0    0 -0.17243433463E+02 -0.17609924067E+02 -0.22050432962E+02  0.33070636784E+02  0.51100000000E-03 0.  1.
        -12    1    4    4    0    0  0.62639826507E+00  0.10006561176E+01  0.34054552556E+01  0.36042770357E+01  0.00000000000E+00 0.  1.
</event>
<event>
 8    1  0.1271559E-006  0.9118800E+02  0.7816164E-02  0.1184000E+00
        -11   -1    0    0    0    0  0.00000000000E+00  0.00000000000E+00  0.45593999997E+02  0.45594000000E+02  0.51100000000E-03 0. -1.
         11   -1    0    0    0    0 -0.00000000000E+00 -0.00000000000E+00 -0.45593999997E+02  0.45594000000E+02  0.51100000000E-03 0.  1.
         23    2    1    2    0    0  0.00000000000E+00 -0.88817841970E-15  0.00000000000E+00  0.91188000000E+02  0.91188000000E+02 0.  0.
    9900012    2    3    3    0    0 -0.97304748928E+01  0.75786080356E+01  0.34693805002E+02  0.54367115343E+02  0.40000071047E+02 0.  0.
        -12    1    3    3    0    0  0.97304748928E+01 -0.75786080356E+01 -0.34693805002E+02  0.36820884657E+02  0.00000000000E+00 0.  1.
         11    1    4    4    0    0  0.48537751938E+01 -0.67529393989E+01  0.54311150708E+01  0.99326902363E+01  0.51100000000E-03 0. -1.
        -11    1    4    4    0    0  0.39261413025E+01 -0.51592108493E+01  0.69064534752E+01  0.94726523202E+01  0.51100000000E-03 0.  1.
         12    1    4    4    0    0 -0.18510391389E+02  0.19490758284E+02  0.22356236456E+02  0.34961772786E+02  0.00000000000E+00 0. -1.
</event>
<event>
 8    1  0.1271559E-006  0.9118800E+02  0.7816164E-02  0.1184000E+00
        -11   -1    0    0    0    0  0.00000000000E+00  0.00000000000E+00  0.45593999997E+02  0.45594000000E+02  0.51100000000E-03 0.  1.
         11   -1    0    0    0    0 -0.00000000000E+00 -0.00000000000E+00 -0.45593999997E+02  0.45594000000E+02  0.51100000000E-03 0. -1.
         23    2    1    2    0    0  0.00000000000E+00  0.00000000000E+00  0.35527136788E-14  0.91188000000E+02  0.91188000000E+02 0.  0.
    9900012    2    3    3    0    0 -0.68546046380E+01 -0.22337643331E+02 -0.28457402329E+02  0.54367086626E+02  0.40000005582E+02 0.  0.
        -12    1    3    3    0    0  0.68546046380E+01  0.22337643331E+02  0.28457402329E+02  0.36820913374E+02  0.00000000000E+00 0.  1.
         11    1    4    4    0    0 -0.79087329315E+01 -0.29016986968E+02 -0.16447958957E+02  0.34279278630E+02  0.51100000000E-03 0. -1.
        -11    1    4    4    0    0  0.33628458215E+01 -0.21458527737E+01  0.10804441276E+01  0.41328895363E+01  0.51100000000E-03 0.  1.
         12    1    4    4    0    0 -0.23087175279E+01  0.88251964105E+01 -0.13089887500E+02  0.15954918460E+02  0.00000000000E+00 0. -1.
</event>
<event>
 8    1  0.1271559E-006  0.9118800E+02  0.7816164E-02  0.1184000E+00
        -11   -1    0    0    0    0  0.00000000000E+00  0.00000000000E+00  0.45593999997E+02  0.45594000000E+02  0.51100000000E-03 0. -1.
         11   -1    0    0    0    0 -0.00000000000E+00 -0.00000000000E+00 -0.45593999997E+02  0.45594000000E+02  0.51100000000E-03 0.  1.
         23    2    1    2    0    0  0.17763568394E-14  0.26645352591E-14  0.71054273576E-14  0.91188000000E+02  0.91188000000E+02 0.  0.
    9900012    2    3    3    0    0 -0.68546703130E+01 -0.54644957770E+01 -0.35762154583E+02  0.54367096703E+02  0.40000028554E+02 0.  0.
         12    1    3    3    0    0  0.68546703130E+01  0.54644957770E+01  0.35762154583E+02  0.36820903297E+02  0.00000000000E+00 0. -1.
         11    1    4    4    0    0 -0.11190923984E+02 -0.75149492800E+00 -0.11607667879E+02  0.16141235334E+02  0.51100000000E-03 0.  1.
        -11    1    4    4    0    0  0.43172734515E+01  0.10838625196E+02 -0.31385783890E+01  0.12081610851E+02  0.51100000000E-03 0. -1.
         12    1    4    4    0    0  0.18980219737E-01 -0.15551626045E+02 -0.21015908314E+02  0.26144250518E+02  0.00000000000E+00 0. -1.
</event>
<event>
 8    1  0.1271559E-006  0.9118800E+02  0.7816164E-02  0.1184000E+00
        -11   -1    0    0    0    0  0.00000000000E+00  0.00000000000E+00  0.45593999997E+02  0.45594000000E+02  0.51100000000E-03 0.  1.
         11   -1    0    0    0    0 -0.00000000000E+00 -0.00000000000E+00 -0.45593999997E+02  0.45594000000E+02  0.51100000000E-03 0. -1.
         23    2    1    2    0    0 -0.44408920985E-15  0.00000000000E+00  0.44408920985E-15  0.91188000000E+02  0.91188000000E+02 0.  0.
    9900012    2    3    3    0    0  0.27103570021E+01  0.36597666761E+02  0.30073649380E+01  0.54367088940E+02  0.40000010857E+02 0.  0.
         12    1    3    3    0    0 -0.27103570021E+01 -0.36597666761E+02 -0.30073649380E+01  0.36820911060E+02  0.00000000000E+00 0. -1.
         11    1    4    4    0    0  0.69602027842E+01  0.60436772190E+01 -0.68642617599E+01  0.11492978156E+02  0.51100000000E-03 0. -1.
        -11    1    4    4    0    0 -0.67356881561E+01 -0.32932428492E+01 -0.10945602034E+00  0.74984614609E+01  0.51100000000E-03 0.  1.
        -12    1    4    4    0    0  0.24858423740E+01  0.33847232391E+02  0.99810827182E+01  0.35375649323E+02  0.00000000000E+00 0.  1.
</event>
<event>
 8    1  0.1271559E-006  0.9118800E+02  0.7816164E-02  0.1184000E+00
        -11   -1    0    0    0    0  0.00000000000E+00  0.00000000000E+00  0.45593999997E+02  0.45594000000E+02  0.51100000000E-03 0. -1.
         11   -1    0    0    0    0 -0.00000000000E+00 -0.00000000000E+00 -0.45593999997E+02  0.45594000000E+02  0.51100000000E-03 0.  1.
         23    2    1    2    0    0  0.00000000000E+00 -0.13322676296E-14  0.00000000000E+00  0.91188000000E+02  0.91188000000E+02 0.  0.
    9900012    2    3    3    0    0  0.30538998858E+02  0.29250743207E+01 -0.20361580234E+02  0.54367075776E+02  0.39999980847E+02 0.  0.
         12    1    3    3    0    0 -0.30538998858E+02 -0.29250743207E+01  0.20361580234E+02  0.36820924224E+02  0.00000000000E+00 0. -1.
         11    1    4    4    0    0  0.62845152815E+01 -0.58231437421E+01  0.54636797729E+01  0.10161492621E+02  0.51100000000E-03 0. -1.
        -11    1    4    4    0    0  0.40346104587E+00 -0.24185046366E+01 -0.15858680868E+02  0.16047108918E+02  0.51100000000E-03 0.  1.
         12    1    4    4    0    0  0.23851022531E+02  0.11166722699E+02 -0.99665791396E+01  0.28158474237E+02  0.00000000000E+00 0. -1.
</event>
<event>
 8    1  0.1271559E-006  0.9118800E+02  0.7816164E-02  0.1184000E+00
        -11   -1    0    0    0    0  0.00000000000E+00  0.00000000000E+00  0.45593999997E+02  0.45594000000E+02  0.51100000000E-03 0. -1.
         11   -1    0    0    0    0 -0.00000000000E+00 -0.00000000000E+00 -0.45593999997E+02  0.45594000000E+02  0.51100000000E-03 0.  1.
         23    2    1    2    0    0  0.00000000000E+00  0.00000000000E+00  0.00000000000E+00  0.91188000000E+02  0.91188000000E+02 0.  0.
    9900012    2    3    3    0    0  0.18098234458E+02  0.28043070606E+02  0.15550450080E+02  0.54367130956E+02  0.40000106639E+02 0.  0.
        -12    1    3    3    0    0 -0.18098234458E+02 -0.28043070606E+02 -0.15550450080E+02  0.36820869044E+02  0.00000000000E+00 0.  1.
         11    1    4    4    0    0 -0.19026669104E+01 -0.16210679533E+00  0.25113847380E+01  0.31549126055E+01  0.51100000000E-03 0. -1.
        -11    1    4    4    0    0  0.25451783435E+02  0.99559917488E+01  0.16398968060E+02  0.31872263889E+02  0.51100000000E-03 0.  1.
        -12    1    4    4    0    0 -0.54508820666E+01  0.18249185652E+02 -0.33599027182E+01  0.19339954461E+02  0.00000000000E+00 0.  1.
</event>
<event>
 8    1  0.1271559E-006  0.9118800E+02  0.7816164E-02  0.1184000E+00
        -11   -1    0    0    0    0  0.00000000000E+00  0.00000000000E+00  0.45593999997E+02  0.45594000000E+02  0.51100000000E-03 0.  1.
         11   -1    0    0    0    0 -0.00000000000E+00 -0.00000000000E+00 -0.45593999997E+02  0.45594000000E+02  0.51100000000E-03 0. -1.
         23    2    1    2    0    0  0.00000000000E+00 -0.71054273576E-14 -0.33306690739E-15  0.91188000000E+02  0.91188000000E+02 0.  0.
    9900012    2    3    3    0    0 -0.17449708323E+02 -0.32415594923E+02  0.71956834129E+00  0.54367069901E+02  0.39999967452E+02 0.  0.
        -12    1    3    3    0    0  0.17449708323E+02  0.32415594923E+02 -0.71956834129E+00  0.36820930099E+02  0.00000000000E+00 0.  1.
         11    1    4    4    0    0 -0.26189028150E+02 -0.30323087574E+02  0.26077127325E+01  0.40151650046E+02  0.51100000000E-03 0. -1.
        -11    1    4    4    0    0  0.94425179270E+01 -0.52818837703E+01 -0.15945710260E+01  0.10936274411E+02  0.51100000000E-03 0.  1.
         12    1    4    4    0    0 -0.70319810027E+00  0.31893764210E+01 -0.29357336518E+00  0.32791454441E+01  0.00000000000E+00 0. -1.
</event>
<event>
 8    1  0.1271559E-006  0.9118800E+02  0.7816164E-02  0.1184000E+00
        -11   -1    0    0    0    0  0.00000000000E+00  0.00000000000E+00  0.45593999997E+02  0.45594000000E+02  0.51100000000E-03 0.  1.
         11   -1    0    0    0    0 -0.00000000000E+00 -0.00000000000E+00 -0.45593999997E+02  0.45594000000E+02  0.51100000000E-03 0. -1.
         23    2    1    2    0    0  0.00000000000E+00 -0.35527136788E-14  0.35527136788E-14  0.91188000000E+02  0.91188000000E+02 0.  0.
    9900012    2    3    3    0    0 -0.72407050250E+01 -0.19444264654E+02  0.30418284336E+02  0.54367092093E+02  0.40000018043E+02 0.  0.
        -12    1    3    3    0    0  0.72407050250E+01  0.19444264654E+02 -0.30418284336E+02  0.36820907907E+02  0.00000000000E+00 0.  1.
         11    1    4    4    0    0 -0.11442952038E+01  0.21587789904E+01  0.88874703248E+01  0.92172049602E+01  0.51100000000E-03 0. -1.
        -11    1    4    4    0    0 -0.18637625438E+02 -0.71385923242E+01  0.14838198357E+02  0.24869513728E+02  0.51100000000E-03 0.  1.
         12    1    4    4    0    0  0.12541215616E+02 -0.14464451320E+02  0.66926156538E+01  0.20280373404E+02  0.00000000000E+00 0. -1.
</event>
<event>
 8    1  0.1271559E-006  0.9118800E+02  0.7816164E-02  0.1184000E+00
        -11   -1    0    0    0    0  0.00000000000E+00  0.00000000000E+00  0.45593999997E+02  0.45594000000E+02  0.51100000000E-03 0.  1.
         11   -1    0    0    0    0 -0.00000000000E+00 -0.00000000000E+00 -0.45593999997E+02  0.45594000000E+02  0.51100000000E-03 0. -1.
         23    2    1    2    0    0  0.00000000000E+00 -0.35527136788E-14  0.00000000000E+00  0.91188000000E+02  0.91188000000E+02 0.  0.
    9900012    2    3    3    0    0 -0.14545927148E+02 -0.28206529673E+02 -0.18670496255E+02  0.54367085519E+02  0.40000003058E+02 0.  0.
        -12    1    3    3    0    0  0.14545927148E+02  0.28206529673E+02  0.18670496255E+02  0.36820914481E+02  0.00000000000E+00 0.  1.
         11    1    4    4    0    0 -0.67508850702E+01 -0.19452485666E+02  0.15439896987E+00  0.20591199264E+02  0.51100000000E-03 0. -1.
        -11    1    4    4    0    0 -0.11038109233E+02 -0.13096232151E+02 -0.34469893365E+01  0.17470915481E+02  0.51100000000E-03 0.  1.
         12    1    4    4    0    0  0.32430671548E+01  0.43421881441E+01 -0.15377905889E+02  0.16304970775E+02  0.00000000000E+00 0. -1.
</event>
<event>
 8    1  0.1271559E-006  0.9118800E+02  0.7816164E-02  0.1184000E+00
        -11   -1    0    0    0    0  0.00000000000E+00  0.00000000000E+00  0.45593999997E+02  0.45594000000E+02  0.51100000000E-03 0.  1.
         11   -1    0    0    0    0 -0.00000000000E+00 -0.00000000000E+00 -0.45593999997E+02  0.45594000000E+02  0.51100000000E-03 0. -1.
         23    2    1    2    0    0  0.17763568394E-14  0.00000000000E+00 -0.26645352591E-14  0.91188000000E+02  0.91188000000E+02 0.  0.
    9900012    2    3    3    0    0  0.88872613784E+01  0.35711282598E+02 -0.12249328582E+01  0.54367087734E+02  0.40000008107E+02 0.  0.
        -12    1    3    3    0    0 -0.88872613784E+01 -0.35711282598E+02  0.12249328582E+01  0.36820912266E+02  0.00000000000E+00 0.  1.
         11    1    4    4    0    0  0.36998541930E+00  0.35735078155E+01 -0.14898572174E+02  0.15325609300E+02  0.51100000000E-03 0. -1.
        -11    1    4    4    0    0 -0.17913153145E+01  0.62104008660E+01  0.84770760812E+01  0.10660145807E+02  0.51100000000E-03 0.  1.
        -12    1    4    4    0    0  0.10308591274E+02  0.25927373916E+02  0.51965632349E+01  0.28381332627E+02  0.00000000000E+00 0.  1.
</event>
<event>
 8    1  0.1271559E-006  0.9118800E+02  0.7816164E-02  0.1184000E+00
        -11   -1    0    0    0    0  0.00000000000E+00  0.00000000000E+00  0.45593999997E+02  0.45594000000E+02  0.51100000000E-03 0. -1.
         11   -1    0    0    0    0 -0.00000000000E+00 -0.00000000000E+00 -0.45593999997E+02  0.45594000000E+02  0.51100000000E-03 0.  1.
         23    2    1    2    0    0  0.88817841970E-15  0.35527136788E-14  0.00000000000E+00  0.91188000000E+02  0.91188000000E+02 0.  0.
    9900012    2    3    3    0    0  0.53870973386E+01  0.29710043902E+02  0.21073072644E+02  0.54367056000E+02  0.39999935764E+02 0.  0.
        -12    1    3    3    0    0 -0.53870973386E+01 -0.29710043902E+02 -0.21073072644E+02  0.36820944000E+02  0.00000000000E+00 0.  1.
         11    1    4    4    0    0  0.53750925346E+01 -0.61452889227E+01  0.33799073966E+01  0.88362871145E+01  0.51100000000E-03 0. -1.
        -11    1    4    4    0    0  0.93907705541E+01  0.83682267604E+01  0.27770258674E+01  0.12881213593E+02  0.51100000000E-03 0.  1.
        -12    1    4    4    0    0 -0.93787657500E+01  0.27487106064E+02  0.14916139380E+02  0.32649555292E+02  0.00000000000E+00 0.  1.
</event>
<event>
 8    1  0.1271559E-006  0.9118800E+02  0.7816164E-02  0.1184000E+00
        -11   -1    0    0    0    0  0.00000000000E+00  0.00000000000E+00  0.45593999997E+02  0.45594000000E+02  0.51100000000E-03 0. -1.
         11   -1    0    0    0    0 -0.00000000000E+00 -0.00000000000E+00 -0.45593999997E+02  0.45594000000E+02  0.51100000000E-03 0.  1.
         23    2    1    2    0    0  0.15543122345E-14  0.00000000000E+00 -0.71054273576E-14  0.91188000000E+02  0.91188000000E+02 0.  0.
    9900012    2    3    3    0    0 -0.55627053917E+00  0.13876265872E+02  0.34101613456E+02  0.54367078884E+02  0.39999987933E+02 0.  0.
        -12    1    3    3    0    0  0.55627053917E+00 -0.13876265872E+02 -0.34101613456E+02  0.36820921116E+02  0.00000000000E+00 0.  1.
         11    1    4    4    0    0  0.53498342551E+01  0.16873497765E+02  0.21322970408E+02  0.27712898092E+02  0.51100000000E-03 0. -1.
        -11    1    4    4    0    0 -0.81947770271E+01  0.83381125843E+01  0.49875565694E+01  0.12710397822E+02  0.51100000000E-03 0.  1.
         12    1    4    4    0    0  0.22886722329E+01 -0.11335344477E+02  0.77910864788E+01  0.13943782970E+02  0.00000000000E+00 0. -1.
</event>
<event>
 8    1  0.1271559E-006  0.9118800E+02  0.7816164E-02  0.1184000E+00
        -11   -1    0    0    0    0  0.00000000000E+00  0.00000000000E+00  0.45593999997E+02  0.45594000000E+02  0.51100000000E-03 0.  1.
         11   -1    0    0    0    0 -0.00000000000E+00 -0.00000000000E+00 -0.45593999997E+02  0.45594000000E+02  0.51100000000E-03 0. -1.
         23    2    1    2    0    0  0.00000000000E+00  0.88817841970E-15 -0.17763568394E-14  0.91188000000E+02  0.91188000000E+02 0.  0.
    9900012    2    3    3    0    0  0.32968181070E+02 -0.44202982089E+01 -0.15790554564E+02  0.54367060132E+02  0.39999945184E+02 0.  0.
         12    1    3    3    0    0 -0.32968181070E+02  0.44202982089E+01  0.15790554564E+02  0.36820939868E+02  0.00000000000E+00 0. -1.
         11    1    4    4    0    0  0.26423403962E+00  0.30347765921E+00 -0.18542753299E+02  0.18547118873E+02  0.51100000000E-03 0. -1.
        -11    1    4    4    0    0  0.30199116077E+01  0.35155477052E+01  0.18798790745E+01  0.50012885722E+01  0.51100000000E-03 0.  1.
         12    1    4    4    0    0  0.29684035422E+02 -0.82393235734E+01  0.87231966011E+00  0.30818652688E+02  0.00000000000E+00 0. -1.
</event>
<event>
 8    1  0.1271559E-006  0.9118800E+02  0.7816164E-02  0.1184000E+00
        -11   -1    0    0    0    0  0.00000000000E+00  0.00000000000E+00  0.45593999997E+02  0.45594000000E+02  0.51100000000E-03 0. -1.
         11   -1    0    0    0    0 -0.00000000000E+00 -0.00000000000E+00 -0.45593999997E+02  0.45594000000E+02  0.51100000000E-03 0.  1.
         23    2    1    2    0    0  0.00000000000E+00  0.00000000000E+00  0.00000000000E+00  0.91188000000E+02  0.91188000000E+02 0.  0.
    9900012    2    3    3    0    0  0.18329482084E+02 -0.30296689870E+02  0.10095893199E+02  0.54366995260E+02  0.39999797293E+02 0.  0.
        -12    1    3    3    0    0 -0.18329482084E+02  0.30296689870E+02 -0.10095893199E+02  0.36821004740E+02  0.00000000000E+00 0.  1.
         11    1    4    4    0    0  0.85114315142E+01  0.47992608424E+01 -0.24178411993E+01  0.10065948906E+02  0.51100000000E-03 0. -1.
        -11    1    4    4    0    0 -0.62637430377E+01 -0.17624337473E+02  0.44876286378E+01  0.19235138660E+02  0.51100000000E-03 0.  1.
         12    1    4    4    0    0  0.16081793608E+02 -0.17471613240E+02  0.80261057608E+01  0.25065907694E+02  0.00000000000E+00 0. -1.
</event>
<event>
 8    1  0.1271559E-006  0.9118800E+02  0.7816164E-02  0.1184000E+00
        -11   -1    0    0    0    0  0.00000000000E+00  0.00000000000E+00  0.45593999997E+02  0.45594000000E+02  0.51100000000E-03 0.  1.
         11   -1    0    0    0    0 -0.00000000000E+00 -0.00000000000E+00 -0.45593999997E+02  0.45594000000E+02  0.51100000000E-03 0. -1.
         23    2    1    2    0    0  0.44408920985E-15  0.00000000000E+00 -0.35527136788E-14  0.91188000000E+02  0.91188000000E+02 0.  0.
    9900012    2    3    3    0    0  0.22329931970E+01 -0.32776015041E+02 -0.16629083495E+02  0.54367084225E+02  0.40000000108E+02 0.  0.
        -12    1    3    3    0    0 -0.22329931970E+01  0.32776015041E+02  0.16629083495E+02  0.36820915775E+02  0.00000000000E+00 0.  1.
         11    1    4    4    0    0  0.41231320472E+01 -0.16839580232E+02 -0.21181218286E+02  0.27371804628E+02  0.51100000000E-03 0. -1.
        -11    1    4    4    0    0 -0.85558715666E+01 -0.17626547407E+02  0.45672761904E+01  0.20118601438E+02  0.51100000000E-03 0.  1.
         12    1    4    4    0    0  0.66657327164E+01  0.16901125980E+01 -0.15141399734E-01  0.68766781590E+01  0.00000000000E+00 0. -1.
</event>
<event>
 8    1  0.1271559E-006  0.9118800E+02  0.7816164E-02  0.1184000E+00
        -11   -1    0    0    0    0  0.00000000000E+00  0.00000000000E+00  0.45593999997E+02  0.45594000000E+02  0.51100000000E-03 0. -1.
         11   -1    0    0    0    0 -0.00000000000E+00 -0.00000000000E+00 -0.45593999997E+02  0.45594000000E+02  0.51100000000E-03 0.  1.
         23    2    1    2    0    0 -0.35527136788E-14 -0.17763568394E-14  0.35527136788E-14  0.91188000000E+02  0.91188000000E+02 0.  0.
    9900012    2    3    3    0    0  0.21315038858E+02  0.55023338450E+01  0.29515632773E+02  0.54367093747E+02  0.40000021816E+02 0.  0.
        -12    1    3    3    0    0 -0.21315038858E+02 -0.55023338450E+01 -0.29515632773E+02  0.36820906253E+02  0.00000000000E+00 0.  1.
         11    1    4    4    0    0 -0.29621515595E+01 -0.73253390906E+01  0.14026130799E+02  0.16098673241E+02  0.51100000000E-03 0. -1.
        -11    1    4    4    0    0  0.13035771805E+02  0.88950263355E+01 -0.32041588751E+01  0.16103399468E+02  0.51100000000E-03 0.  1.
        -12    1    4    4    0    0  0.11241418613E+02  0.39326466002E+01  0.18693660849E+02  0.22165021039E+02  0.00000000000E+00 0.  1.
</event>
<event>
 8    1  0.1271559E-006  0.9118800E+02  0.7816164E-02  0.1184000E+00
        -11   -1    0    0    0    0  0.00000000000E+00  0.00000000000E+00  0.45593999997E+02  0.45594000000E+02  0.51100000000E-03 0.  1.
         11   -1    0    0    0    0 -0.00000000000E+00 -0.00000000000E+00 -0.45593999997E+02  0.45594000000E+02  0.51100000000E-03 0. -1.
         23    2    1    2    0    0 -0.88817841970E-15  0.00000000000E+00 -0.88817841970E-15  0.91188000000E+02  0.91188000000E+02 0.  0.
    9900012    2    3    3    0    0  0.70896931162E+01 -0.35413674807E+02  0.71684828029E+01  0.54367092115E+02  0.40000018094E+02 0.  0.
         12    1    3    3    0    0 -0.70896931162E+01  0.35413674807E+02 -0.71684828029E+01  0.36820907885E+02  0.00000000000E+00 0. -1.
         11    1    4    4    0    0 -0.55365590833E+01 -0.15494151021E+02  0.54451791700E+01  0.17331248622E+02  0.51100000000E-03 0.  1.
        -11    1    4    4    0    0 -0.30889653378E+01 -0.27357574099E+01 -0.10106945314E+02  0.10916795286E+02  0.51100000000E-03 0. -1.
        -12    1    4    4    0    0  0.15715217537E+02 -0.17183766376E+02  0.11830248947E+02  0.26119048207E+02  0.00000000000E+00 0.  1.
</event>
<event>
 8    1  0.1271559E-006  0.9118800E+02  0.7816164E-02  0.1184000E+00
        -11   -1    0    0    0    0  0.00000000000E+00  0.00000000000E+00  0.45593999997E+02  0.45594000000E+02  0.51100000000E-03 0.  1.
         11   -1    0    0    0    0 -0.00000000000E+00 -0.00000000000E+00 -0.45593999997E+02  0.45594000000E+02  0.51100000000E-03 0. -1.
         23    2    1    2    0    0  0.00000000000E+00 -0.17763568394E-14  0.00000000000E+00  0.91188000000E+02  0.91188000000E+02 0.  0.
    9900012    2    3    3    0    0 -0.32624847243E+01  0.50025567456E+01  0.36333327111E+02  0.54367081495E+02  0.39999993884E+02 0.  0.
         12    1    3    3    0    0  0.32624847243E+01 -0.50025567456E+01 -0.36333327111E+02  0.36820918505E+02  0.00000000000E+00 0. -1.
         11    1    4    4    0    0 -0.72420623996E+00  0.18692573358E+02  0.15663070741E+02  0.24398126132E+02  0.51100000000E-03 0.  1.
        -11    1    4    4    0    0  0.57752582172E+00 -0.13710236350E+02  0.22500858673E+02  0.26355127739E+02  0.51100000000E-03 0. -1.
         12    1    4    4    0    0 -0.31158043060E+01  0.20219737874E-01 -0.18306023026E+01  0.36138276247E+01  0.00000000000E+00 0. -1.
</event>
<event>
 8    1  0.1271559E-006  0.9118800E+02  0.7816164E-02  0.1184000E+00
        -11   -1    0    0    0    0  0.00000000000E+00  0.00000000000E+00  0.45593999997E+02  0.45594000000E+02  0.51100000000E-03 0.  1.
         11   -1    0    0    0    0 -0.00000000000E+00 -0.00000000000E+00 -0.45593999997E+02  0.45594000000E+02  0.51100000000E-03 0. -1.
         23    2    1    2    0    0  0.00000000000E+00 -0.35527136788E-14  0.88817841970E-15  0.91188000000E+02  0.91188000000E+02 0.  0.
    9900012    2    3    3    0    0  0.23191129123E+02 -0.28462799981E+02  0.27965162087E+01  0.54367082634E+02  0.39999996480E+02 0.  0.
        -12    1    3    3    0    0 -0.23191129123E+02  0.28462799981E+02 -0.27965162087E+01  0.36820917366E+02  0.00000000000E+00 0.  1.
         11    1    4    4    0    0  0.19540929932E+02 -0.86074894076E+01  0.13086212712E+02  0.25043677444E+02  0.51100000000E-03 0.  1.
        -11    1    4    4    0    0  0.42558758664E+01 -0.21454358868E+02 -0.13487897312E+02  0.25696796843E+02  0.51100000000E-03 0. -1.
        -12    1    4    4    0    0 -0.60567667529E+00  0.15990482944E+01  0.31982008089E+01  0.36266083462E+01  0.00000000000E+00 0.  1.
</event>
<event>
 8    1  0.1271559E-006  0.9118800E+02  0.7816164E-02  0.1184000E+00
        -11   -1    0    0    0    0  0.00000000000E+00  0.00000000000E+00  0.45593999997E+02  0.45594000000E+02  0.51100000000E-03 0. -1.
         11   -1    0    0    0    0 -0.00000000000E+00 -0.00000000000E+00 -0.45593999997E+02  0.45594000000E+02  0.51100000000E-03 0.  1.
         23    2    1    2    0    0  0.00000000000E+00  0.00000000000E+00  0.00000000000E+00  0.91188000000E+02  0.91188000000E+02 0.  0.
    9900012    2    3    3    0    0 -0.22804023562E+02  0.15288503637E+02 -0.24536067873E+02  0.54367075775E+02  0.39999980845E+02 0.  0.
         12    1    3    3    0    0  0.22804023562E+02 -0.15288503637E+02  0.24536067873E+02  0.36820924225E+02  0.00000000000E+00 0. -1.
         11    1    4    4    0    0 -0.16025535119E+02 -0.96640062698E+01 -0.49137971720E+01  0.19348286641E+02  0.51100000000E-03 0. -1.
        -11    1    4    4    0    0 -0.85655229577E+01  0.14354166684E+02 -0.17233846878E+02  0.24008660171E+02  0.51100000000E-03 0.  1.
        -12    1    4    4    0    0  0.17870345138E+01  0.10598343223E+02 -0.23884238224E+01  0.11010128963E+02  0.00000000000E+00 0.  1.
</event>
<event>
 8    1  0.1271559E-006  0.9118800E+02  0.7816164E-02  0.1184000E+00
        -11   -1    0    0    0    0  0.00000000000E+00  0.00000000000E+00  0.45593999997E+02  0.45594000000E+02  0.51100000000E-03 0. -1.
         11   -1    0    0    0    0 -0.00000000000E+00 -0.00000000000E+00 -0.45593999997E+02  0.45594000000E+02  0.51100000000E-03 0.  1.
         23    2    1    2    0    0 -0.35527136788E-14  0.00000000000E+00  0.00000000000E+00  0.91188000000E+02  0.91188000000E+02 0.  0.
    9900012    2    3    3    0    0 -0.23968980365E+02 -0.16325948307E+02  0.22687670432E+02  0.54367095645E+02  0.40000026142E+02 0.  0.
        -12    1    3    3    0    0  0.23968980365E+02  0.16325948307E+02 -0.22687670432E+02  0.36820904355E+02  0.00000000000E+00 0.  1.
         11    1    4    4    0    0 -0.89182024569E+01 -0.87352411470E+01  0.20482295014E+02  0.23986729295E+02  0.51100000000E-03 0. -1.
        -11    1    4    4    0    0 -0.87487902792E+01 -0.11523623289E+02 -0.89242638612E+01  0.16999344422E+02  0.51100000000E-03 0.  1.
        -12    1    4    4    0    0 -0.63019876292E+01  0.39329161288E+01  0.11129639279E+02  0.13381021928E+02  0.00000000000E+00 0.  1.
</event>
<event>
 8    1  0.1271559E-006  0.9118800E+02  0.7816164E-02  0.1184000E+00
        -11   -1    0    0    0    0  0.00000000000E+00  0.00000000000E+00  0.45593999997E+02  0.45594000000E+02  0.51100000000E-03 0. -1.
         11   -1    0    0    0    0 -0.00000000000E+00 -0.00000000000E+00 -0.45593999997E+02  0.45594000000E+02  0.51100000000E-03 0.  1.
         23    2    1    2    0    0  0.00000000000E+00  0.00000000000E+00 -0.35527136788E-14  0.91188000000E+02  0.91188000000E+02 0.  0.
    9900012    2    3    3    0    0 -0.26061860138E+02 -0.18365329617E+02 -0.18419396189E+02  0.54367081465E+02  0.39999993816E+02 0.  0.
        -12    1    3    3    0    0  0.26061860138E+02  0.18365329617E+02  0.18419396189E+02  0.36820918535E+02  0.00000000000E+00 0.  1.
         11    1    4    4    0    0 -0.21131823839E+02 -0.64084266426E+01  0.50999280996E+01  0.22663432610E+02  0.51100000000E-03 0. -1.
        -11    1    4    4    0    0 -0.10933828439E+02 -0.57080348903E+01 -0.16196870738E+02  0.20358508997E+02  0.51100000000E-03 0.  1.
         12    1    4    4    0    0  0.60037921392E+01 -0.62488680838E+01 -0.73224535507E+01  0.11345139857E+02  0.00000000000E+00 0. -1.
</event>
<event>
 8    1  0.1271559E-006  0.9118800E+02  0.7816164E-02  0.1184000E+00
        -11   -1    0    0    0    0  0.00000000000E+00  0.00000000000E+00  0.45593999997E+02  0.45594000000E+02  0.51100000000E-03 0.  1.
         11   -1    0    0    0    0 -0.00000000000E+00 -0.00000000000E+00 -0.45593999997E+02  0.45594000000E+02  0.51100000000E-03 0. -1.
         23    2    1    2    0    0 -0.17763568394E-14  0.00000000000E+00  0.00000000000E+00  0.91188000000E+02  0.91188000000E+02 0.  0.
    9900012    2    3    3    0    0 -0.14245871161E+02  0.25027036763E+02 -0.22945246462E+02  0.54367058276E+02  0.39999940952E+02 0.  0.
        -12    1    3    3    0    0  0.14245871161E+02 -0.25027036763E+02  0.22945246462E+02  0.36820941724E+02  0.00000000000E+00 0.  1.
         11    1    4    4    0    0 -0.11106611790E+02  0.27179474308E+01  0.40707804856E+01  0.12137352170E+02  0.51100000000E-03 0. -1.
        -11    1    4    4    0    0  0.62744594950E+01  0.16258617262E+01  0.54928371487E+00  0.65049197664E+01  0.51100000000E-03 0.  1.
         12    1    4    4    0    0 -0.94137188665E+01  0.20683227606E+02 -0.27565310662E+02  0.35724786339E+02  0.00000000000E+00 0. -1.
</event>
<event>
 8    1  0.1271559E-006  0.9118800E+02  0.7816164E-02  0.1184000E+00
        -11   -1    0    0    0    0  0.00000000000E+00  0.00000000000E+00  0.45593999997E+02  0.45594000000E+02  0.51100000000E-03 0. -1.
         11   -1    0    0    0    0 -0.00000000000E+00 -0.00000000000E+00 -0.45593999997E+02  0.45594000000E+02  0.51100000000E-03 0.  1.
         23    2    1    2    0    0  0.00000000000E+00  0.17763568394E-14 -0.35527136788E-14  0.91188000000E+02  0.91188000000E+02 0.  0.
    9900012    2    3    3    0    0 -0.25376205362E+02  0.85824722988E+01  0.25262010458E+02  0.54367084725E+02  0.40000001247E+02 0.  0.
        -12    1    3    3    0    0  0.25376205362E+02 -0.85824722988E+01 -0.25262010458E+02  0.36820915275E+02  0.00000000000E+00 0.  1.
         11    1    4    4    0    0 -0.20977761472E+02  0.17432484684E+02  0.17964429992E+02  0.32660048130E+02  0.51100000000E-03 0. -1.
        -11    1    4    4    0    0 -0.52075857195E+01 -0.96897635511E+01  0.12340094164E+02  0.16531436445E+02  0.51100000000E-03 0.  1.
         12    1    4    4    0    0  0.80914182999E+00  0.83975116608E+00 -0.50425136976E+01  0.51756001500E+01  0.00000000000E+00 0. -1.
</event>
<event>
 8    1  0.1271559E-006  0.9118800E+02  0.7816164E-02  0.1184000E+00
        -11   -1    0    0    0    0  0.00000000000E+00  0.00000000000E+00  0.45593999997E+02  0.45594000000E+02  0.51100000000E-03 0. -1.
         11   -1    0    0    0    0 -0.00000000000E+00 -0.00000000000E+00 -0.45593999997E+02  0.45594000000E+02  0.51100000000E-03 0.  1.
         23    2    1    2    0    0  0.00000000000E+00 -0.35527136788E-14 -0.88817841970E-15  0.91188000000E+02  0.91188000000E+02 0.  0.
    9900012    2    3    3    0    0  0.16619284587E+02  0.31943620138E+02 -0.76931696438E+01  0.54367077322E+02  0.39999984371E+02 0.  0.
         12    1    3    3    0    0 -0.16619284587E+02 -0.31943620138E+02  0.76931696438E+01  0.36820922678E+02  0.00000000000E+00 0. -1.
         11    1    4    4    0    0  0.12440772658E+02  0.12487972771E+02  0.91167367913E+01  0.19845331397E+02  0.51100000000E-03 0. -1.
        -11    1    4    4    0    0  0.11529660298E+02  0.13378904957E+02 -0.17622513586E+02  0.24949572137E+02  0.51100000000E-03 0.  1.
        -12    1    4    4    0    0 -0.73511483693E+01  0.60767424091E+01  0.81260715103E+00  0.95721737884E+01  0.00000000000E+00 0.  1.
</event>
<event>
 8    1  0.1271559E-006  0.9118800E+02  0.7816164E-02  0.1184000E+00
        -11   -1    0    0    0    0  0.00000000000E+00  0.00000000000E+00  0.45593999997E+02  0.45594000000E+02  0.51100000000E-03 0. -1.
         11   -1    0    0    0    0 -0.00000000000E+00 -0.00000000000E+00 -0.45593999997E+02  0.45594000000E+02  0.51100000000E-03 0.  1.
         23    2    1    2    0    0  0.00000000000E+00  0.00000000000E+00  0.00000000000E+00  0.91188000000E+02  0.91188000000E+02 0.  0.
    9900012    2    3    3    0    0  0.22451299067E+02 -0.29163971536E+02  0.10874133078E+01  0.54367074791E+02  0.39999978601E+02 0.  0.
         12    1    3    3    0    0 -0.22451299067E+02  0.29163971536E+02 -0.10874133078E+01  0.36820925209E+02  0.00000000000E+00 0. -1.
         11    1    4    4    0    0  0.97825595263E+01 -0.16785257274E+02 -0.24693263488E+01  0.19584200406E+02  0.51100000000E-03 0. -1.
        -11    1    4    4    0    0 -0.14782865229E+00 -0.18701059993E+02 -0.32025541744E+01  0.18973872870E+02  0.51100000000E-03 0.  1.
         12    1    4    4    0    0  0.12816568193E+02  0.63223457321E+01  0.67592938311E+01  0.15809001515E+02  0.00000000000E+00 0. -1.
</event>
<event>
 8    1  0.1271559E-006  0.9118800E+02  0.7816164E-02  0.1184000E+00
        -11   -1    0    0    0    0  0.00000000000E+00  0.00000000000E+00  0.45593999997E+02  0.45594000000E+02  0.51100000000E-03 0.  1.
         11   -1    0    0    0    0 -0.00000000000E+00 -0.00000000000E+00 -0.45593999997E+02  0.45594000000E+02  0.51100000000E-03 0. -1.
         23    2    1    2    0    0  0.00000000000E+00 -0.17763568394E-14  0.35527136788E-14  0.91188000000E+02  0.91188000000E+02 0.  0.
    9900012    2    3    3    0    0  0.28446482277E+02  0.10118089559E+02 -0.21076088242E+02  0.54367087656E+02  0.40000007929E+02 0.  0.
        -12    1    3    3    0    0 -0.28446482277E+02 -0.10118089559E+02  0.21076088242E+02  0.36820912344E+02  0.00000000000E+00 0.  1.
         11    1    4    4    0    0 -0.35567529960E+01  0.44211112200E+01  0.13084118655E+01  0.58231141295E+01  0.51100000000E-03 0. -1.
        -11    1    4    4    0    0  0.16982656495E+02 -0.72807396997E+01  0.19620697254E+00  0.18478590034E+02  0.51100000000E-03 0.  1.
         12    1    4    4    0    0  0.15020578778E+02  0.12977718039E+02 -0.22580707080E+02  0.30065383492E+02  0.00000000000E+00 0. -1.
</event>
<event>
 8    1  0.1271559E-006  0.9118800E+02  0.7816164E-02  0.1184000E+00
        -11   -1    0    0    0    0  0.00000000000E+00  0.00000000000E+00  0.45593999997E+02  0.45594000000E+02  0.51100000000E-03 0.  1.
         11   -1    0    0    0    0 -0.00000000000E+00 -0.00000000000E+00 -0.45593999997E+02  0.45594000000E+02  0.51100000000E-03 0. -1.
         23    2    1    2    0    0  0.88817841970E-15  0.00000000000E+00  0.00000000000E+00  0.91188000000E+02  0.91188000000E+02 0.  0.
    9900012    2    3    3    0    0  0.61023377567E+01 -0.16428033212E+02  0.32383046329E+02  0.54367075367E+02  0.39999979914E+02 0.  0.
         12    1    3    3    0    0 -0.61023377567E+01  0.16428033212E+02 -0.32383046329E+02  0.36820924633E+02  0.00000000000E+00 0. -1.
         11    1    4    4    0    0  0.66683016058E+01 -0.30441007868E+01  0.45630012440E+01  0.86344528790E+01  0.51100000000E-03 0. -1.
        -11    1    4    4    0    0 -0.96726673573E+01 -0.19687054281E+02  0.26768279242E+02  0.34607533485E+02  0.51100000000E-03 0.  1.
         12    1    4    4    0    0  0.91067035083E+01  0.63031218565E+01  0.10517658425E+01  0.11125089002E+02  0.00000000000E+00 0. -1.
</event>
<event>
 8    1  0.1271559E-006  0.9118800E+02  0.7816164E-02  0.1184000E+00
        -11   -1    0    0    0    0  0.00000000000E+00  0.00000000000E+00  0.45593999997E+02  0.45594000000E+02  0.51100000000E-03 0.  1.
         11   -1    0    0    0    0 -0.00000000000E+00 -0.00000000000E+00 -0.45593999997E+02  0.45594000000E+02  0.51100000000E-03 0. -1.
         23    2    1    2    0    0  0.35527136788E-14  0.00000000000E+00  0.00000000000E+00  0.91188000000E+02  0.91188000000E+02 0.  0.
    9900012    2    3    3    0    0  0.24659799816E+02  0.34604943350E+01  0.27123767867E+02  0.54367088396E+02  0.40000009617E+02 0.  0.
         12    1    3    3    0    0 -0.24659799816E+02 -0.34604943350E+01 -0.27123767867E+02  0.36820911604E+02  0.00000000000E+00 0. -1.
         11    1    4    4    0    0  0.74669422914E+01 -0.20180797586E+01  0.23844133126E+02  0.25067320517E+02  0.51100000000E-03 0.  1.
        -11    1    4    4    0    0 -0.86210769581E+00  0.69458230639E+01 -0.57512331860E+01  0.90589387422E+01  0.51100000000E-03 0. -1.
        -12    1    4    4    0    0  0.18054965221E+02 -0.14672489702E+01  0.90308679269E+01  0.20240829137E+02  0.00000000000E+00 0.  1.
</event>
<event>
 8    1  0.1271559E-006  0.9118800E+02  0.7816164E-02  0.1184000E+00
        -11   -1    0    0    0    0  0.00000000000E+00  0.00000000000E+00  0.45593999997E+02  0.45594000000E+02  0.51100000000E-03 0.  1.
         11   -1    0    0    0    0 -0.00000000000E+00 -0.00000000000E+00 -0.45593999997E+02  0.45594000000E+02  0.51100000000E-03 0. -1.
         23    2    1    2    0    0  0.35527136788E-14  0.00000000000E+00  0.00000000000E+00  0.91188000000E+02  0.91188000000E+02 0.  0.
    9900012    2    3    3    0    0  0.19984581294E+02  0.23006389520E+02 -0.20666438283E+02  0.54367093988E+02  0.40000022364E+02 0.  0.
        -12    1    3    3    0    0 -0.19984581294E+02 -0.23006389520E+02  0.20666438283E+02  0.36820906012E+02  0.00000000000E+00 0.  1.
         11    1    4    4    0    0  0.46304333277E+01  0.27704476142E+02 -0.22843271158E+02  0.36204888462E+02  0.51100000000E-03 0. -1.
        -11    1    4    4    0    0  0.65002230561E+01 -0.17593255830E-01  0.44690147076E+01  0.78883015928E+01  0.51100000000E-03 0.  1.
         12    1    4    4    0    0  0.88539249103E+01 -0.46804933664E+01 -0.22921818333E+01  0.10273903933E+02  0.00000000000E+00 0. -1.
</event>
<event>
 8    1  0.1271559E-006  0.9118800E+02  0.7816164E-02  0.1184000E+00
        -11   -1    0    0    0    0  0.00000000000E+00  0.00000000000E+00  0.45593999997E+02  0.45594000000E+02  0.51100000000E-03 0.  1.
         11   -1    0    0    0    0 -0.00000000000E+00 -0.00000000000E+00 -0.45593999997E+02  0.45594000000E+02  0.51100000000E-03 0. -1.
         23    2    1    2    0    0  0.26645352591E-14  0.00000000000E+00  0.00000000000E+00  0.91188000000E+02  0.91188000000E+02 0.  0.
    9900012    2    3    3    0    0 -0.72869945870E+01  0.34127380166E+02 -0.11747423782E+02  0.54367077515E+02  0.39999984811E+02 0.  0.
        -12    1    3    3    0    0  0.72869945870E+01 -0.34127380166E+02  0.11747423782E+02  0.36820922485E+02  0.00000000000E+00 0.  1.
         11    1    4    4    0    0  0.12311525850E+02  0.10984287286E+02 -0.18166365194E+01  0.16599048299E+02  0.51100000000E-03 0. -1.
        -11    1    4    4    0    0 -0.19467722789E+02  0.10970399127E+02 -0.47056057420E+00  0.22350913071E+02  0.51100000000E-03 0.  1.
        -12    1    4    4    0    0 -0.13079764817E+00  0.12172693754E+02 -0.94602266881E+01  0.15417116145E+02  0.00000000000E+00 0.  1.
</event>
<event>
 8    1  0.1271559E-006  0.9118800E+02  0.7816164E-02  0.1184000E+00
        -11   -1    0    0    0    0  0.00000000000E+00  0.00000000000E+00  0.45593999997E+02  0.45594000000E+02  0.51100000000E-03 0. -1.
         11   -1    0    0    0    0 -0.00000000000E+00 -0.00000000000E+00 -0.45593999997E+02  0.45594000000E+02  0.51100000000E-03 0.  1.
         23    2    1    2    0    0  0.00000000000E+00 -0.35527136788E-14  0.35527136788E-14  0.91188000000E+02  0.91188000000E+02 0.  0.
    9900012    2    3    3    0    0 -0.18387093670E+02  0.13332843877E+02 -0.28981549129E+02  0.54367080275E+02  0.39999991103E+02 0.  0.
         12    1    3    3    0    0  0.18387093670E+02 -0.13332843877E+02  0.28981549129E+02  0.36820919725E+02  0.00000000000E+00 0. -1.
         11    1    4    4    0    0 -0.30000660386E+01  0.62833371777E+01  0.11229866735E+01  0.70527882185E+01  0.51100000000E-03 0. -1.
        -11    1    4    4    0    0  0.39468136557E+01 -0.74357915413E+01 -0.18888071734E+02  0.20679158299E+02  0.51100000000E-03 0.  1.
        -12    1    4    4    0    0 -0.19333841287E+02  0.14485298241E+02 -0.11216464068E+02  0.26635133757E+02  0.00000000000E+00 0.  1.
</event>
<event>
 8    1  0.1271559E-006  0.9118800E+02  0.7816164E-02  0.1184000E+00
        -11   -1    0    0    0    0  0.00000000000E+00  0.00000000000E+00  0.45593999997E+02  0.45594000000E+02  0.51100000000E-03 0.  1.
         11   -1    0    0    0    0 -0.00000000000E+00 -0.00000000000E+00 -0.45593999997E+02  0.45594000000E+02  0.51100000000E-03 0. -1.
         23    2    1    2    0    0  0.00000000000E+00 -0.17763568394E-14  0.00000000000E+00  0.91188000000E+02  0.91188000000E+02 0.  0.
    9900012    2    3    3    0    0 -0.31081425518E+02  0.15238010755E+02  0.12551006196E+02  0.54367085555E+02  0.40000003140E+02 0.  0.
         12    1    3    3    0    0  0.31081425518E+02 -0.15238010755E+02 -0.12551006196E+02  0.36820914445E+02  0.00000000000E+00 0. -1.
         11    1    4    4    0    0 -0.53968061362E+01  0.21253736484E+01 -0.10212306068E+02  0.11744527453E+02  0.51100000000E-03 0. -1.
        -11    1    4    4    0    0 -0.21834597693E+02  0.14490979145E+02  0.81438599435E+01  0.27441949421E+02  0.51100000000E-03 0.  1.
        -12    1    4    4    0    0 -0.38500216891E+01 -0.13783420377E+01  0.14619452320E+02  0.15180608681E+02  0.00000000000E+00 0.  1.
</event>
<event>
 8    1  0.1271559E-006  0.9118800E+02  0.7816164E-02  0.1184000E+00
        -11   -1    0    0    0    0  0.00000000000E+00  0.00000000000E+00  0.45593999997E+02  0.45594000000E+02  0.51100000000E-03 0. -1.
         11   -1    0    0    0    0 -0.00000000000E+00 -0.00000000000E+00 -0.45593999997E+02  0.45594000000E+02  0.51100000000E-03 0.  1.
         23    2    1    2    0    0 -0.35527136788E-14 -0.35527136788E-14  0.17763568394E-14  0.91188000000E+02  0.91188000000E+02 0.  0.
    9900012    2    3    3    0    0  0.20033051945E+02 -0.27549380939E+02  0.13981525102E+02  0.54367155298E+02  0.40000162133E+02 0.  0.
        -12    1    3    3    0    0 -0.20033051945E+02  0.27549380939E+02 -0.13981525102E+02  0.36820844702E+02  0.00000000000E+00 0.  1.
         11    1    4    4    0    0  0.12039499086E+02 -0.35744184711E+02  0.86192941499E+01  0.38689643457E+02  0.51100000000E-03 0. -1.
        -11    1    4    4    0    0  0.83182247640E+01  0.39708174557E+01  0.65145526588E+01  0.11287145392E+02  0.51100000000E-03 0.  1.
         12    1    4    4    0    0 -0.32467190445E+00  0.42239863163E+01 -0.11523217071E+01  0.43903664497E+01  0.00000000000E+00 0. -1.
</event>
<event>
 8    1  0.1271559E-006  0.9118800E+02  0.7816164E-02  0.1184000E+00
        -11   -1    0    0    0    0  0.00000000000E+00  0.00000000000E+00  0.45593999997E+02  0.45594000000E+02  0.51100000000E-03 0. -1.
         11   -1    0    0    0    0 -0.00000000000E+00 -0.00000000000E+00 -0.45593999997E+02  0.45594000000E+02  0.51100000000E-03 0.  1.
         23    2    1    2    0    0  0.00000000000E+00  0.17763568394E-14  0.35527136788E-14  0.91188000000E+02  0.91188000000E+02 0.  0.
    9900012    2    3    3    0    0 -0.27765791733E+02  0.97959235025E+01 -0.22110592878E+02  0.54367114280E+02  0.40000068624E+02 0.  0.
         12    1    3    3    0    0  0.27765791733E+02 -0.97959235025E+01  0.22110592878E+02  0.36820885720E+02  0.00000000000E+00 0. -1.
         11    1    4    4    0    0  0.16115454887E+01  0.84808181297E+01 -0.49334431582E+01  0.99428475130E+01  0.51100000000E-03 0. -1.
        -11    1    4    4    0    0 -0.25889799100E+02  0.96804038190E+01 -0.32819320792E+01  0.27834564735E+02  0.51100000000E-03 0.  1.
        -12    1    4    4    0    0 -0.34875381214E+01 -0.83652984461E+01 -0.13895217640E+02  0.16589702032E+02  0.00000000000E+00 0.  1.
</event>
<event>
 8    1  0.1271559E-006  0.9118800E+02  0.7816164E-02  0.1184000E+00
        -11   -1    0    0    0    0  0.00000000000E+00  0.00000000000E+00  0.45593999997E+02  0.45594000000E+02  0.51100000000E-03 0.  1.
         11   -1    0    0    0    0 -0.00000000000E+00 -0.00000000000E+00 -0.45593999997E+02  0.45594000000E+02  0.51100000000E-03 0. -1.
         23    2    1    2    0    0  0.00000000000E+00 -0.17763568394E-14  0.00000000000E+00  0.91188000000E+02  0.91188000000E+02 0.  0.
    9900012    2    3    3    0    0  0.11365575845E+02  0.86337828962E+01 -0.33942029853E+02  0.54367083228E+02  0.39999997835E+02 0.  0.
        -12    1    3    3    0    0 -0.11365575845E+02 -0.86337828962E+01  0.33942029853E+02  0.36820916772E+02  0.00000000000E+00 0.  1.
         11    1    4    4    0    0  0.48751401893E+00  0.28070350625E+01  0.16602387938E+01  0.32975003980E+01  0.51100000000E-03 0. -1.
        -11    1    4    4    0    0 -0.87403107628E+01  0.12801773218E+02 -0.12052837676E+02  0.19635410005E+02  0.51100000000E-03 0.  1.
         12    1    4    4    0    0  0.19618372589E+02 -0.69750253848E+01 -0.23549430970E+02  0.31434172825E+02  0.00000000000E+00 0. -1.
</event>
<event>
 8    1  0.1271559E-006  0.9118800E+02  0.7816164E-02  0.1184000E+00
        -11   -1    0    0    0    0  0.00000000000E+00  0.00000000000E+00  0.45593999997E+02  0.45594000000E+02  0.51100000000E-03 0. -1.
         11   -1    0    0    0    0 -0.00000000000E+00 -0.00000000000E+00 -0.45593999997E+02  0.45594000000E+02  0.51100000000E-03 0.  1.
         23    2    1    2    0    0  0.00000000000E+00  0.00000000000E+00  0.00000000000E+00  0.91188000000E+02  0.91188000000E+02 0.  0.
    9900012    2    3    3    0    0  0.25643538464E+02  0.23022496022E+02  0.12967385589E+02  0.54367089133E+02  0.40000011296E+02 0.  0.
         12    1    3    3    0    0 -0.25643538464E+02 -0.23022496022E+02 -0.12967385589E+02  0.36820910867E+02  0.00000000000E+00 0. -1.
         11    1    4    4    0    0  0.34355074410E+01 -0.77111458558E+01  0.47539330235E+01  0.96883621547E+01  0.51100000000E-03 0. -1.
        -11    1    4    4    0    0  0.24234714840E+02  0.28529018213E+02  0.16556827884E+01  0.37469555233E+02  0.51100000000E-03 0.  1.
        -12    1    4    4    0    0 -0.20266838169E+01  0.22046236656E+01  0.65577697775E+01  0.72091717454E+01  0.00000000000E+00 0.  1.
</event>
<event>
 8    1  0.1271559E-006  0.9118800E+02  0.7816164E-02  0.1184000E+00
        -11   -1    0    0    0    0  0.00000000000E+00  0.00000000000E+00  0.45593999997E+02  0.45594000000E+02  0.51100000000E-03 0.  1.
         11   -1    0    0    0    0 -0.00000000000E+00 -0.00000000000E+00 -0.45593999997E+02  0.45594000000E+02  0.51100000000E-03 0. -1.
         23    2    1    2    0    0  0.44408920985E-15  0.00000000000E+00  0.00000000000E+00  0.91188000000E+02  0.91188000000E+02 0.  0.
    9900012    2    3    3    0    0  0.23478617263E+01 -0.30544870879E+02 -0.20427386674E+02  0.54367085861E+02  0.40000003837E+02 0.  0.
        -12    1    3    3    0    0 -0.23478617263E+01  0.30544870879E+02  0.20427386674E+02  0.36820914139E+02  0.00000000000E+00 0.  1.
         11    1    4    4    0    0  0.41817895697E+01 -0.17245222142E+02 -0.72625417122E+01  0.19173668484E+02  0.51100000000E-03 0. -1.
        -11    1    4    4    0    0 -0.76966789883E+01 -0.46238654532E+01 -0.20519278774E+02  0.22397763300E+02  0.51100000000E-03 0.  1.
        -12    1    4    4    0    0  0.58627511449E+01 -0.86757832835E+01  0.73544338116E+01  0.12795654077E+02  0.00000000000E+00 0.  1.
</event>
<event>
 8    1  0.1271559E-006  0.9118800E+02  0.7816164E-02  0.1184000E+00
        -11   -1    0    0    0    0  0.00000000000E+00  0.00000000000E+00  0.45593999997E+02  0.45594000000E+02  0.51100000000E-03 0.  1.
         11   -1    0    0    0    0 -0.00000000000E+00 -0.00000000000E+00 -0.45593999997E+02  0.45594000000E+02  0.51100000000E-03 0. -1.
         23    2    1    2    0    0  0.00000000000E+00  0.35527136788E-14  0.00000000000E+00  0.91188000000E+02  0.91188000000E+02 0.  0.
    9900012    2    3    3    0    0  0.26718772536E+02  0.23063961945E+02  0.10485238662E+02  0.54367090503E+02  0.40000014419E+02 0.  0.
        -12    1    3    3    0    0 -0.26718772536E+02 -0.23063961945E+02 -0.10485238662E+02  0.36820909497E+02  0.00000000000E+00 0.  1.
         11    1    4    4    0    0  0.23210573275E+02  0.24624957036E+02  0.81252467850E+01  0.34801420322E+02  0.51100000000E-03 0. -1.
        -11    1    4    4    0    0  0.11028789263E+02 -0.96268997824E+00 -0.13601560117E+01  0.11153967422E+02  0.51100000000E-03 0.  1.
         12    1    4    4    0    0 -0.75205900027E+01 -0.59830511359E+00  0.37201478888E+01  0.84117027594E+01  0.00000000000E+00 0. -1.
</event>
<event>
 8    1  0.1271559E-006  0.9118800E+02  0.7816164E-02  0.1184000E+00
        -11   -1    0    0    0    0  0.00000000000E+00  0.00000000000E+00  0.45593999997E+02  0.45594000000E+02  0.51100000000E-03 0.  1.
         11   -1    0    0    0    0 -0.00000000000E+00 -0.00000000000E+00 -0.45593999997E+02  0.45594000000E+02  0.51100000000E-03 0. -1.
         23    2    1    2    0    0  0.35527136788E-14 -0.17763568394E-14 -0.35527136788E-14  0.91188000000E+02  0.91188000000E+02 0.  0.
    9900012    2    3    3    0    0 -0.27051913937E+02  0.11502301528E+02  0.22173632305E+02  0.54367096185E+02  0.40000027373E+02 0.  0.
         12    1    3    3    0    0  0.27051913937E+02 -0.11502301528E+02 -0.22173632305E+02  0.36820903815E+02  0.00000000000E+00 0. -1.
         11    1    4    4    0    0  0.36766888282E+01  0.11082444984E+02  0.46674259239E+01  0.12574716401E+02  0.51100000000E-03 0. -1.
        -11    1    4    4    0    0 -0.66722827376E+01 -0.85921665673E+01  0.10605266602E+02  0.15192641746E+02  0.51100000000E-03 0.  1.
        -12    1    4    4    0    0 -0.24056320028E+02  0.90120231120E+01  0.69009397794E+01  0.26599738038E+02  0.00000000000E+00 0.  1.
</event>
<event>
 8    1  0.1271559E-006  0.9118800E+02  0.7816164E-02  0.1184000E+00
        -11   -1    0    0    0    0  0.00000000000E+00  0.00000000000E+00  0.45593999997E+02  0.45594000000E+02  0.51100000000E-03 0.  1.
         11   -1    0    0    0    0 -0.00000000000E+00 -0.00000000000E+00 -0.45593999997E+02  0.45594000000E+02  0.51100000000E-03 0. -1.
         23    2    1    2    0    0 -0.71054273576E-14  0.88817841970E-15 -0.13322676296E-14  0.91188000000E+02  0.91188000000E+02 0.  0.
    9900012    2    3    3    0    0 -0.36728706743E+02  0.15987436134E+01 -0.20557519978E+01  0.54367082081E+02  0.39999995219E+02 0.  0.
         12    1    3    3    0    0  0.36728706743E+02 -0.15987436134E+01  0.20557519978E+01  0.36820917919E+02  0.00000000000E+00 0. -1.
         11    1    4    4    0    0 -0.20076722244E+02  0.92551222230E+01 -0.56670859395E+01  0.22822092952E+02  0.51100000000E-03 0. -1.
        -11    1    4    4    0    0  0.42686810897E+01 -0.69211949329E+01  0.65035889571E+01  0.10412552383E+02  0.51100000000E-03 0.  1.
        -12    1    4    4    0    0 -0.20920665589E+02 -0.73518367666E+00 -0.28922550154E+01  0.21132436745E+02  0.00000000000E+00 0.  1.
</event>
<event>
 8    1  0.1271559E-006  0.9118800E+02  0.7816164E-02  0.1184000E+00
        -11   -1    0    0    0    0  0.00000000000E+00  0.00000000000E+00  0.45593999997E+02  0.45594000000E+02  0.51100000000E-03 0.  1.
         11   -1    0    0    0    0 -0.00000000000E+00 -0.00000000000E+00 -0.45593999997E+02  0.45594000000E+02  0.51100000000E-03 0. -1.
         23    2    1    2    0    0  0.00000000000E+00 -0.35527136788E-14  0.00000000000E+00  0.91188000000E+02  0.91188000000E+02 0.  0.
    9900012    2    3    3    0    0 -0.17003018850E+02  0.25306244911E+02  0.20646275383E+02  0.54367117763E+02  0.40000076565E+02 0.  0.
         12    1    3    3    0    0  0.17003018850E+02 -0.25306244911E+02 -0.20646275383E+02  0.36820882237E+02  0.00000000000E+00 0. -1.
         11    1    4    4    0    0 -0.20568772101E+01  0.73583765345E+01 -0.30704117320E+01  0.82343109940E+01  0.51100000000E-03 0. -1.
        -11    1    4    4    0    0  0.86736384482E-01  0.18656396273E+02  0.24811831152E+02  0.31043447142E+02  0.51100000000E-03 0.  1.
        -12    1    4    4    0    0 -0.15032878025E+02 -0.70852789720E+00 -0.10951440373E+01  0.15089359627E+02  0.00000000000E+00 0.  1.
</event>
<event>
 8    1  0.1271559E-006  0.9118800E+02  0.7816164E-02  0.1184000E+00
        -11   -1    0    0    0    0  0.00000000000E+00  0.00000000000E+00  0.45593999997E+02  0.45594000000E+02  0.51100000000E-03 0. -1.
         11   -1    0    0    0    0 -0.00000000000E+00 -0.00000000000E+00 -0.45593999997E+02  0.45594000000E+02  0.51100000000E-03 0.  1.
         23    2    1    2    0    0  0.71054273576E-14  0.00000000000E+00 -0.13600232052E-14  0.91188000000E+02  0.91188000000E+02 0.  0.
    9900012    2    3    3    0    0 -0.36676387687E+02  0.32583696044E+01 -0.71705010989E-01  0.54367088444E+02  0.40000009725E+02 0.  0.
        -12    1    3    3    0    0  0.36676387687E+02 -0.32583696044E+01  0.71705010989E-01  0.36820911556E+02  0.00000000000E+00 0.  1.
         11    1    4    4    0    0 -0.21025411406E+02  0.13961374249E+01  0.19358153449E+02  0.28613899240E+02  0.51100000000E-03 0. -1.
        -11    1    4    4    0    0 -0.78706618718E+01  0.10206091328E+01 -0.14424243189E+02  0.16463527968E+02  0.51100000000E-03 0.  1.
         12    1    4    4    0    0 -0.77803144084E+01  0.84162304665E+00 -0.50056152700E+01  0.92896612359E+01  0.00000000000E+00 0. -1.
</event>
<event>
 8    1  0.1271559E-006  0.9118800E+02  0.7816164E-02  0.1184000E+00
        -11   -1    0    0    0    0  0.00000000000E+00  0.00000000000E+00  0.45593999997E+02  0.45594000000E+02  0.51100000000E-03 0. -1.
         11   -1    0    0    0    0 -0.00000000000E+00 -0.00000000000E+00 -0.45593999997E+02  0.45594000000E+02  0.51100000000E-03 0.  1.
         23    2    1    2    0    0  0.00000000000E+00  0.00000000000E+00  0.88817841970E-15  0.91188000000E+02  0.91188000000E+02 0.  0.
    9900012    2    3    3    0    0 -0.35561808014E+02  0.94274695417E+01  0.15036209957E+01  0.54367078674E+02  0.39999987453E+02 0.  0.
         12    1    3    3    0    0  0.35561808014E+02 -0.94274695417E+01 -0.15036209957E+01  0.36820921326E+02  0.00000000000E+00 0. -1.
         11    1    4    4    0    0 -0.18503963468E+01  0.11885679354E+02  0.15501930045E+01  0.12128332076E+02  0.51100000000E-03 0. -1.
        -11    1    4    4    0    0 -0.86419117162E+01  0.36289814818E+01 -0.10790571292E+02  0.14292955390E+02  0.51100000000E-03 0.  1.
        -12    1    4    4    0    0 -0.25069499951E+02 -0.60871912938E+01  0.10743999283E+02  0.27945791208E+02  0.00000000000E+00 0.  1.
</event>
<event>
 8    1  0.1271559E-006  0.9118800E+02  0.7816164E-02  0.1184000E+00
        -11   -1    0    0    0    0  0.00000000000E+00  0.00000000000E+00  0.45593999997E+02  0.45594000000E+02  0.51100000000E-03 0.  1.
         11   -1    0    0    0    0 -0.00000000000E+00 -0.00000000000E+00 -0.45593999997E+02  0.45594000000E+02  0.51100000000E-03 0. -1.
         23    2    1    2    0    0 -0.88817841970E-15  0.35527136788E-14 -0.71054273576E-14  0.91188000000E+02  0.91188000000E+02 0.  0.
    9900012    2    3    3    0    0  0.20209583041E+01 -0.21743467501E+02  0.29646539571E+02  0.54367082576E+02  0.39999996347E+02 0.  0.
         12    1    3    3    0    0 -0.20209583041E+01  0.21743467501E+02 -0.29646539571E+02  0.36820917424E+02  0.00000000000E+00 0. -1.
         11    1    4    4    0    0  0.48079953554E+01  0.22997067437E+01  0.11437247034E+02  0.12618085846E+02  0.51100000000E-03 0. -1.
        -11    1    4    4    0    0 -0.10775710387E+01 -0.27720473361E+01 -0.76581057262E+01  0.82153508356E+01  0.51100000000E-03 0.  1.
        -12    1    4    4    0    0 -0.17094660126E+01 -0.21271126909E+02  0.25867398263E+02  0.33533645894E+02  0.00000000000E+00 0.  1.
</event>
<event>
 8    1  0.1271559E-006  0.9118800E+02  0.7816164E-02  0.1184000E+00
        -11   -1    0    0    0    0  0.00000000000E+00  0.00000000000E+00  0.45593999997E+02  0.45594000000E+02  0.51100000000E-03 0.  1.
         11   -1    0    0    0    0 -0.00000000000E+00 -0.00000000000E+00 -0.45593999997E+02  0.45594000000E+02  0.51100000000E-03 0. -1.
         23    2    1    2    0    0  0.00000000000E+00 -0.13322676296E-14  0.00000000000E+00  0.91188000000E+02  0.91188000000E+02 0.  0.
    9900012    2    3    3    0    0  0.32214354947E+02  0.23852155274E+01 -0.17672746620E+02  0.54367083514E+02  0.39999998487E+02 0.  0.
        -12    1    3    3    0    0 -0.32214354947E+02 -0.23852155274E+01  0.17672746620E+02  0.36820916486E+02  0.00000000000E+00 0.  1.
         11    1    4    4    0    0  0.16303582265E+02 -0.10156278118E+02 -0.15225884116E+02  0.24510902212E+02  0.51100000000E-03 0. -1.
        -11    1    4    4    0    0  0.12620263643E+02 -0.34739314701E+01  0.10663488661E+01  0.13133025335E+02  0.51100000000E-03 0.  1.
        -12    1    4    4    0    0  0.32905090389E+01  0.16015425115E+02 -0.35132113702E+01  0.16723155967E+02  0.00000000000E+00 0.  1.
</event>
<event>
 8    1  0.1271559E-006  0.9118800E+02  0.7816164E-02  0.1184000E+00
        -11   -1    0    0    0    0  0.00000000000E+00  0.00000000000E+00  0.45593999997E+02  0.45594000000E+02  0.51100000000E-03 0.  1.
         11   -1    0    0    0    0 -0.00000000000E+00 -0.00000000000E+00 -0.45593999997E+02  0.45594000000E+02  0.51100000000E-03 0. -1.
         23    2    1    2    0    0 -0.88817841970E-15  0.00000000000E+00 -0.71054273576E-14  0.91188000000E+02  0.91188000000E+02 0.  0.
    9900012    2    3    3    0    0 -0.20241418103E+01 -0.83096979819E+01 -0.35813858068E+02  0.54367073065E+02  0.39999974666E+02 0.  0.
        -12    1    3    3    0    0  0.20241418103E+01  0.83096979819E+01  0.35813858068E+02  0.36820926935E+02  0.00000000000E+00 0.  1.
         11    1    4    4    0    0 -0.18364883242E+02 -0.17378455148E+01 -0.17520197268E+02  0.25441036852E+02  0.51100000000E-03 0.  1.
        -11    1    4    4    0    0  0.83914221759E-02 -0.44469434239E+01 -0.89408780204E+01  0.99857236227E+01  0.51100000000E-03 0. -1.
        -12    1    4    4    0    0  0.16332350010E+02 -0.21249090432E+01 -0.93527827803E+01  0.18940312590E+02  0.00000000000E+00 0.  1.
</event>
<event>
 8    1  0.1271559E-006  0.9118800E+02  0.7816164E-02  0.1184000E+00
        -11   -1    0    0    0    0  0.00000000000E+00  0.00000000000E+00  0.45593999997E+02  0.45594000000E+02  0.51100000000E-03 0. -1.
         11   -1    0    0    0    0 -0.00000000000E+00 -0.00000000000E+00 -0.45593999997E+02  0.45594000000E+02  0.51100000000E-03 0.  1.
         23    2    1    2    0    0  0.00000000000E+00  0.00000000000E+00  0.00000000000E+00  0.91188000000E+02  0.91188000000E+02 0.  0.
    9900012    2    3    3    0    0  0.32333857809E+02 -0.17077418579E+02 -0.43200512935E+01  0.54367089782E+02  0.40000012775E+02 0.  0.
        -12    1    3    3    0    0 -0.32333857809E+02  0.17077418579E+02  0.43200512935E+01  0.36820910218E+02  0.00000000000E+00 0.  1.
         11    1    4    4    0    0  0.35026423007E+01 -0.26331586532E+01 -0.62771873750E+01  0.76553973889E+01  0.51100000000E-03 0. -1.
        -11    1    4    4    0    0 -0.76601990893E+01 -0.11420745065E+01 -0.72582248016E+00  0.77788047154E+01  0.51100000000E-03 0.  1.
         12    1    4    4    0    0  0.36491414597E+02 -0.13302185419E+02  0.26829585617E+01  0.38932887677E+02  0.00000000000E+00 0. -1.
</event>
<event>
 8    1  0.1271559E-006  0.9118800E+02  0.7816164E-02  0.1184000E+00
        -11   -1    0    0    0    0  0.00000000000E+00  0.00000000000E+00  0.45593999997E+02  0.45594000000E+02  0.51100000000E-03 0. -1.
         11   -1    0    0    0    0 -0.00000000000E+00 -0.00000000000E+00 -0.45593999997E+02  0.45594000000E+02  0.51100000000E-03 0.  1.
         23    2    1    2    0    0  0.00000000000E+00 -0.88817841970E-15  0.15543122345E-14  0.91188000000E+02  0.91188000000E+02 0.  0.
    9900012    2    3    3    0    0  0.36614474284E+02  0.36761567849E+01  0.12826474678E+01  0.54367095064E+02  0.40000024817E+02 0.  0.
         12    1    3    3    0    0 -0.36614474284E+02 -0.36761567849E+01 -0.12826474678E+01  0.36820904936E+02  0.00000000000E+00 0. -1.
         11    1    4    4    0    0  0.70855226200E+01  0.88928996999E+01 -0.19497574022E+01  0.11536457431E+02  0.51100000000E-03 0. -1.
        -11    1    4    4    0    0  0.32775896125E+02 -0.47899184167E+01  0.10591154047E+02  0.34776072658E+02  0.51100000000E-03 0.  1.
        -12    1    4    4    0    0 -0.32469444608E+01 -0.42682449833E+00 -0.73587491767E+01  0.80545649745E+01  0.00000000000E+00 0.  1.
</event>
<event>
 8    1  0.1271559E-006  0.9118800E+02  0.7816164E-02  0.1184000E+00
        -11   -1    0    0    0    0  0.00000000000E+00  0.00000000000E+00  0.45593999997E+02  0.45594000000E+02  0.51100000000E-03 0. -1.
         11   -1    0    0    0    0 -0.00000000000E+00 -0.00000000000E+00 -0.45593999997E+02  0.45594000000E+02  0.51100000000E-03 0.  1.
         23    2    1    2    0    0  0.00000000000E+00  0.00000000000E+00  0.35527136788E-14  0.91188000000E+02  0.91188000000E+02 0.  0.
    9900012    2    3    3    0    0  0.29344322984E+02  0.44773810417E+01  0.21786344761E+02  0.54367067768E+02  0.39999962591E+02 0.  0.
        -12    1    3    3    0    0 -0.29344322984E+02 -0.44773810417E+01 -0.21786344761E+02  0.36820932232E+02  0.00000000000E+00 0.  1.
         11    1    4    4    0    0 -0.44655298866E+01 -0.10049498470E+01  0.12869532988E+02  0.13659273807E+02  0.51100000000E-03 0. -1.
        -11    1    4    4    0    0  0.12054719654E+02 -0.55665167333E+01  0.94575115660E+01  0.16301745298E+02  0.51100000000E-03 0.  1.
        -12    1    4    4    0    0  0.21755133217E+02  0.11048847622E+02 -0.54069979313E+00  0.24406048663E+02  0.00000000000E+00 0.  1.
</event>
<event>
 8    1  0.1271559E-006  0.9118800E+02  0.7816164E-02  0.1184000E+00
        -11   -1    0    0    0    0  0.00000000000E+00  0.00000000000E+00  0.45593999997E+02  0.45594000000E+02  0.51100000000E-03 0.  1.
         11   -1    0    0    0    0 -0.00000000000E+00 -0.00000000000E+00 -0.45593999997E+02  0.45594000000E+02  0.51100000000E-03 0. -1.
         23    2    1    2    0    0  0.00000000000E+00 -0.35527136788E-14  0.00000000000E+00  0.91188000000E+02  0.91188000000E+02 0.  0.
    9900012    2    3    3    0    0 -0.44735761392E+01  0.26991870136E+02  0.24641491902E+02  0.54367121955E+02  0.40000086120E+02 0.  0.
         12    1    3    3    0    0  0.44735761392E+01 -0.26991870136E+02 -0.24641491902E+02  0.36820878045E+02  0.00000000000E+00 0. -1.
         11    1    4    4    0    0 -0.13208861007E+02  0.82028485974E+01  0.66303846459E+01  0.16903335027E+02  0.51100000000E-03 0. -1.
        -11    1    4    4    0    0 -0.66371887313E+01  0.13161341228E+01 -0.16874459382E+01  0.69736616880E+01  0.51100000000E-03 0.  1.
        -12    1    4    4    0    0  0.15372473599E+02  0.17472887415E+02  0.19698553194E+02  0.30490125240E+02  0.00000000000E+00 0.  1.
</event>
<event>
 8    1  0.1271559E-006  0.9118800E+02  0.7816164E-02  0.1184000E+00
        -11   -1    0    0    0    0  0.00000000000E+00  0.00000000000E+00  0.45593999997E+02  0.45594000000E+02  0.51100000000E-03 0.  1.
         11   -1    0    0    0    0 -0.00000000000E+00 -0.00000000000E+00 -0.45593999997E+02  0.45594000000E+02  0.51100000000E-03 0. -1.
         23    2    1    2    0    0  0.00000000000E+00  0.99920072216E-15  0.00000000000E+00  0.91188000000E+02  0.91188000000E+02 0.  0.
    9900012    2    3    3    0    0  0.36758962180E+02  0.71597080361E+00 -0.20116654720E+01  0.54367072354E+02  0.39999973045E+02 0.  0.
        -12    1    3    3    0    0 -0.36758962180E+02 -0.71597080361E+00  0.20116654720E+01  0.36820927646E+02  0.00000000000E+00 0.  1.
         11    1    4    4    0    0 -0.62152838094E+00  0.11466233758E+02 -0.53418114631E+00  0.11495484499E+02  0.51100000000E-03 0. -1.
        -11    1    4    4    0    0  0.28792244016E+02 -0.56442576829E+01  0.65408967340E+01  0.30060510485E+02  0.51100000000E-03 0.  1.
         12    1    4    4    0    0  0.85882465454E+01 -0.51060052713E+01 -0.80183810596E+01  0.12811077370E+02  0.00000000000E+00 0. -1.
</event>
<event>
 8    1  0.1271559E-006  0.9118800E+02  0.7816164E-02  0.1184000E+00
        -11   -1    0    0    0    0  0.00000000000E+00  0.00000000000E+00  0.45593999997E+02  0.45594000000E+02  0.51100000000E-03 0. -1.
         11   -1    0    0    0    0 -0.00000000000E+00 -0.00000000000E+00 -0.45593999997E+02  0.45594000000E+02  0.51100000000E-03 0.  1.
         23    2    1    2    0    0  0.00000000000E+00 -0.17763568394E-14  0.00000000000E+00  0.91188000000E+02  0.91188000000E+02 0.  0.
    9900012    2    3    3    0    0 -0.29512227309E+01  0.73968673332E+01  0.35949454335E+02  0.54366992016E+02  0.39999789898E+02 0.  0.
        -12    1    3    3    0    0  0.29512227309E+01 -0.73968673332E+01 -0.35949454335E+02  0.36821007984E+02  0.00000000000E+00 0.  1.
         11    1    4    4    0    0 -0.23319956390E+01 -0.12823311070E+02  0.11300596347E+02  0.17250477922E+02  0.51100000000E-03 0. -1.
        -11    1    4    4    0    0  0.56498205634E+01 -0.89813987240E+00  0.50257220992E+01  0.76147889340E+01  0.51100000000E-03 0.  1.
        -12    1    4    4    0    0 -0.62690476553E+01  0.21118318276E+02  0.19623135889E+02  0.29501725160E+02  0.00000000000E+00 0.  1.
</event>
<event>
 8    1  0.1271559E-006  0.9118800E+02  0.7816164E-02  0.1184000E+00
        -11   -1    0    0    0    0  0.00000000000E+00  0.00000000000E+00  0.45593999997E+02  0.45594000000E+02  0.51100000000E-03 0.  1.
         11   -1    0    0    0    0 -0.00000000000E+00 -0.00000000000E+00 -0.45593999997E+02  0.45594000000E+02  0.51100000000E-03 0. -1.
         23    2    1    2    0    0  0.00000000000E+00  0.00000000000E+00  0.26645352591E-14  0.91188000000E+02  0.91188000000E+02 0.  0.
    9900012    2    3    3    0    0 -0.99500311131E+01 -0.34666180960E+02  0.74184541839E+01  0.54367072744E+02  0.39999973934E+02 0.  0.
         12    1    3    3    0    0  0.99500311131E+01  0.34666180960E+02 -0.74184541839E+01  0.36820927256E+02  0.00000000000E+00 0. -1.
         11    1    4    4    0    0 -0.13888554289E+01 -0.28701874249E+02 -0.10303492187E+02  0.30526848123E+02  0.51100000000E-03 0. -1.
        -11    1    4    4    0    0 -0.52992951611E+01 -0.95485985130E+01  0.13847514443E+02  0.17635530026E+02  0.51100000000E-03 0.  1.
         12    1    4    4    0    0 -0.32618805232E+01  0.35842918014E+01  0.38744319270E+01  0.62046945954E+01  0.00000000000E+00 0. -1.
</event>
<event>
 8    1  0.1271559E-006  0.9118800E+02  0.7816164E-02  0.1184000E+00
        -11   -1    0    0    0    0  0.00000000000E+00  0.00000000000E+00  0.45593999997E+02  0.45594000000E+02  0.51100000000E-03 0.  1.
         11   -1    0    0    0    0 -0.00000000000E+00 -0.00000000000E+00 -0.45593999997E+02  0.45594000000E+02  0.51100000000E-03 0. -1.
         23    2    1    2    0    0  0.00000000000E+00  0.00000000000E+00 -0.14210854715E-13  0.91188000000E+02  0.91188000000E+02 0.  0.
    9900012    2    3    3    0    0  0.62826015084E+01 -0.89823103511E+01  0.35151477572E+02  0.54367090771E+02  0.40000015032E+02 0.  0.
         12    1    3    3    0    0 -0.62826015084E+01  0.89823103511E+01 -0.35151477572E+02  0.36820909229E+02  0.00000000000E+00 0. -1.
         11    1    4    4    0    0 -0.25937785124E+01  0.36234915226E+01 -0.77365278252E+00  0.45228217602E+01  0.51100000000E-03 0. -1.
        -11    1    4    4    0    0 -0.34609753509E+01 -0.14585899007E+01 -0.46600209540E+01  0.59851174116E+01  0.51100000000E-03 0.  1.
        -12    1    4    4    0    0  0.12337355372E+02 -0.11147211973E+02  0.40585151308E+02  0.43859151600E+02  0.00000000000E+00 0.  1.
</event>
<event>
 8    1  0.1271559E-006  0.9118800E+02  0.7816164E-02  0.1184000E+00
        -11   -1    0    0    0    0  0.00000000000E+00  0.00000000000E+00  0.45593999997E+02  0.45594000000E+02  0.51100000000E-03 0. -1.
         11   -1    0    0    0    0 -0.00000000000E+00 -0.00000000000E+00 -0.45593999997E+02  0.45594000000E+02  0.51100000000E-03 0.  1.
         23    2    1    2    0    0  0.00000000000E+00  0.00000000000E+00  0.00000000000E+00  0.91188000000E+02  0.91188000000E+02 0.  0.
    9900012    2    3    3    0    0 -0.24161891251E+02 -0.26308513561E+02 -0.89356387102E+01  0.54367075055E+02  0.39999979204E+02 0.  0.
         12    1    3    3    0    0  0.24161891251E+02  0.26308513561E+02  0.89356387102E+01  0.36820924945E+02  0.00000000000E+00 0. -1.
         11    1    4    4    0    0  0.19869270247E+01 -0.42239660587E+00 -0.44528185656E+01  0.48942712770E+01  0.51100000000E-03 0. -1.
        -11    1    4    4    0    0 -0.95409239883E+01 -0.19754351171E+02 -0.17031393121E+02  0.27772863962E+02  0.51100000000E-03 0.  1.
        -12    1    4    4    0    0 -0.16607894288E+02 -0.61317657834E+01  0.12548572976E+02  0.21699939816E+02  0.00000000000E+00 0.  1.
</event>
<event>
 8    1  0.1271559E-006  0.9118800E+02  0.7816164E-02  0.1184000E+00
        -11   -1    0    0    0    0  0.00000000000E+00  0.00000000000E+00  0.45593999997E+02  0.45594000000E+02  0.51100000000E-03 0.  1.
         11   -1    0    0    0    0 -0.00000000000E+00 -0.00000000000E+00 -0.45593999997E+02  0.45594000000E+02  0.51100000000E-03 0. -1.
         23    2    1    2    0    0  0.00000000000E+00  0.35527136788E-14  0.00000000000E+00  0.91188000000E+02  0.91188000000E+02 0.  0.
    9900012    2    3    3    0    0 -0.49260369491E+01 -0.31133246054E+02 -0.19032483353E+02  0.54367078332E+02  0.39999986674E+02 0.  0.
         12    1    3    3    0    0  0.49260369491E+01  0.31133246054E+02  0.19032483353E+02  0.36820921668E+02  0.00000000000E+00 0. -1.
         11    1    4    4    0    0  0.20339916817E+01  0.12222948671E+01 -0.12146884551E+02  0.12376507240E+02  0.51100000000E-03 0. -1.
        -11    1    4    4    0    0 -0.95393667525E+01 -0.17440860343E+02  0.73668854764E+01  0.21200333239E+02  0.51100000000E-03 0.  1.
        -12    1    4    4    0    0  0.25793381217E+01 -0.14914680578E+02 -0.14252484279E+02  0.20790237854E+02  0.00000000000E+00 0.  1.
</event>
<event>
 8    1  0.1271559E-006  0.9118800E+02  0.7816164E-02  0.1184000E+00
        -11   -1    0    0    0    0  0.00000000000E+00  0.00000000000E+00  0.45593999997E+02  0.45594000000E+02  0.51100000000E-03 0.  1.
         11   -1    0    0    0    0 -0.00000000000E+00 -0.00000000000E+00 -0.45593999997E+02  0.45594000000E+02  0.51100000000E-03 0. -1.
         23    2    1    2    0    0  0.35527136788E-14  0.00000000000E+00 -0.17763568394E-14  0.91188000000E+02  0.91188000000E+02 0.  0.
    9900012    2    3    3    0    0  0.20961765649E+02 -0.26239862014E+02 -0.15094750932E+02  0.54367116207E+02  0.40000073016E+02 0.  0.
        -12    1    3    3    0    0 -0.20961765649E+02  0.26239862014E+02  0.15094750932E+02  0.36820883793E+02  0.00000000000E+00 0.  1.
         11    1    4    4    0    0  0.27282158800E+01 -0.64084153590E+01 -0.14395038800E+02  0.15991500606E+02  0.51100000000E-03 0. -1.
        -11    1    4    4    0    0  0.14766703491E+02  0.31021912157E+01 -0.15311079591E+01  0.15166522811E+02  0.51100000000E-03 0.  1.
        -12    1    4    4    0    0  0.34668462779E+01 -0.22933637871E+02  0.83139582763E+00  0.23209092790E+02  0.00000000000E+00 0.  1.
</event>
<event>
 8    1  0.1271559E-006  0.9118800E+02  0.7816164E-02  0.1184000E+00
        -11   -1    0    0    0    0  0.00000000000E+00  0.00000000000E+00  0.45593999997E+02  0.45594000000E+02  0.51100000000E-03 0. -1.
         11   -1    0    0    0    0 -0.00000000000E+00 -0.00000000000E+00 -0.45593999997E+02  0.45594000000E+02  0.51100000000E-03 0.  1.
         23    2    1    2    0    0  0.25535129566E-14  0.00000000000E+00  0.88817841970E-15  0.91188000000E+02  0.91188000000E+02 0.  0.
    9900012    2    3    3    0    0  0.68750619168E+00  0.36113641849E+02 -0.71492665561E+01  0.54367084685E+02  0.40000001156E+02 0.  0.
         12    1    3    3    0    0 -0.68750619168E+00 -0.36113641849E+02  0.71492665561E+01  0.36820915315E+02  0.00000000000E+00 0. -1.
         11    1    4    4    0    0 -0.12035428085E+02  0.20355468608E+02 -0.14639619900E+02  0.27812139481E+02  0.51100000000E-03 0. -1.
        -11    1    4    4    0    0  0.39533330275E+01  0.14184956546E+02 -0.28701777454E+00  0.14728347284E+02  0.51100000000E-03 0.  1.
         12    1    4    4    0    0  0.87696012495E+01  0.15732166947E+01  0.77773711184E+01  0.11826597920E+02  0.00000000000E+00 0. -1.
</event>
<event>
 8    1  0.1271559E-006  0.9118800E+02  0.7816164E-02  0.1184000E+00
        -11   -1    0    0    0    0  0.00000000000E+00  0.00000000000E+00  0.45593999997E+02  0.45594000000E+02  0.51100000000E-03 0.  1.
         11   -1    0    0    0    0 -0.00000000000E+00 -0.00000000000E+00 -0.45593999997E+02  0.45594000000E+02  0.51100000000E-03 0. -1.
         23    2    1    2    0    0  0.00000000000E+00  0.88817841970E-15  0.00000000000E+00  0.91188000000E+02  0.91188000000E+02 0.  0.
    9900012    2    3    3    0    0 -0.21540772559E+02 -0.42136759797E+01  0.29563830249E+02  0.54367081941E+02  0.39999994901E+02 0.  0.
         12    1    3    3    0    0  0.21540772559E+02  0.42136759797E+01 -0.29563830249E+02  0.36820918059E+02  0.00000000000E+00 0. -1.
         11    1    4    4    0    0 -0.13473319794E+02  0.51379611897E+01  0.99286458427E+00  0.14453884315E+02  0.51100000000E-03 0. -1.
        -11    1    4    4    0    0 -0.24358526157E+01  0.75435239077E+01  0.24465428995E+01  0.82960052634E+01  0.51100000000E-03 0.  1.
         12    1    4    4    0    0 -0.56316001493E+01 -0.16895161077E+02  0.26124422766E+02  0.31617192363E+02  0.00000000000E+00 0. -1.
</event>
<event>
 8    1  0.1271559E-006  0.9118800E+02  0.7816164E-02  0.1184000E+00
        -11   -1    0    0    0    0  0.00000000000E+00  0.00000000000E+00  0.45593999997E+02  0.45594000000E+02  0.51100000000E-03 0. -1.
         11   -1    0    0    0    0 -0.00000000000E+00 -0.00000000000E+00 -0.45593999997E+02  0.45594000000E+02  0.51100000000E-03 0.  1.
         23    2    1    2    0    0  0.00000000000E+00  0.35527136788E-14  0.00000000000E+00  0.91188000000E+02  0.91188000000E+02 0.  0.
    9900012    2    3    3    0    0 -0.20926361700E+02 -0.16560105414E+02 -0.25369849060E+02  0.54367096336E+02  0.40000027717E+02 0.  0.
         12    1    3    3    0    0  0.20926361700E+02  0.16560105414E+02  0.25369849060E+02  0.36820903664E+02  0.00000000000E+00 0. -1.
         11    1    4    4    0    0 -0.30429045425E+02 -0.15500165119E+02 -0.20782244638E+02  0.39976038031E+02  0.51100000000E-03 0. -1.
        -11    1    4    4    0    0  0.21520738931E+00  0.16999122925E+01 -0.43764160480E+01  0.46998972019E+01  0.51100000000E-03 0.  1.
         12    1    4    4    0    0  0.92874763359E+01 -0.27598525876E+01 -0.21118837439E+00  0.96911611031E+01  0.00000000000E+00 0. -1.
</event>
<event>
 8    1  0.1271559E-006  0.9118800E+02  0.7816164E-02  0.1184000E+00
        -11   -1    0    0    0    0  0.00000000000E+00  0.00000000000E+00  0.45593999997E+02  0.45594000000E+02  0.51100000000E-03 0.  1.
         11   -1    0    0    0    0 -0.00000000000E+00 -0.00000000000E+00 -0.45593999997E+02  0.45594000000E+02  0.51100000000E-03 0. -1.
         23    2    1    2    0    0 -0.71054273576E-14 -0.44408920985E-15  0.17763568394E-14  0.91188000000E+02  0.91188000000E+02 0.  0.
    9900012    2    3    3    0    0 -0.34938734362E+02 -0.37113614248E+01  0.11013170307E+02  0.54367091773E+02  0.40000017315E+02 0.  0.
         12    1    3    3    0    0  0.34938734362E+02  0.37113614248E+01 -0.11013170307E+02  0.36820908227E+02  0.00000000000E+00 0. -1.
         11    1    4    4    0    0 -0.15504427803E+02  0.40482738473E+01 -0.67853526358E+01  0.17401632490E+02  0.51100000000E-03 0. -1.
        -11    1    4    4    0    0 -0.16791997981E+02 -0.88017235595E+01  0.17449207134E-01  0.18958951410E+02  0.51100000000E-03 0.  1.
        -12    1    4    4    0    0 -0.26423085778E+01  0.10420882874E+01  0.17781073735E+02  0.18006507874E+02  0.00000000000E+00 0.  1.
</event>
<event>
 8    1  0.1271559E-006  0.9118800E+02  0.7816164E-02  0.1184000E+00
        -11   -1    0    0    0    0  0.00000000000E+00  0.00000000000E+00  0.45593999997E+02  0.45594000000E+02  0.51100000000E-03 0.  1.
         11   -1    0    0    0    0 -0.00000000000E+00 -0.00000000000E+00 -0.45593999997E+02  0.45594000000E+02  0.51100000000E-03 0. -1.
         23    2    1    2    0    0 -0.11102230246E-15 -0.35527136788E-14  0.35527136788E-14  0.91188000000E+02  0.91188000000E+02 0.  0.
    9900012    2    3    3    0    0  0.86886521033E+00  0.31409657875E+02 -0.19195276612E+02  0.54367079604E+02  0.39999989574E+02 0.  0.
        -12    1    3    3    0    0 -0.86886521033E+00 -0.31409657875E+02  0.19195276612E+02  0.36820920396E+02  0.00000000000E+00 0.  1.
         11    1    4    4    0    0 -0.63573758686E+01  0.18052594771E+02  0.34211698601E+01  0.19442654381E+02  0.51100000000E-03 0.  1.
        -11    1    4    4    0    0 -0.29683704149E+01 -0.36301342719E+01 -0.11001516272E+02  0.11959199735E+02  0.51100000000E-03 0. -1.
         12    1    4    4    0    0  0.10194611494E+02  0.16987197376E+02 -0.11614930200E+02  0.22965225489E+02  0.00000000000E+00 0. -1.
</event>
<event>
 8    1  0.1271559E-006  0.9118800E+02  0.7816164E-02  0.1184000E+00
        -11   -1    0    0    0    0  0.00000000000E+00  0.00000000000E+00  0.45593999997E+02  0.45594000000E+02  0.51100000000E-03 0. -1.
         11   -1    0    0    0    0 -0.00000000000E+00 -0.00000000000E+00 -0.45593999997E+02  0.45594000000E+02  0.51100000000E-03 0.  1.
         23    2    1    2    0    0 -0.35527136788E-14  0.88817841970E-15  0.35527136788E-14  0.91188000000E+02  0.91188000000E+02 0.  0.
    9900012    2    3    3    0    0 -0.19309108366E+02 -0.16081331967E+01 -0.31310567814E+02  0.54367089975E+02  0.40000013216E+02 0.  0.
        -12    1    3    3    0    0  0.19309108366E+02  0.16081331967E+01  0.31310567814E+02  0.36820910025E+02  0.00000000000E+00 0.  1.
         11    1    4    4    0    0 -0.22561870259E+02 -0.38988549119E+01 -0.18267536718E+02  0.29290646241E+02  0.51100000000E-03 0. -1.
        -11    1    4    4    0    0  0.21687502043E+01 -0.92714247695E+01 -0.38717151537E+01  0.10278763213E+02  0.51100000000E-03 0.  1.
        -12    1    4    4    0    0  0.10840116887E+01  0.11562146485E+02 -0.91713159419E+01  0.14797680520E+02  0.00000000000E+00 0.  1.
</event>
<event>
 8    1  0.1271559E-006  0.9118800E+02  0.7816164E-02  0.1184000E+00
        -11   -1    0    0    0    0  0.00000000000E+00  0.00000000000E+00  0.45593999997E+02  0.45594000000E+02  0.51100000000E-03 0. -1.
         11   -1    0    0    0    0 -0.00000000000E+00 -0.00000000000E+00 -0.45593999997E+02  0.45594000000E+02  0.51100000000E-03 0.  1.
         23    2    1    2    0    0 -0.17763568394E-14  0.00000000000E+00  0.00000000000E+00  0.91188000000E+02  0.91188000000E+02 0.  0.
    9900012    2    3    3    0    0 -0.13577312537E+02 -0.23538728335E+02 -0.24846841704E+02  0.54367072663E+02  0.39999973749E+02 0.  0.
         12    1    3    3    0    0  0.13577312537E+02  0.23538728335E+02  0.24846841704E+02  0.36820927337E+02  0.00000000000E+00 0. -1.
         11    1    4    4    0    0 -0.36455321982E+01 -0.20143473630E+02 -0.80912444802E+01  0.22011762138E+02  0.51100000000E-03 0. -1.
        -11    1    4    4    0    0 -0.18584849321E+02 -0.33178257535E+01 -0.99106116815E+01  0.21321932750E+02  0.51100000000E-03 0.  1.
        -12    1    4    4    0    0  0.86530689827E+01 -0.77428950992E-01 -0.68449855419E+01  0.11033377775E+02  0.00000000000E+00 0.  1.
</event>
<event>
 8    1  0.1271559E-006  0.9118800E+02  0.7816164E-02  0.1184000E+00
        -11   -1    0    0    0    0  0.00000000000E+00  0.00000000000E+00  0.45593999997E+02  0.45594000000E+02  0.51100000000E-03 0.  1.
         11   -1    0    0    0    0 -0.00000000000E+00 -0.00000000000E+00 -0.45593999997E+02  0.45594000000E+02  0.51100000000E-03 0. -1.
         23    2    1    2    0    0  0.35527136788E-14  0.00000000000E+00  0.00000000000E+00  0.91188000000E+02  0.91188000000E+02 0.  0.
    9900012    2    3    3    0    0  0.28153475794E+02  0.21210222029E+02 -0.10643721570E+02  0.54367074881E+02  0.39999978805E+02 0.  0.
        -12    1    3    3    0    0 -0.28153475794E+02 -0.21210222029E+02  0.10643721570E+02  0.36820925119E+02  0.00000000000E+00 0.  1.
         11    1    4    4    0    0 -0.26557897934E+01  0.84917822616E+01 -0.17440135484E+01  0.90667066195E+01  0.51100000000E-03 0. -1.
        -11    1    4    4    0    0  0.32950122699E+01  0.15020942948E+02  0.22149280085E+01  0.15536786645E+02  0.51100000000E-03 0.  1.
         12    1    4    4    0    0  0.27514253318E+02 -0.23025031812E+01 -0.11114636030E+02  0.29763581616E+02  0.00000000000E+00 0. -1.
</event>
<event>
 8    1  0.1271559E-006  0.9118800E+02  0.7816164E-02  0.1184000E+00
        -11   -1    0    0    0    0  0.00000000000E+00  0.00000000000E+00  0.45593999997E+02  0.45594000000E+02  0.51100000000E-03 0. -1.
         11   -1    0    0    0    0 -0.00000000000E+00 -0.00000000000E+00 -0.45593999997E+02  0.45594000000E+02  0.51100000000E-03 0.  1.
         23    2    1    2    0    0  0.00000000000E+00  0.00000000000E+00  0.00000000000E+00  0.91188000000E+02  0.91188000000E+02 0.  0.
    9900012    2    3    3    0    0 -0.24351408700E+02 -0.61021378151E+01  0.26936082650E+02  0.54367085561E+02  0.40000003153E+02 0.  0.
         12    1    3    3    0    0  0.24351408700E+02  0.61021378151E+01 -0.26936082650E+02  0.36820914439E+02  0.00000000000E+00 0. -1.
         11    1    4    4    0    0 -0.70550410593E+01 -0.44170832121E+01  0.75608831545E+01  0.11245051480E+02  0.51100000000E-03 0. -1.
        -11    1    4    4    0    0 -0.17865012277E+02 -0.15910369781E+01  0.28665315695E+02  0.33814056049E+02  0.51100000000E-03 0.  1.
         12    1    4    4    0    0  0.56864463584E+00 -0.94017624945E-01 -0.92901161995E+01  0.93079780316E+01  0.00000000000E+00 0. -1.
</event>
<event>
 8    1  0.1271559E-006  0.9118800E+02  0.7816164E-02  0.1184000E+00
        -11   -1    0    0    0    0  0.00000000000E+00  0.00000000000E+00  0.45593999997E+02  0.45594000000E+02  0.51100000000E-03 0.  1.
         11   -1    0    0    0    0 -0.00000000000E+00 -0.00000000000E+00 -0.45593999997E+02  0.45594000000E+02  0.51100000000E-03 0. -1.
         23    2    1    2    0    0  0.00000000000E+00  0.88817841970E-15  0.00000000000E+00  0.91188000000E+02  0.91188000000E+02 0.  0.
    9900012    2    3    3    0    0 -0.36140943192E+02  0.50933824567E+01  0.48651510361E+01  0.54367081839E+02  0.39999994668E+02 0.  0.
         12    1    3    3    0    0  0.36140943192E+02 -0.50933824567E+01 -0.48651510361E+01  0.36820918161E+02  0.00000000000E+00 0. -1.
         11    1    4    4    0    0 -0.34896586848E+01  0.24328825288E+00 -0.77036331539E+01  0.84606661050E+01  0.51100000000E-03 0. -1.
        -11    1    4    4    0    0 -0.31169069317E+02 -0.55232454966E+01  0.31397791181E+01  0.31809987993E+02  0.51100000000E-03 0.  1.
        -12    1    4    4    0    0 -0.14822151894E+01  0.10373339700E+02  0.94290050718E+01  0.14096427741E+02  0.00000000000E+00 0.  1.
</event>
<event>
 8    1  0.1271559E-006  0.9118800E+02  0.7816164E-02  0.1184000E+00
        -11   -1    0    0    0    0  0.00000000000E+00  0.00000000000E+00  0.45593999997E+02  0.45594000000E+02  0.51100000000E-03 0. -1.
         11   -1    0    0    0    0 -0.00000000000E+00 -0.00000000000E+00 -0.45593999997E+02  0.45594000000E+02  0.51100000000E-03 0.  1.
         23    2    1    2    0    0  0.00000000000E+00  0.00000000000E+00 -0.17763568394E-14  0.91188000000E+02  0.91188000000E+02 0.  0.
    9900012    2    3    3    0    0  0.36039955140E+02  0.53616217354E+01 -0.53060949623E+01  0.54367082061E+02  0.39999995174E+02 0.  0.
        -12    1    3    3    0    0 -0.36039955140E+02 -0.53616217354E+01  0.53060949623E+01  0.36820917939E+02  0.00000000000E+00 0.  1.
         11    1    4    4    0    0  0.13736871069E+01  0.85712611535E+01  0.44525446016E+01  0.97559565251E+01  0.51100000000E-03 0. -1.
        -11    1    4    4    0    0  0.10526823122E+02 -0.63975678528E+01 -0.15296867508E+02  0.19640189288E+02  0.51100000000E-03 0.  1.
         12    1    4    4    0    0  0.24139444911E+02  0.31879284347E+01  0.55382279437E+01  0.24970936247E+02  0.00000000000E+00 0. -1.
</event>
<event>
 8    1  0.1271559E-006  0.9118800E+02  0.7816164E-02  0.1184000E+00
        -11   -1    0    0    0    0  0.00000000000E+00  0.00000000000E+00  0.45593999997E+02  0.45594000000E+02  0.51100000000E-03 0.  1.
         11   -1    0    0    0    0 -0.00000000000E+00 -0.00000000000E+00 -0.45593999997E+02  0.45594000000E+02  0.51100000000E-03 0. -1.
         23    2    1    2    0    0  0.00000000000E+00 -0.35527136788E-14  0.00000000000E+00  0.91188000000E+02  0.91188000000E+02 0.  0.
    9900012    2    3    3    0    0 -0.17203753924E+02 -0.30076914641E+02 -0.12457472533E+02  0.54367101514E+02  0.40000039522E+02 0.  0.
        -12    1    3    3    0    0  0.17203753924E+02  0.30076914641E+02  0.12457472533E+02  0.36820898486E+02  0.00000000000E+00 0.  1.
         11    1    4    4    0    0 -0.10944079653E+02 -0.23376976209E+02 -0.34587532942E+01  0.26042635634E+02  0.51100000000E-03 0. -1.
        -11    1    4    4    0    0  0.22077635576E+01  0.63438045585E+01  0.42045315888E+01  0.79244029646E+01  0.51100000000E-03 0.  1.
        -12    1    4    4    0    0 -0.84674378291E+01 -0.13043742990E+02 -0.13203250827E+02  0.20400062916E+02  0.00000000000E+00 0.  1.
</event>
<event>
 8    1  0.1271559E-006  0.9118800E+02  0.7816164E-02  0.1184000E+00
        -11   -1    0    0    0    0  0.00000000000E+00  0.00000000000E+00  0.45593999997E+02  0.45594000000E+02  0.51100000000E-03 0. -1.
         11   -1    0    0    0    0 -0.00000000000E+00 -0.00000000000E+00 -0.45593999997E+02  0.45594000000E+02  0.51100000000E-03 0.  1.
         23    2    1    2    0    0  0.00000000000E+00 -0.17763568394E-14  0.00000000000E+00  0.91188000000E+02  0.91188000000E+02 0.  0.
    9900012    2    3    3    0    0  0.20045647036E+02 -0.12997050561E+02  0.28018362327E+02  0.54367083175E+02  0.39999997714E+02 0.  0.
        -12    1    3    3    0    0 -0.20045647036E+02  0.12997050561E+02 -0.28018362327E+02  0.36820916825E+02  0.00000000000E+00 0.  1.
         11    1    4    4    0    0  0.12799966671E+02 -0.17871673603E+02  0.18921280142E+02  0.29004322206E+02  0.51100000000E-03 0. -1.
        -11    1    4    4    0    0 -0.18068573915E+01  0.11818584514E+02  0.26067653408E+01  0.12236784682E+02  0.51100000000E-03 0.  1.
         12    1    4    4    0    0  0.90525377561E+01 -0.69439614713E+01  0.64903168441E+01  0.13125976287E+02  0.00000000000E+00 0. -1.
</event>
<event>
 8    1  0.1271559E-006  0.9118800E+02  0.7816164E-02  0.1184000E+00
        -11   -1    0    0    0    0  0.00000000000E+00  0.00000000000E+00  0.45593999997E+02  0.45594000000E+02  0.51100000000E-03 0.  1.
         11   -1    0    0    0    0 -0.00000000000E+00 -0.00000000000E+00 -0.45593999997E+02  0.45594000000E+02  0.51100000000E-03 0. -1.
         23    2    1    2    0    0  0.00000000000E+00 -0.88817841970E-15  0.00000000000E+00  0.91188000000E+02  0.91188000000E+02 0.  0.
    9900012    2    3    3    0    0 -0.58011733415E+01  0.51684343956E+01 -0.35991864949E+02  0.54367072951E+02  0.39999974406E+02 0.  0.
        -12    1    3    3    0    0  0.58011733415E+01 -0.51684343956E+01  0.35991864949E+02  0.36820927049E+02  0.00000000000E+00 0.  1.
         11    1    4    4    0    0 -0.10460772275E+02 -0.52038297473E+01  0.56506290208E+00  0.11697302979E+02  0.51100000000E-03 0.  1.
        -11    1    4    4    0    0  0.30322446013E+01 -0.23566149406E+01 -0.25329672282E+02  0.25619142052E+02  0.51100000000E-03 0. -1.
        -12    1    4    4    0    0  0.16273543322E+01  0.12728879084E+02 -0.11227255569E+02  0.17050627920E+02  0.00000000000E+00 0.  1.
</event>
<event>
 8    1  0.1271559E-006  0.9118800E+02  0.7816164E-02  0.1184000E+00
        -11   -1    0    0    0    0  0.00000000000E+00  0.00000000000E+00  0.45593999997E+02  0.45594000000E+02  0.51100000000E-03 0. -1.
         11   -1    0    0    0    0 -0.00000000000E+00 -0.00000000000E+00 -0.45593999997E+02  0.45594000000E+02  0.51100000000E-03 0.  1.
         23    2    1    2    0    0  0.35527136788E-14 -0.35527136788E-14  0.35527136788E-14  0.91188000000E+02  0.91188000000E+02 0.  0.
    9900012    2    3    3    0    0 -0.21566870579E+02  0.10015456573E+02 -0.28112984384E+02  0.54367093331E+02  0.40000020867E+02 0.  0.
        -12    1    3    3    0    0  0.21566870579E+02 -0.10015456573E+02  0.28112984384E+02  0.36820906669E+02  0.00000000000E+00 0.  1.
         11    1    4    4    0    0 -0.14898410249E+02  0.52184341123E+01 -0.45864649116E+00  0.15792562787E+02  0.51100000000E-03 0. -1.
        -11    1    4    4    0    0  0.10690147905E+01  0.10901141852E+02 -0.20562260831E+01  0.11144763446E+02  0.51100000000E-03 0.  1.
         12    1    4    4    0    0 -0.77374751206E+01 -0.61041193920E+01 -0.25598111810E+02  0.27429767098E+02  0.00000000000E+00 0. -1.
</event>
<event>
 8    1  0.1271559E-006  0.9118800E+02  0.7816164E-02  0.1184000E+00
        -11   -1    0    0    0    0  0.00000000000E+00  0.00000000000E+00  0.45593999997E+02  0.45594000000E+02  0.51100000000E-03 0. -1.
         11   -1    0    0    0    0 -0.00000000000E+00 -0.00000000000E+00 -0.45593999997E+02  0.45594000000E+02  0.51100000000E-03 0.  1.
         23    2    1    2    0    0  0.17763568394E-14  0.35527136788E-14 -0.17763568394E-14  0.91188000000E+02  0.91188000000E+02 0.  0.
    9900012    2    3    3    0    0 -0.15752671239E+02 -0.31957561298E+02  0.92923482491E+01  0.54367080521E+02  0.39999991664E+02 0.  0.
        -12    1    3    3    0    0  0.15752671239E+02  0.31957561298E+02 -0.92923482491E+01  0.36820919479E+02  0.00000000000E+00 0.  1.
         11    1    4    4    0    0 -0.24753787522E+02 -0.20056775325E+02  0.65195241654E+00  0.31866114845E+02  0.51100000000E-03 0. -1.
        -11    1    4    4    0    0  0.83163613499E+01 -0.16257396900E+01 -0.82501940181E+00  0.85138447787E+01  0.51100000000E-03 0.  1.
        -12    1    4    4    0    0  0.68475493255E+00 -0.10275046283E+02  0.94654152344E+01  0.13987120897E+02  0.00000000000E+00 0.  1.
</event>
<event>
 8    1  0.1271559E-006  0.9118800E+02  0.7816164E-02  0.1184000E+00
        -11   -1    0    0    0    0  0.00000000000E+00  0.00000000000E+00  0.45593999997E+02  0.45594000000E+02  0.51100000000E-03 0. -1.
         11   -1    0    0    0    0 -0.00000000000E+00 -0.00000000000E+00 -0.45593999997E+02  0.45594000000E+02  0.51100000000E-03 0.  1.
         23    2    1    2    0    0  0.35527136788E-14  0.00000000000E+00 -0.35527136788E-14  0.91188000000E+02  0.91188000000E+02 0.  0.
    9900012    2    3    3    0    0 -0.18459412072E+02 -0.11363526492E+02  0.29764065255E+02  0.54367092776E+02  0.40000019600E+02 0.  0.
        -12    1    3    3    0    0  0.18459412072E+02  0.11363526492E+02 -0.29764065255E+02  0.36820907224E+02  0.00000000000E+00 0.  1.
         11    1    4    4    0    0 -0.24331058564E+01  0.96790016480E+01  0.22845599938E+02  0.24930393374E+02  0.51100000000E-03 0. -1.
        -11    1    4    4    0    0 -0.16804545462E+02 -0.20028384799E+02  0.42631377717E+01  0.26489682705E+02  0.51100000000E-03 0.  1.
        -12    1    4    4    0    0  0.77823924719E+00 -0.10141433403E+01  0.26553275452E+01  0.29470166971E+01  0.00000000000E+00 0.  1.
</event>
<event>
 8    1  0.1271559E-006  0.9118800E+02  0.7816164E-02  0.1184000E+00
        -11   -1    0    0    0    0  0.00000000000E+00  0.00000000000E+00  0.45593999997E+02  0.45594000000E+02  0.51100000000E-03 0. -1.
         11   -1    0    0    0    0 -0.00000000000E+00 -0.00000000000E+00 -0.45593999997E+02  0.45594000000E+02  0.51100000000E-03 0.  1.
         23    2    1    2    0    0  0.00000000000E+00  0.00000000000E+00  0.00000000000E+00  0.91188000000E+02  0.91188000000E+02 0.  0.
    9900012    2    3    3    0    0  0.10324431194E+02 -0.34794675478E+02  0.62062318968E+01  0.54367073403E+02  0.39999975437E+02 0.  0.
        -12    1    3    3    0    0 -0.10324431194E+02  0.34794675478E+02 -0.62062318968E+01  0.36820926597E+02  0.00000000000E+00 0.  1.
         11    1    4    4    0    0 -0.82919665142E+00 -0.21754449366E+02 -0.24747357030E+01  0.21910453016E+02  0.51100000000E-03 0. -1.
        -11    1    4    4    0    0  0.11219325086E+02 -0.12479484453E+02 -0.59574211302E+01  0.17807348325E+02  0.51100000000E-03 0.  1.
        -12    1    4    4    0    0 -0.65697240094E-01 -0.56074165895E+00  0.14638388730E+02  0.14649272062E+02  0.00000000000E+00 0.  1.
</event>
<event>
 8    1  0.1271559E-006  0.9118800E+02  0.7816164E-02  0.1184000E+00
        -11   -1    0    0    0    0  0.00000000000E+00  0.00000000000E+00  0.45593999997E+02  0.45594000000E+02  0.51100000000E-03 0.  1.
         11   -1    0    0    0    0 -0.00000000000E+00 -0.00000000000E+00 -0.45593999997E+02  0.45594000000E+02  0.51100000000E-03 0. -1.
         23    2    1    2    0    0  0.00000000000E+00  0.00000000000E+00  0.35527136788E-14  0.91188000000E+02  0.91188000000E+02 0.  0.
    9900012    2    3    3    0    0  0.19034523987E+02  0.22298706855E+02  0.22276030893E+02  0.54367258791E+02  0.40000398064E+02 0.  0.
         12    1    3    3    0    0 -0.19034523987E+02 -0.22298706855E+02 -0.22276030893E+02  0.36820741209E+02  0.00000000000E+00 0. -1.
         11    1    4    4    0    0  0.23122195878E+01 -0.71540208660E+01  0.28728222677E+01  0.80485701846E+01  0.51100000000E-03 0. -1.
        -11    1    4    4    0    0  0.15183013445E+02  0.65813335318E+01  0.16226972476E+02  0.23176550311E+02  0.51100000000E-03 0.  1.
         12    1    4    4    0    0  0.15392909548E+01  0.22871394189E+02  0.31762361493E+01  0.23142138295E+02  0.00000000000E+00 0. -1.
</event>
<event>
 8    1  0.1271559E-006  0.9118800E+02  0.7816164E-02  0.1184000E+00
        -11   -1    0    0    0    0  0.00000000000E+00  0.00000000000E+00  0.45593999997E+02  0.45594000000E+02  0.51100000000E-03 0. -1.
         11   -1    0    0    0    0 -0.00000000000E+00 -0.00000000000E+00 -0.45593999997E+02  0.45594000000E+02  0.51100000000E-03 0.  1.
         23    2    1    2    0    0 -0.17763568394E-14  0.00000000000E+00  0.00000000000E+00  0.91188000000E+02  0.91188000000E+02 0.  0.
    9900012    2    3    3    0    0  0.11850295233E+02  0.19976015160E+02 -0.28571080019E+02  0.54367118801E+02  0.40000078931E+02 0.  0.
         12    1    3    3    0    0 -0.11850295233E+02 -0.19976015160E+02  0.28571080019E+02  0.36820881199E+02  0.00000000000E+00 0. -1.
         11    1    4    4    0    0  0.96646166504E+01  0.26083509238E+01  0.36777396797E+01  0.10664618088E+02  0.51100000000E-03 0. -1.
        -11    1    4    4    0    0 -0.90812308170E+01  0.91901288513E+01 -0.24677508069E+02  0.27855100542E+02  0.51100000000E-03 0.  1.
        -12    1    4    4    0    0  0.11266909400E+02  0.81775353851E+01 -0.75713116303E+01  0.15847400172E+02  0.00000000000E+00 0.  1.
</event>
<event>
 8    1  0.1271559E-006  0.9118800E+02  0.7816164E-02  0.1184000E+00
        -11   -1    0    0    0    0  0.00000000000E+00  0.00000000000E+00  0.45593999997E+02  0.45594000000E+02  0.51100000000E-03 0. -1.
         11   -1    0    0    0    0 -0.00000000000E+00 -0.00000000000E+00 -0.45593999997E+02  0.45594000000E+02  0.51100000000E-03 0.  1.
         23    2    1    2    0    0  0.66613381478E-15  0.00000000000E+00 -0.35527136788E-14  0.91188000000E+02  0.91188000000E+02 0.  0.
    9900012    2    3    3    0    0 -0.63183479086E+00 -0.27199943923E+02 -0.24810149239E+02  0.54367086515E+02  0.40000005328E+02 0.  0.
         12    1    3    3    0    0  0.63183479086E+00  0.27199943923E+02  0.24810149239E+02  0.36820913485E+02  0.00000000000E+00 0. -1.
         11    1    4    4    0    0 -0.40183379056E+01  0.70437601105E+01 -0.22219629621E+01  0.84082528318E+01  0.51100000000E-03 0. -1.
        -11    1    4    4    0    0  0.89378046991E+01 -0.28396951866E+02 -0.23385711669E+02  0.37857135901E+02  0.51100000000E-03 0.  1.
         12    1    4    4    0    0 -0.55513015844E+01 -0.58467521684E+01  0.79752539241E+00  0.81016977820E+01  0.00000000000E+00 0. -1.
</event>
<event>
 8    1  0.1271559E-006  0.9118800E+02  0.7816164E-02  0.1184000E+00
        -11   -1    0    0    0    0  0.00000000000E+00  0.00000000000E+00  0.45593999997E+02  0.45594000000E+02  0.51100000000E-03 0.  1.
         11   -1    0    0    0    0 -0.00000000000E+00 -0.00000000000E+00 -0.45593999997E+02  0.45594000000E+02  0.51100000000E-03 0. -1.
         23    2    1    2    0    0  0.17763568394E-14  0.00000000000E+00  0.00000000000E+00  0.91188000000E+02  0.91188000000E+02 0.  0.
    9900012    2    3    3    0    0 -0.58300286496E+01 -0.55253713033E+01  0.35934106107E+02  0.54367096375E+02  0.40000027805E+02 0.  0.
         12    1    3    3    0    0  0.58300286496E+01  0.55253713033E+01 -0.35934106107E+02  0.36820903625E+02  0.00000000000E+00 0. -1.
         11    1    4    4    0    0 -0.12095791525E+02  0.22279066629E+01  0.20716313974E+02  0.24092268586E+02  0.51100000000E-03 0. -1.
        -11    1    4    4    0    0  0.26906891702E+01 -0.33333305003E+01  0.21430079833E+02  0.21854043616E+02  0.51100000000E-03 0.  1.
         12    1    4    4    0    0  0.35750737057E+01 -0.44199474660E+01 -0.62122877005E+01  0.84207841723E+01  0.00000000000E+00 0. -1.
</event>
<event>
 8    1  0.1271559E-006  0.9118800E+02  0.7816164E-02  0.1184000E+00
        -11   -1    0    0    0    0  0.00000000000E+00  0.00000000000E+00  0.45593999997E+02  0.45594000000E+02  0.51100000000E-03 0. -1.
         11   -1    0    0    0    0 -0.00000000000E+00 -0.00000000000E+00 -0.45593999997E+02  0.45594000000E+02  0.51100000000E-03 0.  1.
         23    2    1    2    0    0  0.00000000000E+00  0.35527136788E-14  0.00000000000E+00  0.91188000000E+02  0.91188000000E+02 0.  0.
    9900012    2    3    3    0    0  0.66128278449E+01  0.12365045713E+02  0.34046378360E+02  0.54367085739E+02  0.40000003559E+02 0.  0.
        -12    1    3    3    0    0 -0.66128278449E+01 -0.12365045713E+02 -0.34046378360E+02  0.36820914261E+02  0.00000000000E+00 0.  1.
         11    1    4    4    0    0  0.70883080930E+01  0.18449328440E+02  0.20462428091E+02  0.28448774932E+02  0.51100000000E-03 0. -1.
        -11    1    4    4    0    0  0.95516097433E+01 -0.72178865963E+01  0.77656814192E+01  0.14270141687E+02  0.51100000000E-03 0.  1.
        -12    1    4    4    0    0 -0.10027089991E+02  0.11336038701E+01  0.58182688503E+01  0.11648169120E+02  0.00000000000E+00 0.  1.
</event>
<event>
 8    1  0.1271559E-006  0.9118800E+02  0.7816164E-02  0.1184000E+00
        -11   -1    0    0    0    0  0.00000000000E+00  0.00000000000E+00  0.45593999997E+02  0.45594000000E+02  0.51100000000E-03 0. -1.
         11   -1    0    0    0    0 -0.00000000000E+00 -0.00000000000E+00 -0.45593999997E+02  0.45594000000E+02  0.51100000000E-03 0.  1.
         23    2    1    2    0    0 -0.35527136788E-14  0.44408920985E-15  0.00000000000E+00  0.91188000000E+02  0.91188000000E+02 0.  0.
    9900012    2    3    3    0    0  0.31807012805E+02 -0.38866263925E+01 -0.18138009575E+02  0.54367091270E+02  0.40000016169E+02 0.  0.
         12    1    3    3    0    0 -0.31807012805E+02  0.38866263925E+01  0.18138009575E+02  0.36820908730E+02  0.00000000000E+00 0. -1.
         11    1    4    4    0    0  0.30074895873E+01 -0.10588176701E+02 -0.13807365473E+02  0.17657797741E+02  0.51100000000E-03 0. -1.
        -11    1    4    4    0    0  0.79558998643E+01  0.78614018495E+01 -0.10079446349E+02  0.15056334901E+02  0.51100000000E-03 0.  1.
         12    1    4    4    0    0  0.20843623354E+02 -0.11598515407E+01  0.57488022470E+01  0.21652958629E+02  0.00000000000E+00 0. -1.
</event>
<event>
 8    1  0.1271559E-006  0.9118800E+02  0.7816164E-02  0.1184000E+00
        -11   -1    0    0    0    0  0.00000000000E+00  0.00000000000E+00  0.45593999997E+02  0.45594000000E+02  0.51100000000E-03 0. -1.
         11   -1    0    0    0    0 -0.00000000000E+00 -0.00000000000E+00 -0.45593999997E+02  0.45594000000E+02  0.51100000000E-03 0.  1.
         23    2    1    2    0    0 -0.35527136788E-14  0.00000000000E+00  0.35527136788E-14  0.91188000000E+02  0.91188000000E+02 0.  0.
    9900012    2    3    3    0    0 -0.30069267183E+02  0.17902517131E+02 -0.11450716439E+02  0.54367083994E+02  0.39999999582E+02 0.  0.
         12    1    3    3    0    0  0.30069267183E+02 -0.17902517131E+02  0.11450716439E+02  0.36820916006E+02  0.00000000000E+00 0. -1.
         11    1    4    4    0    0 -0.49944555809E+00  0.65859025871E+01 -0.48343637954E+01  0.81850248821E+01  0.51100000000E-03 0. -1.
        -11    1    4    4    0    0 -0.26681582411E+01  0.15780833894E+02  0.46654086965E+01  0.16670927549E+02  0.51100000000E-03 0.  1.
        -12    1    4    4    0    0 -0.26901663383E+02 -0.44642193496E+01 -0.11281761340E+02  0.29511131563E+02  0.00000000000E+00 0.  1.
</event>
<event>
 8    1  0.1271559E-006  0.9118800E+02  0.7816164E-02  0.1184000E+00
        -11   -1    0    0    0    0  0.00000000000E+00  0.00000000000E+00  0.45593999997E+02  0.45594000000E+02  0.51100000000E-03 0. -1.
         11   -1    0    0    0    0 -0.00000000000E+00 -0.00000000000E+00 -0.45593999997E+02  0.45594000000E+02  0.51100000000E-03 0.  1.
         23    2    1    2    0    0  0.00000000000E+00 -0.71054273576E-14  0.00000000000E+00  0.91188000000E+02  0.91188000000E+02 0.  0.
    9900012    2    3    3    0    0 -0.65126032162E+01 -0.33803982229E+02  0.13063580240E+02  0.54367077363E+02  0.39999984464E+02 0.  0.
         12    1    3    3    0    0  0.65126032162E+01  0.33803982229E+02 -0.13063580240E+02  0.36820922637E+02  0.00000000000E+00 0. -1.
         11    1    4    4    0    0  0.34819864645E+01 -0.23266623270E+01 -0.51125670800E+01  0.66087767197E+01  0.51100000000E-03 0. -1.
        -11    1    4    4    0    0 -0.32985066995E+01  0.76503186215E+00 -0.60114151420E+01  0.68994588532E+01  0.51100000000E-03 0.  1.
        -12    1    4    4    0    0 -0.66960829811E+01 -0.32242351764E+02  0.24187562462E+02  0.40858841790E+02  0.00000000000E+00 0.  1.
</event>
<event>
 8    1  0.1271559E-006  0.9118800E+02  0.7816164E-02  0.1184000E+00
        -11   -1    0    0    0    0  0.00000000000E+00  0.00000000000E+00  0.45593999997E+02  0.45594000000E+02  0.51100000000E-03 0.  1.
         11   -1    0    0    0    0 -0.00000000000E+00 -0.00000000000E+00 -0.45593999997E+02  0.45594000000E+02  0.51100000000E-03 0. -1.
         23    2    1    2    0    0  0.00000000000E+00  0.00000000000E+00  0.35527136788E-14  0.91188000000E+02  0.91188000000E+02 0.  0.
    9900012    2    3    3    0    0 -0.22788849359E+02 -0.16784661207E+01  0.28872663526E+02  0.54367087427E+02  0.40000007407E+02 0.  0.
         12    1    3    3    0    0  0.22788849359E+02  0.16784661207E+01 -0.28872663526E+02  0.36820912573E+02  0.00000000000E+00 0. -1.
         11    1    4    4    0    0  0.20835269641E+00 -0.14649139056E+01 -0.13626820562E+01  0.20115382781E+01  0.51100000000E-03 0. -1.
        -11    1    4    4    0    0 -0.25735056296E+02 -0.12264769606E+01  0.41368162859E+01  0.26094264073E+02  0.51100000000E-03 0.  1.
        -12    1    4    4    0    0  0.27378542401E+01  0.10129247455E+01  0.26098529296E+02  0.26261285075E+02  0.00000000000E+00 0.  1.
</event>
<event>
 8    1  0.1271559E-006  0.9118800E+02  0.7816164E-02  0.1184000E+00
        -11   -1    0    0    0    0  0.00000000000E+00  0.00000000000E+00  0.45593999997E+02  0.45594000000E+02  0.51100000000E-03 0.  1.
         11   -1    0    0    0    0 -0.00000000000E+00 -0.00000000000E+00 -0.45593999997E+02  0.45594000000E+02  0.51100000000E-03 0. -1.
         23    2    1    2    0    0  0.88817841970E-15  0.00000000000E+00  0.00000000000E+00  0.91188000000E+02  0.91188000000E+02 0.  0.
    9900012    2    3    3    0    0 -0.20261640408E+01 -0.90868907909E+01 -0.35624465053E+02  0.54367089700E+02  0.40000012590E+02 0.  0.
        -12    1    3    3    0    0  0.20261640408E+01  0.90868907909E+01  0.35624465053E+02  0.36820910300E+02  0.00000000000E+00 0.  1.
         11    1    4    4    0    0 -0.80521953734E+01 -0.46669771603E+01 -0.16343564138E+02  0.18807727538E+02  0.51100000000E-03 0. -1.
        -11    1    4    4    0    0  0.15889450479E+01 -0.15606660788E+02 -0.17316259968E+02  0.23365475960E+02  0.51100000000E-03 0.  1.
        -12    1    4    4    0    0  0.44370862847E+01  0.11186747157E+02 -0.19646409471E+01  0.12193886202E+02  0.00000000000E+00 0.  1.
</event>
<event>
 8    1  0.1271559E-006  0.9118800E+02  0.7816164E-02  0.1184000E+00
        -11   -1    0    0    0    0  0.00000000000E+00  0.00000000000E+00  0.45593999997E+02  0.45594000000E+02  0.51100000000E-03 0.  1.
         11   -1    0    0    0    0 -0.00000000000E+00 -0.00000000000E+00 -0.45593999997E+02  0.45594000000E+02  0.51100000000E-03 0. -1.
         23    2    1    2    0    0  0.00000000000E+00 -0.88817841970E-15  0.00000000000E+00  0.91188000000E+02  0.91188000000E+02 0.  0.
    9900012    2    3    3    0    0  0.13531118621E+02 -0.70433046980E+01  0.33512387965E+02  0.54367089374E+02  0.40000011846E+02 0.  0.
         12    1    3    3    0    0 -0.13531118621E+02  0.70433046980E+01 -0.33512387965E+02  0.36820910626E+02  0.00000000000E+00 0. -1.
         11    1    4    4    0    0 -0.24163653676E+01 -0.54175281759E+01 -0.37601100801E+01  0.70233084229E+01  0.51100000000E-03 0. -1.
        -11    1    4    4    0    0  0.18368428302E+02  0.52701431608E+01  0.16241524717E+02  0.25079088751E+02  0.51100000000E-03 0.  1.
        -12    1    4    4    0    0 -0.24209443127E+01 -0.68959196829E+01  0.21030973328E+02  0.22264692200E+02  0.00000000000E+00 0.  1.
</event>
<event>
 8    1  0.1271559E-006  0.9118800E+02  0.7816164E-02  0.1184000E+00
        -11   -1    0    0    0    0  0.00000000000E+00  0.00000000000E+00  0.45593999997E+02  0.45594000000E+02  0.51100000000E-03 0. -1.
         11   -1    0    0    0    0 -0.00000000000E+00 -0.00000000000E+00 -0.45593999997E+02  0.45594000000E+02  0.51100000000E-03 0.  1.
         23    2    1    2    0    0  0.00000000000E+00  0.11102230246E-15  0.00000000000E+00  0.91188000000E+02  0.91188000000E+02 0.  0.
    9900012    2    3    3    0    0  0.26696270932E+02 -0.70165131391E+00 -0.25349496432E+02  0.54367079783E+02  0.39999989982E+02 0.  0.
         12    1    3    3    0    0 -0.26696270932E+02  0.70165131391E+00  0.25349496432E+02  0.36820920217E+02  0.00000000000E+00 0. -1.
         11    1    4    4    0    0  0.14127147802E+02 -0.16943444915E+02 -0.16152165380E+02  0.27341343737E+02  0.51100000000E-03 0.  1.
        -11    1    4    4    0    0  0.39409132533E+01  0.15449757201E+02 -0.91044722861E+01  0.18360751910E+02  0.51100000000E-03 0. -1.
         12    1    4    4    0    0  0.86282098769E+01  0.79203640054E+00 -0.92858765566E-01  0.86649841367E+01  0.00000000000E+00 0. -1.
</event>
<event>
 8    1  0.1271559E-006  0.9118800E+02  0.7816164E-02  0.1184000E+00
        -11   -1    0    0    0    0  0.00000000000E+00  0.00000000000E+00  0.45593999997E+02  0.45594000000E+02  0.51100000000E-03 0.  1.
         11   -1    0    0    0    0 -0.00000000000E+00 -0.00000000000E+00 -0.45593999997E+02  0.45594000000E+02  0.51100000000E-03 0. -1.
         23    2    1    2    0    0  0.00000000000E+00  0.17763568394E-14  0.00000000000E+00  0.91188000000E+02  0.91188000000E+02 0.  0.
    9900012    2    3    3    0    0 -0.16301975225E+02 -0.79238821548E+01  0.32050538545E+02  0.54367091189E+02  0.40000015984E+02 0.  0.
         12    1    3    3    0    0  0.16301975225E+02  0.79238821548E+01 -0.32050538545E+02  0.36820908811E+02  0.00000000000E+00 0. -1.
         11    1    4    4    0    0 -0.81627513341E+01  0.12508621744E+01 -0.50698659437E+01  0.96901344918E+01  0.51100000000E-03 0. -1.
        -11    1    4    4    0    0 -0.84043018793E+01 -0.15896646036E+02  0.24703354589E+02  0.30554727514E+02  0.51100000000E-03 0.  1.
         12    1    4    4    0    0  0.26507798817E+00  0.67219017065E+01  0.12417049899E+02  0.14122229183E+02  0.00000000000E+00 0. -1.
</event>
<event>
 8    1  0.1271559E-006  0.9118800E+02  0.7816164E-02  0.1184000E+00
        -11   -1    0    0    0    0  0.00000000000E+00  0.00000000000E+00  0.45593999997E+02  0.45594000000E+02  0.51100000000E-03 0.  1.
         11   -1    0    0    0    0 -0.00000000000E+00 -0.00000000000E+00 -0.45593999997E+02  0.45594000000E+02  0.51100000000E-03 0. -1.
         23    2    1    2    0    0  0.00000000000E+00  0.00000000000E+00  0.00000000000E+00  0.91188000000E+02  0.91188000000E+02 0.  0.
    9900012    2    3    3    0    0 -0.27694173908E+02 -0.92357713420E+01 -0.22439090920E+02  0.54367088251E+02  0.40000009285E+02 0.  0.
         12    1    3    3    0    0  0.27694173908E+02  0.92357713420E+01  0.22439090920E+02  0.36820911749E+02  0.00000000000E+00 0. -1.
         11    1    4    4    0    0  0.63626051833E+01  0.10502469776E+01  0.23173140386E+01  0.68524235164E+01  0.51100000000E-03 0. -1.
        -11    1    4    4    0    0 -0.32563813112E+02 -0.94582881683E+01 -0.14103085004E+02  0.36725442766E+02  0.51100000000E-03 0.  1.
         12    1    4    4    0    0 -0.14929659798E+01 -0.82773015128E+00 -0.10653319955E+02  0.10789221969E+02  0.00000000000E+00 0. -1.
</event>
<event>
 8    1  0.1271559E-006  0.9118800E+02  0.7816164E-02  0.1184000E+00
        -11   -1    0    0    0    0  0.00000000000E+00  0.00000000000E+00  0.45593999997E+02  0.45594000000E+02  0.51100000000E-03 0.  1.
         11   -1    0    0    0    0 -0.00000000000E+00 -0.00000000000E+00 -0.45593999997E+02  0.45594000000E+02  0.51100000000E-03 0. -1.
         23    2    1    2    0    0  0.17763568394E-14  0.12212453271E-14  0.00000000000E+00  0.91188000000E+02  0.91188000000E+02 0.  0.
    9900012    2    3    3    0    0  0.86272494906E+01  0.57524224138E+00  0.35791332972E+02  0.54367084023E+02  0.39999999648E+02 0.  0.
         12    1    3    3    0    0 -0.86272494906E+01 -0.57524224138E+00 -0.35791332972E+02  0.36820915977E+02  0.00000000000E+00 0. -1.
         11    1    4    4    0    0  0.97118038182E+01  0.92603505731E+01  0.43688196576E+01  0.14112399215E+02  0.51100000000E-03 0. -1.
        -11    1    4    4    0    0  0.63275174298E-01  0.53502369522E+01  0.23490604581E+02  0.24092271437E+02  0.51100000000E-03 0.  1.
        -12    1    4    4    0    0 -0.11478295018E+01 -0.14035345284E+02  0.79319087342E+01  0.16162413371E+02  0.00000000000E+00 0.  1.
</event>
<event>
 8    1  0.1271559E-006  0.9118800E+02  0.7816164E-02  0.1184000E+00
        -11   -1    0    0    0    0  0.00000000000E+00  0.00000000000E+00  0.45593999997E+02  0.45594000000E+02  0.51100000000E-03 0. -1.
         11   -1    0    0    0    0 -0.00000000000E+00 -0.00000000000E+00 -0.45593999997E+02  0.45594000000E+02  0.51100000000E-03 0.  1.
         23    2    1    2    0    0  0.00000000000E+00  0.00000000000E+00  0.00000000000E+00  0.91188000000E+02  0.91188000000E+02 0.  0.
    9900012    2    3    3    0    0  0.23750578647E+02  0.13218966855E+02 -0.24838536444E+02  0.54367028211E+02  0.39999872413E+02 0.  0.
         12    1    3    3    0    0 -0.23750578647E+02 -0.13218966855E+02  0.24838536444E+02  0.36820971789E+02  0.00000000000E+00 0. -1.
         11    1    4    4    0    0  0.20102855274E+01 -0.81147373617E+01  0.62472714423E+01  0.10436407959E+02  0.51100000000E-03 0. -1.
        -11    1    4    4    0    0  0.11254069987E+02  0.13914535782E+02 -0.15041622857E+02  0.23377741887E+02  0.51100000000E-03 0.  1.
         12    1    4    4    0    0  0.10486223133E+02  0.74191684340E+01 -0.16044185030E+02  0.20552878366E+02  0.00000000000E+00 0. -1.
</event>
<event>
 8    1  0.1271559E-006  0.9118800E+02  0.7816164E-02  0.1184000E+00
        -11   -1    0    0    0    0  0.00000000000E+00  0.00000000000E+00  0.45593999997E+02  0.45594000000E+02  0.51100000000E-03 0. -1.
         11   -1    0    0    0    0 -0.00000000000E+00 -0.00000000000E+00 -0.45593999997E+02  0.45594000000E+02  0.51100000000E-03 0.  1.
         23    2    1    2    0    0  0.00000000000E+00  0.00000000000E+00  0.88817841970E-15  0.91188000000E+02  0.91188000000E+02 0.  0.
    9900012    2    3    3    0    0  0.29813744389E+02  0.21076237069E+02 -0.47658556634E+01  0.54367075192E+02  0.39999979516E+02 0.  0.
        -12    1    3    3    0    0 -0.29813744389E+02 -0.21076237069E+02  0.47658556634E+01  0.36820924808E+02  0.00000000000E+00 0.  1.
         11    1    4    4    0    0  0.17141856553E+01  0.51015348936E+01 -0.12214011254E+01  0.55186874981E+01  0.51100000000E-03 0.  1.
        -11    1    4    4    0    0  0.15833235099E+02  0.27232021647E+02  0.12424087329E+01  0.31524877739E+02  0.51100000000E-03 0. -1.
        -12    1    4    4    0    0  0.12266323635E+02 -0.11257319472E+02 -0.47868632710E+01  0.17323509956E+02  0.00000000000E+00 0.  1.
</event>
<event>
 8    1  0.1271559E-006  0.9118800E+02  0.7816164E-02  0.1184000E+00
        -11   -1    0    0    0    0  0.00000000000E+00  0.00000000000E+00  0.45593999997E+02  0.45594000000E+02  0.51100000000E-03 0.  1.
         11   -1    0    0    0    0 -0.00000000000E+00 -0.00000000000E+00 -0.45593999997E+02  0.45594000000E+02  0.51100000000E-03 0. -1.
         23    2    1    2    0    0  0.00000000000E+00  0.35527136788E-14  0.00000000000E+00  0.91188000000E+02  0.91188000000E+02 0.  0.
    9900012    2    3    3    0    0 -0.96104394136E+01  0.24399077296E+02  0.25847801338E+02  0.54367022927E+02  0.39999860366E+02 0.  0.
         12    1    3    3    0    0  0.96104394136E+01 -0.24399077296E+02 -0.25847801338E+02  0.36820977073E+02  0.00000000000E+00 0. -1.
         11    1    4    4    0    0 -0.51922538824E+01  0.21872582124E+02  0.11630028403E+02  0.25310608647E+02  0.51100000000E-03 0. -1.
        -11    1    4    4    0    0  0.73808532521E+01  0.56086016680E+01 -0.12560574128E+01  0.93547361206E+01  0.51100000000E-03 0.  1.
        -12    1    4    4    0    0 -0.11799038783E+02 -0.30821064965E+01  0.15473830348E+02  0.19701678160E+02  0.00000000000E+00 0.  1.
</event>
<event>
 8    1  0.1271559E-006  0.9118800E+02  0.7816164E-02  0.1184000E+00
        -11   -1    0    0    0    0  0.00000000000E+00  0.00000000000E+00  0.45593999997E+02  0.45594000000E+02  0.51100000000E-03 0.  1.
         11   -1    0    0    0    0 -0.00000000000E+00 -0.00000000000E+00 -0.45593999997E+02  0.45594000000E+02  0.51100000000E-03 0. -1.
         23    2    1    2    0    0  0.35527136788E-14  0.88817841970E-15  0.00000000000E+00  0.91188000000E+02  0.91188000000E+02 0.  0.
    9900012    2    3    3    0    0  0.22931781478E+02  0.73694447941E+01  0.27849626019E+02  0.54367122937E+02  0.40000088359E+02 0.  0.
         12    1    3    3    0    0 -0.22931781478E+02 -0.73694447941E+01 -0.27849626019E+02  0.36820877063E+02  0.00000000000E+00 0. -1.
         11    1    4    4    0    0 -0.30122162809E+01 -0.77756387855E+01  0.64251424493E+01  0.10526939783E+02  0.51100000000E-03 0. -1.
        -11    1    4    4    0    0  0.42376609765E+01  0.10350103647E+02  0.18222839489E+02  0.21381166838E+02  0.51100000000E-03 0.  1.
        -12    1    4    4    0    0  0.21706336782E+02  0.47949799329E+01  0.32016440812E+01  0.22459016316E+02  0.00000000000E+00 0.  1.
</event>
<event>
 8    1  0.1271559E-006  0.9118800E+02  0.7816164E-02  0.1184000E+00
        -11   -1    0    0    0    0  0.00000000000E+00  0.00000000000E+00  0.45593999997E+02  0.45594000000E+02  0.51100000000E-03 0.  1.
         11   -1    0    0    0    0 -0.00000000000E+00 -0.00000000000E+00 -0.45593999997E+02  0.45594000000E+02  0.51100000000E-03 0. -1.
         23    2    1    2    0    0  0.66613381478E-15  0.17763568394E-14  0.00000000000E+00  0.91188000000E+02  0.91188000000E+02 0.  0.
    9900012    2    3    3    0    0  0.16542302692E+01  0.86084941634E+01 -0.35762227328E+02  0.54367088102E+02  0.40000008947E+02 0.  0.
        -12    1    3    3    0    0 -0.16542302692E+01 -0.86084941634E+01  0.35762227328E+02  0.36820911898E+02  0.00000000000E+00 0.  1.
         11    1    4    4    0    0  0.53270135861E+00  0.16838433963E+02 -0.17895378306E+02  0.24577656399E+02  0.51100000000E-03 0.  1.
        -11    1    4    4    0    0 -0.69597967577E+01  0.36877542677E+01 -0.11747911218E+02  0.14143964108E+02  0.51100000000E-03 0. -1.
         12    1    4    4    0    0  0.80813256683E+01 -0.11917694067E+02 -0.61189378034E+01  0.15645467596E+02  0.00000000000E+00 0. -1.
</event>
<event>
 8    1  0.1271559E-006  0.9118800E+02  0.7816164E-02  0.1184000E+00
        -11   -1    0    0    0    0  0.00000000000E+00  0.00000000000E+00  0.45593999997E+02  0.45594000000E+02  0.51100000000E-03 0.  1.
         11   -1    0    0    0    0 -0.00000000000E+00 -0.00000000000E+00 -0.45593999997E+02  0.45594000000E+02  0.51100000000E-03 0. -1.
         23    2    1    2    0    0 -0.17763568394E-14  0.00000000000E+00  0.00000000000E+00  0.91188000000E+02  0.91188000000E+02 0.  0.
    9900012    2    3    3    0    0 -0.11163950866E+02 -0.32042913077E+02 -0.14296795430E+02  0.54367076098E+02  0.39999981580E+02 0.  0.
        -12    1    3    3    0    0  0.11163950866E+02  0.32042913077E+02  0.14296795430E+02  0.36820923902E+02  0.00000000000E+00 0.  1.
         11    1    4    4    0    0  0.28587288000E+01 -0.81329379490E+01 -0.55090391543E+01  0.10230665799E+02  0.51100000000E-03 0. -1.
        -11    1    4    4    0    0 -0.13961625142E+02  0.46174105000E+01 -0.23558635318E+01  0.14892869085E+02  0.51100000000E-03 0.  1.
         12    1    4    4    0    0 -0.61054524274E-01 -0.28527385628E+02 -0.64318927440E+01  0.29243541214E+02  0.00000000000E+00 0. -1.
</event>
<event>
 8    1  0.1271559E-006  0.9118800E+02  0.7816164E-02  0.1184000E+00
        -11   -1    0    0    0    0  0.00000000000E+00  0.00000000000E+00  0.45593999997E+02  0.45594000000E+02  0.51100000000E-03 0. -1.
         11   -1    0    0    0    0 -0.00000000000E+00 -0.00000000000E+00 -0.45593999997E+02  0.45594000000E+02  0.51100000000E-03 0.  1.
         23    2    1    2    0    0  0.00000000000E+00 -0.88817841970E-15  0.00000000000E+00  0.91188000000E+02  0.91188000000E+02 0.  0.
    9900012    2    3    3    0    0 -0.34262465868E+02  0.48875239873E+01 -0.12568769707E+02  0.54367103351E+02  0.40000043710E+02 0.  0.
         12    1    3    3    0    0  0.34262465868E+02 -0.48875239873E+01  0.12568769707E+02  0.36820896649E+02  0.00000000000E+00 0. -1.
         11    1    4    4    0    0 -0.18064649333E+01  0.54698570954E+01  0.10486034027E+02  0.11964094704E+02  0.51100000000E-03 0. -1.
        -11    1    4    4    0    0 -0.76026751754E+01 -0.62371188790E+01 -0.88160446755E+01  0.13207004419E+02  0.51100000000E-03 0.  1.
        -12    1    4    4    0    0 -0.24853325759E+02  0.56547857709E+01 -0.14238759059E+02  0.29196004229E+02  0.00000000000E+00 0.  1.
</event>
<event>
 8    1  0.1271559E-006  0.9118800E+02  0.7816164E-02  0.1184000E+00
        -11   -1    0    0    0    0  0.00000000000E+00  0.00000000000E+00  0.45593999997E+02  0.45594000000E+02  0.51100000000E-03 0.  1.
         11   -1    0    0    0    0 -0.00000000000E+00 -0.00000000000E+00 -0.45593999997E+02  0.45594000000E+02  0.51100000000E-03 0. -1.
         23    2    1    2    0    0  0.00000000000E+00  0.17763568394E-14  0.00000000000E+00  0.91188000000E+02  0.91188000000E+02 0.  0.
    9900012    2    3    3    0    0 -0.25756094461E+02 -0.13655541673E+02 -0.22493030367E+02  0.54366991929E+02  0.39999789700E+02 0.  0.
        -12    1    3    3    0    0  0.25756094461E+02  0.13655541673E+02  0.22493030367E+02  0.36821008071E+02  0.00000000000E+00 0.  1.
         11    1    4    4    0    0 -0.28570706070E-01  0.10699036589E+01  0.64368841492E+00  0.12489376130E+01  0.51100000000E-03 0. -1.
        -11    1    4    4    0    0 -0.12798502307E+02  0.23412493508E+01  0.80419039106E+01  0.15295598341E+02  0.51100000000E-03 0.  1.
         12    1    4    4    0    0 -0.12929021448E+02 -0.17066694683E+02 -0.31178622693E+02  0.37822455976E+02  0.00000000000E+00 0. -1.
</event>
<event>
 8    1  0.1271559E-006  0.9118800E+02  0.7816164E-02  0.1184000E+00
        -11   -1    0    0    0    0  0.00000000000E+00  0.00000000000E+00  0.45593999997E+02  0.45594000000E+02  0.51100000000E-03 0. -1.
         11   -1    0    0    0    0 -0.00000000000E+00 -0.00000000000E+00 -0.45593999997E+02  0.45594000000E+02  0.51100000000E-03 0.  1.
         23    2    1    2    0    0  0.00000000000E+00 -0.35527136788E-14  0.00000000000E+00  0.91188000000E+02  0.91188000000E+02 0.  0.
    9900012    2    3    3    0    0  0.16984001379E+02 -0.31577032760E+02  0.83796868536E+01  0.54367021570E+02  0.39999857273E+02 0.  0.
         12    1    3    3    0    0 -0.16984001379E+02  0.31577032760E+02 -0.83796868536E+01  0.36820978430E+02  0.00000000000E+00 0. -1.
         11    1    4    4    0    0 -0.55815152918E+01 -0.26611787930E+01 -0.68614661306E+01  0.92366066953E+01  0.51100000000E-03 0. -1.
        -11    1    4    4    0    0  0.77069933892E+01 -0.26158489726E+02  0.11253567399E+02  0.29500967973E+02  0.51100000000E-03 0.  1.
         12    1    4    4    0    0  0.14858523282E+02 -0.27573642407E+01  0.39875855854E+01  0.15629446902E+02  0.00000000000E+00 0. -1.
</event>
<event>
 8    1  0.1271559E-006  0.9118800E+02  0.7816164E-02  0.1184000E+00
        -11   -1    0    0    0    0  0.00000000000E+00  0.00000000000E+00  0.45593999997E+02  0.45594000000E+02  0.51100000000E-03 0. -1.
         11   -1    0    0    0    0 -0.00000000000E+00 -0.00000000000E+00 -0.45593999997E+02  0.45594000000E+02  0.51100000000E-03 0.  1.
         23    2    1    2    0    0  0.00000000000E+00  0.00000000000E+00  0.71054273576E-14  0.91188000000E+02  0.91188000000E+02 0.  0.
    9900012    2    3    3    0    0 -0.11113409846E+02 -0.12952763522E+02  0.32626647030E+02  0.54367081249E+02  0.39999993322E+02 0.  0.
        -12    1    3    3    0    0  0.11113409846E+02  0.12952763522E+02 -0.32626647030E+02  0.36820918751E+02  0.00000000000E+00 0.  1.
         11    1    4    4    0    0 -0.77501143496E+01 -0.56346186870E+01  0.34820680854E+02  0.36114997100E+02  0.51100000000E-03 0. -1.
        -11    1    4    4    0    0  0.33831161398E+01  0.35165915439E+01  0.12398276423E+01  0.50347853723E+01  0.51100000000E-03 0.  1.
         12    1    4    4    0    0 -0.67464116360E+01 -0.10834736379E+02 -0.34338614659E+01  0.13217298776E+02  0.00000000000E+00 0. -1.
</event>
<event>
 8    1  0.1271559E-006  0.9118800E+02  0.7816164E-02  0.1184000E+00
        -11   -1    0    0    0    0  0.00000000000E+00  0.00000000000E+00  0.45593999997E+02  0.45594000000E+02  0.51100000000E-03 0.  1.
         11   -1    0    0    0    0 -0.00000000000E+00 -0.00000000000E+00 -0.45593999997E+02  0.45594000000E+02  0.51100000000E-03 0. -1.
         23    2    1    2    0    0  0.00000000000E+00  0.00000000000E+00 -0.17763568394E-14  0.91188000000E+02  0.91188000000E+02 0.  0.
    9900012    2    3    3    0    0 -0.12729944859E+02 -0.32470048837E+02  0.11807774432E+02  0.54367094190E+02  0.40000022825E+02 0.  0.
         12    1    3    3    0    0  0.12729944859E+02  0.32470048837E+02 -0.11807774432E+02  0.36820905810E+02  0.00000000000E+00 0. -1.
         11    1    4    4    0    0 -0.44299689845E+01 -0.10702002841E+02 -0.87357599977E+01  0.14507618447E+02  0.51100000000E-03 0. -1.
        -11    1    4    4    0    0 -0.14837467945E+02 -0.18407033927E+02  0.22080187905E+02  0.32349714855E+02  0.51100000000E-03 0.  1.
        -12    1    4    4    0    0  0.65374920699E+01 -0.33610120689E+01 -0.15366534753E+01  0.75097608880E+01  0.00000000000E+00 0.  1.
</event>
<event>
 8    1  0.1271559E-006  0.9118800E+02  0.7816164E-02  0.1184000E+00
        -11   -1    0    0    0    0  0.00000000000E+00  0.00000000000E+00  0.45593999997E+02  0.45594000000E+02  0.51100000000E-03 0.  1.
         11   -1    0    0    0    0 -0.00000000000E+00 -0.00000000000E+00 -0.45593999997E+02  0.45594000000E+02  0.51100000000E-03 0. -1.
         23    2    1    2    0    0  0.11492543028E-15  0.00000000000E+00  0.35527136788E-14  0.91188000000E+02  0.91188000000E+02 0.  0.
    9900012    2    3    3    0    0  0.16148956378E-02  0.32357637645E+02 -0.17571314228E+02  0.54367247695E+02  0.40000372768E+02 0.  0.
        -12    1    3    3    0    0 -0.16148956378E-02 -0.32357637645E+02  0.17571314228E+02  0.36820752305E+02  0.00000000000E+00 0.  1.
         11    1    4    4    0    0  0.86373923159E+00  0.20339927778E+02  0.24241049089E+01  0.20502072879E+02  0.51100000000E-03 0. -1.
        -11    1    4    4    0    0  0.44945373557E+00  0.19256224416E+02 -0.10777449208E+02  0.22071646950E+02  0.51100000000E-03 0.  1.
        -12    1    4    4    0    0 -0.13115780715E+01 -0.72385145481E+01 -0.92179699290E+01  0.11793527865E+02  0.00000000000E+00 0.  1.
</event>
<event>
 8    1  0.1271559E-006  0.9118800E+02  0.7816164E-02  0.1184000E+00
        -11   -1    0    0    0    0  0.00000000000E+00  0.00000000000E+00  0.45593999997E+02  0.45594000000E+02  0.51100000000E-03 0.  1.
         11   -1    0    0    0    0 -0.00000000000E+00 -0.00000000000E+00 -0.45593999997E+02  0.45594000000E+02  0.51100000000E-03 0. -1.
         23    2    1    2    0    0  0.22204460493E-15  0.00000000000E+00  0.00000000000E+00  0.91188000000E+02  0.91188000000E+02 0.  0.
    9900012    2    3    3    0    0 -0.19725795367E+01 -0.17510259469E+02  0.32330793389E+02  0.54367075815E+02  0.39999980935E+02 0.  0.
         12    1    3    3    0    0  0.19725795367E+01  0.17510259469E+02 -0.32330793389E+02  0.36820924185E+02  0.00000000000E+00 0. -1.
         11    1    4    4    0    0 -0.68549752839E+01  0.14544873631E+01  0.26611941179E+02  0.27519113961E+02  0.51100000000E-03 0. -1.
        -11    1    4    4    0    0 -0.14438258772E+01 -0.14135936426E+02  0.10405460319E+02  0.17612011143E+02  0.51100000000E-03 0.  1.
        -12    1    4    4    0    0  0.63262216244E+01 -0.48288104062E+01 -0.46866081082E+01  0.92359507112E+01  0.00000000000E+00 0.  1.
</event>
<event>
 8    1  0.1271559E-006  0.9118800E+02  0.7816164E-02  0.1184000E+00
        -11   -1    0    0    0    0  0.00000000000E+00  0.00000000000E+00  0.45593999997E+02  0.45594000000E+02  0.51100000000E-03 0.  1.
         11   -1    0    0    0    0 -0.00000000000E+00 -0.00000000000E+00 -0.45593999997E+02  0.45594000000E+02  0.51100000000E-03 0. -1.
         23    2    1    2    0    0  0.00000000000E+00  0.35527136788E-14  0.00000000000E+00  0.91188000000E+02  0.91188000000E+02 0.  0.
    9900012    2    3    3    0    0 -0.19880869344E+02 -0.25253410180E+02 -0.17966489959E+02  0.54367103038E+02  0.40000042996E+02 0.  0.
        -12    1    3    3    0    0  0.19880869344E+02  0.25253410180E+02  0.17966489959E+02  0.36820896962E+02  0.00000000000E+00 0.  1.
         11    1    4    4    0    0 -0.22685496238E+02 -0.14819286817E+01 -0.10786986095E+02  0.25163205708E+02  0.51100000000E-03 0. -1.
        -11    1    4    4    0    0 -0.53930803716E+01 -0.43898670204E+01 -0.36910044061E+01  0.78727226636E+01  0.51100000000E-03 0.  1.
         12    1    4    4    0    0  0.81977072658E+01 -0.19381614478E+02 -0.34884994578E+01  0.21331174667E+02  0.00000000000E+00 0. -1.
</event>
<event>
 8    1  0.1271559E-006  0.9118800E+02  0.7816164E-02  0.1184000E+00
        -11   -1    0    0    0    0  0.00000000000E+00  0.00000000000E+00  0.45593999997E+02  0.45594000000E+02  0.51100000000E-03 0. -1.
         11   -1    0    0    0    0 -0.00000000000E+00 -0.00000000000E+00 -0.45593999997E+02  0.45594000000E+02  0.51100000000E-03 0.  1.
         23    2    1    2    0    0  0.35527136788E-14 -0.35527136788E-14  0.00000000000E+00  0.91188000000E+02  0.91188000000E+02 0.  0.
    9900012    2    3    3    0    0  0.19872947542E+02 -0.28357399653E+02  0.12518149257E+02  0.54367079046E+02  0.39999988301E+02 0.  0.
         12    1    3    3    0    0 -0.19872947542E+02  0.28357399653E+02 -0.12518149257E+02  0.36820920954E+02  0.00000000000E+00 0. -1.
         11    1    4    4    0    0  0.61666226279E+01 -0.65154309015E+01  0.24928110694E+00  0.89744200815E+01  0.51100000000E-03 0. -1.
        -11    1    4    4    0    0  0.25355533889E+02 -0.19023612652E+02  0.82983774287E+01  0.32766812560E+02  0.51100000000E-03 0.  1.
         12    1    4    4    0    0 -0.11649208975E+02 -0.28183560996E+01  0.39704907215E+01  0.12625846404E+02  0.00000000000E+00 0. -1.
</event>
<event>
 8    1  0.1271559E-006  0.9118800E+02  0.7816164E-02  0.1184000E+00
        -11   -1    0    0    0    0  0.00000000000E+00  0.00000000000E+00  0.45593999997E+02  0.45594000000E+02  0.51100000000E-03 0. -1.
         11   -1    0    0    0    0 -0.00000000000E+00 -0.00000000000E+00 -0.45593999997E+02  0.45594000000E+02  0.51100000000E-03 0.  1.
         23    2    1    2    0    0  0.88817841970E-15  0.00000000000E+00  0.00000000000E+00  0.91188000000E+02  0.91188000000E+02 0.  0.
    9900012    2    3    3    0    0 -0.32199720703E+01  0.29480415879E+02  0.21824678914E+02  0.54367085424E+02  0.40000002841E+02 0.  0.
        -12    1    3    3    0    0  0.32199720703E+01 -0.29480415879E+02 -0.21824678914E+02  0.36820914576E+02  0.00000000000E+00 0.  1.
         11    1    4    4    0    0  0.49294730695E+01  0.26286921139E+02  0.31857766663E+01  0.26934199468E+02  0.51100000000E-03 0. -1.
        -11    1    4    4    0    0 -0.94652295265E+01  0.84867790229E+01  0.68442872768E+01  0.14438152817E+02  0.51100000000E-03 0.  1.
         12    1    4    4    0    0  0.13157843867E+01 -0.52932842832E+01  0.11794614971E+02  0.12994733139E+02  0.00000000000E+00 0. -1.
</event>
<event>
 8    1  0.1271559E-006  0.9118800E+02  0.7816164E-02  0.1184000E+00
        -11   -1    0    0    0    0  0.00000000000E+00  0.00000000000E+00  0.45593999997E+02  0.45594000000E+02  0.51100000000E-03 0.  1.
         11   -1    0    0    0    0 -0.00000000000E+00 -0.00000000000E+00 -0.45593999997E+02  0.45594000000E+02  0.51100000000E-03 0. -1.
         23    2    1    2    0    0  0.00000000000E+00 -0.71054273576E-14  0.13322676296E-14  0.91188000000E+02  0.91188000000E+02 0.  0.
    9900012    2    3    3    0    0  0.21808232120E+02 -0.29563206988E+02  0.24900844384E+01  0.54367045149E+02  0.39999911026E+02 0.  0.
         12    1    3    3    0    0 -0.21808232120E+02  0.29563206988E+02 -0.24900844384E+01  0.36820954851E+02  0.00000000000E+00 0. -1.
         11    1    4    4    0    0  0.26264125885E+01 -0.20355078718E+02 -0.90969963631E+01  0.22449557140E+02  0.51100000000E-03 0. -1.
        -11    1    4    4    0    0  0.23709464898E+02 -0.71890160117E+01  0.99133506499E+01  0.26685111923E+02  0.51100000000E-03 0.  1.
         12    1    4    4    0    0 -0.45276453668E+01 -0.20191122588E+01  0.16737301516E+01  0.52323760856E+01  0.00000000000E+00 0. -1.
</event>
<event>
 8    1  0.1271559E-006  0.9118800E+02  0.7816164E-02  0.1184000E+00
        -11   -1    0    0    0    0  0.00000000000E+00  0.00000000000E+00  0.45593999997E+02  0.45594000000E+02  0.51100000000E-03 0.  1.
         11   -1    0    0    0    0 -0.00000000000E+00 -0.00000000000E+00 -0.45593999997E+02  0.45594000000E+02  0.51100000000E-03 0. -1.
         23    2    1    2    0    0  0.00000000000E+00  0.00000000000E+00  0.35527136788E-14  0.91188000000E+02  0.91188000000E+02 0.  0.
    9900012    2    3    3    0    0 -0.28174345933E+02  0.14834133709E+02  0.18491488909E+02  0.54367075870E+02  0.39999981062E+02 0.  0.
         12    1    3    3    0    0  0.28174345933E+02 -0.14834133709E+02 -0.18491488909E+02  0.36820924130E+02  0.00000000000E+00 0. -1.
         11    1    4    4    0    0  0.11217093113E+01  0.11243205568E+02  0.62573982372E+01  0.12915995361E+02  0.51100000000E-03 0. -1.
        -11    1    4    4    0    0 -0.23213379152E+02  0.14218012088E+02  0.10023832482E+02  0.29008448033E+02  0.51100000000E-03 0.  1.
         12    1    4    4    0    0 -0.60826760925E+01 -0.10627083947E+02  0.22102581905E+01  0.12442632476E+02  0.00000000000E+00 0. -1.
</event>
<event>
 8    1  0.1271559E-006  0.9118800E+02  0.7816164E-02  0.1184000E+00
        -11   -1    0    0    0    0  0.00000000000E+00  0.00000000000E+00  0.45593999997E+02  0.45594000000E+02  0.51100000000E-03 0.  1.
         11   -1    0    0    0    0 -0.00000000000E+00 -0.00000000000E+00 -0.45593999997E+02  0.45594000000E+02  0.51100000000E-03 0. -1.
         23    2    1    2    0    0 -0.35527136788E-14  0.00000000000E+00  0.35527136788E-14  0.91188000000E+02  0.91188000000E+02 0.  0.
    9900012    2    3    3    0    0 -0.23244360702E+02  0.16266584315E+02  0.23470780965E+02  0.54367087072E+02  0.40000006599E+02 0.  0.
         12    1    3    3    0    0  0.23244360702E+02 -0.16266584315E+02 -0.23470780965E+02  0.36820912928E+02  0.00000000000E+00 0. -1.
         11    1    4    4    0    0 -0.58798577814E+01  0.82591911333E+01 -0.89162169665E+01  0.13501329229E+02  0.51100000000E-03 0. -1.
        -11    1    4    4    0    0 -0.67212719572E+01  0.11158744076E+02  0.12300634061E+02  0.17916435601E+02  0.51100000000E-03 0.  1.
         12    1    4    4    0    0 -0.10643230963E+02 -0.31513508950E+01  0.20086363871E+02  0.22949322242E+02  0.00000000000E+00 0. -1.
</event>
<event>
 8    1  0.1271559E-006  0.9118800E+02  0.7816164E-02  0.1184000E+00
        -11   -1    0    0    0    0  0.00000000000E+00  0.00000000000E+00  0.45593999997E+02  0.45594000000E+02  0.51100000000E-03 0.  1.
         11   -1    0    0    0    0 -0.00000000000E+00 -0.00000000000E+00 -0.45593999997E+02  0.45594000000E+02  0.51100000000E-03 0. -1.
         23    2    1    2    0    0 -0.35527136788E-14  0.22204460493E-14 -0.35527136788E-14  0.91188000000E+02  0.91188000000E+02 0.  0.
    9900012    2    3    3    0    0  0.20353435535E+02 -0.14991937813E+01  0.30647523064E+02  0.54367074020E+02  0.39999976843E+02 0.  0.
         12    1    3    3    0    0 -0.20353435535E+02  0.14991937813E+01 -0.30647523064E+02  0.36820925980E+02  0.00000000000E+00 0. -1.
         11    1    4    4    0    0  0.14309681979E+02 -0.40988078304E+01 -0.32838585934E+01  0.15243062405E+02  0.51100000000E-03 0. -1.
        -11    1    4    4    0    0  0.66509595797E+01  0.91839775939E+01  0.28122598208E+02  0.30322619247E+02  0.51100000000E-03 0.  1.
        -12    1    4    4    0    0 -0.60720602342E+00 -0.65843635448E+01  0.58087834492E+01  0.88013923674E+01  0.00000000000E+00 0.  1.
</event>
<event>
 8    1  0.1271559E-006  0.9118800E+02  0.7816164E-02  0.1184000E+00
        -11   -1    0    0    0    0  0.00000000000E+00  0.00000000000E+00  0.45593999997E+02  0.45594000000E+02  0.51100000000E-03 0.  1.
         11   -1    0    0    0    0 -0.00000000000E+00 -0.00000000000E+00 -0.45593999997E+02  0.45594000000E+02  0.51100000000E-03 0. -1.
         23    2    1    2    0    0 -0.35527136788E-14  0.00000000000E+00  0.00000000000E+00  0.91188000000E+02  0.91188000000E+02 0.  0.
    9900012    2    3    3    0    0 -0.29929482119E+02  0.16950302206E+02  0.13141295876E+02  0.54367077930E+02  0.39999985757E+02 0.  0.
         12    1    3    3    0    0  0.29929482119E+02 -0.16950302206E+02 -0.13141295876E+02  0.36820922070E+02  0.00000000000E+00 0. -1.
         11    1    4    4    0    0 -0.39907248135E+01  0.66244705528E+00 -0.67559342928E+01  0.78744757964E+01  0.51100000000E-03 0. -1.
        -11    1    4    4    0    0  0.53982461055E+01  0.61653177085E+01  0.36136423393E+00  0.82026085993E+01  0.51100000000E-03 0.  1.
        -12    1    4    4    0    0 -0.31337003411E+02  0.10122537442E+02  0.19535865935E+02  0.38289993534E+02  0.00000000000E+00 0.  1.
</event>
<event>
 8    1  0.1271559E-006  0.9118800E+02  0.7816164E-02  0.1184000E+00
        -11   -1    0    0    0    0  0.00000000000E+00  0.00000000000E+00  0.45593999997E+02  0.45594000000E+02  0.51100000000E-03 0.  1.
         11   -1    0    0    0    0 -0.00000000000E+00 -0.00000000000E+00 -0.45593999997E+02  0.45594000000E+02  0.51100000000E-03 0. -1.
         23    2    1    2    0    0 -0.35527136788E-14  0.00000000000E+00  0.00000000000E+00  0.91188000000E+02  0.91188000000E+02 0.  0.
    9900012    2    3    3    0    0 -0.27285929030E+02 -0.57843944560E+01 -0.24037430233E+02  0.54367092971E+02  0.40000020045E+02 0.  0.
        -12    1    3    3    0    0  0.27285929030E+02  0.57843944560E+01  0.24037430233E+02  0.36820907029E+02  0.00000000000E+00 0.  1.
         11    1    4    4    0    0  0.17452319456E+01 -0.78744299664E+01 -0.63957192987E+01  0.10293576028E+02  0.51100000000E-03 0. -1.
        -11    1    4    4    0    0 -0.14534745759E+02 -0.12725814970E+02 -0.56555561434E+01  0.20129344661E+02  0.51100000000E-03 0.  1.
        -12    1    4    4    0    0 -0.14496415217E+02  0.14815850480E+02 -0.11986154791E+02  0.23944172282E+02  0.00000000000E+00 0.  1.
</event>
<event>
 8    1  0.1271559E-006  0.9118800E+02  0.7816164E-02  0.1184000E+00
        -11   -1    0    0    0    0  0.00000000000E+00  0.00000000000E+00  0.45593999997E+02  0.45594000000E+02  0.51100000000E-03 0. -1.
         11   -1    0    0    0    0 -0.00000000000E+00 -0.00000000000E+00 -0.45593999997E+02  0.45594000000E+02  0.51100000000E-03 0.  1.
         23    2    1    2    0    0  0.00000000000E+00  0.00000000000E+00 -0.88817841970E-15  0.91188000000E+02  0.91188000000E+02 0.  0.
    9900012    2    3    3    0    0 -0.12313626777E+02 -0.34625460840E+02  0.22871212843E+01  0.54367097424E+02  0.40000030196E+02 0.  0.
        -12    1    3    3    0    0  0.12313626777E+02  0.34625460840E+02 -0.22871212843E+01  0.36820902576E+02  0.00000000000E+00 0.  1.
         11    1    4    4    0    0 -0.11223429518E+02 -0.25448299086E+02  0.15715007859E+02  0.31945935090E+02  0.51100000000E-03 0. -1.
        -11    1    4    4    0    0 -0.53913953342E+01  0.12917637047E+01 -0.10386139083E+01  0.56404358191E+01  0.51100000000E-03 0.  1.
         12    1    4    4    0    0  0.43011980751E+01 -0.10468925459E+02 -0.12389272667E+02  0.16780726514E+02  0.00000000000E+00 0. -1.
</event>
<event>
 8    1  0.1271559E-006  0.9118800E+02  0.7816164E-02  0.1184000E+00
        -11   -1    0    0    0    0  0.00000000000E+00  0.00000000000E+00  0.45593999997E+02  0.45594000000E+02  0.51100000000E-03 0.  1.
         11   -1    0    0    0    0 -0.00000000000E+00 -0.00000000000E+00 -0.45593999997E+02  0.45594000000E+02  0.51100000000E-03 0. -1.
         23    2    1    2    0    0  0.00000000000E+00  0.35527136788E-14 -0.17763568394E-14  0.91188000000E+02  0.91188000000E+02 0.  0.
    9900012    2    3    3    0    0  0.15671752723E+02  0.30853761191E+02  0.12578691168E+02  0.54367056442E+02  0.39999936770E+02 0.  0.
         12    1    3    3    0    0 -0.15671752723E+02 -0.30853761191E+02 -0.12578691168E+02  0.36820943558E+02  0.00000000000E+00 0. -1.
         11    1    4    4    0    0 -0.45372730102E+01 -0.28256734546E+01  0.24614334666E+01  0.58847201983E+01  0.51100000000E-03 0. -1.
        -11    1    4    4    0    0 -0.42578803750E+01  0.88025809849E+01  0.94277933606E+01  0.13583013848E+02  0.51100000000E-03 0.  1.
         12    1    4    4    0    0  0.24466906108E+02  0.24876853661E+02  0.68946434054E+00  0.34899322395E+02  0.00000000000E+00 0. -1.
</event>
<event>
 8    1  0.1271559E-006  0.9118800E+02  0.7816164E-02  0.1184000E+00
        -11   -1    0    0    0    0  0.00000000000E+00  0.00000000000E+00  0.45593999997E+02  0.45594000000E+02  0.51100000000E-03 0. -1.
         11   -1    0    0    0    0 -0.00000000000E+00 -0.00000000000E+00 -0.45593999997E+02  0.45594000000E+02  0.51100000000E-03 0.  1.
         23    2    1    2    0    0 -0.71054273576E-14 -0.44408920985E-15  0.44408920985E-15  0.91188000000E+02  0.91188000000E+02 0.  0.
    9900012    2    3    3    0    0 -0.36666346271E+02  0.20060821343E+01  0.27081411261E+01  0.54367090957E+02  0.40000015454E+02 0.  0.
         12    1    3    3    0    0  0.36666346271E+02 -0.20060821343E+01 -0.27081411261E+01  0.36820909043E+02  0.00000000000E+00 0. -1.
         11    1    4    4    0    0 -0.32348004455E+02 -0.34751871482E+01  0.81617530666E+01  0.33542279758E+02  0.51100000000E-03 0. -1.
        -11    1    4    4    0    0 -0.43459596871E+01  0.11776033611E+02 -0.69591842494E+01  0.14352441565E+02  0.51100000000E-03 0.  1.
        -12    1    4    4    0    0  0.27617871112E-01 -0.62947643283E+01  0.15055723089E+01  0.64723696335E+01  0.00000000000E+00 0.  1.
</event>
<event>
 8    1  0.1271559E-006  0.9118800E+02  0.7816164E-02  0.1184000E+00
        -11   -1    0    0    0    0  0.00000000000E+00  0.00000000000E+00  0.45593999997E+02  0.45594000000E+02  0.51100000000E-03 0.  1.
         11   -1    0    0    0    0 -0.00000000000E+00 -0.00000000000E+00 -0.45593999997E+02  0.45594000000E+02  0.51100000000E-03 0. -1.
         23    2    1    2    0    0  0.00000000000E+00  0.17763568394E-14  0.35527136788E-14  0.91188000000E+02  0.91188000000E+02 0.  0.
    9900012    2    3    3    0    0  0.27006882588E+02 -0.98575466530E+01 -0.23005182132E+02  0.54367063862E+02  0.39999953687E+02 0.  0.
        -12    1    3    3    0    0 -0.27006882588E+02  0.98575466530E+01  0.23005182132E+02  0.36820936138E+02  0.00000000000E+00 0.  1.
         11    1    4    4    0    0  0.13581760952E+02 -0.13293512968E+02 -0.16399959285E+02  0.25102597124E+02  0.51100000000E-03 0. -1.
        -11    1    4    4    0    0  0.20326328562E+02 -0.89482874275E-01 -0.24569034688E+01  0.20474472274E+02  0.51100000000E-03 0.  1.
        -12    1    4    4    0    0 -0.69012069257E+01  0.35254491888E+01 -0.41483193785E+01  0.87899944642E+01  0.00000000000E+00 0.  1.
</event>
<event>
 8    1  0.1271559E-006  0.9118800E+02  0.7816164E-02  0.1184000E+00
        -11   -1    0    0    0    0  0.00000000000E+00  0.00000000000E+00  0.45593999997E+02  0.45594000000E+02  0.51100000000E-03 0.  1.
         11   -1    0    0    0    0 -0.00000000000E+00 -0.00000000000E+00 -0.45593999997E+02  0.45594000000E+02  0.51100000000E-03 0. -1.
         23    2    1    2    0    0  0.00000000000E+00 -0.35527136788E-14  0.00000000000E+00  0.91188000000E+02  0.91188000000E+02 0.  0.
    9900012    2    3    3    0    0 -0.45130194497E+01 -0.28341802963E+02  0.23068507427E+02  0.54367066081E+02  0.39999958745E+02 0.  0.
         12    1    3    3    0    0  0.45130194497E+01  0.28341802963E+02 -0.23068507427E+02  0.36820933919E+02  0.00000000000E+00 0. -1.
         11    1    4    4    0    0  0.22878303752E+01 -0.13466668459E+01 -0.86111674100E+01  0.90110978157E+01  0.51100000000E-03 0. -1.
        -11    1    4    4    0    0 -0.92664004877E+01 -0.70703000195E+01  0.72156225954E+01  0.13708410924E+02  0.51100000000E-03 0.  1.
        -12    1    4    4    0    0  0.24655506628E+01 -0.19924836098E+02  0.24464052242E+02  0.31647557341E+02  0.00000000000E+00 0.  1.
</event>
<event>
 8    1  0.1271559E-006  0.9118800E+02  0.7816164E-02  0.1184000E+00
        -11   -1    0    0    0    0  0.00000000000E+00  0.00000000000E+00  0.45593999997E+02  0.45594000000E+02  0.51100000000E-03 0.  1.
         11   -1    0    0    0    0 -0.00000000000E+00 -0.00000000000E+00 -0.45593999997E+02  0.45594000000E+02  0.51100000000E-03 0. -1.
         23    2    1    2    0    0  0.71054273576E-14  0.00000000000E+00  0.00000000000E+00  0.91188000000E+02  0.91188000000E+02 0.  0.
    9900012    2    3    3    0    0 -0.31557167399E+02 -0.85923090454E+01 -0.16914461142E+02  0.54367060513E+02  0.39999946052E+02 0.  0.
        -12    1    3    3    0    0  0.31557167399E+02  0.85923090454E+01  0.16914461142E+02  0.36820939487E+02  0.00000000000E+00 0.  1.
         11    1    4    4    0    0 -0.16534612934E+02 -0.19937919714E+02 -0.14455588946E+02  0.29662739580E+02  0.51100000000E-03 0. -1.
        -11    1    4    4    0    0 -0.11347567511E+02 -0.43748103114E+00 -0.44597121065E+01  0.12200315996E+02  0.51100000000E-03 0.  1.
        -12    1    4    4    0    0 -0.36749869545E+01  0.11783091700E+02  0.20008399101E+01  0.12504004937E+02  0.00000000000E+00 0.  1.
</event>
<event>
 8    1  0.1271559E-006  0.9118800E+02  0.7816164E-02  0.1184000E+00
        -11   -1    0    0    0    0  0.00000000000E+00  0.00000000000E+00  0.45593999997E+02  0.45594000000E+02  0.51100000000E-03 0.  1.
         11   -1    0    0    0    0 -0.00000000000E+00 -0.00000000000E+00 -0.45593999997E+02  0.45594000000E+02  0.51100000000E-03 0. -1.
         23    2    1    2    0    0 -0.71054273576E-14 -0.35527136788E-14  0.17763568394E-14  0.91188000000E+02  0.91188000000E+02 0.  0.
    9900012    2    3    3    0    0 -0.18975347853E+02 -0.29908936484E+02  0.10058392531E+02  0.54367087897E+02  0.40000008479E+02 0.  0.
         12    1    3    3    0    0  0.18975347853E+02  0.29908936484E+02 -0.10058392531E+02  0.36820912103E+02  0.00000000000E+00 0. -1.
         11    1    4    4    0    0  0.44796373966E+01 -0.16301273675E+02 -0.36622775814E+01  0.17297715224E+02  0.51100000000E-03 0. -1.
        -11    1    4    4    0    0 -0.95188170705E+01 -0.11513164330E+02  0.16968461750E+02  0.22607289216E+02  0.51100000000E-03 0.  1.
         12    1    4    4    0    0 -0.13936168179E+02 -0.20944984800E+01 -0.32477916368E+01  0.14462083457E+02  0.00000000000E+00 0. -1.
</event>
<event>
 8    1  0.1271559E-006  0.9118800E+02  0.7816164E-02  0.1184000E+00
        -11   -1    0    0    0    0  0.00000000000E+00  0.00000000000E+00  0.45593999997E+02  0.45594000000E+02  0.51100000000E-03 0. -1.
         11   -1    0    0    0    0 -0.00000000000E+00 -0.00000000000E+00 -0.45593999997E+02  0.45594000000E+02  0.51100000000E-03 0.  1.
         23    2    1    2    0    0  0.35527136788E-14  0.00000000000E+00 -0.35527136788E-14  0.91188000000E+02  0.91188000000E+02 0.  0.
    9900012    2    3    3    0    0  0.20724015196E+02  0.11441832770E+02 -0.28202466391E+02  0.54367089453E+02  0.40000012025E+02 0.  0.
         12    1    3    3    0    0 -0.20724015196E+02 -0.11441832770E+02  0.28202466391E+02  0.36820910547E+02  0.00000000000E+00 0. -1.
         11    1    4    4    0    0  0.20467175452E+02  0.69244468171E+00 -0.47051037610E+01  0.21012442797E+02  0.51100000000E-03 0. -1.
        -11    1    4    4    0    0 -0.78054853805E+01  0.11765348384E+02 -0.20061885805E+02  0.24532188793E+02  0.51100000000E-03 0.  1.
        -12    1    4    4    0    0  0.80623251243E+01 -0.10159602956E+01 -0.34354768249E+01  0.88224578632E+01  0.00000000000E+00 0.  1.
</event>
<event>
 8    1  0.1271559E-006  0.9118800E+02  0.7816164E-02  0.1184000E+00
        -11   -1    0    0    0    0  0.00000000000E+00  0.00000000000E+00  0.45593999997E+02  0.45594000000E+02  0.51100000000E-03 0. -1.
         11   -1    0    0    0    0 -0.00000000000E+00 -0.00000000000E+00 -0.45593999997E+02  0.45594000000E+02  0.51100000000E-03 0.  1.
         23    2    1    2    0    0  0.66613381478E-15 -0.71054273576E-14  0.44408920985E-15  0.91188000000E+02  0.91188000000E+02 0.  0.
    9900012    2    3    3    0    0  0.17409162435E+01 -0.36763805970E+02 -0.10890823805E+01  0.54366887589E+02  0.39999551834E+02 0.  0.
         12    1    3    3    0    0 -0.17409162435E+01  0.36763805970E+02  0.10890823805E+01  0.36821112411E+02  0.00000000000E+00 0. -1.
         11    1    4    4    0    0 -0.10648713066E+02 -0.10672221672E+02  0.68234078908E+00  0.15091620012E+02  0.51100000000E-03 0. -1.
        -11    1    4    4    0    0  0.54230556921E+00 -0.14271621533E+02 -0.12844583358E+02  0.19208242981E+02  0.51100000000E-03 0.  1.
         12    1    4    4    0    0  0.11847323741E+02 -0.11819962765E+02  0.11073160188E+02  0.20067024596E+02  0.00000000000E+00 0. -1.
</event>
<event>
 8    1  0.1271559E-006  0.9118800E+02  0.7816164E-02  0.1184000E+00
        -11   -1    0    0    0    0  0.00000000000E+00  0.00000000000E+00  0.45593999997E+02  0.45594000000E+02  0.51100000000E-03 0. -1.
         11   -1    0    0    0    0 -0.00000000000E+00 -0.00000000000E+00 -0.45593999997E+02  0.45594000000E+02  0.51100000000E-03 0.  1.
         23    2    1    2    0    0  0.88817841970E-15 -0.35527136788E-14  0.00000000000E+00  0.91188000000E+02  0.91188000000E+02 0.  0.
    9900012    2    3    3    0    0 -0.75265577767E+01  0.28369210477E+02  0.22233259746E+02  0.54367095421E+02  0.40000025632E+02 0.  0.
        -12    1    3    3    0    0  0.75265577767E+01 -0.28369210477E+02 -0.22233259746E+02  0.36820904579E+02  0.00000000000E+00 0.  1.
         11    1    4    4    0    0 -0.75744765117E+01  0.12978556028E+02  0.31357856088E+02  0.34772557422E+02  0.51100000000E-03 0. -1.
        -11    1    4    4    0    0 -0.13576060638E+01  0.12727943609E+02 -0.35901468796E+01  0.13294088823E+02  0.51100000000E-03 0.  1.
        -12    1    4    4    0    0  0.14055247988E+01  0.26627108406E+01 -0.55344494620E+01  0.63004491767E+01  0.00000000000E+00 0.  1.
</event>
<event>
 8    1  0.1271559E-006  0.9118800E+02  0.7816164E-02  0.1184000E+00
        -11   -1    0    0    0    0  0.00000000000E+00  0.00000000000E+00  0.45593999997E+02  0.45594000000E+02  0.51100000000E-03 0.  1.
         11   -1    0    0    0    0 -0.00000000000E+00 -0.00000000000E+00 -0.45593999997E+02  0.45594000000E+02  0.51100000000E-03 0. -1.
         23    2    1    2    0    0  0.00000000000E+00 -0.17763568394E-14 -0.35527136788E-14  0.91188000000E+02  0.91188000000E+02 0.  0.
    9900012    2    3    3    0    0 -0.22485497018E+02  0.88202453630E+01  0.27791803677E+02  0.54367100282E+02  0.40000036713E+02 0.  0.
         12    1    3    3    0    0  0.22485497018E+02 -0.88202453630E+01 -0.27791803677E+02  0.36820899718E+02  0.00000000000E+00 0. -1.
         11    1    4    4    0    0 -0.22300973478E+02 -0.16236001786E+01  0.18447559439E+02  0.28987617100E+02  0.51100000000E-03 0. -1.
        -11    1    4    4    0    0 -0.40081383916E+01 -0.19125539859E+01  0.11444156141E+02  0.12275656648E+02  0.51100000000E-03 0.  1.
         12    1    4    4    0    0  0.38236148519E+01  0.12356399528E+02 -0.20999119028E+01  0.13103826534E+02  0.00000000000E+00 0. -1.
</event>
<event>
 8    1  0.1271559E-006  0.9118800E+02  0.7816164E-02  0.1184000E+00
        -11   -1    0    0    0    0  0.00000000000E+00  0.00000000000E+00  0.45593999997E+02  0.45594000000E+02  0.51100000000E-03 0.  1.
         11   -1    0    0    0    0 -0.00000000000E+00 -0.00000000000E+00 -0.45593999997E+02  0.45594000000E+02  0.51100000000E-03 0. -1.
         23    2    1    2    0    0  0.88817841970E-15 -0.17763568394E-14  0.71054273576E-14  0.91188000000E+02  0.91188000000E+02 0.  0.
    9900012    2    3    3    0    0  0.40337753541E+01  0.13606643546E+02 -0.33976013350E+02  0.54367060640E+02  0.39999946340E+02 0.  0.
        -12    1    3    3    0    0 -0.40337753541E+01 -0.13606643546E+02  0.33976013350E+02  0.36820939360E+02  0.00000000000E+00 0.  1.
         11    1    4    4    0    0  0.10397111373E+02  0.12538953611E+02 -0.97116206055E+01  0.18964199367E+02  0.51100000000E-03 0. -1.
        -11    1    4    4    0    0  0.96441700029E+01 -0.20816010902E+00 -0.78150456049E+01  0.12414841269E+02  0.51100000000E-03 0.  1.
         12    1    4    4    0    0 -0.16007506022E+02  0.12758500434E+01 -0.16449347140E+02  0.22988020004E+02  0.00000000000E+00 0. -1.
</event>
<event>
 8    1  0.1271559E-006  0.9118800E+02  0.7816164E-02  0.1184000E+00
        -11   -1    0    0    0    0  0.00000000000E+00  0.00000000000E+00  0.45593999997E+02  0.45594000000E+02  0.51100000000E-03 0. -1.
         11   -1    0    0    0    0 -0.00000000000E+00 -0.00000000000E+00 -0.45593999997E+02  0.45594000000E+02  0.51100000000E-03 0.  1.
         23    2    1    2    0    0  0.88817841970E-15  0.00000000000E+00  0.00000000000E+00  0.91188000000E+02  0.91188000000E+02 0.  0.
    9900012    2    3    3    0    0  0.75313649710E+01 -0.11669585309E+02 -0.34101021272E+02  0.54367077531E+02  0.39999984848E+02 0.  0.
         12    1    3    3    0    0 -0.75313649710E+01  0.11669585309E+02  0.34101021272E+02  0.36820922469E+02  0.00000000000E+00 0. -1.
         11    1    4    4    0    0  0.29734867334E+01 -0.11945651031E+02  0.31201816325E+01  0.12699438397E+02  0.51100000000E-03 0. -1.
        -11    1    4    4    0    0  0.17124570190E+00 -0.84543914905E+01 -0.22120383415E+02  0.23681584053E+02  0.51100000000E-03 0.  1.
         12    1    4    4    0    0  0.43866325357E+01  0.87304572122E+01 -0.15100819489E+02  0.17986055081E+02  0.00000000000E+00 0. -1.
</event>
<event>
 8    1  0.1271559E-006  0.9118800E+02  0.7816164E-02  0.1184000E+00
        -11   -1    0    0    0    0  0.00000000000E+00  0.00000000000E+00  0.45593999997E+02  0.45594000000E+02  0.51100000000E-03 0.  1.
         11   -1    0    0    0    0 -0.00000000000E+00 -0.00000000000E+00 -0.45593999997E+02  0.45594000000E+02  0.51100000000E-03 0. -1.
         23    2    1    2    0    0  0.00000000000E+00 -0.66613381478E-15  0.88817841970E-15  0.91188000000E+02  0.91188000000E+02 0.  0.
    9900012    2    3    3    0    0 -0.36215138720E+02  0.14397467357E+01  0.64938826667E+01  0.54367086714E+02  0.40000005781E+02 0.  0.
         12    1    3    3    0    0  0.36215138720E+02 -0.14397467357E+01 -0.64938826667E+01  0.36820913286E+02  0.00000000000E+00 0. -1.
         11    1    4    4    0    0 -0.24677391775E+02  0.11685005575E+02 -0.44981859320E+01  0.27672128524E+02  0.51100000000E-03 0. -1.
        -11    1    4    4    0    0 -0.23586112880E+01 -0.12830168152E+02  0.13190579956E+01  0.13111680909E+02  0.51100000000E-03 0.  1.
        -12    1    4    4    0    0 -0.91791356562E+01  0.25849093123E+01  0.96730106031E+01  0.13583277280E+02  0.00000000000E+00 0.  1.
</event>
<event>
 8    1  0.1271559E-006  0.9118800E+02  0.7816164E-02  0.1184000E+00
        -11   -1    0    0    0    0  0.00000000000E+00  0.00000000000E+00  0.45593999997E+02  0.45594000000E+02  0.51100000000E-03 0. -1.
         11   -1    0    0    0    0 -0.00000000000E+00 -0.00000000000E+00 -0.45593999997E+02  0.45594000000E+02  0.51100000000E-03 0.  1.
         23    2    1    2    0    0  0.00000000000E+00  0.71054273576E-14  0.00000000000E+00  0.91188000000E+02  0.91188000000E+02 0.  0.
    9900012    2    3    3    0    0  0.58311588071E+01 -0.33295819796E+02 -0.14600141973E+02  0.54367106821E+02  0.40000051619E+02 0.  0.
         12    1    3    3    0    0 -0.58311588071E+01  0.33295819796E+02  0.14600141973E+02  0.36820893179E+02  0.00000000000E+00 0. -1.
         11    1    4    4    0    0  0.15401619434E+01  0.60301422692E+00  0.40343039477E+00  0.17024926767E+01  0.51100000000E-03 0. -1.
        -11    1    4    4    0    0  0.41205907409E+01  0.40944560037E+01  0.67329768787E+01  0.88925146011E+01  0.51100000000E-03 0.  1.
         12    1    4    4    0    0  0.17040612278E+00 -0.37993290026E+02 -0.21736549246E+02  0.43772099543E+02  0.00000000000E+00 0. -1.
</event>
<event>
 8    1  0.1271559E-006  0.9118800E+02  0.7816164E-02  0.1184000E+00
        -11   -1    0    0    0    0  0.00000000000E+00  0.00000000000E+00  0.45593999997E+02  0.45594000000E+02  0.51100000000E-03 0.  1.
         11   -1    0    0    0    0 -0.00000000000E+00 -0.00000000000E+00 -0.45593999997E+02  0.45594000000E+02  0.51100000000E-03 0. -1.
         23    2    1    2    0    0  0.00000000000E+00  0.00000000000E+00  0.00000000000E+00  0.91188000000E+02  0.91188000000E+02 0.  0.
    9900012    2    3    3    0    0 -0.60015511529E+01 -0.82430007724E+01 -0.35381052057E+02  0.54367020618E+02  0.39999855103E+02 0.  0.
        -12    1    3    3    0    0  0.60015511529E+01  0.82430007724E+01  0.35381052057E+02  0.36820979382E+02  0.00000000000E+00 0.  1.
         11    1    4    4    0    0 -0.93604782515E+01  0.27714581541E+01 -0.32827616125E+01  0.10299323156E+02  0.51100000000E-03 0. -1.
        -11    1    4    4    0    0  0.12442759667E+02 -0.11016389290E+02 -0.82620440000E+01  0.18559215296E+02  0.51100000000E-03 0.  1.
        -12    1    4    4    0    0 -0.90838325679E+01  0.19303632154E-02 -0.23836246445E+02  0.25508482166E+02  0.00000000000E+00 0.  1.
</event>
<event>
 8    1  0.1271559E-006  0.9118800E+02  0.7816164E-02  0.1184000E+00
        -11   -1    0    0    0    0  0.00000000000E+00  0.00000000000E+00  0.45593999997E+02  0.45594000000E+02  0.51100000000E-03 0.  1.
         11   -1    0    0    0    0 -0.00000000000E+00 -0.00000000000E+00 -0.45593999997E+02  0.45594000000E+02  0.51100000000E-03 0. -1.
         23    2    1    2    0    0  0.00000000000E+00  0.66613381478E-15 -0.35527136788E-14  0.91188000000E+02  0.91188000000E+02 0.  0.
    9900012    2    3    3    0    0  0.30783247103E+02  0.14015422185E+01 -0.20154565778E+02  0.54367093649E+02  0.40000021593E+02 0.  0.
        -12    1    3    3    0    0 -0.30783247103E+02 -0.14015422185E+01  0.20154565778E+02  0.36820906351E+02  0.00000000000E+00 0.  1.
         11    1    4    4    0    0  0.39421198293E+01 -0.45515555873E+01 -0.88662920566E+01  0.10717653759E+02  0.51100000000E-03 0. -1.
        -11    1    4    4    0    0  0.10123742730E+02 -0.34360536556E+01  0.10251736226E+02  0.14811979189E+02  0.51100000000E-03 0.  1.
         12    1    4    4    0    0  0.16717384543E+02  0.93891514613E+01 -0.21540009948E+02  0.28837460701E+02  0.00000000000E+00 0. -1.
</event>
<event>
 8    1  0.1271559E-006  0.9118800E+02  0.7816164E-02  0.1184000E+00
        -11   -1    0    0    0    0  0.00000000000E+00  0.00000000000E+00  0.45593999997E+02  0.45594000000E+02  0.51100000000E-03 0.  1.
         11   -1    0    0    0    0 -0.00000000000E+00 -0.00000000000E+00 -0.45593999997E+02  0.45594000000E+02  0.51100000000E-03 0. -1.
         23    2    1    2    0    0  0.00000000000E+00 -0.17763568394E-14 -0.35527136788E-14  0.91188000000E+02  0.91188000000E+02 0.  0.
    9900012    2    3    3    0    0 -0.13115387558E+02 -0.14603927998E+02  0.31152719473E+02  0.54367081566E+02  0.39999994047E+02 0.  0.
         12    1    3    3    0    0  0.13115387558E+02  0.14603927998E+02 -0.31152719473E+02  0.36820918434E+02  0.00000000000E+00 0. -1.
         11    1    4    4    0    0 -0.48366622851E+01  0.32257001781E+00 -0.12793645009E+01  0.50133947844E+01  0.51100000000E-03 0. -1.
        -11    1    4    4    0    0 -0.10632931823E+02  0.57753906207E+01  0.23998128122E+02  0.26876095877E+02  0.51100000000E-03 0.  1.
        -12    1    4    4    0    0  0.23542065501E+01 -0.20701888636E+02  0.84339558516E+01  0.22477590905E+02  0.00000000000E+00 0.  1.
</event>
<event>
 8    1  0.1271559E-006  0.9118800E+02  0.7816164E-02  0.1184000E+00
        -11   -1    0    0    0    0  0.00000000000E+00  0.00000000000E+00  0.45593999997E+02  0.45594000000E+02  0.51100000000E-03 0. -1.
         11   -1    0    0    0    0 -0.00000000000E+00 -0.00000000000E+00 -0.45593999997E+02  0.45594000000E+02  0.51100000000E-03 0.  1.
         23    2    1    2    0    0 -0.71054273576E-14  0.35527136788E-14 -0.11102230246E-15  0.91188000000E+02  0.91188000000E+02 0.  0.
    9900012    2    3    3    0    0  0.30284813763E+02 -0.20935697438E+02  0.55693450441E+00  0.54367033854E+02  0.39999885277E+02 0.  0.
         12    1    3    3    0    0 -0.30284813763E+02  0.20935697438E+02 -0.55693450441E+00  0.36820966146E+02  0.00000000000E+00 0. -1.
         11    1    4    4    0    0  0.50390307057E+01  0.15422878093E+01  0.11690747887E+02  0.12823574719E+02  0.51100000000E-03 0. -1.
        -11    1    4    4    0    0  0.44014243698E+01  0.21341845648E+01  0.36110006267E+01  0.60800169430E+01  0.51100000000E-03 0.  1.
        -12    1    4    4    0    0  0.20844358688E+02 -0.24612169812E+02 -0.14744814009E+02  0.35463442192E+02  0.00000000000E+00 0.  1.
</event>
<event>
 8    1  0.1271559E-006  0.9118800E+02  0.7816164E-02  0.1184000E+00
        -11   -1    0    0    0    0  0.00000000000E+00  0.00000000000E+00  0.45593999997E+02  0.45594000000E+02  0.51100000000E-03 0. -1.
         11   -1    0    0    0    0 -0.00000000000E+00 -0.00000000000E+00 -0.45593999997E+02  0.45594000000E+02  0.51100000000E-03 0.  1.
         23    2    1    2    0    0  0.00000000000E+00  0.35527136788E-14  0.35527136788E-14  0.91188000000E+02  0.91188000000E+02 0.  0.
    9900012    2    3    3    0    0  0.11028156800E+02 -0.19177560861E+02 -0.29434365981E+02  0.54367068674E+02  0.39999964656E+02 0.  0.
         12    1    3    3    0    0 -0.11028156800E+02  0.19177560861E+02  0.29434365981E+02  0.36820931326E+02  0.00000000000E+00 0. -1.
         11    1    4    4    0    0  0.35968262467E+01 -0.37172543044E+01  0.35873685757E+00  0.51849620063E+01  0.51100000000E-03 0. -1.
        -11    1    4    4    0    0  0.54272685057E+01 -0.23818772575E+02 -0.79204269443E+01  0.25681166906E+02  0.51100000000E-03 0.  1.
         12    1    4    4    0    0  0.20040620479E+01  0.83584660191E+01 -0.21872675895E+02  0.23500939761E+02  0.00000000000E+00 0. -1.
</event>
<event>
 8    1  0.1271559E-006  0.9118800E+02  0.7816164E-02  0.1184000E+00
        -11   -1    0    0    0    0  0.00000000000E+00  0.00000000000E+00  0.45593999997E+02  0.45594000000E+02  0.51100000000E-03 0.  1.
         11   -1    0    0    0    0 -0.00000000000E+00 -0.00000000000E+00 -0.45593999997E+02  0.45594000000E+02  0.51100000000E-03 0. -1.
         23    2    1    2    0    0  0.55511151231E-16 -0.17763568394E-14  0.00000000000E+00  0.91188000000E+02  0.91188000000E+02 0.  0.
    9900012    2    3    3    0    0 -0.33139185584E+00  0.15541765314E+02 -0.33378536784E+02  0.54367041193E+02  0.39999902007E+02 0.  0.
        -12    1    3    3    0    0  0.33139185584E+00 -0.15541765314E+02  0.33378536784E+02  0.36820958807E+02  0.00000000000E+00 0.  1.
         11    1    4    4    0    0  0.27202179967E+01 -0.16024216303E+01 -0.16489868809E+02  0.16789375052E+02  0.51100000000E-03 0. -1.
        -11    1    4    4    0    0  0.33461168479E+01 -0.24302635681E+01  0.56796589227E+01  0.70257529639E+01  0.51100000000E-03 0.  1.
         12    1    4    4    0    0 -0.63977267004E+01  0.19574450513E+02 -0.22568326898E+02  0.30551913177E+02  0.00000000000E+00 0. -1.
</event>
<event>
 8    1  0.1271559E-006  0.9118800E+02  0.7816164E-02  0.1184000E+00
        -11   -1    0    0    0    0  0.00000000000E+00  0.00000000000E+00  0.45593999997E+02  0.45594000000E+02  0.51100000000E-03 0. -1.
         11   -1    0    0    0    0 -0.00000000000E+00 -0.00000000000E+00 -0.45593999997E+02  0.45594000000E+02  0.51100000000E-03 0.  1.
         23    2    1    2    0    0  0.00000000000E+00 -0.17763568394E-14  0.71054273576E-14  0.91188000000E+02  0.91188000000E+02 0.  0.
    9900012    2    3    3    0    0 -0.20244571810E+02 -0.11233788381E+02 -0.28631061929E+02  0.54367103809E+02  0.40000044754E+02 0.  0.
         12    1    3    3    0    0  0.20244571810E+02  0.11233788381E+02  0.28631061929E+02  0.36820896191E+02  0.00000000000E+00 0. -1.
         11    1    4    4    0    0 -0.13314582640E+02  0.18787553548E+01  0.51534431277E+01  0.14400201696E+02  0.51100000000E-03 0. -1.
        -11    1    4    4    0    0  0.10238922407E+01  0.30034182730E+01 -0.73061396201E+01  0.79654600026E+01  0.51100000000E-03 0.  1.
         12    1    4    4    0    0 -0.79538814100E+01 -0.16115962008E+02 -0.26478365436E+02  0.32001442110E+02  0.00000000000E+00 0. -1.
</event>
<event>
 8    1  0.1271559E-006  0.9118800E+02  0.7816164E-02  0.1184000E+00
        -11   -1    0    0    0    0  0.00000000000E+00  0.00000000000E+00  0.45593999997E+02  0.45594000000E+02  0.51100000000E-03 0.  1.
         11   -1    0    0    0    0 -0.00000000000E+00 -0.00000000000E+00 -0.45593999997E+02  0.45594000000E+02  0.51100000000E-03 0. -1.
         23    2    1    2    0    0  0.00000000000E+00  0.00000000000E+00  0.00000000000E+00  0.91188000000E+02  0.91188000000E+02 0.  0.
    9900012    2    3    3    0    0 -0.19497901460E+02  0.16298051977E+02  0.26645546210E+02  0.54367084851E+02  0.40000001535E+02 0.  0.
         12    1    3    3    0    0  0.19497901460E+02 -0.16298051977E+02 -0.26645546210E+02  0.36820915149E+02  0.00000000000E+00 0. -1.
         11    1    4    4    0    0 -0.96328241789E+01  0.95827669795E+01  0.23051073304E+01  0.13781663351E+02  0.51100000000E-03 0. -1.
        -11    1    4    4    0    0 -0.12474846735E+02 -0.95400475372E+01  0.14677492400E+02  0.21495652851E+02  0.51100000000E-03 0.  1.
        -12    1    4    4    0    0  0.26097694537E+01  0.16255332535E+02  0.96629464794E+01  0.19089768649E+02  0.00000000000E+00 0.  1.
</event>
<event>
 8    1  0.1271559E-006  0.9118800E+02  0.7816164E-02  0.1184000E+00
        -11   -1    0    0    0    0  0.00000000000E+00  0.00000000000E+00  0.45593999997E+02  0.45594000000E+02  0.51100000000E-03 0.  1.
         11   -1    0    0    0    0 -0.00000000000E+00 -0.00000000000E+00 -0.45593999997E+02  0.45594000000E+02  0.51100000000E-03 0. -1.
         23    2    1    2    0    0  0.35527136788E-14  0.00000000000E+00  0.00000000000E+00  0.91188000000E+02  0.91188000000E+02 0.  0.
    9900012    2    3    3    0    0 -0.30705082047E+02 -0.20233941781E+02 -0.18881598453E+01  0.54367087313E+02  0.40000007148E+02 0.  0.
        -12    1    3    3    0    0  0.30705082047E+02  0.20233941781E+02  0.18881598453E+01  0.36820912687E+02  0.00000000000E+00 0.  1.
         11    1    4    4    0    0  0.63883720431E+01  0.26629950143E+01 -0.11430686926E+01  0.70149444834E+01  0.51100000000E-03 0. -1.
        -11    1    4    4    0    0 -0.84050763677E+01 -0.15637738848E+02 -0.36150351923E+00  0.17757107594E+02  0.51100000000E-03 0.  1.
        -12    1    4    4    0    0 -0.28688377722E+02 -0.72591979470E+01 -0.38358763350E+00  0.29595035236E+02  0.00000000000E+00 0.  1.
</event>
<event>
 8    1  0.1271559E-006  0.9118800E+02  0.7816164E-02  0.1184000E+00
        -11   -1    0    0    0    0  0.00000000000E+00  0.00000000000E+00  0.45593999997E+02  0.45594000000E+02  0.51100000000E-03 0. -1.
         11   -1    0    0    0    0 -0.00000000000E+00 -0.00000000000E+00 -0.45593999997E+02  0.45594000000E+02  0.51100000000E-03 0.  1.
         23    2    1    2    0    0 -0.44408920985E-15  0.00000000000E+00  0.00000000000E+00  0.91188000000E+02  0.91188000000E+02 0.  0.
    9900012    2    3    3    0    0 -0.26606684543E+01  0.34788208659E+02 -0.11767658262E+02  0.54367130926E+02  0.40000106573E+02 0.  0.
         12    1    3    3    0    0  0.26606684543E+01 -0.34788208659E+02  0.11767658262E+02  0.36820869074E+02  0.00000000000E+00 0. -1.
         11    1    4    4    0    0  0.26992036933E+01 -0.21824990951E+01 -0.80015860193E+01  0.87220629419E+01  0.51100000000E-03 0. -1.
        -11    1    4    4    0    0 -0.57437118203E+01  0.37879070137E+02 -0.97882490382E+01  0.39542685789E+02  0.51100000000E-03 0.  1.
        -12    1    4    4    0    0  0.38383967281E+00 -0.90836238196E+00  0.60221767951E+01  0.61023821957E+01  0.00000000000E+00 0.  1.
</event>
<event>
 8    1  0.1271559E-006  0.9118800E+02  0.7816164E-02  0.1184000E+00
        -11   -1    0    0    0    0  0.00000000000E+00  0.00000000000E+00  0.45593999997E+02  0.45594000000E+02  0.51100000000E-03 0. -1.
         11   -1    0    0    0    0 -0.00000000000E+00 -0.00000000000E+00 -0.45593999997E+02  0.45594000000E+02  0.51100000000E-03 0.  1.
         23    2    1    2    0    0  0.00000000000E+00  0.00000000000E+00 -0.35527136788E-14  0.91188000000E+02  0.91188000000E+02 0.  0.
    9900012    2    3    3    0    0  0.33538976848E+02  0.13620239477E+02  0.67384174295E+01  0.54367079847E+02  0.39999990128E+02 0.  0.
        -12    1    3    3    0    0 -0.33538976848E+02 -0.13620239477E+02 -0.67384174295E+01  0.36820920153E+02  0.00000000000E+00 0.  1.
         11    1    4    4    0    0  0.17594240382E+02 -0.20933438566E+01 -0.57120481374E+00  0.17727539545E+02  0.51100000000E-03 0. -1.
        -11    1    4    4    0    0  0.10777553496E+01  0.11705706298E+02 -0.85493130362E+01  0.14535331788E+02  0.51100000000E-03 0.  1.
        -12    1    4    4    0    0  0.14866981116E+02  0.40078770351E+01  0.15858935279E+02  0.22104208514E+02  0.00000000000E+00 0.  1.
</event>
<event>
 8    1  0.1271559E-006  0.9118800E+02  0.7816164E-02  0.1184000E+00
        -11   -1    0    0    0    0  0.00000000000E+00  0.00000000000E+00  0.45593999997E+02  0.45594000000E+02  0.51100000000E-03 0.  1.
         11   -1    0    0    0    0 -0.00000000000E+00 -0.00000000000E+00 -0.45593999997E+02  0.45594000000E+02  0.51100000000E-03 0. -1.
         23    2    1    2    0    0  0.00000000000E+00  0.00000000000E+00  0.66613381478E-15  0.91188000000E+02  0.91188000000E+02 0.  0.
    9900012    2    3    3    0    0  0.18422375878E+02  0.31863326556E+02 -0.10604107690E+01  0.54367082260E+02  0.39999995628E+02 0.  0.
        -12    1    3    3    0    0 -0.18422375878E+02 -0.31863326556E+02  0.10604107690E+01  0.36820917740E+02  0.00000000000E+00 0.  1.
         11    1    4    4    0    0  0.16206088548E+02  0.34642668939E+02 -0.14014201585E+02  0.40732660894E+02  0.51100000000E-03 0. -1.
        -11    1    4    4    0    0  0.12830137799E+01 -0.39391090207E+00  0.21775592728E+01  0.25579395626E+01  0.51100000000E-03 0.  1.
         12    1    4    4    0    0  0.93327355031E+00 -0.23854314806E+01  0.10776231543E+02  0.11076481803E+02  0.00000000000E+00 0. -1.
</event>
<event>
 8    1  0.1271559E-006  0.9118800E+02  0.7816164E-02  0.1184000E+00
        -11   -1    0    0    0    0  0.00000000000E+00  0.00000000000E+00  0.45593999997E+02  0.45594000000E+02  0.51100000000E-03 0.  1.
         11   -1    0    0    0    0 -0.00000000000E+00 -0.00000000000E+00 -0.45593999997E+02  0.45594000000E+02  0.51100000000E-03 0. -1.
         23    2    1    2    0    0  0.00000000000E+00 -0.17763568394E-14  0.17763568394E-14  0.91188000000E+02  0.91188000000E+02 0.  0.
    9900012    2    3    3    0    0  0.35073023482E+02 -0.56724028236E+01 -0.96688638784E+01  0.54367081235E+02  0.39999993292E+02 0.  0.
        -12    1    3    3    0    0 -0.35073023482E+02  0.56724028236E+01  0.96688638784E+01  0.36820918765E+02  0.00000000000E+00 0.  1.
         11    1    4    4    0    0  0.85379698831E+01 -0.20052090762E+02  0.15662651587E+01  0.21850319459E+02  0.51100000000E-03 0.  1.
        -11    1    4    4    0    0  0.24756187692E+02  0.12133967692E+02 -0.94664321912E+01  0.29149877181E+02  0.51100000000E-03 0. -1.
         12    1    4    4    0    0  0.17788659073E+01  0.22457202466E+01 -0.17686968459E+01  0.33668845948E+01  0.00000000000E+00 0. -1.
</event>
<event>
 8    1  0.1271559E-006  0.9118800E+02  0.7816164E-02  0.1184000E+00
        -11   -1    0    0    0    0  0.00000000000E+00  0.00000000000E+00  0.45593999997E+02  0.45594000000E+02  0.51100000000E-03 0.  1.
         11   -1    0    0    0    0 -0.00000000000E+00 -0.00000000000E+00 -0.45593999997E+02  0.45594000000E+02  0.51100000000E-03 0. -1.
         23    2    1    2    0    0  0.17763568394E-14 -0.71054273576E-14  0.88817841970E-15  0.91188000000E+02  0.91188000000E+02 0.  0.
    9900012    2    3    3    0    0  0.14292574755E+02 -0.33912081053E+02 -0.12143372400E+01  0.54367060993E+02  0.39999947145E+02 0.  0.
        -12    1    3    3    0    0 -0.14292574755E+02  0.33912081053E+02  0.12143372400E+01  0.36820939007E+02  0.00000000000E+00 0.  1.
         11    1    4    4    0    0  0.15342653391E+02 -0.25188929233E+02  0.15044972658E+02  0.33109369845E+02  0.51100000000E-03 0. -1.
        -11    1    4    4    0    0 -0.54326583909E+01 -0.30527474841E+01 -0.53947730881E+01  0.82423674589E+01  0.51100000000E-03 0.  1.
         12    1    4    4    0    0  0.43825797549E+01 -0.56704043358E+01 -0.10864536810E+02  0.13015323689E+02  0.00000000000E+00 0. -1.
</event>
<event>
 8    1  0.1271559E-006  0.9118800E+02  0.7816164E-02  0.1184000E+00
        -11   -1    0    0    0    0  0.00000000000E+00  0.00000000000E+00  0.45593999997E+02  0.45594000000E+02  0.51100000000E-03 0. -1.
         11   -1    0    0    0    0 -0.00000000000E+00 -0.00000000000E+00 -0.45593999997E+02  0.45594000000E+02  0.51100000000E-03 0.  1.
         23    2    1    2    0    0  0.00000000000E+00  0.00000000000E+00  0.00000000000E+00  0.91188000000E+02  0.91188000000E+02 0.  0.
    9900012    2    3    3    0    0 -0.82587434976E+01 -0.24861149823E+02  0.25874618705E+02  0.54367088716E+02  0.40000010346E+02 0.  0.
        -12    1    3    3    0    0  0.82587434976E+01  0.24861149823E+02 -0.25874618705E+02  0.36820911284E+02  0.00000000000E+00 0.  1.
         11    1    4    4    0    0 -0.37571747057E+01 -0.44224284008E+01  0.12249459806E+01  0.59308285800E+01  0.51100000000E-03 0. -1.
        -11    1    4    4    0    0 -0.16345397909E+02 -0.26459598894E+01  0.10432890288E+01  0.16591009277E+02  0.51100000000E-03 0.  1.
        -12    1    4    4    0    0  0.11843829118E+02 -0.17792761532E+02  0.23606383696E+02  0.31845250859E+02  0.00000000000E+00 0.  1.
</event>
<event>
 8    1  0.1271559E-006  0.9118800E+02  0.7816164E-02  0.1184000E+00
        -11   -1    0    0    0    0  0.00000000000E+00  0.00000000000E+00  0.45593999997E+02  0.45594000000E+02  0.51100000000E-03 0.  1.
         11   -1    0    0    0    0 -0.00000000000E+00 -0.00000000000E+00 -0.45593999997E+02  0.45594000000E+02  0.51100000000E-03 0. -1.
         23    2    1    2    0    0  0.00000000000E+00  0.00000000000E+00 -0.17763568394E-14  0.91188000000E+02  0.91188000000E+02 0.  0.
    9900012    2    3    3    0    0 -0.35101419816E+01 -0.33546278927E+02  0.14768386807E+02  0.54367093229E+02  0.40000020634E+02 0.  0.
         12    1    3    3    0    0  0.35101419816E+01  0.33546278927E+02 -0.14768386807E+02  0.36820906771E+02  0.00000000000E+00 0. -1.
         11    1    4    4    0    0 -0.89540081233E+01 -0.21564351014E+02 -0.39003057915E+01  0.23672935636E+02  0.51100000000E-03 0. -1.
        -11    1    4    4    0    0  0.95451767131E+01 -0.15621012815E+02  0.16948785295E+02  0.24947700558E+02  0.51100000000E-03 0.  1.
        -12    1    4    4    0    0 -0.41013105715E+01  0.36390849020E+01  0.17199073030E+01  0.57464570353E+01  0.00000000000E+00 0.  1.
</event>
<event>
 8    1  0.1271559E-006  0.9118800E+02  0.7816164E-02  0.1184000E+00
        -11   -1    0    0    0    0  0.00000000000E+00  0.00000000000E+00  0.45593999997E+02  0.45594000000E+02  0.51100000000E-03 0.  1.
         11   -1    0    0    0    0 -0.00000000000E+00 -0.00000000000E+00 -0.45593999997E+02  0.45594000000E+02  0.51100000000E-03 0. -1.
         23    2    1    2    0    0  0.00000000000E+00 -0.35527136788E-14  0.88817841970E-15  0.91188000000E+02  0.91188000000E+02 0.  0.
    9900012    2    3    3    0    0  0.29529258705E+02 -0.20591155546E+02  0.77336152593E+01  0.54367060151E+02  0.39999945226E+02 0.  0.
        -12    1    3    3    0    0 -0.29529258705E+02  0.20591155546E+02 -0.77336152593E+01  0.36820939849E+02  0.00000000000E+00 0.  1.
         11    1    4    4    0    0 -0.15091686972E+01 -0.72236386740E+01  0.12598279364E+02  0.14600520163E+02  0.51100000000E-03 0. -1.
        -11    1    4    4    0    0  0.11741883954E+02 -0.70254057130E+01  0.78773970776E+01  0.15788652546E+02  0.51100000000E-03 0.  1.
         12    1    4    4    0    0  0.19296543448E+02 -0.63421111590E+01 -0.12742061182E+02  0.23977887442E+02  0.00000000000E+00 0. -1.
</event>
<event>
 8    1  0.1271559E-006  0.9118800E+02  0.7816164E-02  0.1184000E+00
        -11   -1    0    0    0    0  0.00000000000E+00  0.00000000000E+00  0.45593999997E+02  0.45594000000E+02  0.51100000000E-03 0. -1.
         11   -1    0    0    0    0 -0.00000000000E+00 -0.00000000000E+00 -0.45593999997E+02  0.45594000000E+02  0.51100000000E-03 0.  1.
         23    2    1    2    0    0  0.88817841970E-15  0.35527136788E-14  0.71054273576E-14  0.91188000000E+02  0.91188000000E+02 0.  0.
    9900012    2    3    3    0    0 -0.41141276804E+01  0.20254556641E+02  0.30473293951E+02  0.54366881664E+02  0.39999538328E+02 0.  0.
        -12    1    3    3    0    0  0.41141276804E+01 -0.20254556641E+02 -0.30473293951E+02  0.36821118336E+02  0.00000000000E+00 0.  1.
         11    1    4    4    0    0  0.39581240873E+00  0.16322670015E+02  0.25544188027E+02  0.30316526287E+02  0.51100000000E-03 0. -1.
        -11    1    4    4    0    0 -0.12382210623E+02  0.74219852467E+01  0.54321474057E+01  0.15424436152E+02  0.51100000000E-03 0.  1.
        -12    1    4    4    0    0  0.78722705342E+01 -0.34900986209E+01 -0.50304148209E+00  0.86259192252E+01  0.00000000000E+00 0.  1.
</event>
<event>
 8    1  0.1271559E-006  0.9118800E+02  0.7816164E-02  0.1184000E+00
        -11   -1    0    0    0    0  0.00000000000E+00  0.00000000000E+00  0.45593999997E+02  0.45594000000E+02  0.51100000000E-03 0.  1.
         11   -1    0    0    0    0 -0.00000000000E+00 -0.00000000000E+00 -0.45593999997E+02  0.45594000000E+02  0.51100000000E-03 0. -1.
         23    2    1    2    0    0  0.00000000000E+00  0.00000000000E+00  0.00000000000E+00  0.91188000000E+02  0.91188000000E+02 0.  0.
    9900012    2    3    3    0    0 -0.24851273155E+02  0.11600861778E+02 -0.24568564144E+02  0.54367080463E+02  0.39999991532E+02 0.  0.
        -12    1    3    3    0    0  0.24851273155E+02 -0.11600861778E+02  0.24568564144E+02  0.36820919537E+02  0.00000000000E+00 0.  1.
         11    1    4    4    0    0 -0.32162661780E+00 -0.95844571928E+01 -0.14182135496E+02  0.17120111882E+02  0.51100000000E-03 0. -1.
        -11    1    4    4    0    0 -0.80798311313E+01  0.16756724208E+02 -0.70108941233E+01  0.19880244313E+02  0.51100000000E-03 0.  1.
         12    1    4    4    0    0 -0.16449815406E+02  0.44285947630E+01 -0.33755345248E+01  0.17366724268E+02  0.00000000000E+00 0. -1.
</event>
<event>
 8    1  0.1271559E-006  0.9118800E+02  0.7816164E-02  0.1184000E+00
        -11   -1    0    0    0    0  0.00000000000E+00  0.00000000000E+00  0.45593999997E+02  0.45594000000E+02  0.51100000000E-03 0.  1.
         11   -1    0    0    0    0 -0.00000000000E+00 -0.00000000000E+00 -0.45593999997E+02  0.45594000000E+02  0.51100000000E-03 0. -1.
         23    2    1    2    0    0  0.35527136788E-14  0.13322676296E-14  0.00000000000E+00  0.91188000000E+02  0.91188000000E+02 0.  0.
    9900012    2    3    3    0    0  0.26204030875E+02  0.71712150711E+00 -0.25857551622E+02  0.54367102765E+02  0.40000042373E+02 0.  0.
        -12    1    3    3    0    0 -0.26204030875E+02 -0.71712150711E+00  0.25857551622E+02  0.36820897235E+02  0.00000000000E+00 0.  1.
         11    1    4    4    0    0  0.28718103303E+02  0.95858047027E+01 -0.22308616896E+02  0.37607067118E+02  0.51100000000E-03 0. -1.
        -11    1    4    4    0    0  0.10556810840E+00  0.76356594118E+00  0.41078403436E+01  0.41795370703E+01  0.51100000000E-03 0.  1.
         12    1    4    4    0    0 -0.26196405371E+01 -0.96322491368E+01 -0.76567750689E+01  0.12580498576E+02  0.00000000000E+00 0. -1.
</event>
<event>
 8    1  0.1271559E-006  0.9118800E+02  0.7816164E-02  0.1184000E+00
        -11   -1    0    0    0    0  0.00000000000E+00  0.00000000000E+00  0.45593999997E+02  0.45594000000E+02  0.51100000000E-03 0. -1.
         11   -1    0    0    0    0 -0.00000000000E+00 -0.00000000000E+00 -0.45593999997E+02  0.45594000000E+02  0.51100000000E-03 0.  1.
         23    2    1    2    0    0 -0.88817841970E-15  0.00000000000E+00  0.00000000000E+00  0.91188000000E+02  0.91188000000E+02 0.  0.
    9900012    2    3    3    0    0 -0.78543032041E+01 -0.22860095219E+02 -0.27775988007E+02  0.54367088251E+02  0.40000009286E+02 0.  0.
         12    1    3    3    0    0  0.78543032041E+01  0.22860095219E+02  0.27775988007E+02  0.36820911749E+02  0.00000000000E+00 0. -1.
         11    1    4    4    0    0  0.57139075740E+01 -0.62562104822E+01  0.45779761814E+01  0.96305127351E+01  0.51100000000E-03 0. -1.
        -11    1    4    4    0    0 -0.12916815403E+02 -0.19345267412E+01 -0.55852593288E+01  0.14204986304E+02  0.51100000000E-03 0.  1.
        -12    1    4    4    0    0 -0.65139537493E+00 -0.14669357996E+02 -0.26768704859E+02  0.30531589212E+02  0.00000000000E+00 0.  1.
</event>
<event>
 8    1  0.1271559E-006  0.9118800E+02  0.7816164E-02  0.1184000E+00
        -11   -1    0    0    0    0  0.00000000000E+00  0.00000000000E+00  0.45593999997E+02  0.45594000000E+02  0.51100000000E-03 0.  1.
         11   -1    0    0    0    0 -0.00000000000E+00 -0.00000000000E+00 -0.45593999997E+02  0.45594000000E+02  0.51100000000E-03 0. -1.
         23    2    1    2    0    0  0.00000000000E+00  0.35527136788E-14  0.44408920985E-15  0.91188000000E+02  0.91188000000E+02 0.  0.
    9900012    2    3    3    0    0  0.21871308070E+02 -0.29432121240E+02  0.33429948256E+01  0.54367088933E+02  0.40000010841E+02 0.  0.
         12    1    3    3    0    0 -0.21871308070E+02  0.29432121240E+02 -0.33429948256E+01  0.36820911067E+02  0.00000000000E+00 0. -1.
         11    1    4    4    0    0  0.13730790736E+02 -0.14265145598E+02 -0.17590874804E+02  0.26485238715E+02  0.51100000000E-03 0. -1.
        -11    1    4    4    0    0  0.81064751088E+01 -0.11469841221E+02  0.13041834022E+02  0.19166680235E+02  0.51100000000E-03 0.  1.
         12    1    4    4    0    0  0.34042225061E-01 -0.36971344218E+01  0.78920356073E+01  0.87151699830E+01  0.00000000000E+00 0. -1.
</event>
<event>
 8    1  0.1271559E-006  0.9118800E+02  0.7816164E-02  0.1184000E+00
        -11   -1    0    0    0    0  0.00000000000E+00  0.00000000000E+00  0.45593999997E+02  0.45594000000E+02  0.51100000000E-03 0.  1.
         11   -1    0    0    0    0 -0.00000000000E+00 -0.00000000000E+00 -0.45593999997E+02  0.45594000000E+02  0.51100000000E-03 0. -1.
         23    2    1    2    0    0  0.00000000000E+00  0.35527136788E-14  0.17763568394E-14  0.91188000000E+02  0.91188000000E+02 0.  0.
    9900012    2    3    3    0    0  0.27641810485E+02 -0.22599523087E+02 -0.89984155100E+01  0.54367087296E+02  0.40000007109E+02 0.  0.
        -12    1    3    3    0    0 -0.27641810485E+02  0.22599523087E+02  0.89984155100E+01  0.36820912704E+02  0.00000000000E+00 0.  1.
         11    1    4    4    0    0 -0.40898980050E+01 -0.53068901980E+01 -0.47510044264E+01  0.82135493294E+01  0.51100000000E-03 0. -1.
        -11    1    4    4    0    0 -0.42256446493E+00  0.52604064840E+01 -0.44110307326E+01  0.68780541936E+01  0.51100000000E-03 0.  1.
        -12    1    4    4    0    0  0.32154272955E+02 -0.22553039373E+02  0.16361964898E+00  0.39275483773E+02  0.00000000000E+00 0.  1.
</event>
<event>
 8    1  0.1271559E-006  0.9118800E+02  0.7816164E-02  0.1184000E+00
        -11   -1    0    0    0    0  0.00000000000E+00  0.00000000000E+00  0.45593999997E+02  0.45594000000E+02  0.51100000000E-03 0.  1.
         11   -1    0    0    0    0 -0.00000000000E+00 -0.00000000000E+00 -0.45593999997E+02  0.45594000000E+02  0.51100000000E-03 0. -1.
         23    2    1    2    0    0  0.17763568394E-14  0.88817841970E-15  0.71054273576E-14  0.91188000000E+02  0.91188000000E+02 0.  0.
    9900012    2    3    3    0    0  0.10367122091E+02  0.42856014073E+01 -0.35070436466E+02  0.54367094066E+02  0.40000022542E+02 0.  0.
        -12    1    3    3    0    0 -0.10367122091E+02 -0.42856014073E+01  0.35070436466E+02  0.36820905934E+02  0.00000000000E+00 0.  1.
         11    1    4    4    0    0 -0.51760769406E+01  0.17317855796E+01 -0.16552415093E+02  0.17429093478E+02  0.51100000000E-03 0. -1.
        -11    1    4    4    0    0  0.21154457113E+01 -0.90711412762E+01  0.22788438854E+01  0.95892567139E+01  0.51100000000E-03 0.  1.
         12    1    4    4    0    0  0.13427753321E+02  0.11624957104E+02 -0.20796865258E+02  0.27348743874E+02  0.00000000000E+00 0. -1.
</event>
<event>
 8    1  0.1271559E-006  0.9118800E+02  0.7816164E-02  0.1184000E+00
        -11   -1    0    0    0    0  0.00000000000E+00  0.00000000000E+00  0.45593999997E+02  0.45594000000E+02  0.51100000000E-03 0.  1.
         11   -1    0    0    0    0 -0.00000000000E+00 -0.00000000000E+00 -0.45593999997E+02  0.45594000000E+02  0.51100000000E-03 0. -1.
         23    2    1    2    0    0  0.35527136788E-14  0.00000000000E+00  0.00000000000E+00  0.91188000000E+02  0.91188000000E+02 0.  0.
    9900012    2    3    3    0    0 -0.25957689751E+02  0.14634280177E+02  0.21629058703E+02  0.54367082115E+02  0.39999995298E+02 0.  0.
         12    1    3    3    0    0  0.25957689751E+02 -0.14634280177E+02 -0.21629058703E+02  0.36820917885E+02  0.00000000000E+00 0. -1.
         11    1    4    4    0    0 -0.25812563536E+02  0.94182803213E+01  0.23134354172E+02  0.35919225822E+02  0.51100000000E-03 0. -1.
        -11    1    4    4    0    0  0.18348621287E+01 -0.35133405533E+01  0.57099645551E+01  0.69508255881E+01  0.51100000000E-03 0.  1.
         12    1    4    4    0    0 -0.19799883442E+01  0.87293404086E+01 -0.72152600234E+01  0.11497030704E+02  0.00000000000E+00 0. -1.
</event>
<event>
 8    1  0.1271559E-006  0.9118800E+02  0.7816164E-02  0.1184000E+00
        -11   -1    0    0    0    0  0.00000000000E+00  0.00000000000E+00  0.45593999997E+02  0.45594000000E+02  0.51100000000E-03 0.  1.
         11   -1    0    0    0    0 -0.00000000000E+00 -0.00000000000E+00 -0.45593999997E+02  0.45594000000E+02  0.51100000000E-03 0. -1.
         23    2    1    2    0    0  0.35527136788E-14  0.00000000000E+00  0.00000000000E+00  0.91188000000E+02  0.91188000000E+02 0.  0.
    9900012    2    3    3    0    0 -0.18608862481E+02 -0.11277300648E+02  0.29703728893E+02  0.54367098560E+02  0.40000032787E+02 0.  0.
         12    1    3    3    0    0  0.18608862481E+02  0.11277300648E+02 -0.29703728893E+02  0.36820901440E+02  0.00000000000E+00 0. -1.
         11    1    4    4    0    0  0.11092949444E+02 -0.93888672904E+01  0.11181918387E+02  0.18336838753E+02  0.51100000000E-03 0. -1.
        -11    1    4    4    0    0 -0.37930022049E-01 -0.16302135890E+00  0.20485918912E+01  0.20554181199E+01  0.51100000000E-03 0.  1.
        -12    1    4    4    0    0 -0.29663881903E+02 -0.17254119983E+01  0.16473218615E+02  0.33974841687E+02  0.00000000000E+00 0.  1.
</event>
<event>
 8    1  0.1271559E-006  0.9118800E+02  0.7816164E-02  0.1184000E+00
        -11   -1    0    0    0    0  0.00000000000E+00  0.00000000000E+00  0.45593999997E+02  0.45594000000E+02  0.51100000000E-03 0.  1.
         11   -1    0    0    0    0 -0.00000000000E+00 -0.00000000000E+00 -0.45593999997E+02  0.45594000000E+02  0.51100000000E-03 0. -1.
         23    2    1    2    0    0 -0.17763568394E-14  0.00000000000E+00  0.00000000000E+00  0.91188000000E+02  0.91188000000E+02 0.  0.
    9900012    2    3    3    0    0 -0.12759547496E+02  0.19077578535E+02 -0.28792704599E+02  0.54367083483E+02  0.39999998415E+02 0.  0.
        -12    1    3    3    0    0  0.12759547496E+02 -0.19077578535E+02  0.28792704599E+02  0.36820916517E+02  0.00000000000E+00 0.  1.
         11    1    4    4    0    0 -0.35539222153E+01  0.11939729248E+02 -0.12782915517E+02  0.17849101575E+02  0.51100000000E-03 0. -1.
        -11    1    4    4    0    0 -0.15067776245E+02  0.15111226130E+02 -0.54068205273E+01  0.22014103311E+02  0.51100000000E-03 0.  1.
        -12    1    4    4    0    0  0.58621509642E+01 -0.79733768428E+01 -0.10602968554E+02  0.14503878597E+02  0.00000000000E+00 0.  1.
</event>
<event>
 8    1  0.1271559E-006  0.9118800E+02  0.7816164E-02  0.1184000E+00
        -11   -1    0    0    0    0  0.00000000000E+00  0.00000000000E+00  0.45593999997E+02  0.45594000000E+02  0.51100000000E-03 0.  1.
         11   -1    0    0    0    0 -0.00000000000E+00 -0.00000000000E+00 -0.45593999997E+02  0.45594000000E+02  0.51100000000E-03 0. -1.
         23    2    1    2    0    0  0.00000000000E+00  0.00000000000E+00  0.35527136788E-14  0.91188000000E+02  0.91188000000E+02 0.  0.
    9900012    2    3    3    0    0  0.90413741368E+01 -0.29711222327E+02  0.19780689701E+02  0.54367097465E+02  0.40000030290E+02 0.  0.
        -12    1    3    3    0    0 -0.90413741368E+01  0.29711222327E+02 -0.19780689701E+02  0.36820902535E+02  0.00000000000E+00 0.  1.
         11    1    4    4    0    0  0.17822069875E+02 -0.25553463936E+02  0.14722548031E+02  0.34458077638E+02  0.51100000000E-03 0. -1.
        -11    1    4    4    0    0 -0.13452556970E+02 -0.36424149204E+01  0.58994272166E+01  0.15134124264E+02  0.51100000000E-03 0.  1.
         12    1    4    4    0    0  0.46718612323E+01 -0.51534347100E+00 -0.84128554588E+00  0.47748955629E+01  0.00000000000E+00 0. -1.
</event>
<event>
 8    1  0.1271559E-006  0.9118800E+02  0.7816164E-02  0.1184000E+00
        -11   -1    0    0    0    0  0.00000000000E+00  0.00000000000E+00  0.45593999997E+02  0.45594000000E+02  0.51100000000E-03 0.  1.
         11   -1    0    0    0    0 -0.00000000000E+00 -0.00000000000E+00 -0.45593999997E+02  0.45594000000E+02  0.51100000000E-03 0. -1.
         23    2    1    2    0    0  0.88817841970E-15  0.00000000000E+00  0.00000000000E+00  0.91188000000E+02  0.91188000000E+02 0.  0.
    9900012    2    3    3    0    0 -0.68666321545E+01 -0.94907594310E+01 -0.34907806126E+02  0.54367080942E+02  0.39999992624E+02 0.  0.
        -12    1    3    3    0    0  0.68666321545E+01  0.94907594310E+01  0.34907806126E+02  0.36820919058E+02  0.00000000000E+00 0.  1.
         11    1    4    4    0    0 -0.75475020611E+01 -0.99689489932E+01 -0.18174961438E+02  0.22060687998E+02  0.51100000000E-03 0. -1.
        -11    1    4    4    0    0 -0.15951408928E+01  0.41017296352E+01  0.69575624150E+01  0.82326384281E+01  0.51100000000E-03 0.  1.
        -12    1    4    4    0    0  0.22760107994E+01 -0.36235400730E+01 -0.23690407103E+02  0.24073754516E+02  0.00000000000E+00 0.  1.
</event>
<event>
 8    1  0.1271559E-006  0.9118800E+02  0.7816164E-02  0.1184000E+00
        -11   -1    0    0    0    0  0.00000000000E+00  0.00000000000E+00  0.45593999997E+02  0.45594000000E+02  0.51100000000E-03 0.  1.
         11   -1    0    0    0    0 -0.00000000000E+00 -0.00000000000E+00 -0.45593999997E+02  0.45594000000E+02  0.51100000000E-03 0. -1.
         23    2    1    2    0    0  0.00000000000E+00 -0.35527136788E-14  0.00000000000E+00  0.91188000000E+02  0.91188000000E+02 0.  0.
    9900012    2    3    3    0    0 -0.25768726396E+02  0.16537131110E+02  0.20451810872E+02  0.54367074789E+02  0.39999978597E+02 0.  0.
         12    1    3    3    0    0  0.25768726396E+02 -0.16537131110E+02 -0.20451810872E+02  0.36820925211E+02  0.00000000000E+00 0. -1.
         11    1    4    4    0    0 -0.25149560515E+02  0.23292156979E+02  0.98238945597E+01  0.35658573660E+02  0.51100000000E-03 0.  1.
        -11    1    4    4    0    0  0.16324087216E+01  0.13575174619E+01  0.10047446529E+02  0.10269313215E+02  0.51100000000E-03 0. -1.
         12    1    4    4    0    0 -0.22515746022E+01 -0.81125433312E+01  0.58046978374E+00  0.84391879147E+01  0.00000000000E+00 0. -1.
</event>
<event>
 8    1  0.1271559E-006  0.9118800E+02  0.7816164E-02  0.1184000E+00
        -11   -1    0    0    0    0  0.00000000000E+00  0.00000000000E+00  0.45593999997E+02  0.45594000000E+02  0.51100000000E-03 0. -1.
         11   -1    0    0    0    0 -0.00000000000E+00 -0.00000000000E+00 -0.45593999997E+02  0.45594000000E+02  0.51100000000E-03 0.  1.
         23    2    1    2    0    0  0.00000000000E+00  0.00000000000E+00  0.00000000000E+00  0.91188000000E+02  0.91188000000E+02 0.  0.
    9900012    2    3    3    0    0  0.40471729569E+01 -0.52786644763E+01  0.36215259931E+02  0.54366960369E+02  0.39999717753E+02 0.  0.
        -12    1    3    3    0    0 -0.40471729569E+01  0.52786644763E+01 -0.36215259931E+02  0.36821039631E+02  0.00000000000E+00 0.  1.
         11    1    4    4    0    0  0.15417697569E+01 -0.14435396369E+02  0.37233040551E+02  0.39963195959E+02  0.51100000000E-03 0. -1.
        -11    1    4    4    0    0  0.46221397305E+01  0.87699129499E+01  0.25510898284E+01  0.10236386492E+02  0.51100000000E-03 0.  1.
         12    1    4    4    0    0 -0.21167365305E+01  0.38681894314E+00 -0.35688704487E+01  0.41673779183E+01  0.00000000000E+00 0. -1.
</event>
<event>
 8    1  0.1271559E-006  0.9118800E+02  0.7816164E-02  0.1184000E+00
        -11   -1    0    0    0    0  0.00000000000E+00  0.00000000000E+00  0.45593999997E+02  0.45594000000E+02  0.51100000000E-03 0.  1.
         11   -1    0    0    0    0 -0.00000000000E+00 -0.00000000000E+00 -0.45593999997E+02  0.45594000000E+02  0.51100000000E-03 0. -1.
         23    2    1    2    0    0  0.00000000000E+00  0.00000000000E+00 -0.26645352591E-14  0.91188000000E+02  0.91188000000E+02 0.  0.
    9900012    2    3    3    0    0 -0.32280352945E+02  0.17038603950E+02  0.48420280217E+01  0.54367075974E+02  0.39999981297E+02 0.  0.
        -12    1    3    3    0    0  0.32280352945E+02 -0.17038603950E+02 -0.48420280217E+01  0.36820924026E+02  0.00000000000E+00 0.  1.
         11    1    4    4    0    0 -0.11023334748E+02  0.87857126593E+01 -0.12188529531E+02  0.18634991502E+02  0.51100000000E-03 0. -1.
        -11    1    4    4    0    0 -0.72955190447E+01  0.78386803830E+01 -0.31745894557E+01  0.11169043233E+02  0.51100000000E-03 0.  1.
        -12    1    4    4    0    0 -0.13961499152E+02  0.41421090772E+00  0.20205147008E+02  0.24563041238E+02  0.00000000000E+00 0.  1.
</event>
<event>
 8    1  0.1271559E-006  0.9118800E+02  0.7816164E-02  0.1184000E+00
        -11   -1    0    0    0    0  0.00000000000E+00  0.00000000000E+00  0.45593999997E+02  0.45594000000E+02  0.51100000000E-03 0. -1.
         11   -1    0    0    0    0 -0.00000000000E+00 -0.00000000000E+00 -0.45593999997E+02  0.45594000000E+02  0.51100000000E-03 0.  1.
         23    2    1    2    0    0 -0.35527136788E-14  0.00000000000E+00  0.00000000000E+00  0.91188000000E+02  0.91188000000E+02 0.  0.
    9900012    2    3    3    0    0  0.25567562156E+02  0.23205659654E+02 -0.12789800876E+02  0.54367056489E+02  0.39999936877E+02 0.  0.
         12    1    3    3    0    0 -0.25567562156E+02 -0.23205659654E+02  0.12789800876E+02  0.36820943511E+02  0.00000000000E+00 0. -1.
         11    1    4    4    0    0  0.23586848234E+02  0.17700670198E+02 -0.94626286525E+01  0.30970864960E+02  0.51100000000E-03 0. -1.
        -11    1    4    4    0    0  0.68792795278E+01  0.98327577580E+01 -0.87918671962E+01  0.14876308044E+02  0.51100000000E-03 0.  1.
         12    1    4    4    0    0 -0.48985656054E+01 -0.43277683018E+01  0.54646949724E+01  0.85198834855E+01  0.00000000000E+00 0. -1.
</event>
<event>
 8    1  0.1271559E-006  0.9118800E+02  0.7816164E-02  0.1184000E+00
        -11   -1    0    0    0    0  0.00000000000E+00  0.00000000000E+00  0.45593999997E+02  0.45594000000E+02  0.51100000000E-03 0. -1.
         11   -1    0    0    0    0 -0.00000000000E+00 -0.00000000000E+00 -0.45593999997E+02  0.45594000000E+02  0.51100000000E-03 0.  1.
         23    2    1    2    0    0 -0.17763568394E-14 -0.71054273576E-14  0.00000000000E+00  0.91188000000E+02  0.91188000000E+02 0.  0.
    9900012    2    3    3    0    0 -0.69221897075E+01  0.34121848983E+02  0.11981707232E+02  0.54367101090E+02  0.40000038555E+02 0.  0.
        -12    1    3    3    0    0  0.69221897075E+01 -0.34121848983E+02 -0.11981707232E+02  0.36820898910E+02  0.00000000000E+00 0.  1.
         11    1    4    4    0    0  0.10384496295E+01  0.32030849969E+01  0.50175180916E+01  0.60426500139E+01  0.51100000000E-03 0. -1.
        -11    1    4    4    0    0  0.12850895429E+02  0.35217068958E+01  0.61942938809E+00  0.13339101387E+02  0.51100000000E-03 0.  1.
         12    1    4    4    0    0 -0.20811534766E+02  0.27397057090E+02  0.63447597525E+01  0.34985349689E+02  0.00000000000E+00 0. -1.
</event>
<event>
 8    1  0.1271559E-006  0.9118800E+02  0.7816164E-02  0.1184000E+00
        -11   -1    0    0    0    0  0.00000000000E+00  0.00000000000E+00  0.45593999997E+02  0.45594000000E+02  0.51100000000E-03 0.  1.
         11   -1    0    0    0    0 -0.00000000000E+00 -0.00000000000E+00 -0.45593999997E+02  0.45594000000E+02  0.51100000000E-03 0. -1.
         23    2    1    2    0    0  0.35527136788E-14 -0.35527136788E-14 -0.35527136788E-14  0.91188000000E+02  0.91188000000E+02 0.  0.
    9900012    2    3    3    0    0  0.10464112231E+02 -0.16928148502E+02 -0.30979344004E+02  0.54367087309E+02  0.40000007139E+02 0.  0.
        -12    1    3    3    0    0 -0.10464112231E+02  0.16928148502E+02  0.30979344004E+02  0.36820912691E+02  0.00000000000E+00 0.  1.
         11    1    4    4    0    0  0.41574120453E+00  0.11380629958E+01 -0.15956288253E+02  0.16002223696E+02  0.51100000000E-03 0. -1.
        -11    1    4    4    0    0 -0.10118730764E+02 -0.57808799549E+01 -0.57498766790E+01  0.12994936222E+02  0.51100000000E-03 0.  1.
        -12    1    4    4    0    0  0.20167101790E+02 -0.12285331543E+02 -0.92731790717E+01  0.25369927391E+02  0.00000000000E+00 0.  1.
</event>
<event>
 8    1  0.1271559E-006  0.9118800E+02  0.7816164E-02  0.1184000E+00
        -11   -1    0    0    0    0  0.00000000000E+00  0.00000000000E+00  0.45593999997E+02  0.45594000000E+02  0.51100000000E-03 0. -1.
         11   -1    0    0    0    0 -0.00000000000E+00 -0.00000000000E+00 -0.45593999997E+02  0.45594000000E+02  0.51100000000E-03 0.  1.
         23    2    1    2    0    0  0.00000000000E+00  0.00000000000E+00  0.00000000000E+00  0.91188000000E+02  0.91188000000E+02 0.  0.
    9900012    2    3    3    0    0  0.64920004376E+01  0.19189607477E+02 -0.30747268331E+02  0.54367060106E+02  0.39999945125E+02 0.  0.
         12    1    3    3    0    0 -0.64920004376E+01 -0.19189607477E+02  0.30747268331E+02  0.36820939894E+02  0.00000000000E+00 0. -1.
         11    1    4    4    0    0 -0.34417900172E+01  0.18368180943E+02 -0.74412468109E+01  0.20114873702E+02  0.51100000000E-03 0. -1.
        -11    1    4    4    0    0  0.73944315178E+01  0.90365612530E+01 -0.22827258544E+02  0.25640218206E+02  0.51100000000E-03 0.  1.
         12    1    4    4    0    0  0.25393589370E+01 -0.82151347192E+01 -0.47876297657E+00  0.86119681986E+01  0.00000000000E+00 0. -1.
</event>
<event>
 8    1  0.1271559E-006  0.9118800E+02  0.7816164E-02  0.1184000E+00
        -11   -1    0    0    0    0  0.00000000000E+00  0.00000000000E+00  0.45593999997E+02  0.45594000000E+02  0.51100000000E-03 0. -1.
         11   -1    0    0    0    0 -0.00000000000E+00 -0.00000000000E+00 -0.45593999997E+02  0.45594000000E+02  0.51100000000E-03 0.  1.
         23    2    1    2    0    0 -0.35527136788E-14  0.00000000000E+00 -0.35527136788E-14  0.91188000000E+02  0.91188000000E+02 0.  0.
    9900012    2    3    3    0    0 -0.26142684836E+02 -0.18942324912E+02 -0.17706710249E+02  0.54367092470E+02  0.40000018904E+02 0.  0.
         12    1    3    3    0    0  0.26142684836E+02  0.18942324912E+02  0.17706710249E+02  0.36820907530E+02  0.00000000000E+00 0. -1.
         11    1    4    4    0    0 -0.27647964017E+02 -0.19017525590E+02 -0.86881675465E+01  0.34663531981E+02  0.51100000000E-03 0. -1.
        -11    1    4    4    0    0 -0.52575988879E+01 -0.36506619260E+01  0.15778977175E+01  0.65923774188E+01  0.51100000000E-03 0.  1.
        -12    1    4    4    0    0  0.67628780690E+01  0.37258626041E+01 -0.10596440420E+02  0.13111183070E+02  0.00000000000E+00 0.  1.
</event>
<event>
 8    1  0.1271559E-006  0.9118800E+02  0.7816164E-02  0.1184000E+00
        -11   -1    0    0    0    0  0.00000000000E+00  0.00000000000E+00  0.45593999997E+02  0.45594000000E+02  0.51100000000E-03 0.  1.
         11   -1    0    0    0    0 -0.00000000000E+00 -0.00000000000E+00 -0.45593999997E+02  0.45594000000E+02  0.51100000000E-03 0. -1.
         23    2    1    2    0    0  0.00000000000E+00  0.00000000000E+00 -0.35527136788E-14  0.91188000000E+02  0.91188000000E+02 0.  0.
    9900012    2    3    3    0    0 -0.15444887993E+02 -0.14237763968E+02 -0.30241115832E+02  0.54367033490E+02  0.39999884447E+02 0.  0.
        -12    1    3    3    0    0  0.15444887993E+02  0.14237763968E+02  0.30241115832E+02  0.36820966510E+02  0.00000000000E+00 0.  1.
         11    1    4    4    0    0 -0.91301075632E+01 -0.14507052247E+02 -0.19368723143E+02  0.25864277787E+02  0.51100000000E-03 0. -1.
        -11    1    4    4    0    0 -0.10644884924E+02 -0.75275870766E+01  0.16366623863E+01  0.13139893693E+02  0.51100000000E-03 0.  1.
         12    1    4    4    0    0  0.43301044938E+01  0.77968753552E+01 -0.12509055076E+02  0.15362862010E+02  0.00000000000E+00 0. -1.
</event>
<event>
 8    1  0.1271559E-006  0.9118800E+02  0.7816164E-02  0.1184000E+00
        -11   -1    0    0    0    0  0.00000000000E+00  0.00000000000E+00  0.45593999997E+02  0.45594000000E+02  0.51100000000E-03 0.  1.
         11   -1    0    0    0    0 -0.00000000000E+00 -0.00000000000E+00 -0.45593999997E+02  0.45594000000E+02  0.51100000000E-03 0. -1.
         23    2    1    2    0    0  0.35527136788E-14  0.00000000000E+00 -0.55511151231E-15  0.91188000000E+02  0.91188000000E+02 0.  0.
    9900012    2    3    3    0    0 -0.30004908996E+02  0.21339495926E+02 -0.33262660812E+00  0.54367091664E+02  0.40000017066E+02 0.  0.
         12    1    3    3    0    0  0.30004908996E+02 -0.21339495926E+02  0.33262660812E+00  0.36820908336E+02  0.00000000000E+00 0. -1.
         11    1    4    4    0    0 -0.11508840160E+02  0.18217409893E+02  0.15498716579E+02  0.26543127941E+02  0.51100000000E-03 0. -1.
        -11    1    4    4    0    0 -0.18670964276E+02  0.58267821340E+01 -0.11426848725E+02  0.22652354603E+02  0.51100000000E-03 0.  1.
         12    1    4    4    0    0  0.17489544009E+00 -0.27046961008E+01 -0.44044944627E+01  0.51716091195E+01  0.00000000000E+00 0. -1.
</event>
<event>
 8    1  0.1271559E-006  0.9118800E+02  0.7816164E-02  0.1184000E+00
        -11   -1    0    0    0    0  0.00000000000E+00  0.00000000000E+00  0.45593999997E+02  0.45594000000E+02  0.51100000000E-03 0. -1.
         11   -1    0    0    0    0 -0.00000000000E+00 -0.00000000000E+00 -0.45593999997E+02  0.45594000000E+02  0.51100000000E-03 0.  1.
         23    2    1    2    0    0  0.44408920985E-15 -0.53290705182E-14  0.71054273576E-14  0.91188000000E+02  0.91188000000E+02 0.  0.
    9900012    2    3    3    0    0 -0.27727439037E+00 -0.15483767155E+02  0.33405932368E+02  0.54367078721E+02  0.39999987561E+02 0.  0.
        -12    1    3    3    0    0  0.27727439037E+00  0.15483767155E+02 -0.33405932368E+02  0.36820921279E+02  0.00000000000E+00 0.  1.
         11    1    4    4    0    0  0.12240604302E+01  0.60553802840E+01  0.18273848456E+02  0.19289880559E+02  0.51100000000E-03 0. -1.
        -11    1    4    4    0    0 -0.41703020905E+01  0.24141696565E+01  0.89984135552E+01  0.10207403266E+02  0.51100000000E-03 0.  1.
        -12    1    4    4    0    0  0.26689672699E+01 -0.23953317096E+02  0.61336703574E+01  0.24869794897E+02  0.00000000000E+00 0.  1.
</event>
<event>
 8    1  0.1271559E-006  0.9118800E+02  0.7816164E-02  0.1184000E+00
        -11   -1    0    0    0    0  0.00000000000E+00  0.00000000000E+00  0.45593999997E+02  0.45594000000E+02  0.51100000000E-03 0.  1.
         11   -1    0    0    0    0 -0.00000000000E+00 -0.00000000000E+00 -0.45593999997E+02  0.45594000000E+02  0.51100000000E-03 0. -1.
         23    2    1    2    0    0 -0.17763568394E-14  0.35527136788E-14  0.35527136788E-14  0.91188000000E+02  0.91188000000E+02 0.  0.
    9900012    2    3    3    0    0  0.14075186711E+02  0.31617293491E+02  0.12570439592E+02  0.54367080943E+02  0.39999992626E+02 0.  0.
         12    1    3    3    0    0 -0.14075186711E+02 -0.31617293491E+02 -0.12570439592E+02  0.36820919057E+02  0.00000000000E+00 0. -1.
         11    1    4    4    0    0  0.14039419160E+02  0.26209566864E+02 -0.91535962334E+01  0.31110046766E+02  0.51100000000E-03 0. -1.
        -11    1    4    4    0    0  0.15125125082E+01 -0.90558311612E+00  0.58520520274E+01  0.61118154472E+01  0.51100000000E-03 0.  1.
         12    1    4    4    0    0 -0.14767449571E+01  0.63133097434E+01  0.15871983798E+02  0.17145218729E+02  0.00000000000E+00 0. -1.
</event>
<event>
 8    1  0.1271559E-006  0.9118800E+02  0.7816164E-02  0.1184000E+00
        -11   -1    0    0    0    0  0.00000000000E+00  0.00000000000E+00  0.45593999997E+02  0.45594000000E+02  0.51100000000E-03 0. -1.
         11   -1    0    0    0    0 -0.00000000000E+00 -0.00000000000E+00 -0.45593999997E+02  0.45594000000E+02  0.51100000000E-03 0.  1.
         23    2    1    2    0    0  0.00000000000E+00  0.88817841970E-15  0.00000000000E+00  0.91188000000E+02  0.91188000000E+02 0.  0.
    9900012    2    3    3    0    0 -0.96428559719E+01  0.65124917763E+01 -0.34933970489E+02  0.54367088624E+02  0.40000010136E+02 0.  0.
         12    1    3    3    0    0  0.96428559719E+01 -0.65124917763E+01  0.34933970489E+02  0.36820911376E+02  0.00000000000E+00 0. -1.
         11    1    4    4    0    0 -0.45450243386E+01  0.13702676343E+02 -0.32662089558E+01  0.14801645395E+02  0.51100000000E-03 0. -1.
        -11    1    4    4    0    0  0.47327868335E+01 -0.40310046542E+00  0.93673297109E+00  0.48414078652E+01  0.51100000000E-03 0.  1.
        -12    1    4    4    0    0 -0.98306184668E+01 -0.67870841010E+01 -0.32604494505E+02  0.34724035364E+02  0.00000000000E+00 0.  1.
</event>
<event>
 8    1  0.1271559E-006  0.9118800E+02  0.7816164E-02  0.1184000E+00
        -11   -1    0    0    0    0  0.00000000000E+00  0.00000000000E+00  0.45593999997E+02  0.45594000000E+02  0.51100000000E-03 0.  1.
         11   -1    0    0    0    0 -0.00000000000E+00 -0.00000000000E+00 -0.45593999997E+02  0.45594000000E+02  0.51100000000E-03 0. -1.
         23    2    1    2    0    0  0.00000000000E+00  0.00000000000E+00  0.00000000000E+00  0.91188000000E+02  0.91188000000E+02 0.  0.
    9900012    2    3    3    0    0  0.33636302757E+01  0.79898399497E+01 -0.35785845461E+02  0.54367105302E+02  0.40000048156E+02 0.  0.
        -12    1    3    3    0    0 -0.33636302757E+01 -0.79898399497E+01  0.35785845461E+02  0.36820894698E+02  0.00000000000E+00 0.  1.
         11    1    4    4    0    0  0.54561695829E+01  0.29296529249E+01 -0.15166015182E+02  0.16381717539E+02  0.51100000000E-03 0. -1.
        -11    1    4    4    0    0  0.61314439151E+01  0.10403076198E+02 -0.24597918529E+02  0.27402120266E+02  0.51100000000E-03 0.  1.
        -12    1    4    4    0    0 -0.82239832224E+01 -0.53428891731E+01  0.39780882508E+01  0.10583267496E+02  0.00000000000E+00 0.  1.
</event>
<event>
 8    1  0.1271559E-006  0.9118800E+02  0.7816164E-02  0.1184000E+00
        -11   -1    0    0    0    0  0.00000000000E+00  0.00000000000E+00  0.45593999997E+02  0.45594000000E+02  0.51100000000E-03 0.  1.
         11   -1    0    0    0    0 -0.00000000000E+00 -0.00000000000E+00 -0.45593999997E+02  0.45594000000E+02  0.51100000000E-03 0. -1.
         23    2    1    2    0    0  0.88817841970E-15  0.00000000000E+00  0.00000000000E+00  0.91188000000E+02  0.91188000000E+02 0.  0.
    9900012    2    3    3    0    0 -0.34313942838E+01  0.20914184414E+02  0.30109828283E+02  0.54367091053E+02  0.40000015674E+02 0.  0.
         12    1    3    3    0    0  0.34313942838E+01 -0.20914184414E+02 -0.30109828283E+02  0.36820908947E+02  0.00000000000E+00 0. -1.
         11    1    4    4    0    0 -0.56855667343E+01  0.16147618451E+01  0.12655643612E+02  0.13967764330E+02  0.51100000000E-03 0. -1.
        -11    1    4    4    0    0 -0.10354858508E+02  0.38828521152E+01  0.17239726480E+02  0.20481889674E+02  0.51100000000E-03 0.  1.
         12    1    4    4    0    0  0.12609030958E+02  0.15416570454E+02  0.21445819136E+00  0.19917437049E+02  0.00000000000E+00 0. -1.
</event>
<event>
 8    1  0.1271559E-006  0.9118800E+02  0.7816164E-02  0.1184000E+00
        -11   -1    0    0    0    0  0.00000000000E+00  0.00000000000E+00  0.45593999997E+02  0.45594000000E+02  0.51100000000E-03 0.  1.
         11   -1    0    0    0    0 -0.00000000000E+00 -0.00000000000E+00 -0.45593999997E+02  0.45594000000E+02  0.51100000000E-03 0. -1.
         23    2    1    2    0    0 -0.17763568394E-14  0.00000000000E+00  0.35527136788E-14  0.91188000000E+02  0.91188000000E+02 0.  0.
    9900012    2    3    3    0    0  0.15718439171E+02 -0.99050513584E+01 -0.31789933132E+02  0.54367092611E+02  0.40000019225E+02 0.  0.
        -12    1    3    3    0    0 -0.15718439171E+02  0.99050513584E+01  0.31789933132E+02  0.36820907389E+02  0.00000000000E+00 0.  1.
         11    1    4    4    0    0  0.81990524359E+00  0.10687770306E+02 -0.11413534583E+02  0.15657887810E+02  0.51100000000E-03 0. -1.
        -11    1    4    4    0    0  0.13853066564E+02 -0.72071624378E+01 -0.17006303898E+01  0.15708048498E+02  0.51100000000E-03 0.  1.
         12    1    4    4    0    0  0.10454673637E+01 -0.13385659227E+02 -0.18675768159E+02  0.23001156303E+02  0.00000000000E+00 0. -1.
</event>
<event>
 8    1  0.1271559E-006  0.9118800E+02  0.7816164E-02  0.1184000E+00
        -11   -1    0    0    0    0  0.00000000000E+00  0.00000000000E+00  0.45593999997E+02  0.45594000000E+02  0.51100000000E-03 0.  1.
         11   -1    0    0    0    0 -0.00000000000E+00 -0.00000000000E+00 -0.45593999997E+02  0.45594000000E+02  0.51100000000E-03 0. -1.
         23    2    1    2    0    0 -0.44408920985E-15  0.00000000000E+00 -0.71054273576E-14  0.91188000000E+02  0.91188000000E+02 0.  0.
    9900012    2    3    3    0    0 -0.35449377554E+01  0.18809907132E+02 -0.31454753665E+02  0.54367072280E+02  0.39999972878E+02 0.  0.
        -12    1    3    3    0    0  0.35449377554E+01 -0.18809907132E+02  0.31454753665E+02  0.36820927720E+02  0.00000000000E+00 0.  1.
         11    1    4    4    0    0 -0.15941842820E+01  0.16573509150E+02 -0.35479452862E+02  0.39192017104E+02  0.51100000000E-03 0. -1.
        -11    1    4    4    0    0  0.46293627885E+01 -0.26232417706E+01  0.45176965387E+01  0.69801131432E+01  0.51100000000E-03 0.  1.
         12    1    4    4    0    0 -0.65801162620E+01  0.48596397530E+01 -0.49299734189E+00  0.81949420333E+01  0.00000000000E+00 0. -1.
</event>
<event>
 8    1  0.1271559E-006  0.9118800E+02  0.7816164E-02  0.1184000E+00
        -11   -1    0    0    0    0  0.00000000000E+00  0.00000000000E+00  0.45593999997E+02  0.45594000000E+02  0.51100000000E-03 0.  1.
         11   -1    0    0    0    0 -0.00000000000E+00 -0.00000000000E+00 -0.45593999997E+02  0.45594000000E+02  0.51100000000E-03 0. -1.
         23    2    1    2    0    0  0.00000000000E+00 -0.17763568394E-14 -0.53290705182E-14  0.91188000000E+02  0.91188000000E+02 0.  0.
    9900012    2    3    3    0    0  0.33425538971E+02  0.11818233852E+02  0.99421100041E+01  0.54367043220E+02  0.39999906629E+02 0.  0.
         12    1    3    3    0    0 -0.33425538971E+02 -0.11818233852E+02 -0.99421100041E+01  0.36820956780E+02  0.00000000000E+00 0. -1.
         11    1    4    4    0    0 -0.63549813591E+00  0.18633805358E+01 -0.10424910917E+02  0.10609185302E+02  0.51100000000E-03 0. -1.
        -11    1    4    4    0    0  0.20011626637E+02  0.74606954258E+01  0.20333674338E+02  0.29488734955E+02  0.51100000000E-03 0.  1.
         12    1    4    4    0    0  0.14049410470E+02  0.24941578908E+01  0.33346582252E-01  0.14269122963E+02  0.00000000000E+00 0. -1.
</event>
<event>
 8    1  0.1271559E-006  0.9118800E+02  0.7816164E-02  0.1184000E+00
        -11   -1    0    0    0    0  0.00000000000E+00  0.00000000000E+00  0.45593999997E+02  0.45594000000E+02  0.51100000000E-03 0. -1.
         11   -1    0    0    0    0 -0.00000000000E+00 -0.00000000000E+00 -0.45593999997E+02  0.45594000000E+02  0.51100000000E-03 0.  1.
         23    2    1    2    0    0  0.00000000000E+00  0.00000000000E+00  0.00000000000E+00  0.91188000000E+02  0.91188000000E+02 0.  0.
    9900012    2    3    3    0    0  0.20187845155E+02 -0.25102500040E+02 -0.17835234600E+02  0.54367079405E+02  0.39999989119E+02 0.  0.
         12    1    3    3    0    0 -0.20187845155E+02  0.25102500040E+02  0.17835234600E+02  0.36820920595E+02  0.00000000000E+00 0. -1.
         11    1    4    4    0    0  0.31776277503E+02 -0.19900141509E+02 -0.13032900817E+02  0.39693877966E+02  0.51100000000E-03 0. -1.
        -11    1    4    4    0    0 -0.71598787909E+01 -0.19236212127E+00 -0.28345403689E+01  0.77029531253E+01  0.51100000000E-03 0.  1.
         12    1    4    4    0    0 -0.44285535571E+01 -0.50099964098E+01 -0.19677934134E+01  0.69702483135E+01  0.00000000000E+00 0. -1.
</event>
<event>
 8    1  0.1271559E-006  0.9118800E+02  0.7816164E-02  0.1184000E+00
        -11   -1    0    0    0    0  0.00000000000E+00  0.00000000000E+00  0.45593999997E+02  0.45594000000E+02  0.51100000000E-03 0.  1.
         11   -1    0    0    0    0 -0.00000000000E+00 -0.00000000000E+00 -0.45593999997E+02  0.45594000000E+02  0.51100000000E-03 0. -1.
         23    2    1    2    0    0  0.00000000000E+00  0.22204460493E-14  0.17763568394E-14  0.91188000000E+02  0.91188000000E+02 0.  0.
    9900012    2    3    3    0    0 -0.34177701506E+02  0.11886489251E+01 -0.13647405800E+02  0.54367084047E+02  0.39999999703E+02 0.  0.
         12    1    3    3    0    0  0.34177701506E+02 -0.11886489251E+01  0.13647405800E+02  0.36820915953E+02  0.00000000000E+00 0. -1.
         11    1    4    4    0    0 -0.67949033198E+01  0.14693049436E+02 -0.76040518214E+01  0.17885133973E+02  0.51100000000E-03 0. -1.
        -11    1    4    4    0    0  0.18181019728E+01 -0.30569778441E+01  0.24590034937E+01  0.43240382475E+01  0.51100000000E-03 0.  1.
        -12    1    4    4    0    0 -0.29200900159E+02 -0.10447422667E+02 -0.85023574725E+01  0.32157911827E+02  0.00000000000E+00 0.  1.
</event>
<event>
 8    1  0.1271559E-006  0.9118800E+02  0.7816164E-02  0.1184000E+00
        -11   -1    0    0    0    0  0.00000000000E+00  0.00000000000E+00  0.45593999997E+02  0.45594000000E+02  0.51100000000E-03 0.  1.
         11   -1    0    0    0    0 -0.00000000000E+00 -0.00000000000E+00 -0.45593999997E+02  0.45594000000E+02  0.51100000000E-03 0. -1.
         23    2    1    2    0    0  0.00000000000E+00 -0.17763568394E-14  0.00000000000E+00  0.91188000000E+02  0.91188000000E+02 0.  0.
    9900012    2    3    3    0    0  0.13835171422E+02 -0.15219858984E+02  0.30540659546E+02  0.54366973924E+02  0.39999748654E+02 0.  0.
         12    1    3    3    0    0 -0.13835171422E+02  0.15219858984E+02 -0.30540659546E+02  0.36821026076E+02  0.00000000000E+00 0. -1.
         11    1    4    4    0    0 -0.33285789125E+01 -0.15185304553E+01 -0.23254429722E+00  0.36659854653E+01  0.51100000000E-03 0. -1.
        -11    1    4    4    0    0  0.12427694473E+02 -0.18933709866E+02  0.35569626094E+02  0.42167893710E+02  0.51100000000E-03 0.  1.
        -12    1    4    4    0    0  0.47360558618E+01  0.52323813368E+01 -0.47964222513E+01  0.85330947488E+01  0.00000000000E+00 0.  1.
</event>
<event>
 8    1  0.1271559E-006  0.9118800E+02  0.7816164E-02  0.1184000E+00
        -11   -1    0    0    0    0  0.00000000000E+00  0.00000000000E+00  0.45593999997E+02  0.45594000000E+02  0.51100000000E-03 0.  1.
         11   -1    0    0    0    0 -0.00000000000E+00 -0.00000000000E+00 -0.45593999997E+02  0.45594000000E+02  0.51100000000E-03 0. -1.
         23    2    1    2    0    0  0.00000000000E+00  0.17763568394E-14  0.00000000000E+00  0.91188000000E+02  0.91188000000E+02 0.  0.
    9900012    2    3    3    0    0  0.27055664324E+02 -0.13597922359E+02  0.20949157379E+02  0.54367086658E+02  0.40000005654E+02 0.  0.
         12    1    3    3    0    0 -0.27055664324E+02  0.13597922359E+02 -0.20949157379E+02  0.36820913342E+02  0.00000000000E+00 0. -1.
         11    1    4    4    0    0 -0.42299346079E+01 -0.15361877873E+01  0.40483687036E+01  0.60532230363E+01  0.51100000000E-03 0. -1.
        -11    1    4    4    0    0  0.15781866024E+02 -0.21005270650E+02  0.47986348125E+01  0.26707968598E+02  0.51100000000E-03 0.  1.
        -12    1    4    4    0    0  0.15503732908E+02  0.89435360789E+01  0.12102153863E+02  0.21605895024E+02  0.00000000000E+00 0.  1.
</event>
<event>
 8    1  0.1271559E-006  0.9118800E+02  0.7816164E-02  0.1184000E+00
        -11   -1    0    0    0    0  0.00000000000E+00  0.00000000000E+00  0.45593999997E+02  0.45594000000E+02  0.51100000000E-03 0. -1.
         11   -1    0    0    0    0 -0.00000000000E+00 -0.00000000000E+00 -0.45593999997E+02  0.45594000000E+02  0.51100000000E-03 0.  1.
         23    2    1    2    0    0 -0.35527136788E-14 -0.35527136788E-14  0.35527136788E-14  0.91188000000E+02  0.91188000000E+02 0.  0.
    9900012    2    3    3    0    0 -0.14759943415E+02  0.28146592204E+02 -0.18592799324E+02  0.54367098748E+02  0.40000033217E+02 0.  0.
         12    1    3    3    0    0  0.14759943415E+02 -0.28146592204E+02  0.18592799324E+02  0.36820901252E+02  0.00000000000E+00 0. -1.
         11    1    4    4    0    0 -0.20626326306E+02  0.24275652461E+02 -0.98975622565E+01  0.33357373670E+02  0.51100000000E-03 0. -1.
        -11    1    4    4    0    0  0.21954564663E+01  0.15012423534E+00 -0.13638898532E+02  0.13815285730E+02  0.51100000000E-03 0.  1.
        -12    1    4    4    0    0  0.36709264254E+01  0.37208155075E+01  0.49436614641E+01  0.71944393481E+01  0.00000000000E+00 0.  1.
</event>
<event>
 8    1  0.1271559E-006  0.9118800E+02  0.7816164E-02  0.1184000E+00
        -11   -1    0    0    0    0  0.00000000000E+00  0.00000000000E+00  0.45593999997E+02  0.45594000000E+02  0.51100000000E-03 0.  1.
         11   -1    0    0    0    0 -0.00000000000E+00 -0.00000000000E+00 -0.45593999997E+02  0.45594000000E+02  0.51100000000E-03 0. -1.
         23    2    1    2    0    0 -0.35527136788E-14  0.00000000000E+00  0.00000000000E+00  0.91188000000E+02  0.91188000000E+02 0.  0.
    9900012    2    3    3    0    0  0.29280348005E+02  0.21940753320E+02  0.41284722346E+01  0.54367085854E+02  0.40000003822E+02 0.  0.
        -12    1    3    3    0    0 -0.29280348005E+02 -0.21940753320E+02 -0.41284722346E+01  0.36820914146E+02  0.00000000000E+00 0.  1.
         11    1    4    4    0    0 -0.72902456405E+00  0.50507776940E+01 -0.14526576587E+01  0.53058502301E+01  0.51100000000E-03 0. -1.
        -11    1    4    4    0    0  0.37442283077E+01  0.16482049048E+02  0.13493025964E+02  0.21627272976E+02  0.51100000000E-03 0.  1.
         12    1    4    4    0    0  0.26265144261E+02  0.40792657775E+00 -0.79118960708E+01  0.27433962648E+02  0.00000000000E+00 0. -1.
</event>
<event>
 8    1  0.1271559E-006  0.9118800E+02  0.7816164E-02  0.1184000E+00
        -11   -1    0    0    0    0  0.00000000000E+00  0.00000000000E+00  0.45593999997E+02  0.45594000000E+02  0.51100000000E-03 0. -1.
         11   -1    0    0    0    0 -0.00000000000E+00 -0.00000000000E+00 -0.45593999997E+02  0.45594000000E+02  0.51100000000E-03 0.  1.
         23    2    1    2    0    0  0.00000000000E+00  0.00000000000E+00  0.00000000000E+00  0.91188000000E+02  0.91188000000E+02 0.  0.
    9900012    2    3    3    0    0  0.23710387550E+02  0.22045078700E+02 -0.17538872796E+02  0.54367081603E+02  0.39999994130E+02 0.  0.
         12    1    3    3    0    0 -0.23710387550E+02 -0.22045078700E+02  0.17538872796E+02  0.36820918397E+02  0.00000000000E+00 0. -1.
         11    1    4    4    0    0  0.20997611770E+02  0.26059426662E+02 -0.12783290604E+02  0.35824655433E+02  0.51100000000E-03 0.  1.
        -11    1    4    4    0    0  0.54046862645E+01 -0.68087074776E+01 -0.91900301444E+01  0.12650129859E+02  0.51100000000E-03 0. -1.
         12    1    4    4    0    0 -0.26919104851E+01  0.27943595160E+01  0.44344479528E+01  0.58922963104E+01  0.00000000000E+00 0. -1.
</event>
<event>
 8    1  0.1271559E-006  0.9118800E+02  0.7816164E-02  0.1184000E+00
        -11   -1    0    0    0    0  0.00000000000E+00  0.00000000000E+00  0.45593999997E+02  0.45594000000E+02  0.51100000000E-03 0.  1.
         11   -1    0    0    0    0 -0.00000000000E+00 -0.00000000000E+00 -0.45593999997E+02  0.45594000000E+02  0.51100000000E-03 0. -1.
         23    2    1    2    0    0  0.00000000000E+00  0.00000000000E+00 -0.17763568394E-14  0.91188000000E+02  0.91188000000E+02 0.  0.
    9900012    2    3    3    0    0  0.29463941020E+02  0.20503142291E+02 -0.82026706981E+01  0.54366994163E+02  0.39999794793E+02 0.  0.
        -12    1    3    3    0    0 -0.29463941020E+02 -0.20503142291E+02  0.82026706981E+01  0.36821005837E+02  0.00000000000E+00 0.  1.
         11    1    4    4    0    0  0.12550461518E+02  0.24048040367E+02  0.42721571137E+01  0.27460401608E+02  0.51100000000E-03 0. -1.
        -11    1    4    4    0    0 -0.31900036432E+01  0.62097139229E-01 -0.30445621987E+01  0.44101404219E+01  0.51100000000E-03 0.  1.
         12    1    4    4    0    0  0.20103483145E+02 -0.36069952146E+01 -0.94302656131E+01  0.22496452133E+02  0.00000000000E+00 0. -1.
</event>
<event>
 8    1  0.1271559E-006  0.9118800E+02  0.7816164E-02  0.1184000E+00
        -11   -1    0    0    0    0  0.00000000000E+00  0.00000000000E+00  0.45593999997E+02  0.45594000000E+02  0.51100000000E-03 0. -1.
         11   -1    0    0    0    0 -0.00000000000E+00 -0.00000000000E+00 -0.45593999997E+02  0.45594000000E+02  0.51100000000E-03 0.  1.
         23    2    1    2    0    0 -0.17763568394E-14  0.00000000000E+00  0.44408920985E-15  0.91188000000E+02  0.91188000000E+02 0.  0.
    9900012    2    3    3    0    0 -0.12340546826E+02  0.34593129451E+02  0.26090786969E+01  0.54367068551E+02  0.39999964375E+02 0.  0.
        -12    1    3    3    0    0  0.12340546826E+02 -0.34593129451E+02 -0.26090786969E+01  0.36820931449E+02  0.00000000000E+00 0.  1.
         11    1    4    4    0    0 -0.39130165053E+01  0.18317816749E+02  0.43616670856E+01  0.19232219026E+02  0.51100000000E-03 0. -1.
        -11    1    4    4    0    0  0.50289783022E+01  0.18341789591E+02 -0.73840292788E+01  0.20401856700E+02  0.51100000000E-03 0.  1.
         12    1    4    4    0    0 -0.13456508623E+02 -0.20664768902E+01  0.56314408900E+01  0.14732992824E+02  0.00000000000E+00 0. -1.
</event>
<event>
 8    1  0.1271559E-006  0.9118800E+02  0.7816164E-02  0.1184000E+00
        -11   -1    0    0    0    0  0.00000000000E+00  0.00000000000E+00  0.45593999997E+02  0.45594000000E+02  0.51100000000E-03 0. -1.
         11   -1    0    0    0    0 -0.00000000000E+00 -0.00000000000E+00 -0.45593999997E+02  0.45594000000E+02  0.51100000000E-03 0.  1.
         23    2    1    2    0    0  0.00000000000E+00 -0.35527136788E-14 -0.71054273576E-14  0.91188000000E+02  0.91188000000E+02 0.  0.
    9900012    2    3    3    0    0  0.13967012477E+02 -0.16663265105E+02 -0.29715978668E+02  0.54367065334E+02  0.39999957041E+02 0.  0.
         12    1    3    3    0    0 -0.13967012477E+02  0.16663265105E+02  0.29715978668E+02  0.36820934666E+02  0.00000000000E+00 0. -1.
         11    1    4    4    0    0  0.94358247348E+01 -0.10367022156E+02  0.27729034755E+01  0.14289819130E+02  0.51100000000E-03 0. -1.
        -11    1    4    4    0    0  0.59477060078E+01  0.16889414020E+01  0.40719769346E+00  0.61962520960E+01  0.51100000000E-03 0.  1.
        -12    1    4    4    0    0 -0.14165182653E+01 -0.79851843507E+01 -0.32896079837E+02  0.33880994108E+02  0.00000000000E+00 0.  1.
</event>
<event>
 8    1  0.1271559E-006  0.9118800E+02  0.7816164E-02  0.1184000E+00
        -11   -1    0    0    0    0  0.00000000000E+00  0.00000000000E+00  0.45593999997E+02  0.45594000000E+02  0.51100000000E-03 0. -1.
         11   -1    0    0    0    0 -0.00000000000E+00 -0.00000000000E+00 -0.45593999997E+02  0.45594000000E+02  0.51100000000E-03 0.  1.
         23    2    1    2    0    0 -0.35527136788E-14 -0.35527136788E-14 -0.55511151231E-16  0.91188000000E+02  0.91188000000E+02 0.  0.
    9900012    2    3    3    0    0 -0.30708373165E+02  0.20312243214E+02 -0.43567570411E+00  0.54367065463E+02  0.39999957337E+02 0.  0.
         12    1    3    3    0    0  0.30708373165E+02 -0.20312243214E+02  0.43567570411E+00  0.36820934537E+02  0.00000000000E+00 0. -1.
         11    1    4    4    0    0 -0.40472754898E+01 -0.17930228213E+01  0.97064387163E+01  0.10668192093E+02  0.51100000000E-03 0. -1.
        -11    1    4    4    0    0 -0.27022440535E+02  0.87000715025E+01 -0.10542595219E+02  0.30282830958E+02  0.51100000000E-03 0.  1.
        -12    1    4    4    0    0  0.36134285993E+00  0.13405194533E+02  0.40048079829E+00  0.13416042412E+02  0.00000000000E+00 0.  1.
</event>
<event>
 8    1  0.1271559E-006  0.9118800E+02  0.7816164E-02  0.1184000E+00
        -11   -1    0    0    0    0  0.00000000000E+00  0.00000000000E+00  0.45593999997E+02  0.45594000000E+02  0.51100000000E-03 0.  1.
         11   -1    0    0    0    0 -0.00000000000E+00 -0.00000000000E+00 -0.45593999997E+02  0.45594000000E+02  0.51100000000E-03 0. -1.
         23    2    1    2    0    0  0.88817841970E-15 -0.71054273576E-14  0.00000000000E+00  0.91188000000E+02  0.91188000000E+02 0.  0.
    9900012    2    3    3    0    0  0.79572441498E+01 -0.26729124786E+02  0.24042104627E+02  0.54366991850E+02  0.39999789519E+02 0.  0.
         12    1    3    3    0    0 -0.79572441498E+01  0.26729124786E+02 -0.24042104627E+02  0.36821008150E+02  0.00000000000E+00 0. -1.
         11    1    4    4    0    0 -0.17151576742E+01  0.39102559636E+01  0.22313631884E+01  0.48177639510E+01  0.51100000000E-03 0. -1.
        -11    1    4    4    0    0  0.15859350317E+02 -0.33488474704E+02  0.15178523523E+02  0.40042283989E+02  0.51100000000E-03 0.  1.
        -12    1    4    4    0    0 -0.61869484934E+01  0.28490939534E+01  0.66322179160E+01  0.95069439096E+01  0.00000000000E+00 0.  1.
</event>
<event>
 8    1  0.1271559E-006  0.9118800E+02  0.7816164E-02  0.1184000E+00
        -11   -1    0    0    0    0  0.00000000000E+00  0.00000000000E+00  0.45593999997E+02  0.45594000000E+02  0.51100000000E-03 0.  1.
         11   -1    0    0    0    0 -0.00000000000E+00 -0.00000000000E+00 -0.45593999997E+02  0.45594000000E+02  0.51100000000E-03 0. -1.
         23    2    1    2    0    0  0.00000000000E+00 -0.35527136788E-14  0.00000000000E+00  0.91188000000E+02  0.91188000000E+02 0.  0.
    9900012    2    3    3    0    0 -0.14855705949E+02 -0.25031255312E+02  0.22550462981E+02  0.54367093950E+02  0.40000022277E+02 0.  0.
         12    1    3    3    0    0  0.14855705949E+02  0.25031255312E+02 -0.22550462981E+02  0.36820906050E+02  0.00000000000E+00 0. -1.
         11    1    4    4    0    0 -0.34375961431E+01 -0.14704155619E+02 -0.18309227378E+01  0.15211230656E+02  0.51100000000E-03 0. -1.
        -11    1    4    4    0    0 -0.50763793375E+01  0.84474514178E+01  0.37385000529E+01  0.10540656789E+02  0.51100000000E-03 0.  1.
         12    1    4    4    0    0 -0.63417304681E+01 -0.18774551110E+02  0.20642885666E+02  0.28615206505E+02  0.00000000000E+00 0. -1.
</event>
<event>
 8    1  0.1271559E-006  0.9118800E+02  0.7816164E-02  0.1184000E+00
        -11   -1    0    0    0    0  0.00000000000E+00  0.00000000000E+00  0.45593999997E+02  0.45594000000E+02  0.51100000000E-03 0. -1.
         11   -1    0    0    0    0 -0.00000000000E+00 -0.00000000000E+00 -0.45593999997E+02  0.45594000000E+02  0.51100000000E-03 0.  1.
         23    2    1    2    0    0  0.00000000000E+00  0.00000000000E+00 -0.35527136788E-14  0.91188000000E+02  0.91188000000E+02 0.  0.
    9900012    2    3    3    0    0  0.14841529800E+02 -0.29319119311E+02  0.16610157883E+02  0.54367094132E+02  0.40000022693E+02 0.  0.
        -12    1    3    3    0    0 -0.14841529800E+02  0.29319119311E+02 -0.16610157883E+02  0.36820905868E+02  0.00000000000E+00 0.  1.
         11    1    4    4    0    0  0.15758409929E+01  0.40890605137E+01  0.16855217055E+00  0.43854419179E+01  0.51100000000E-03 0. -1.
        -11    1    4    4    0    0 -0.87445221994E+01 -0.42414432289E+01 -0.44409539090E+00  0.97290148596E+01  0.51100000000E-03 0.  1.
         12    1    4    4    0    0  0.22010211007E+02 -0.29166736596E+02  0.16885701104E+02  0.40252637355E+02  0.00000000000E+00 0. -1.
</event>
<event>
 8    1  0.1271559E-006  0.9118800E+02  0.7816164E-02  0.1184000E+00
        -11   -1    0    0    0    0  0.00000000000E+00  0.00000000000E+00  0.45593999997E+02  0.45594000000E+02  0.51100000000E-03 0.  1.
         11   -1    0    0    0    0 -0.00000000000E+00 -0.00000000000E+00 -0.45593999997E+02  0.45594000000E+02  0.51100000000E-03 0. -1.
         23    2    1    2    0    0  0.00000000000E+00 -0.44408920985E-15 -0.26645352591E-14  0.91188000000E+02  0.91188000000E+02 0.  0.
    9900012    2    3    3    0    0  0.36678597272E+02  0.32270160926E+01  0.21657761849E+00  0.54367081535E+02  0.39999993976E+02 0.  0.
         12    1    3    3    0    0 -0.36678597272E+02 -0.32270160926E+01 -0.21657761849E+00  0.36820918465E+02  0.00000000000E+00 0. -1.
         11    1    4    4    0    0  0.54140189750E+01 -0.13126544441E+01 -0.17339182056E+02  0.18212136003E+02  0.51100000000E-03 0. -1.
        -11    1    4    4    0    0  0.23265813950E+02  0.30826654526E+01  0.13370511096E+02  0.27010581117E+02  0.51100000000E-03 0.  1.
         12    1    4    4    0    0  0.79987643473E+01  0.14570050841E+01  0.41852485783E+01  0.91443644153E+01  0.00000000000E+00 0. -1.
</event>
<event>
 8    1  0.1271559E-006  0.9118800E+02  0.7816164E-02  0.1184000E+00
        -11   -1    0    0    0    0  0.00000000000E+00  0.00000000000E+00  0.45593999997E+02  0.45594000000E+02  0.51100000000E-03 0.  1.
         11   -1    0    0    0    0 -0.00000000000E+00 -0.00000000000E+00 -0.45593999997E+02  0.45594000000E+02  0.51100000000E-03 0. -1.
         23    2    1    2    0    0 -0.35527136788E-14  0.00000000000E+00  0.17763568394E-14  0.91188000000E+02  0.91188000000E+02 0.  0.
    9900012    2    3    3    0    0 -0.24140816475E+02 -0.24174325245E+02 -0.13733352286E+02  0.54367055061E+02  0.39999933623E+02 0.  0.
        -12    1    3    3    0    0  0.24140816475E+02  0.24174325245E+02  0.13733352286E+02  0.36820944939E+02  0.00000000000E+00 0.  1.
         11    1    4    4    0    0 -0.21282857784E+02 -0.27843156569E+02 -0.16291399154E+02  0.38647264972E+02  0.51100000000E-03 0. -1.
        -11    1    4    4    0    0 -0.64082693224E+01  0.58168127551E+01  0.58303488180E+01  0.10435238087E+02  0.51100000000E-03 0.  1.
         12    1    4    4    0    0  0.35503106307E+01 -0.21479814311E+01 -0.32723019504E+01  0.52845520016E+01  0.00000000000E+00 0. -1.
</event>
<event>
 8    1  0.1271559E-006  0.9118800E+02  0.7816164E-02  0.1184000E+00
        -11   -1    0    0    0    0  0.00000000000E+00  0.00000000000E+00  0.45593999997E+02  0.45594000000E+02  0.51100000000E-03 0. -1.
         11   -1    0    0    0    0 -0.00000000000E+00 -0.00000000000E+00 -0.45593999997E+02  0.45594000000E+02  0.51100000000E-03 0.  1.
         23    2    1    2    0    0 -0.24147350786E-14 -0.14210854715E-13 -0.66613381478E-15  0.91188000000E+02  0.91188000000E+02 0.  0.
    9900012    2    3    3    0    0  0.15052652540E+00  0.36799877884E+02 -0.12355146800E+01  0.54367079764E+02  0.39999989938E+02 0.  0.
         12    1    3    3    0    0 -0.15052652540E+00 -0.36799877884E+02  0.12355146800E+01  0.36820920236E+02  0.00000000000E+00 0. -1.
         11    1    4    4    0    0 -0.14843642777E+02  0.81584212522E+01 -0.74565910985E+01  0.18506602046E+02  0.51100000000E-03 0. -1.
        -11    1    4    4    0    0 -0.12989611228E+01  0.85036231625E+01  0.49519694487E+01  0.99257699234E+01  0.51100000000E-03 0.  1.
        -12    1    4    4    0    0  0.16293130425E+02  0.20137833469E+02  0.12691069697E+01  0.25934707795E+02  0.00000000000E+00 0.  1.
</event>
<event>
 8    1  0.1271559E-006  0.9118800E+02  0.7816164E-02  0.1184000E+00
        -11   -1    0    0    0    0  0.00000000000E+00  0.00000000000E+00  0.45593999997E+02  0.45594000000E+02  0.51100000000E-03 0.  1.
         11   -1    0    0    0    0 -0.00000000000E+00 -0.00000000000E+00 -0.45593999997E+02  0.45594000000E+02  0.51100000000E-03 0. -1.
         23    2    1    2    0    0  0.00000000000E+00 -0.35527136788E-14  0.00000000000E+00  0.91188000000E+02  0.91188000000E+02 0.  0.
    9900012    2    3    3    0    0  0.16670423095E+02  0.30349041651E+02  0.12522504177E+02  0.54367075974E+02  0.39999981298E+02 0.  0.
         12    1    3    3    0    0 -0.16670423095E+02 -0.30349041651E+02 -0.12522504177E+02  0.36820924026E+02  0.00000000000E+00 0. -1.
         11    1    4    4    0    0  0.10083594520E+02  0.51145393733E+01  0.35888898051E+01  0.11862441644E+02  0.51100000000E-03 0. -1.
        -11    1    4    4    0    0  0.52224176814E+01 -0.29412879871E+01  0.12702101431E+02  0.14045219916E+02  0.51100000000E-03 0.  1.
        -12    1    4    4    0    0  0.13644108930E+01  0.28175790264E+02 -0.37684870586E+01  0.28459414414E+02  0.00000000000E+00 0.  1.
</event>
<event>
 8    1  0.1271559E-006  0.9118800E+02  0.7816164E-02  0.1184000E+00
        -11   -1    0    0    0    0  0.00000000000E+00  0.00000000000E+00  0.45593999997E+02  0.45594000000E+02  0.51100000000E-03 0.  1.
         11   -1    0    0    0    0 -0.00000000000E+00 -0.00000000000E+00 -0.45593999997E+02  0.45594000000E+02  0.51100000000E-03 0. -1.
         23    2    1    2    0    0  0.00000000000E+00  0.00000000000E+00  0.00000000000E+00  0.91188000000E+02  0.91188000000E+02 0.  0.
    9900012    2    3    3    0    0  0.17377132407E+02  0.94615232965E+01 -0.31053088674E+02  0.54367089229E+02  0.40000011516E+02 0.  0.
        -12    1    3    3    0    0 -0.17377132407E+02 -0.94615232965E+01  0.31053088674E+02  0.36820910771E+02  0.00000000000E+00 0.  1.
         11    1    4    4    0    0  0.57481149592E+01  0.44034170229E+01  0.37645147474E+01  0.81610341628E+01  0.51100000000E-03 0. -1.
        -11    1    4    4    0    0  0.38705177191E+01  0.13272832744E+02 -0.56668173094E+01  0.14941948171E+02  0.51100000000E-03 0.  1.
         12    1    4    4    0    0  0.77584997287E+01 -0.82147264703E+01 -0.29150786112E+02  0.31264106896E+02  0.00000000000E+00 0. -1.
</event>
<event>
 8    1  0.1271559E-006  0.9118800E+02  0.7816164E-02  0.1184000E+00
        -11   -1    0    0    0    0  0.00000000000E+00  0.00000000000E+00  0.45593999997E+02  0.45594000000E+02  0.51100000000E-03 0.  1.
         11   -1    0    0    0    0 -0.00000000000E+00 -0.00000000000E+00 -0.45593999997E+02  0.45594000000E+02  0.51100000000E-03 0. -1.
         23    2    1    2    0    0  0.00000000000E+00 -0.35527136788E-14 -0.35527136788E-14  0.91188000000E+02  0.91188000000E+02 0.  0.
    9900012    2    3    3    0    0  0.17793147379E+02 -0.29827612716E+02 -0.12226896381E+02  0.54367087883E+02  0.40000008447E+02 0.  0.
        -12    1    3    3    0    0 -0.17793147379E+02  0.29827612716E+02  0.12226896381E+02  0.36820912117E+02  0.00000000000E+00 0.  1.
         11    1    4    4    0    0  0.31827019378E+01 -0.90640922100E+01 -0.88805079239E+01  0.13082460795E+02  0.51100000000E-03 0. -1.
        -11    1    4    4    0    0 -0.48715507813E+01 -0.47179824673E+00  0.92484394301E+01  0.10463662492E+02  0.51100000000E-03 0.  1.
        -12    1    4    4    0    0  0.19481996223E+02 -0.20291722260E+02 -0.12594827887E+02  0.30820964595E+02  0.00000000000E+00 0.  1.
</event>
<event>
 8    1  0.1271559E-006  0.9118800E+02  0.7816164E-02  0.1184000E+00
        -11   -1    0    0    0    0  0.00000000000E+00  0.00000000000E+00  0.45593999997E+02  0.45594000000E+02  0.51100000000E-03 0. -1.
         11   -1    0    0    0    0 -0.00000000000E+00 -0.00000000000E+00 -0.45593999997E+02  0.45594000000E+02  0.51100000000E-03 0.  1.
         23    2    1    2    0    0  0.17763568394E-14 -0.44408920985E-15  0.71054273576E-14  0.91188000000E+02  0.91188000000E+02 0.  0.
    9900012    2    3    3    0    0  0.15793314911E+02 -0.39169539751E+01  0.33030408980E+02  0.54367092330E+02  0.40000018584E+02 0.  0.
        -12    1    3    3    0    0 -0.15793314911E+02  0.39169539751E+01 -0.33030408980E+02  0.36820907670E+02  0.00000000000E+00 0.  1.
         11    1    4    4    0    0  0.10226365764E+02  0.93737527499E+01  0.31050611080E+02  0.34008620173E+02  0.51100000000E-03 0. -1.
        -11    1    4    4    0    0  0.22129850102E+01 -0.15869817302E+02  0.13381441584E+01  0.16079149042E+02  0.51100000000E-03 0.  1.
        -12    1    4    4    0    0  0.33539641365E+01  0.25791105772E+01  0.64165374151E+00  0.42793231150E+01  0.00000000000E+00 0.  1.
</event>
<event>
 8    1  0.1271559E-006  0.9118800E+02  0.7816164E-02  0.1184000E+00
        -11   -1    0    0    0    0  0.00000000000E+00  0.00000000000E+00  0.45593999997E+02  0.45594000000E+02  0.51100000000E-03 0.  1.
         11   -1    0    0    0    0 -0.00000000000E+00 -0.00000000000E+00 -0.45593999997E+02  0.45594000000E+02  0.51100000000E-03 0. -1.
         23    2    1    2    0    0 -0.35527136788E-14  0.00000000000E+00  0.17763568394E-14  0.91188000000E+02  0.91188000000E+02 0.  0.
    9900012    2    3    3    0    0 -0.19055713041E+02 -0.27730921606E+02  0.14955121670E+02  0.54367083705E+02  0.39999998923E+02 0.  0.
         12    1    3    3    0    0  0.19055713041E+02  0.27730921606E+02 -0.14955121670E+02  0.36820916295E+02  0.00000000000E+00 0. -1.
         11    1    4    4    0    0  0.45982739688E+01 -0.57861444488E+01  0.10823542404E+01  0.74696105680E+01  0.51100000000E-03 0. -1.
        -11    1    4    4    0    0 -0.19909993504E+01 -0.20018478218E+02  0.15039822822E+02  0.25117719231E+02  0.51100000000E-03 0.  1.
        -12    1    4    4    0    0 -0.21662987659E+02 -0.19262989386E+01 -0.11670553920E+01  0.21779753906E+02  0.00000000000E+00 0.  1.
</event>
<event>
 8    1  0.1271559E-006  0.9118800E+02  0.7816164E-02  0.1184000E+00
        -11   -1    0    0    0    0  0.00000000000E+00  0.00000000000E+00  0.45593999997E+02  0.45594000000E+02  0.51100000000E-03 0.  1.
         11   -1    0    0    0    0 -0.00000000000E+00 -0.00000000000E+00 -0.45593999997E+02  0.45594000000E+02  0.51100000000E-03 0. -1.
         23    2    1    2    0    0  0.00000000000E+00 -0.88817841970E-15  0.17763568394E-14  0.91188000000E+02  0.91188000000E+02 0.  0.
    9900012    2    3    3    0    0 -0.32761709877E+02  0.72523762343E+01  0.15160908467E+02  0.54367085554E+02  0.40000003137E+02 0.  0.
         12    1    3    3    0    0  0.32761709877E+02 -0.72523762343E+01 -0.15160908467E+02  0.36820914446E+02  0.00000000000E+00 0. -1.
         11    1    4    4    0    0 -0.25751614795E+02 -0.93048604670E+01  0.20724040231E+02  0.34339655453E+02  0.51100000000E-03 0. -1.
        -11    1    4    4    0    0 -0.71873886339E+01  0.12860408661E+02 -0.19604725481E+01  0.14862439880E+02  0.51100000000E-03 0.  1.
         12    1    4    4    0    0  0.17729355185E+00  0.36968280399E+01 -0.36026592155E+01  0.51649902210E+01  0.00000000000E+00 0. -1.
</event>
<event>
 8    1  0.1271559E-006  0.9118800E+02  0.7816164E-02  0.1184000E+00
        -11   -1    0    0    0    0  0.00000000000E+00  0.00000000000E+00  0.45593999997E+02  0.45594000000E+02  0.51100000000E-03 0. -1.
         11   -1    0    0    0    0 -0.00000000000E+00 -0.00000000000E+00 -0.45593999997E+02  0.45594000000E+02  0.51100000000E-03 0.  1.
         23    2    1    2    0    0 -0.17763568394E-14 -0.35527136788E-14  0.00000000000E+00  0.91188000000E+02  0.91188000000E+02 0.  0.
    9900012    2    3    3    0    0 -0.32722416585E+01 -0.24529785284E+02  0.27264668230E+02  0.54367081146E+02  0.39999993088E+02 0.  0.
        -12    1    3    3    0    0  0.32722416585E+01  0.24529785284E+02 -0.27264668230E+02  0.36820918854E+02  0.00000000000E+00 0.  1.
         11    1    4    4    0    0  0.16153693268E+01 -0.14070526776E+02  0.21495216240E+02  0.25741667842E+02  0.51100000000E-03 0. -1.
        -11    1    4    4    0    0  0.81467936233E+01 -0.58918400356E+01  0.10000123851E+02  0.14180497264E+02  0.51100000000E-03 0.  1.
        -12    1    4    4    0    0 -0.13034404609E+02 -0.45674184725E+01 -0.42306718609E+01  0.14444916040E+02  0.00000000000E+00 0.  1.
</event>
<event>
 8    1  0.1271559E-006  0.9118800E+02  0.7816164E-02  0.1184000E+00
        -11   -1    0    0    0    0  0.00000000000E+00  0.00000000000E+00  0.45593999997E+02  0.45594000000E+02  0.51100000000E-03 0.  1.
         11   -1    0    0    0    0 -0.00000000000E+00 -0.00000000000E+00 -0.45593999997E+02  0.45594000000E+02  0.51100000000E-03 0. -1.
         23    2    1    2    0    0  0.00000000000E+00  0.00000000000E+00  0.00000000000E+00  0.91188000000E+02  0.91188000000E+02 0.  0.
    9900012    2    3    3    0    0 -0.27949153957E+02  0.11496068681E+02  0.21034849390E+02  0.54367086230E+02  0.40000004678E+02 0.  0.
         12    1    3    3    0    0  0.27949153957E+02 -0.11496068681E+02 -0.21034849390E+02  0.36820913770E+02  0.00000000000E+00 0. -1.
         11    1    4    4    0    0  0.91194801528E+01  0.60000020633E+01  0.72425532579E+00  0.10940269149E+02  0.51100000000E-03 0. -1.
        -11    1    4    4    0    0 -0.36969633843E+02  0.63617576386E+01  0.19866756634E+02  0.42448955301E+02  0.51100000000E-03 0.  1.
        -12    1    4    4    0    0 -0.99000266510E-01 -0.86569102060E+00  0.44383743030E+00  0.97786177983E+00  0.00000000000E+00 0.  1.
</event>
<event>
 8    1  0.1271559E-006  0.9118800E+02  0.7816164E-02  0.1184000E+00
        -11   -1    0    0    0    0  0.00000000000E+00  0.00000000000E+00  0.45593999997E+02  0.45594000000E+02  0.51100000000E-03 0. -1.
         11   -1    0    0    0    0 -0.00000000000E+00 -0.00000000000E+00 -0.45593999997E+02  0.45594000000E+02  0.51100000000E-03 0.  1.
         23    2    1    2    0    0  0.00000000000E+00  0.00000000000E+00  0.15543122345E-14  0.91188000000E+02  0.91188000000E+02 0.  0.
    9900012    2    3    3    0    0 -0.22775648064E+02  0.28887145759E+02  0.16080963289E+01  0.54367037104E+02  0.39999892685E+02 0.  0.
         12    1    3    3    0    0  0.22775648064E+02 -0.28887145759E+02 -0.16080963289E+01  0.36820962896E+02  0.00000000000E+00 0. -1.
         11    1    4    4    0    0 -0.19755026050E+01  0.17402748897E+02  0.82769081387E+01  0.19371770397E+02  0.51100000000E-03 0. -1.
        -11    1    4    4    0    0 -0.15760883917E+02  0.16827987386E+02 -0.11930602015E+02  0.25960082550E+02  0.51100000000E-03 0.  1.
        -12    1    4    4    0    0 -0.50392615422E+01 -0.53435905250E+01  0.52617902047E+01  0.90351841568E+01  0.00000000000E+00 0.  1.
</event>
<event>
 8    1  0.1271559E-006  0.9118800E+02  0.7816164E-02  0.1184000E+00
        -11   -1    0    0    0    0  0.00000000000E+00  0.00000000000E+00  0.45593999997E+02  0.45594000000E+02  0.51100000000E-03 0. -1.
         11   -1    0    0    0    0 -0.00000000000E+00 -0.00000000000E+00 -0.45593999997E+02  0.45594000000E+02  0.51100000000E-03 0.  1.
         23    2    1    2    0    0 -0.27755575616E-15  0.35527136788E-14 -0.71054273576E-14  0.91188000000E+02  0.91188000000E+02 0.  0.
    9900012    2    3    3    0    0  0.49748078514E+00 -0.17958275107E+02  0.32140793741E+02  0.54367112528E+02  0.40000064630E+02 0.  0.
        -12    1    3    3    0    0 -0.49748078514E+00  0.17958275107E+02 -0.32140793741E+02  0.36820887472E+02  0.00000000000E+00 0.  1.
         11    1    4    4    0    0 -0.22527994476E+01 -0.91476665763E+00  0.25236392832E+02  0.25353252786E+02  0.51100000000E-03 0. -1.
        -11    1    4    4    0    0 -0.16430138861E+01 -0.98761848460E+01 -0.73809262886E+01  0.12438512567E+02  0.51100000000E-03 0.  1.
        -12    1    4    4    0    0  0.43932941188E+01 -0.71673236032E+01  0.14285327197E+02  0.16575347175E+02  0.00000000000E+00 0.  1.
</event>
<event>
 8    1  0.1271559E-006  0.9118800E+02  0.7816164E-02  0.1184000E+00
        -11   -1    0    0    0    0  0.00000000000E+00  0.00000000000E+00  0.45593999997E+02  0.45594000000E+02  0.51100000000E-03 0.  1.
         11   -1    0    0    0    0 -0.00000000000E+00 -0.00000000000E+00 -0.45593999997E+02  0.45594000000E+02  0.51100000000E-03 0. -1.
         23    2    1    2    0    0  0.00000000000E+00  0.00000000000E+00 -0.71054273576E-14  0.91188000000E+02  0.91188000000E+02 0.  0.
    9900012    2    3    3    0    0  0.28381164511E+02 -0.89975165774E+01 -0.21664124957E+02  0.54367080488E+02  0.39999991589E+02 0.  0.
        -12    1    3    3    0    0 -0.28381164511E+02  0.89975165774E+01  0.21664124957E+02  0.36820919512E+02  0.00000000000E+00 0.  1.
         11    1    4    4    0    0  0.25121411262E+02 -0.16213727677E+02 -0.16659652516E+02  0.34227390950E+02  0.51100000000E-03 0. -1.
        -11    1    4    4    0    0  0.76164520306E+01  0.35772703174E+01  0.41389190662E+01  0.93775186354E+01  0.51100000000E-03 0.  1.
        -12    1    4    4    0    0 -0.43566987823E+01  0.36389407819E+01 -0.91433915072E+01  0.10762170903E+02  0.00000000000E+00 0.  1.
</event>
<event>
 8    1  0.1271559E-006  0.9118800E+02  0.7816164E-02  0.1184000E+00
        -11   -1    0    0    0    0  0.00000000000E+00  0.00000000000E+00  0.45593999997E+02  0.45594000000E+02  0.51100000000E-03 0. -1.
         11   -1    0    0    0    0 -0.00000000000E+00 -0.00000000000E+00 -0.45593999997E+02  0.45594000000E+02  0.51100000000E-03 0.  1.
         23    2    1    2    0    0  0.00000000000E+00  0.00000000000E+00  0.00000000000E+00  0.91188000000E+02  0.91188000000E+02 0.  0.
    9900012    2    3    3    0    0 -0.97518368182E+01  0.23839067664E+02 -0.26313137981E+02  0.54367072542E+02  0.39999973474E+02 0.  0.
         12    1    3    3    0    0  0.97518368182E+01 -0.23839067664E+02  0.26313137981E+02  0.36820927458E+02  0.00000000000E+00 0. -1.
         11    1    4    4    0    0 -0.78626453487E+01 -0.62389836079E+01 -0.15560031871E+01  0.10157128261E+02  0.51100000000E-03 0. -1.
        -11    1    4    4    0    0 -0.87707157093E+01  0.25332608071E+02 -0.13025465927E+02  0.29804852769E+02  0.51100000000E-03 0.  1.
        -12    1    4    4    0    0  0.68815242398E+01  0.47454432012E+01 -0.11731668867E+02  0.14405091512E+02  0.00000000000E+00 0.  1.
</event>
<event>
 8    1  0.1271559E-006  0.9118800E+02  0.7816164E-02  0.1184000E+00
        -11   -1    0    0    0    0  0.00000000000E+00  0.00000000000E+00  0.45593999997E+02  0.45594000000E+02  0.51100000000E-03 0. -1.
         11   -1    0    0    0    0 -0.00000000000E+00 -0.00000000000E+00 -0.45593999997E+02  0.45594000000E+02  0.51100000000E-03 0.  1.
         23    2    1    2    0    0  0.00000000000E+00  0.00000000000E+00  0.17763568394E-14  0.91188000000E+02  0.91188000000E+02 0.  0.
    9900012    2    3    3    0    0  0.10647917784E+02 -0.32469109903E+02  0.13717070671E+02  0.54367091825E+02  0.40000017434E+02 0.  0.
        -12    1    3    3    0    0 -0.10647917784E+02  0.32469109903E+02 -0.13717070671E+02  0.36820908175E+02  0.00000000000E+00 0.  1.
         11    1    4    4    0    0  0.57524744915E+01 -0.11884697333E+02  0.24397737223E+01  0.13427192169E+02  0.51100000000E-03 0. -1.
        -11    1    4    4    0    0  0.13460144411E+01  0.51543454365E+01 -0.72728272906E+01  0.90151566162E+01  0.51100000000E-03 0.  1.
        -12    1    4    4    0    0  0.35494288517E+01 -0.25738758007E+02  0.18550124239E+02  0.31924743040E+02  0.00000000000E+00 0.  1.
</event>
<event>
 8    1  0.1271559E-006  0.9118800E+02  0.7816164E-02  0.1184000E+00
        -11   -1    0    0    0    0  0.00000000000E+00  0.00000000000E+00  0.45593999997E+02  0.45594000000E+02  0.51100000000E-03 0. -1.
         11   -1    0    0    0    0 -0.00000000000E+00 -0.00000000000E+00 -0.45593999997E+02  0.45594000000E+02  0.51100000000E-03 0.  1.
         23    2    1    2    0    0  0.00000000000E+00  0.00000000000E+00 -0.71054273576E-14  0.91188000000E+02  0.91188000000E+02 0.  0.
    9900012    2    3    3    0    0 -0.11628576730E+02  0.65496606644E+01  0.34317161555E+02  0.54366953997E+02  0.39999703225E+02 0.  0.
        -12    1    3    3    0    0  0.11628576730E+02 -0.65496606644E+01 -0.34317161555E+02  0.36821046003E+02  0.00000000000E+00 0.  1.
         11    1    4    4    0    0  0.28618217445E+01 -0.48195821240E+01  0.25555438508E+02  0.26162928604E+02  0.51100000000E-03 0. -1.
        -11    1    4    4    0    0 -0.33149374222E+01  0.86750109075E+01  0.12978936732E+02  0.15959242567E+02  0.51100000000E-03 0.  1.
        -12    1    4    4    0    0 -0.11175461053E+02  0.26942318808E+01 -0.42172136856E+01  0.12244782825E+02  0.00000000000E+00 0.  1.
</event>
<event>
 8    1  0.1271559E-006  0.9118800E+02  0.7816164E-02  0.1184000E+00
        -11   -1    0    0    0    0  0.00000000000E+00  0.00000000000E+00  0.45593999997E+02  0.45594000000E+02  0.51100000000E-03 0.  1.
         11   -1    0    0    0    0 -0.00000000000E+00 -0.00000000000E+00 -0.45593999997E+02  0.45594000000E+02  0.51100000000E-03 0. -1.
         23    2    1    2    0    0  0.13322676296E-14  0.00000000000E+00  0.00000000000E+00  0.91188000000E+02  0.91188000000E+02 0.  0.
    9900012    2    3    3    0    0 -0.37057764905E+01 -0.30419579479E+02  0.20413139832E+02  0.54367083758E+02  0.39999999043E+02 0.  0.
         12    1    3    3    0    0  0.37057764905E+01  0.30419579479E+02 -0.20413139832E+02  0.36820916242E+02  0.00000000000E+00 0. -1.
         11    1    4    4    0    0 -0.83295429717E+01 -0.20218580740E+02  0.15638184647E+02  0.26883547247E+02  0.51100000000E-03 0.  1.
        -11    1    4    4    0    0  0.12653213519E+02 -0.86311471839E+01 -0.36438741295E+01  0.15744152343E+02  0.51100000000E-03 0. -1.
         12    1    4    4    0    0 -0.80294470375E+01 -0.15698515557E+01  0.84188293144E+01  0.11739384169E+02  0.00000000000E+00 0. -1.
</event>
<event>
 8    1  0.1271559E-006  0.9118800E+02  0.7816164E-02  0.1184000E+00
        -11   -1    0    0    0    0  0.00000000000E+00  0.00000000000E+00  0.45593999997E+02  0.45594000000E+02  0.51100000000E-03 0.  1.
         11   -1    0    0    0    0 -0.00000000000E+00 -0.00000000000E+00 -0.45593999997E+02  0.45594000000E+02  0.51100000000E-03 0. -1.
         23    2    1    2    0    0 -0.71054273576E-14  0.00000000000E+00 -0.88817841970E-15  0.91188000000E+02  0.91188000000E+02 0.  0.
    9900012    2    3    3    0    0  0.36293263302E+02  0.35983889283E+01 -0.50626801328E+01  0.54367080754E+02  0.39999992194E+02 0.  0.
        -12    1    3    3    0    0 -0.36293263302E+02 -0.35983889283E+01  0.50626801328E+01  0.36820919246E+02  0.00000000000E+00 0.  1.
         11    1    4    4    0    0  0.20968627379E+02 -0.17163191497E+01  0.97600715866E+01  0.23192414347E+02  0.51100000000E-03 0. -1.
        -11    1    4    4    0    0  0.49846432663E+01  0.86599260997E+01  0.28830386861E+01  0.10399658690E+02  0.51100000000E-03 0.  1.
         12    1    4    4    0    0  0.10339992657E+02 -0.33452180217E+01 -0.17705790405E+02  0.20775007717E+02  0.00000000000E+00 0. -1.
</event>
<event>
 8    1  0.1271559E-006  0.9118800E+02  0.7816164E-02  0.1184000E+00
        -11   -1    0    0    0    0  0.00000000000E+00  0.00000000000E+00  0.45593999997E+02  0.45594000000E+02  0.51100000000E-03 0.  1.
         11   -1    0    0    0    0 -0.00000000000E+00 -0.00000000000E+00 -0.45593999997E+02  0.45594000000E+02  0.51100000000E-03 0. -1.
         23    2    1    2    0    0  0.00000000000E+00 -0.71054273576E-14 -0.17763568394E-14  0.91188000000E+02  0.91188000000E+02 0.  0.
    9900012    2    3    3    0    0  0.51497307977E+01 -0.35447457429E+02  0.85287587437E+01  0.54367059067E+02  0.39999942756E+02 0.  0.
         12    1    3    3    0    0 -0.51497307977E+01  0.35447457429E+02 -0.85287587437E+01  0.36820940933E+02  0.00000000000E+00 0. -1.
         11    1    4    4    0    0 -0.97518364141E-01 -0.16692323480E+02  0.17668529026E+02  0.24306791050E+02  0.51100000000E-03 0.  1.
        -11    1    4    4    0    0  0.17617219510E+01  0.27023782881E+01  0.36236784501E+01  0.48515521656E+01  0.51100000000E-03 0. -1.
        -12    1    4    4    0    0  0.34855272109E+01 -0.21457512237E+02 -0.12763448732E+02  0.25208715851E+02  0.00000000000E+00 0.  1.
</event>
<event>
 8    1  0.1271559E-006  0.9118800E+02  0.7816164E-02  0.1184000E+00
        -11   -1    0    0    0    0  0.00000000000E+00  0.00000000000E+00  0.45593999997E+02  0.45594000000E+02  0.51100000000E-03 0. -1.
         11   -1    0    0    0    0 -0.00000000000E+00 -0.00000000000E+00 -0.45593999997E+02  0.45594000000E+02  0.51100000000E-03 0.  1.
         23    2    1    2    0    0  0.00000000000E+00 -0.71054273576E-14 -0.17763568394E-14  0.91188000000E+02  0.91188000000E+02 0.  0.
    9900012    2    3    3    0    0 -0.41812022807E+01  0.36336165119E+02 -0.42404002738E+01  0.54367077380E+02  0.39999984504E+02 0.  0.
        -12    1    3    3    0    0  0.41812022807E+01 -0.36336165119E+02  0.42404002738E+01  0.36820922620E+02  0.00000000000E+00 0.  1.
         11    1    4    4    0    0  0.44716323194E+01  0.28849791651E+02  0.82417506075E+01  0.30335332984E+02  0.51100000000E-03 0. -1.
        -11    1    4    4    0    0 -0.13657909653E+00  0.67152203192E+01 -0.13830341820E+02  0.15375018468E+02  0.51100000000E-03 0.  1.
        -12    1    4    4    0    0 -0.85162555036E+01  0.77115314883E+00  0.13481909385E+01  0.86567259277E+01  0.00000000000E+00 0.  1.
</event>
<event>
 8    1  0.1271559E-006  0.9118800E+02  0.7816164E-02  0.1184000E+00
        -11   -1    0    0    0    0  0.00000000000E+00  0.00000000000E+00  0.45593999997E+02  0.45594000000E+02  0.51100000000E-03 0. -1.
         11   -1    0    0    0    0 -0.00000000000E+00 -0.00000000000E+00 -0.45593999997E+02  0.45594000000E+02  0.51100000000E-03 0.  1.
         23    2    1    2    0    0 -0.71054273576E-14  0.00000000000E+00  0.00000000000E+00  0.91188000000E+02  0.91188000000E+02 0.  0.
    9900012    2    3    3    0    0 -0.32002620176E+02  0.88466111190E+01 -0.15917016147E+02  0.54367059905E+02  0.39999944666E+02 0.  0.
         12    1    3    3    0    0  0.32002620176E+02 -0.88466111190E+01  0.15917016147E+02  0.36820940095E+02  0.00000000000E+00 0. -1.
         11    1    4    4    0    0  0.16435284832E+01 -0.87424345946E+01 -0.19561623043E+01  0.91081238319E+01  0.51100000000E-03 0. -1.
        -11    1    4    4    0    0 -0.39016521022E+01  0.10378618302E+02 -0.89419313159E+01  0.14244182774E+02  0.51100000000E-03 0.  1.
        -12    1    4    4    0    0 -0.29744496557E+02  0.72104274115E+01 -0.50189225268E+01  0.31014753299E+02  0.00000000000E+00 0.  1.
</event>
<event>
 8    1  0.1271559E-006  0.9118800E+02  0.7816164E-02  0.1184000E+00
        -11   -1    0    0    0    0  0.00000000000E+00  0.00000000000E+00  0.45593999997E+02  0.45594000000E+02  0.51100000000E-03 0. -1.
         11   -1    0    0    0    0 -0.00000000000E+00 -0.00000000000E+00 -0.45593999997E+02  0.45594000000E+02  0.51100000000E-03 0.  1.
         23    2    1    2    0    0 -0.17763568394E-14 -0.17763568394E-14  0.00000000000E+00  0.91188000000E+02  0.91188000000E+02 0.  0.
    9900012    2    3    3    0    0  0.89749116103E+01  0.15062839412E+02 -0.32378093411E+02  0.54367094220E+02  0.40000022892E+02 0.  0.
         12    1    3    3    0    0 -0.89749116103E+01 -0.15062839412E+02  0.32378093411E+02  0.36820905780E+02  0.00000000000E+00 0. -1.
         11    1    4    4    0    0  0.78941972689E+01 -0.43596579528E+00 -0.90141990258E+01  0.11990171018E+02  0.51100000000E-03 0. -1.
        -11    1    4    4    0    0 -0.12025862925E+01 -0.35070425978E+01 -0.22931763230E+02  0.23229535654E+02  0.51100000000E-03 0.  1.
         12    1    4    4    0    0  0.22833006339E+01  0.19005847805E+02 -0.43213115460E+00  0.19147387548E+02  0.00000000000E+00 0. -1.
</event>
<event>
 8    1  0.1271559E-006  0.9118800E+02  0.7816164E-02  0.1184000E+00
        -11   -1    0    0    0    0  0.00000000000E+00  0.00000000000E+00  0.45593999997E+02  0.45594000000E+02  0.51100000000E-03 0. -1.
         11   -1    0    0    0    0 -0.00000000000E+00 -0.00000000000E+00 -0.45593999997E+02  0.45594000000E+02  0.51100000000E-03 0.  1.
         23    2    1    2    0    0 -0.35527136788E-14  0.88817841970E-15  0.35527136788E-14  0.91188000000E+02  0.91188000000E+02 0.  0.
    9900012    2    3    3    0    0  0.17818309632E+02  0.78985419298E+01 -0.31239427355E+02  0.54367069210E+02  0.39999965879E+02 0.  0.
         12    1    3    3    0    0 -0.17818309632E+02 -0.78985419298E+01  0.31239427355E+02  0.36820930790E+02  0.00000000000E+00 0. -1.
         11    1    4    4    0    0 -0.16974612999E+01 -0.37304404443E+01  0.99136528410E+00  0.42166771468E+01  0.51100000000E-03 0. -1.
        -11    1    4    4    0    0  0.39551988344E+01 -0.88095408720E+01 -0.18866054403E+02  0.21193858006E+02  0.51100000000E-03 0.  1.
         12    1    4    4    0    0  0.15560572098E+02  0.20438523246E+02 -0.13364738236E+02  0.28956534057E+02  0.00000000000E+00 0. -1.
</event>
<event>
 8    1  0.1271559E-006  0.9118800E+02  0.7816164E-02  0.1184000E+00
        -11   -1    0    0    0    0  0.00000000000E+00  0.00000000000E+00  0.45593999997E+02  0.45594000000E+02  0.51100000000E-03 0.  1.
         11   -1    0    0    0    0 -0.00000000000E+00 -0.00000000000E+00 -0.45593999997E+02  0.45594000000E+02  0.51100000000E-03 0. -1.
         23    2    1    2    0    0 -0.11102230246E-15 -0.71054273576E-14  0.00000000000E+00  0.91188000000E+02  0.91188000000E+02 0.  0.
    9900012    2    3    3    0    0 -0.59060650790E+00 -0.36354480083E+02 -0.58123585218E+01  0.54367074567E+02  0.39999978089E+02 0.  0.
         12    1    3    3    0    0  0.59060650790E+00  0.36354480083E+02  0.58123585218E+01  0.36820925433E+02  0.00000000000E+00 0. -1.
         11    1    4    4    0    0  0.24524669037E+01  0.50384529353E+01  0.80419105465E+01  0.98016798251E+01  0.51100000000E-03 0. -1.
        -11    1    4    4    0    0 -0.44064975279E+01 -0.21069371643E+02 -0.10397611492E+02  0.23904936036E+02  0.51100000000E-03 0.  1.
        -12    1    4    4    0    0  0.13634241163E+01 -0.20323561376E+02 -0.34566575765E+01  0.20660458705E+02  0.00000000000E+00 0.  1.
</event>
<event>
 8    1  0.1271559E-006  0.9118800E+02  0.7816164E-02  0.1184000E+00
        -11   -1    0    0    0    0  0.00000000000E+00  0.00000000000E+00  0.45593999997E+02  0.45594000000E+02  0.51100000000E-03 0.  1.
         11   -1    0    0    0    0 -0.00000000000E+00 -0.00000000000E+00 -0.45593999997E+02  0.45594000000E+02  0.51100000000E-03 0. -1.
         23    2    1    2    0    0  0.71054273576E-14  0.17763568394E-14 -0.35527136788E-14  0.91188000000E+02  0.91188000000E+02 0.  0.
    9900012    2    3    3    0    0 -0.30042105073E+02 -0.12978328735E+02  0.16876459012E+02  0.54367082538E+02  0.39999996262E+02 0.  0.
        -12    1    3    3    0    0  0.30042105073E+02  0.12978328735E+02 -0.16876459012E+02  0.36820917462E+02  0.00000000000E+00 0.  1.
         11    1    4    4    0    0 -0.76698963790E+01  0.12508905991E+02  0.12347157675E+02  0.19176869986E+02  0.51100000000E-03 0. -1.
        -11    1    4    4    0    0 -0.41273728452E+01 -0.10494456809E+02  0.17648851395E+01  0.11414186355E+02  0.51100000000E-03 0.  1.
         12    1    4    4    0    0 -0.18244835848E+02 -0.14992777916E+02  0.27644161976E+01  0.23776026197E+02  0.00000000000E+00 0. -1.
</event>
<event>
 8    1  0.1271559E-006  0.9118800E+02  0.7816164E-02  0.1184000E+00
        -11   -1    0    0    0    0  0.00000000000E+00  0.00000000000E+00  0.45593999997E+02  0.45594000000E+02  0.51100000000E-03 0. -1.
         11   -1    0    0    0    0 -0.00000000000E+00 -0.00000000000E+00 -0.45593999997E+02  0.45594000000E+02  0.51100000000E-03 0.  1.
         23    2    1    2    0    0  0.00000000000E+00  0.00000000000E+00  0.00000000000E+00  0.91188000000E+02  0.91188000000E+02 0.  0.
    9900012    2    3    3    0    0  0.30827538517E+02  0.14289465782E+02 -0.14186369613E+02  0.54367094984E+02  0.40000024635E+02 0.  0.
         12    1    3    3    0    0 -0.30827538517E+02 -0.14289465782E+02  0.14186369613E+02  0.36820905016E+02  0.00000000000E+00 0. -1.
         11    1    4    4    0    0  0.16587079984E+02 -0.51139268669E+01 -0.10301175066E+02  0.20184094689E+02  0.51100000000E-03 0. -1.
        -11    1    4    4    0    0  0.25336822097E+00 -0.27956690493E+01 -0.72080277373E+01  0.77353490556E+01  0.51100000000E-03 0.  1.
         12    1    4    4    0    0  0.13987090312E+02  0.22199061699E+02  0.33228331900E+01  0.26447651240E+02  0.00000000000E+00 0. -1.
</event>
<event>
 8    1  0.1271559E-006  0.9118800E+02  0.7816164E-02  0.1184000E+00
        -11   -1    0    0    0    0  0.00000000000E+00  0.00000000000E+00  0.45593999997E+02  0.45594000000E+02  0.51100000000E-03 0. -1.
         11   -1    0    0    0    0 -0.00000000000E+00 -0.00000000000E+00 -0.45593999997E+02  0.45594000000E+02  0.51100000000E-03 0.  1.
         23    2    1    2    0    0  0.00000000000E+00  0.35527136788E-14  0.35527136788E-14  0.91188000000E+02  0.91188000000E+02 0.  0.
    9900012    2    3    3    0    0  0.25208684746E+02  0.18999333712E+02  0.18955942141E+02  0.54367079173E+02  0.39999988591E+02 0.  0.
        -12    1    3    3    0    0 -0.25208684746E+02 -0.18999333712E+02 -0.18955942141E+02  0.36820920827E+02  0.00000000000E+00 0.  1.
         11    1    4    4    0    0  0.61574495210E+01  0.52485334399E+01  0.55541670275E+01  0.98137688736E+01  0.51100000000E-03 0. -1.
        -11    1    4    4    0    0  0.27741971574E+02  0.47194558182E+01  0.30649641141E+01  0.28306964785E+02  0.51100000000E-03 0.  1.
        -12    1    4    4    0    0 -0.86907363496E+01  0.90313444535E+01  0.10336811000E+02  0.16246345515E+02  0.00000000000E+00 0.  1.
</event>
<event>
 8    1  0.1271559E-006  0.9118800E+02  0.7816164E-02  0.1184000E+00
        -11   -1    0    0    0    0  0.00000000000E+00  0.00000000000E+00  0.45593999997E+02  0.45594000000E+02  0.51100000000E-03 0.  1.
         11   -1    0    0    0    0 -0.00000000000E+00 -0.00000000000E+00 -0.45593999997E+02  0.45594000000E+02  0.51100000000E-03 0. -1.
         23    2    1    2    0    0  0.00000000000E+00  0.71054273576E-14  0.00000000000E+00  0.91188000000E+02  0.91188000000E+02 0.  0.
    9900012    2    3    3    0    0  0.13458270868E+01 -0.36281053464E+02  0.61362604218E+01  0.54367084980E+02  0.40000001828E+02 0.  0.
        -12    1    3    3    0    0 -0.13458270868E+01  0.36281053464E+02 -0.61362604218E+01  0.36820915020E+02  0.00000000000E+00 0.  1.
         11    1    4    4    0    0  0.13359383739E+02 -0.31704843878E+02  0.27749741426E+01  0.34516238801E+02  0.51100000000E-03 0. -1.
        -11    1    4    4    0    0 -0.47228058056E+00 -0.62808611513E+01  0.50365642865E+01  0.80646913036E+01  0.51100000000E-03 0.  1.
        -12    1    4    4    0    0 -0.11541276072E+02  0.17046515659E+01 -0.16752780073E+01  0.11786154875E+02  0.00000000000E+00 0.  1.
</event>
<event>
 8    1  0.1271559E-006  0.9118800E+02  0.7816164E-02  0.1184000E+00
        -11   -1    0    0    0    0  0.00000000000E+00  0.00000000000E+00  0.45593999997E+02  0.45594000000E+02  0.51100000000E-03 0. -1.
         11   -1    0    0    0    0 -0.00000000000E+00 -0.00000000000E+00 -0.45593999997E+02  0.45594000000E+02  0.51100000000E-03 0.  1.
         23    2    1    2    0    0  0.35527136788E-14  0.35527136788E-14  0.35527136788E-14  0.91188000000E+02  0.91188000000E+02 0.  0.
    9900012    2    3    3    0    0 -0.22995959155E+02 -0.14984442366E+02 -0.24544515927E+02  0.54367069640E+02  0.39999966858E+02 0.  0.
         12    1    3    3    0    0  0.22995959155E+02  0.14984442366E+02  0.24544515927E+02  0.36820930360E+02  0.00000000000E+00 0. -1.
         11    1    4    4    0    0  0.25200193501E+01 -0.63801566744E+01  0.14059474921E+01  0.70023985409E+01  0.51100000000E-03 0. -1.
        -11    1    4    4    0    0 -0.20760285303E+02 -0.54955451676E+01 -0.70409854720E+00  0.21486884781E+02  0.51100000000E-03 0.  1.
         12    1    4    4    0    0 -0.47556932015E+01 -0.31087405241E+01 -0.25246364872E+02  0.25877786318E+02  0.00000000000E+00 0. -1.
</event>
<event>
 8    1  0.1271559E-006  0.9118800E+02  0.7816164E-02  0.1184000E+00
        -11   -1    0    0    0    0  0.00000000000E+00  0.00000000000E+00  0.45593999997E+02  0.45594000000E+02  0.51100000000E-03 0.  1.
         11   -1    0    0    0    0 -0.00000000000E+00 -0.00000000000E+00 -0.45593999997E+02  0.45594000000E+02  0.51100000000E-03 0. -1.
         23    2    1    2    0    0  0.35527136788E-14  0.00000000000E+00  0.00000000000E+00  0.91188000000E+02  0.91188000000E+02 0.  0.
    9900012    2    3    3    0    0 -0.25599565038E+02  0.26234153579E+02 -0.34944451384E+01  0.54367086228E+02  0.40000004674E+02 0.  0.
        -12    1    3    3    0    0  0.25599565038E+02 -0.26234153579E+02  0.34944451384E+01  0.36820913772E+02  0.00000000000E+00 0.  1.
         11    1    4    4    0    0  0.37759546401E+01  0.86884219957E+01  0.64958971372E+00  0.94957083610E+01  0.51100000000E-03 0. -1.
        -11    1    4    4    0    0 -0.33118824621E+02  0.21300141340E+02 -0.35620558531E+01  0.39537840198E+02  0.51100000000E-03 0.  1.
         12    1    4    4    0    0  0.37433049427E+01 -0.37544097560E+01 -0.58197899903E+00  0.53335376688E+01  0.00000000000E+00 0. -1.
</event>
<event>
 8    1  0.1271559E-006  0.9118800E+02  0.7816164E-02  0.1184000E+00
        -11   -1    0    0    0    0  0.00000000000E+00  0.00000000000E+00  0.45593999997E+02  0.45594000000E+02  0.51100000000E-03 0.  1.
         11   -1    0    0    0    0 -0.00000000000E+00 -0.00000000000E+00 -0.45593999997E+02  0.45594000000E+02  0.51100000000E-03 0. -1.
         23    2    1    2    0    0  0.00000000000E+00  0.00000000000E+00  0.17763568394E-14  0.91188000000E+02  0.91188000000E+02 0.  0.
    9900012    2    3    3    0    0 -0.15997079347E+02 -0.29315664000E+02  0.15506961540E+02  0.54367074433E+02  0.39999977785E+02 0.  0.
         12    1    3    3    0    0  0.15997079347E+02  0.29315664000E+02 -0.15506961540E+02  0.36820925567E+02  0.00000000000E+00 0. -1.
         11    1    4    4    0    0 -0.96383077674E+01 -0.39364334437E+01  0.10970652641E+01  0.10468812604E+02  0.51100000000E-03 0. -1.
        -11    1    4    4    0    0 -0.10590649523E+02  0.13798896648E+00  0.14593386564E+02  0.18031855976E+02  0.51100000000E-03 0.  1.
         12    1    4    4    0    0  0.42318779438E+01 -0.25517219523E+02 -0.18349028716E+00  0.25866405854E+02  0.00000000000E+00 0. -1.
</event>
<event>
 8    1  0.1271559E-006  0.9118800E+02  0.7816164E-02  0.1184000E+00
        -11   -1    0    0    0    0  0.00000000000E+00  0.00000000000E+00  0.45593999997E+02  0.45594000000E+02  0.51100000000E-03 0.  1.
         11   -1    0    0    0    0 -0.00000000000E+00 -0.00000000000E+00 -0.45593999997E+02  0.45594000000E+02  0.51100000000E-03 0. -1.
         23    2    1    2    0    0  0.88817841970E-15  0.00000000000E+00  0.35527136788E-14  0.91188000000E+02  0.91188000000E+02 0.  0.
    9900012    2    3    3    0    0 -0.61960111266E+01 -0.17134790888E+02 -0.31996688030E+02  0.54367086683E+02  0.40000005710E+02 0.  0.
        -12    1    3    3    0    0  0.61960111266E+01  0.17134790888E+02  0.31996688030E+02  0.36820913317E+02  0.00000000000E+00 0.  1.
         11    1    4    4    0    0  0.10610239097E+01  0.32620348016E+01  0.20705109053E+01  0.40067016926E+01  0.51100000000E-03 0. -1.
        -11    1    4    4    0    0 -0.11253163561E+02  0.42749084728E+01 -0.12411231115E+02  0.17290089376E+02  0.51100000000E-03 0.  1.
         12    1    4    4    0    0  0.39961285249E+01 -0.24671734162E+02 -0.21655967820E+02  0.33070295614E+02  0.00000000000E+00 0. -1.
</event>
<event>
 8    1  0.1271559E-006  0.9118800E+02  0.7816164E-02  0.1184000E+00
        -11   -1    0    0    0    0  0.00000000000E+00  0.00000000000E+00  0.45593999997E+02  0.45594000000E+02  0.51100000000E-03 0. -1.
         11   -1    0    0    0    0 -0.00000000000E+00 -0.00000000000E+00 -0.45593999997E+02  0.45594000000E+02  0.51100000000E-03 0.  1.
         23    2    1    2    0    0  0.17763568394E-14  0.00000000000E+00 -0.88817841970E-15  0.91188000000E+02  0.91188000000E+02 0.  0.
    9900012    2    3    3    0    0  0.73353161168E+01  0.35693747655E+02  0.52841482951E+01  0.54367181060E+02  0.40000220863E+02 0.  0.
        -12    1    3    3    0    0 -0.73353161168E+01 -0.35693747655E+02 -0.52841482951E+01  0.36820818940E+02  0.00000000000E+00 0.  1.
         11    1    4    4    0    0 -0.75677858202E+01  0.25019366682E+02  0.83633081177E+01  0.27444216409E+02  0.51100000000E-03 0. -1.
        -11    1    4    4    0    0  0.39893667915E+01 -0.81349607729E+00 -0.91022212019E+01  0.99713215941E+01  0.51100000000E-03 0.  1.
         12    1    4    4    0    0  0.10913735146E+02  0.11487877050E+02  0.60230613793E+01  0.16951643057E+02  0.00000000000E+00 0. -1.
</event>
<event>
 8    1  0.1271559E-006  0.9118800E+02  0.7816164E-02  0.1184000E+00
        -11   -1    0    0    0    0  0.00000000000E+00  0.00000000000E+00  0.45593999997E+02  0.45594000000E+02  0.51100000000E-03 0. -1.
         11   -1    0    0    0    0 -0.00000000000E+00 -0.00000000000E+00 -0.45593999997E+02  0.45594000000E+02  0.51100000000E-03 0.  1.
         23    2    1    2    0    0 -0.71054273576E-14 -0.17763568394E-14  0.00000000000E+00  0.91188000000E+02  0.91188000000E+02 0.  0.
    9900012    2    3    3    0    0 -0.32825237234E+02 -0.13355436890E+02 -0.99956764157E+01  0.54367116782E+02  0.40000074327E+02 0.  0.
         12    1    3    3    0    0  0.32825237234E+02  0.13355436890E+02  0.99956764157E+01  0.36820883218E+02  0.00000000000E+00 0. -1.
         11    1    4    4    0    0 -0.41912087992E+00  0.10411471062E+02 -0.76841257145E+01  0.12946821241E+02  0.51100000000E-03 0. -1.
        -11    1    4    4    0    0 -0.91096875326E+01 -0.29138913575E+01  0.22438041428E+01  0.98240433162E+01  0.51100000000E-03 0.  1.
         12    1    4    4    0    0 -0.23296428821E+02 -0.20853016594E+02 -0.45553548441E+01  0.31596252225E+02  0.00000000000E+00 0. -1.
</event>
<event>
 8    1  0.1271559E-006  0.9118800E+02  0.7816164E-02  0.1184000E+00
        -11   -1    0    0    0    0  0.00000000000E+00  0.00000000000E+00  0.45593999997E+02  0.45594000000E+02  0.51100000000E-03 0. -1.
         11   -1    0    0    0    0 -0.00000000000E+00 -0.00000000000E+00 -0.45593999997E+02  0.45594000000E+02  0.51100000000E-03 0.  1.
         23    2    1    2    0    0  0.17763568394E-14 -0.35527136788E-14  0.00000000000E+00  0.91188000000E+02  0.91188000000E+02 0.  0.
    9900012    2    3    3    0    0  0.20536816878E+01 -0.19132836758E+02 -0.31392615078E+02  0.54367091098E+02  0.40000015777E+02 0.  0.
         12    1    3    3    0    0 -0.20536816878E+01  0.19132836758E+02  0.31392615078E+02  0.36820908902E+02  0.00000000000E+00 0. -1.
         11    1    4    4    0    0  0.13895426710E+02  0.20419191392E+01 -0.41836885635E+01  0.14654540849E+02  0.51100000000E-03 0. -1.
        -11    1    4    4    0    0 -0.33853611774E+01 -0.18943667134E+02 -0.23053574494E+02  0.30029826706E+02  0.51100000000E-03 0.  1.
         12    1    4    4    0    0 -0.84563838450E+01 -0.22310887634E+01 -0.41553520213E+01  0.96827235438E+01  0.00000000000E+00 0. -1.
</event>
<event>
 8    1  0.1271559E-006  0.9118800E+02  0.7816164E-02  0.1184000E+00
        -11   -1    0    0    0    0  0.00000000000E+00  0.00000000000E+00  0.45593999997E+02  0.45594000000E+02  0.51100000000E-03 0. -1.
         11   -1    0    0    0    0 -0.00000000000E+00 -0.00000000000E+00 -0.45593999997E+02  0.45594000000E+02  0.51100000000E-03 0.  1.
         23    2    1    2    0    0 -0.88817841970E-15  0.13322676296E-14  0.71054273576E-14  0.91188000000E+02  0.91188000000E+02 0.  0.
    9900012    2    3    3    0    0  0.56427432989E+01 -0.31241280358E+01 -0.36251618763E+02  0.54367074009E+02  0.39999976818E+02 0.  0.
         12    1    3    3    0    0 -0.56427432989E+01  0.31241280358E+01  0.36251618763E+02  0.36820925991E+02  0.00000000000E+00 0. -1.
         11    1    4    4    0    0  0.10067501917E+02 -0.11284654624E+02 -0.81884486673E+01  0.17197346210E+02  0.51100000000E-03 0. -1.
        -11    1    4    4    0    0 -0.69898503894E+01  0.13325963627E+02 -0.96543529455E+01  0.17878642177E+02  0.51100000000E-03 0.  1.
        -12    1    4    4    0    0  0.25650917711E+01 -0.51654370384E+01 -0.18408817150E+02  0.19291085621E+02  0.00000000000E+00 0.  1.
</event>
<event>
 8    1  0.1271559E-006  0.9118800E+02  0.7816164E-02  0.1184000E+00
        -11   -1    0    0    0    0  0.00000000000E+00  0.00000000000E+00  0.45593999997E+02  0.45594000000E+02  0.51100000000E-03 0. -1.
         11   -1    0    0    0    0 -0.00000000000E+00 -0.00000000000E+00 -0.45593999997E+02  0.45594000000E+02  0.51100000000E-03 0.  1.
         23    2    1    2    0    0  0.00000000000E+00  0.00000000000E+00  0.00000000000E+00  0.91188000000E+02  0.91188000000E+02 0.  0.
    9900012    2    3    3    0    0  0.90490139670E+01 -0.34323513392E+02  0.97872874539E+01  0.54367092610E+02  0.40000019222E+02 0.  0.
        -12    1    3    3    0    0 -0.90490139670E+01  0.34323513392E+02 -0.97872874539E+01  0.36820907390E+02  0.00000000000E+00 0.  1.
         11    1    4    4    0    0 -0.68813075918E+01 -0.25015705848E+01  0.44705351753E+00  0.73355372450E+01  0.51100000000E-03 0. -1.
        -11    1    4    4    0    0  0.18925572253E+02 -0.30215871181E+02 -0.14858704758E+01  0.35684505989E+02  0.51100000000E-03 0.  1.
         12    1    4    4    0    0 -0.29952506946E+01 -0.16060716260E+01  0.10826104412E+02  0.11347049376E+02  0.00000000000E+00 0. -1.
</event>
<event>
 8    1  0.1271559E-006  0.9118800E+02  0.7816164E-02  0.1184000E+00
        -11   -1    0    0    0    0  0.00000000000E+00  0.00000000000E+00  0.45593999997E+02  0.45594000000E+02  0.51100000000E-03 0.  1.
         11   -1    0    0    0    0 -0.00000000000E+00 -0.00000000000E+00 -0.45593999997E+02  0.45594000000E+02  0.51100000000E-03 0. -1.
         23    2    1    2    0    0 -0.88817841970E-15  0.00000000000E+00  0.00000000000E+00  0.91188000000E+02  0.91188000000E+02 0.  0.
    9900012    2    3    3    0    0 -0.55642723035E+01 -0.33946753341E+02  0.13131489757E+02  0.54367092734E+02  0.40000019506E+02 0.  0.
         12    1    3    3    0    0  0.55642723035E+01  0.33946753341E+02 -0.13131489757E+02  0.36820907266E+02  0.00000000000E+00 0. -1.
         11    1    4    4    0    0  0.42781471733E+01  0.42014113680E+01  0.91899416783E+01  0.10973123030E+02  0.51100000000E-03 0. -1.
        -11    1    4    4    0    0 -0.98871321550E+01 -0.37227426040E+02  0.79083408386E+01  0.39321476153E+02  0.51100000000E-03 0.  1.
        -12    1    4    4    0    0  0.44712678152E-01 -0.92073866909E+00 -0.39667927601E+01  0.40724935509E+01  0.00000000000E+00 0.  1.
</event>
<event>
 8    1  0.1271559E-006  0.9118800E+02  0.7816164E-02  0.1184000E+00
        -11   -1    0    0    0    0  0.00000000000E+00  0.00000000000E+00  0.45593999997E+02  0.45594000000E+02  0.51100000000E-03 0.  1.
         11   -1    0    0    0    0 -0.00000000000E+00 -0.00000000000E+00 -0.45593999997E+02  0.45594000000E+02  0.51100000000E-03 0. -1.
         23    2    1    2    0    0 -0.17763568394E-14  0.35527136788E-14  0.35527136788E-14  0.91188000000E+02  0.91188000000E+02 0.  0.
    9900012    2    3    3    0    0 -0.15468668449E+02  0.16338755380E+02  0.29146958441E+02  0.54367084512E+02  0.40000000763E+02 0.  0.
        -12    1    3    3    0    0  0.15468668449E+02 -0.16338755380E+02 -0.29146958441E+02  0.36820915488E+02  0.00000000000E+00 0.  1.
         11    1    4    4    0    0 -0.16902327876E+02  0.16569106138E+02  0.65844144396E+01  0.24567834248E+02  0.51100000000E-03 0. -1.
        -11    1    4    4    0    0 -0.67653088945E+01 -0.29860505638E+01  0.22626841720E+01  0.77334107825E+01  0.51100000000E-03 0.  1.
        -12    1    4    4    0    0  0.81989683210E+01  0.27556998058E+01  0.20299859830E+02  0.22065839482E+02  0.00000000000E+00 0.  1.
</event>
<event>
 8    1  0.1271559E-006  0.9118800E+02  0.7816164E-02  0.1184000E+00
        -11   -1    0    0    0    0  0.00000000000E+00  0.00000000000E+00  0.45593999997E+02  0.45594000000E+02  0.51100000000E-03 0.  1.
         11   -1    0    0    0    0 -0.00000000000E+00 -0.00000000000E+00 -0.45593999997E+02  0.45594000000E+02  0.51100000000E-03 0. -1.
         23    2    1    2    0    0 -0.17763568394E-14  0.00000000000E+00  0.00000000000E+00  0.91188000000E+02  0.91188000000E+02 0.  0.
    9900012    2    3    3    0    0  0.11599673531E+02  0.11914963580E+02 -0.32852179714E+02  0.54367020992E+02  0.39999855956E+02 0.  0.
        -12    1    3    3    0    0 -0.11599673531E+02 -0.11914963580E+02  0.32852179714E+02  0.36820979008E+02  0.00000000000E+00 0.  1.
         11    1    4    4    0    0  0.78448751351E+01  0.15318646228E+02 -0.30841500310E+02  0.35318566361E+02  0.51100000000E-03 0. -1.
        -11    1    4    4    0    0 -0.53235186772E+01  0.23092583269E+01 -0.52691475610E+01  0.78381401753E+01  0.51100000000E-03 0.  1.
        -12    1    4    4    0    0  0.90783170732E+01 -0.57129409749E+01  0.32584681577E+01  0.11210314456E+02  0.00000000000E+00 0.  1.
</event>
<event>
 8    1  0.1271559E-006  0.9118800E+02  0.7816164E-02  0.1184000E+00
        -11   -1    0    0    0    0  0.00000000000E+00  0.00000000000E+00  0.45593999997E+02  0.45594000000E+02  0.51100000000E-03 0. -1.
         11   -1    0    0    0    0 -0.00000000000E+00 -0.00000000000E+00 -0.45593999997E+02  0.45594000000E+02  0.51100000000E-03 0.  1.
         23    2    1    2    0    0  0.00000000000E+00 -0.35527136788E-14  0.00000000000E+00  0.91188000000E+02  0.91188000000E+02 0.  0.
    9900012    2    3    3    0    0 -0.26960438303E+02 -0.19537118923E+02  0.15723066935E+02  0.54367094483E+02  0.40000023492E+02 0.  0.
        -12    1    3    3    0    0  0.26960438303E+02  0.19537118923E+02 -0.15723066935E+02  0.36820905517E+02  0.00000000000E+00 0.  1.
         11    1    4    4    0    0 -0.22288285949E+02 -0.77554408570E+01  0.87099746681E+00  0.23615105130E+02  0.51100000000E-03 0. -1.
        -11    1    4    4    0    0 -0.10805839171E+02 -0.16054984170E+02  0.11874256210E+02  0.22705211685E+02  0.51100000000E-03 0.  1.
        -12    1    4    4    0    0  0.61336868176E+01  0.42733061038E+01  0.29778132582E+01  0.80467776677E+01  0.00000000000E+00 0.  1.
</event>
<event>
 8    1  0.1271559E-006  0.9118800E+02  0.7816164E-02  0.1184000E+00
        -11   -1    0    0    0    0  0.00000000000E+00  0.00000000000E+00  0.45593999997E+02  0.45594000000E+02  0.51100000000E-03 0.  1.
         11   -1    0    0    0    0 -0.00000000000E+00 -0.00000000000E+00 -0.45593999997E+02  0.45594000000E+02  0.51100000000E-03 0. -1.
         23    2    1    2    0    0 -0.35527136788E-14  0.00000000000E+00  0.00000000000E+00  0.91188000000E+02  0.91188000000E+02 0.  0.
    9900012    2    3    3    0    0 -0.30200638996E+02 -0.30712937395E+01  0.20839117158E+02  0.54367078706E+02  0.39999987527E+02 0.  0.
         12    1    3    3    0    0  0.30200638996E+02  0.30712937395E+01 -0.20839117158E+02  0.36820921294E+02  0.00000000000E+00 0. -1.
         11    1    4    4    0    0  0.51971322129E+01 -0.47258716851E+01  0.11437120808E+01  0.71170305611E+01  0.51100000000E-03 0. -1.
        -11    1    4    4    0    0  0.73731959392E+00 -0.43363607269E+01  0.74083593336E+01  0.86157676858E+01  0.51100000000E-03 0.  1.
        -12    1    4    4    0    0 -0.36135090803E+02  0.59909386726E+01  0.12287045743E+02  0.38634280459E+02  0.00000000000E+00 0.  1.
</event>
<event>
 8    1  0.1271559E-006  0.9118800E+02  0.7816164E-02  0.1184000E+00
        -11   -1    0    0    0    0  0.00000000000E+00  0.00000000000E+00  0.45593999997E+02  0.45594000000E+02  0.51100000000E-03 0.  1.
         11   -1    0    0    0    0 -0.00000000000E+00 -0.00000000000E+00 -0.45593999997E+02  0.45594000000E+02  0.51100000000E-03 0. -1.
         23    2    1    2    0    0  0.00000000000E+00 -0.17763568394E-14  0.00000000000E+00  0.91188000000E+02  0.91188000000E+02 0.  0.
    9900012    2    3    3    0    0 -0.18260356920E+02 -0.12874583112E+02 -0.29267452131E+02  0.54367091817E+02  0.40000017416E+02 0.  0.
        -12    1    3    3    0    0  0.18260356920E+02  0.12874583112E+02  0.29267452131E+02  0.36820908183E+02  0.00000000000E+00 0.  1.
         11    1    4    4    0    0 -0.26524480235E+01 -0.74136727162E+01 -0.30051381114E+02  0.31065793580E+02  0.51100000000E-03 0. -1.
        -11    1    4    4    0    0 -0.15031804815E+02 -0.94656198564E+01 -0.26928131805E+01  0.17966757035E+02  0.51100000000E-03 0.  1.
        -12    1    4    4    0    0 -0.57610408147E+00  0.40047094606E+01  0.34767421627E+01  0.53345412026E+01  0.00000000000E+00 0.  1.
</event>
<event>
 8    1  0.1271559E-006  0.9118800E+02  0.7816164E-02  0.1184000E+00
        -11   -1    0    0    0    0  0.00000000000E+00  0.00000000000E+00  0.45593999997E+02  0.45594000000E+02  0.51100000000E-03 0.  1.
         11   -1    0    0    0    0 -0.00000000000E+00 -0.00000000000E+00 -0.45593999997E+02  0.45594000000E+02  0.51100000000E-03 0. -1.
         23    2    1    2    0    0  0.00000000000E+00  0.00000000000E+00 -0.35527136788E-14  0.91188000000E+02  0.91188000000E+02 0.  0.
    9900012    2    3    3    0    0  0.30981077061E+02  0.10022747382E+02 -0.17190018930E+02  0.54367090835E+02  0.40000015176E+02 0.  0.
        -12    1    3    3    0    0 -0.30981077061E+02 -0.10022747382E+02  0.17190018930E+02  0.36820909165E+02  0.00000000000E+00 0.  1.
         11    1    4    4    0    0  0.66613000710E+01 -0.39112169618E+01  0.75037205048E+01  0.10769232026E+02  0.51100000000E-03 0. -1.
        -11    1    4    4    0    0  0.10641056687E+02 -0.54934675689E+01 -0.61762684976E+01  0.13474292789E+02  0.51100000000E-03 0.  1.
         12    1    4    4    0    0  0.13678720303E+02  0.19427431912E+02 -0.18517470937E+02  0.30123566020E+02  0.00000000000E+00 0. -1.
</event>
<event>
 8    1  0.1271559E-006  0.9118800E+02  0.7816164E-02  0.1184000E+00
        -11   -1    0    0    0    0  0.00000000000E+00  0.00000000000E+00  0.45593999997E+02  0.45594000000E+02  0.51100000000E-03 0. -1.
         11   -1    0    0    0    0 -0.00000000000E+00 -0.00000000000E+00 -0.45593999997E+02  0.45594000000E+02  0.51100000000E-03 0.  1.
         23    2    1    2    0    0  0.00000000000E+00  0.35527136788E-14 -0.88817841970E-15  0.91188000000E+02  0.91188000000E+02 0.  0.
    9900012    2    3    3    0    0  0.26883516539E+02 -0.24939331588E+02  0.33297840810E+01  0.54367065960E+02  0.39999958469E+02 0.  0.
         12    1    3    3    0    0 -0.26883516539E+02  0.24939331588E+02 -0.33297840810E+01  0.36820934040E+02  0.00000000000E+00 0. -1.
         11    1    4    4    0    0  0.16431819722E+02 -0.26174394477E+02 -0.12379663963E+01  0.30929535830E+02  0.51100000000E-03 0. -1.
        -11    1    4    4    0    0  0.12830333589E+02 -0.28232199850E+01 -0.39404789127E+01  0.13715516958E+02  0.51100000000E-03 0.  1.
        -12    1    4    4    0    0 -0.23786367721E+01  0.40582828732E+01  0.85082293900E+01  0.97220131725E+01  0.00000000000E+00 0.  1.
</event>
<event>
 8    1  0.1271559E-006  0.9118800E+02  0.7816164E-02  0.1184000E+00
        -11   -1    0    0    0    0  0.00000000000E+00  0.00000000000E+00  0.45593999997E+02  0.45594000000E+02  0.51100000000E-03 0.  1.
         11   -1    0    0    0    0 -0.00000000000E+00 -0.00000000000E+00 -0.45593999997E+02  0.45594000000E+02  0.51100000000E-03 0. -1.
         23    2    1    2    0    0 -0.88817841970E-15  0.00000000000E+00  0.00000000000E+00  0.91188000000E+02  0.91188000000E+02 0.  0.
    9900012    2    3    3    0    0  0.49757265975E+01 -0.84732634477E+01 -0.35485576372E+02  0.54367079601E+02  0.39999989566E+02 0.  0.
        -12    1    3    3    0    0 -0.49757265975E+01  0.84732634477E+01  0.35485576372E+02  0.36820920399E+02  0.00000000000E+00 0.  1.
         11    1    4    4    0    0  0.12584851095E+02  0.16844736759E+01 -0.62539839008E+01  0.14153736028E+02  0.51100000000E-03 0. -1.
        -11    1    4    4    0    0 -0.53354189337E+01  0.42516994237E+01  0.75775394073E+00  0.68642431836E+01  0.51100000000E-03 0.  1.
        -12    1    4    4    0    0 -0.22737055637E+01 -0.14409436547E+02 -0.29989346411E+02  0.33349100389E+02  0.00000000000E+00 0.  1.
</event>
<event>
 8    1  0.1271559E-006  0.9118800E+02  0.7816164E-02  0.1184000E+00
        -11   -1    0    0    0    0  0.00000000000E+00  0.00000000000E+00  0.45593999997E+02  0.45594000000E+02  0.51100000000E-03 0. -1.
         11   -1    0    0    0    0 -0.00000000000E+00 -0.00000000000E+00 -0.45593999997E+02  0.45594000000E+02  0.51100000000E-03 0.  1.
         23    2    1    2    0    0  0.00000000000E+00  0.17763568394E-14  0.10658141036E-13  0.91188000000E+02  0.91188000000E+02 0.  0.
    9900012    2    3    3    0    0 -0.18442474525E+02  0.15192170742E+02  0.28015238117E+02  0.54367075443E+02  0.39999980087E+02 0.  0.
        -12    1    3    3    0    0  0.18442474525E+02 -0.15192170742E+02 -0.28015238117E+02  0.36820924557E+02  0.00000000000E+00 0.  1.
         11    1    4    4    0    0 -0.71353492243E+00 -0.98634005581E+01  0.19259878791E+01  0.10074980508E+02  0.51100000000E-03 0. -1.
        -11    1    4    4    0    0  0.28523769440E+01  0.83959456993E+01  0.97432139721E+01  0.13174148063E+02  0.51100000000E-03 0.  1.
         12    1    4    4    0    0 -0.20581316546E+02  0.16659625601E+02  0.16346036266E+02  0.31117946873E+02  0.00000000000E+00 0. -1.
</event>
<event>
 8    1  0.1271559E-006  0.9118800E+02  0.7816164E-02  0.1184000E+00
        -11   -1    0    0    0    0  0.00000000000E+00  0.00000000000E+00  0.45593999997E+02  0.45594000000E+02  0.51100000000E-03 0.  1.
         11   -1    0    0    0    0 -0.00000000000E+00 -0.00000000000E+00 -0.45593999997E+02  0.45594000000E+02  0.51100000000E-03 0. -1.
         23    2    1    2    0    0  0.00000000000E+00  0.00000000000E+00  0.00000000000E+00  0.91188000000E+02  0.91188000000E+02 0.  0.
    9900012    2    3    3    0    0  0.28964358948E+02 -0.19505173489E+02 -0.11678805291E+02  0.54367076939E+02  0.39999983497E+02 0.  0.
         12    1    3    3    0    0 -0.28964358948E+02  0.19505173489E+02  0.11678805291E+02  0.36820923061E+02  0.00000000000E+00 0. -1.
         11    1    4    4    0    0  0.30487306336E+02 -0.12440251980E+01  0.23099368512E+01  0.30599987824E+02  0.51100000000E-03 0.  1.
        -11    1    4    4    0    0  0.57708573440E+00  0.74823185357E-01  0.42074192739E-01  0.58343547435E+00  0.51100000000E-03 0. -1.
        -12    1    4    4    0    0 -0.21000331227E+01 -0.18335971476E+02 -0.14030816335E+02  0.23183653640E+02  0.00000000000E+00 0.  1.
</event>
<event>
 8    1  0.1271559E-006  0.9118800E+02  0.7816164E-02  0.1184000E+00
        -11   -1    0    0    0    0  0.00000000000E+00  0.00000000000E+00  0.45593999997E+02  0.45594000000E+02  0.51100000000E-03 0.  1.
         11   -1    0    0    0    0 -0.00000000000E+00 -0.00000000000E+00 -0.45593999997E+02  0.45594000000E+02  0.51100000000E-03 0. -1.
         23    2    1    2    0    0  0.00000000000E+00  0.00000000000E+00 -0.35527136788E-14  0.91188000000E+02  0.91188000000E+02 0.  0.
    9900012    2    3    3    0    0  0.14501670122E+02  0.16530453123E+02  0.29533455574E+02  0.54367091335E+02  0.40000016316E+02 0.  0.
         12    1    3    3    0    0 -0.14501670122E+02 -0.16530453123E+02 -0.29533455574E+02  0.36820908665E+02  0.00000000000E+00 0. -1.
         11    1    4    4    0    0  0.27615737007E+01  0.95978219008E+01 -0.21757840496E+01  0.10221473036E+02  0.51100000000E-03 0. -1.
        -11    1    4    4    0    0  0.10885868800E+02  0.14404665750E+02  0.89024665555E+01  0.20130833215E+02  0.51100000000E-03 0.  1.
        -12    1    4    4    0    0  0.85422762131E+00 -0.74720345276E+01  0.22806773068E+02  0.24014785083E+02  0.00000000000E+00 0.  1.
</event>
<event>
 8    1  0.1271559E-006  0.9118800E+02  0.7816164E-02  0.1184000E+00
        -11   -1    0    0    0    0  0.00000000000E+00  0.00000000000E+00  0.45593999997E+02  0.45594000000E+02  0.51100000000E-03 0.  1.
         11   -1    0    0    0    0 -0.00000000000E+00 -0.00000000000E+00 -0.45593999997E+02  0.45594000000E+02  0.51100000000E-03 0. -1.
         23    2    1    2    0    0  0.00000000000E+00 -0.35527136788E-14 -0.17763568394E-14  0.91188000000E+02  0.91188000000E+02 0.  0.
    9900012    2    3    3    0    0  0.24521760086E+02 -0.24818370714E+02 -0.11769066990E+02  0.54367093161E+02  0.40000020479E+02 0.  0.
        -12    1    3    3    0    0 -0.24521760086E+02  0.24818370714E+02  0.11769066990E+02  0.36820906839E+02  0.00000000000E+00 0.  1.
         11    1    4    4    0    0  0.83123837471E+01  0.70964539660E+00 -0.73660846972E+01  0.11129174461E+02  0.51100000000E-03 0. -1.
        -11    1    4    4    0    0 -0.70739254086E+01 -0.65098219531E+01 -0.85804417227E+01  0.12885735639E+02  0.51100000000E-03 0.  1.
        -12    1    4    4    0    0  0.23283301747E+02 -0.19018194158E+02  0.41774594300E+01  0.30352183061E+02  0.00000000000E+00 0.  1.
</event>
<event>
 8    1  0.1271559E-006  0.9118800E+02  0.7816164E-02  0.1184000E+00
        -11   -1    0    0    0    0  0.00000000000E+00  0.00000000000E+00  0.45593999997E+02  0.45594000000E+02  0.51100000000E-03 0.  1.
         11   -1    0    0    0    0 -0.00000000000E+00 -0.00000000000E+00 -0.45593999997E+02  0.45594000000E+02  0.51100000000E-03 0. -1.
         23    2    1    2    0    0 -0.17763568394E-14  0.00000000000E+00  0.00000000000E+00  0.91188000000E+02  0.91188000000E+02 0.  0.
    9900012    2    3    3    0    0  0.13305390360E+02  0.93031745232E+01 -0.33048436135E+02  0.54367060308E+02  0.39999945584E+02 0.  0.
        -12    1    3    3    0    0 -0.13305390360E+02 -0.93031745232E+01  0.33048436135E+02  0.36820939692E+02  0.00000000000E+00 0.  1.
         11    1    4    4    0    0  0.57552324425E+00  0.14608593736E+02 -0.22654578097E+02  0.26962421015E+02  0.51100000000E-03 0. -1.
        -11    1    4    4    0    0 -0.14239563180E+01 -0.76660897195E+01  0.24226682959E+01  0.81649191738E+01  0.51100000000E-03 0.  1.
         12    1    4    4    0    0  0.14153823434E+02  0.23606705068E+01 -0.12816526333E+02  0.19239720120E+02  0.00000000000E+00 0. -1.
</event>
<event>
 8    1  0.1271559E-006  0.9118800E+02  0.7816164E-02  0.1184000E+00
        -11   -1    0    0    0    0  0.00000000000E+00  0.00000000000E+00  0.45593999997E+02  0.45594000000E+02  0.51100000000E-03 0. -1.
         11   -1    0    0    0    0 -0.00000000000E+00 -0.00000000000E+00 -0.45593999997E+02  0.45594000000E+02  0.51100000000E-03 0.  1.
         23    2    1    2    0    0  0.00000000000E+00  0.26645352591E-14 -0.35527136788E-14  0.91188000000E+02  0.91188000000E+02 0.  0.
    9900012    2    3    3    0    0  0.31708515472E+02  0.60506168455E+01 -0.17712711403E+02  0.54367081177E+02  0.39999993160E+02 0.  0.
         12    1    3    3    0    0 -0.31708515472E+02 -0.60506168455E+01  0.17712711403E+02  0.36820918823E+02  0.00000000000E+00 0. -1.
         11    1    4    4    0    0  0.72360809669E+01 -0.94411181496E+01  0.61999385253E+01  0.13413978442E+02  0.51100000000E-03 0. -1.
        -11    1    4    4    0    0  0.14245647172E+00 -0.26408427647E+01 -0.66345996328E+00  0.27266323071E+01  0.51100000000E-03 0.  1.
        -12    1    4    4    0    0  0.24329978034E+02  0.18132577760E+02 -0.23249189965E+02  0.38226470428E+02  0.00000000000E+00 0.  1.
</event>
<event>
 8    1  0.1271559E-006  0.9118800E+02  0.7816164E-02  0.1184000E+00
        -11   -1    0    0    0    0  0.00000000000E+00  0.00000000000E+00  0.45593999997E+02  0.45594000000E+02  0.51100000000E-03 0.  1.
         11   -1    0    0    0    0 -0.00000000000E+00 -0.00000000000E+00 -0.45593999997E+02  0.45594000000E+02  0.51100000000E-03 0. -1.
         23    2    1    2    0    0  0.17763568394E-14  0.35527136788E-14 -0.35527136788E-14  0.91188000000E+02  0.91188000000E+02 0.  0.
    9900012    2    3    3    0    0 -0.12575801366E+02  0.30806999876E+02  0.15765653990E+02  0.54367110996E+02  0.40000061137E+02 0.  0.
         12    1    3    3    0    0  0.12575801366E+02 -0.30806999876E+02 -0.15765653990E+02  0.36820889004E+02  0.00000000000E+00 0. -1.
         11    1    4    4    0    0 -0.50143176781E+01 -0.79812043970E+00  0.22586334262E+01  0.55571398424E+01  0.51100000000E-03 0. -1.
        -11    1    4    4    0    0 -0.20835995456E+02  0.17228677226E+02  0.10541783075E+02  0.29018876895E+02  0.51100000000E-03 0.  1.
         12    1    4    4    0    0  0.13274511768E+02  0.14376443089E+02  0.29652374883E+01  0.19791094258E+02  0.00000000000E+00 0. -1.
</event>
<event>
 8    1  0.1271559E-006  0.9118800E+02  0.7816164E-02  0.1184000E+00
        -11   -1    0    0    0    0  0.00000000000E+00  0.00000000000E+00  0.45593999997E+02  0.45594000000E+02  0.51100000000E-03 0. -1.
         11   -1    0    0    0    0 -0.00000000000E+00 -0.00000000000E+00 -0.45593999997E+02  0.45594000000E+02  0.51100000000E-03 0.  1.
         23    2    1    2    0    0 -0.88817841970E-15  0.00000000000E+00  0.00000000000E+00  0.91188000000E+02  0.91188000000E+02 0.  0.
    9900012    2    3    3    0    0 -0.58406978250E+01  0.31065659148E+02 -0.18883627443E+02  0.54367077758E+02  0.39999985364E+02 0.  0.
         12    1    3    3    0    0  0.58406978250E+01 -0.31065659148E+02  0.18883627443E+02  0.36820922242E+02  0.00000000000E+00 0. -1.
         11    1    4    4    0    0 -0.76036546195E+01  0.22866406615E+01 -0.11082274335E+02  0.13633088197E+02  0.51100000000E-03 0. -1.
        -11    1    4    4    0    0 -0.64190320964E+00  0.15461588148E+01 -0.12828088693E+02  0.12936866181E+02  0.51100000000E-03 0.  1.
         12    1    4    4    0    0  0.24048600041E+01  0.27232859672E+02  0.50267355852E+01  0.27797123379E+02  0.00000000000E+00 0. -1.
</event>
<event>
 8    1  0.1271559E-006  0.9118800E+02  0.7816164E-02  0.1184000E+00
        -11   -1    0    0    0    0  0.00000000000E+00  0.00000000000E+00  0.45593999997E+02  0.45594000000E+02  0.51100000000E-03 0.  1.
         11   -1    0    0    0    0 -0.00000000000E+00 -0.00000000000E+00 -0.45593999997E+02  0.45594000000E+02  0.51100000000E-03 0. -1.
         23    2    1    2    0    0 -0.55511151231E-15 -0.35527136788E-14 -0.35527136788E-14  0.91188000000E+02  0.91188000000E+02 0.  0.
    9900012    2    3    3    0    0 -0.84194014643E+00  0.21511385836E+02 -0.29871908528E+02  0.54367088782E+02  0.40000010497E+02 0.  0.
        -12    1    3    3    0    0  0.84194014643E+00 -0.21511385836E+02  0.29871908528E+02  0.36820911218E+02  0.00000000000E+00 0.  1.
         11    1    4    4    0    0 -0.64787739355E+01 -0.51815346974E+01 -0.37320463920E+01  0.90967567881E+01  0.51100000000E-03 0.  1.
        -11    1    4    4    0    0  0.57304415331E+01 -0.34876899736E+01 -0.36963336040E+01  0.76592965663E+01  0.51100000000E-03 0. -1.
         12    1    4    4    0    0 -0.93607744002E-01  0.30180610507E+02 -0.22443528532E+02  0.37611035428E+02  0.00000000000E+00 0. -1.
</event>
<event>
 8    1  0.1271559E-006  0.9118800E+02  0.7816164E-02  0.1184000E+00
        -11   -1    0    0    0    0  0.00000000000E+00  0.00000000000E+00  0.45593999997E+02  0.45594000000E+02  0.51100000000E-03 0. -1.
         11   -1    0    0    0    0 -0.00000000000E+00 -0.00000000000E+00 -0.45593999997E+02  0.45594000000E+02  0.51100000000E-03 0.  1.
         23    2    1    2    0    0  0.00000000000E+00  0.71054273576E-14  0.35527136788E-14  0.91188000000E+02  0.91188000000E+02 0.  0.
    9900012    2    3    3    0    0  0.18308933686E+02 -0.23237537943E+02 -0.21922159612E+02  0.54367064319E+02  0.39999954728E+02 0.  0.
         12    1    3    3    0    0 -0.18308933686E+02  0.23237537943E+02  0.21922159612E+02  0.36820935681E+02  0.00000000000E+00 0. -1.
         11    1    4    4    0    0 -0.81446113623E+01 -0.39743965893E+01 -0.23066373445E+01  0.93515292114E+01  0.51100000000E-03 0.  1.
        -11    1    4    4    0    0  0.28943569140E+01  0.55719321349E+01 -0.33318948436E+01  0.71081117867E+01  0.51100000000E-03 0. -1.
        -12    1    4    4    0    0  0.23559188135E+02 -0.24835073489E+02 -0.16283627424E+02  0.37907423321E+02  0.00000000000E+00 0.  1.
</event>
<event>
 8    1  0.1271559E-006  0.9118800E+02  0.7816164E-02  0.1184000E+00
        -11   -1    0    0    0    0  0.00000000000E+00  0.00000000000E+00  0.45593999997E+02  0.45594000000E+02  0.51100000000E-03 0.  1.
         11   -1    0    0    0    0 -0.00000000000E+00 -0.00000000000E+00 -0.45593999997E+02  0.45594000000E+02  0.51100000000E-03 0. -1.
         23    2    1    2    0    0  0.35527136788E-14  0.00000000000E+00 -0.17763568394E-14  0.91188000000E+02  0.91188000000E+02 0.  0.
    9900012    2    3    3    0    0  0.26750053531E+02  0.22667317304E+02  0.11243152176E+02  0.54367066980E+02  0.39999960793E+02 0.  0.
         12    1    3    3    0    0 -0.26750053531E+02 -0.22667317304E+02 -0.11243152176E+02  0.36820933020E+02  0.00000000000E+00 0. -1.
         11    1    4    4    0    0  0.19579165295E+01  0.60581125205E+01 -0.32070006429E+01  0.71287458807E+01  0.51100000000E-03 0. -1.
        -11    1    4    4    0    0  0.16475630696E+02  0.25047852618E+02  0.19934036714E+01  0.30046879806E+02  0.51100000000E-03 0.  1.
        -12    1    4    4    0    0  0.83165063056E+01 -0.84386478349E+01  0.12456749147E+02  0.17191441293E+02  0.00000000000E+00 0.  1.
</event>
<event>
 8    1  0.1271559E-006  0.9118800E+02  0.7816164E-02  0.1184000E+00
        -11   -1    0    0    0    0  0.00000000000E+00  0.00000000000E+00  0.45593999997E+02  0.45594000000E+02  0.51100000000E-03 0. -1.
         11   -1    0    0    0    0 -0.00000000000E+00 -0.00000000000E+00 -0.45593999997E+02  0.45594000000E+02  0.51100000000E-03 0.  1.
         23    2    1    2    0    0  0.00000000000E+00  0.00000000000E+00  0.00000000000E+00  0.91188000000E+02  0.91188000000E+02 0.  0.
    9900012    2    3    3    0    0  0.19299768544E+02 -0.11338211674E+02  0.29235978848E+02  0.54367101464E+02  0.40000039407E+02 0.  0.
        -12    1    3    3    0    0 -0.19299768544E+02  0.11338211674E+02 -0.29235978848E+02  0.36820898536E+02  0.00000000000E+00 0.  1.
         11    1    4    4    0    0 -0.40082112066E+00  0.31467094512E+01  0.15020135734E+02  0.15351446696E+02  0.51100000000E-03 0. -1.
        -11    1    4    4    0    0  0.25217321450E+02 -0.56721724111E+01  0.88867896368E+01  0.27332432590E+02  0.51100000000E-03 0.  1.
        -12    1    4    4    0    0 -0.55167317856E+01 -0.88127487137E+01  0.53290534775E+01  0.11683222178E+02  0.00000000000E+00 0.  1.
</event>
<event>
 8    1  0.1271559E-006  0.9118800E+02  0.7816164E-02  0.1184000E+00
        -11   -1    0    0    0    0  0.00000000000E+00  0.00000000000E+00  0.45593999997E+02  0.45594000000E+02  0.51100000000E-03 0. -1.
         11   -1    0    0    0    0 -0.00000000000E+00 -0.00000000000E+00 -0.45593999997E+02  0.45594000000E+02  0.51100000000E-03 0.  1.
         23    2    1    2    0    0  0.00000000000E+00 -0.22204460493E-15  0.00000000000E+00  0.91188000000E+02  0.91188000000E+02 0.  0.
    9900012    2    3    3    0    0 -0.14270128344E+01  0.13211300168E+01  0.36769528457E+02  0.54367082398E+02  0.39999995942E+02 0.  0.
        -12    1    3    3    0    0  0.14270128344E+01 -0.13211300168E+01 -0.36769528457E+02  0.36820917602E+02  0.00000000000E+00 0.  1.
         11    1    4    4    0    0  0.52864505409E+01  0.20424702416E+01  0.25334922071E+02  0.25961057771E+02  0.51100000000E-03 0. -1.
        -11    1    4    4    0    0 -0.15309845057E+02  0.17862707081E+01  0.11849079989E+02  0.19441780154E+02  0.51100000000E-03 0.  1.
         12    1    4    4    0    0  0.85963816815E+01 -0.25076109329E+01 -0.41447360285E+00  0.89642444730E+01  0.00000000000E+00 0. -1.
</event>
<event>
 8    1  0.1271559E-006  0.9118800E+02  0.7816164E-02  0.1184000E+00
        -11   -1    0    0    0    0  0.00000000000E+00  0.00000000000E+00  0.45593999997E+02  0.45594000000E+02  0.51100000000E-03 0.  1.
         11   -1    0    0    0    0 -0.00000000000E+00 -0.00000000000E+00 -0.45593999997E+02  0.45594000000E+02  0.51100000000E-03 0. -1.
         23    2    1    2    0    0  0.00000000000E+00  0.71054273576E-14  0.00000000000E+00  0.91188000000E+02  0.91188000000E+02 0.  0.
    9900012    2    3    3    0    0 -0.12770441843E+02 -0.34487418306E+02  0.18193539871E+01  0.54367132883E+02  0.40000111034E+02 0.  0.
         12    1    3    3    0    0  0.12770441843E+02  0.34487418306E+02 -0.18193539871E+01  0.36820867117E+02  0.00000000000E+00 0. -1.
         11    1    4    4    0    0  0.60334414859E+01 -0.20341534723E+02 -0.43275778381E+01  0.21654292444E+02  0.51100000000E-03 0. -1.
        -11    1    4    4    0    0  0.48847135825E+01 -0.40286758075E+01  0.18654591922E+01  0.66008025121E+01  0.51100000000E-03 0.  1.
        -12    1    4    4    0    0 -0.23688596911E+02 -0.10117207776E+02  0.42814726330E+01  0.26112037928E+02  0.00000000000E+00 0.  1.
</event>
<event>
 8    1  0.1271559E-006  0.9118800E+02  0.7816164E-02  0.1184000E+00
        -11   -1    0    0    0    0  0.00000000000E+00  0.00000000000E+00  0.45593999997E+02  0.45594000000E+02  0.51100000000E-03 0. -1.
         11   -1    0    0    0    0 -0.00000000000E+00 -0.00000000000E+00 -0.45593999997E+02  0.45594000000E+02  0.51100000000E-03 0.  1.
         23    2    1    2    0    0  0.44408920985E-15  0.00000000000E+00 -0.71054273576E-14  0.91188000000E+02  0.91188000000E+02 0.  0.
    9900012    2    3    3    0    0  0.27718220617E+01 -0.17441700973E+02 -0.32309192514E+02  0.54367084051E+02  0.39999999712E+02 0.  0.
         12    1    3    3    0    0 -0.27718220617E+01  0.17441700973E+02  0.32309192514E+02  0.36820915949E+02  0.00000000000E+00 0. -1.
         11    1    4    4    0    0 -0.55130229408E+01 -0.19457068661E+02 -0.22401525092E+01  0.20346725200E+02  0.51100000000E-03 0. -1.
        -11    1    4    4    0    0  0.55584811091E+01 -0.47914668821E+01 -0.84508953232E+01  0.11192519785E+02  0.51100000000E-03 0.  1.
         12    1    4    4    0    0  0.27263638934E+01  0.68068345704E+01 -0.21618144682E+02  0.22827839066E+02  0.00000000000E+00 0. -1.
</event>
<event>
 8    1  0.1271559E-006  0.9118800E+02  0.7816164E-02  0.1184000E+00
        -11   -1    0    0    0    0  0.00000000000E+00  0.00000000000E+00  0.45593999997E+02  0.45594000000E+02  0.51100000000E-03 0.  1.
         11   -1    0    0    0    0 -0.00000000000E+00 -0.00000000000E+00 -0.45593999997E+02  0.45594000000E+02  0.51100000000E-03 0. -1.
         23    2    1    2    0    0 -0.35527136788E-14  0.71054273576E-14  0.17763568394E-14  0.91188000000E+02  0.91188000000E+02 0.  0.
    9900012    2    3    3    0    0  0.20736578199E+02 -0.26970178766E+02 -0.14084941791E+02  0.54367057544E+02  0.39999939284E+02 0.  0.
        -12    1    3    3    0    0 -0.20736578199E+02  0.26970178766E+02  0.14084941791E+02  0.36820942456E+02  0.00000000000E+00 0.  1.
         11    1    4    4    0    0  0.79287403082E+01  0.30293812280E+01 -0.67944379218E+01  0.10872279450E+02  0.51100000000E-03 0. -1.
        -11    1    4    4    0    0 -0.63057449579E+01 -0.10112938158E+01  0.33061489247E+01  0.71913667428E+01  0.51100000000E-03 0.  1.
         12    1    4    4    0    0  0.19113582849E+02 -0.28988266178E+02 -0.10596652794E+02  0.36303411352E+02  0.00000000000E+00 0. -1.
</event>
<event>
 8    1  0.1271559E-006  0.9118800E+02  0.7816164E-02  0.1184000E+00
        -11   -1    0    0    0    0  0.00000000000E+00  0.00000000000E+00  0.45593999997E+02  0.45594000000E+02  0.51100000000E-03 0. -1.
         11   -1    0    0    0    0 -0.00000000000E+00 -0.00000000000E+00 -0.45593999997E+02  0.45594000000E+02  0.51100000000E-03 0.  1.
         23    2    1    2    0    0  0.00000000000E+00  0.00000000000E+00 -0.35527136788E-14  0.91188000000E+02  0.91188000000E+02 0.  0.
    9900012    2    3    3    0    0  0.25582948874E+02 -0.18421043078E+02  0.19025191682E+02  0.54367081764E+02  0.39999994498E+02 0.  0.
        -12    1    3    3    0    0 -0.25582948874E+02  0.18421043078E+02 -0.19025191682E+02  0.36820918236E+02  0.00000000000E+00 0.  1.
         11    1    4    4    0    0  0.26537963314E+02 -0.13797765496E+02  0.11184139097E+02  0.31933161401E+02  0.51100000000E-03 0. -1.
        -11    1    4    4    0    0  0.90563931614E+01 -0.53779891190E+01  0.17118545318E+01  0.10671057598E+02  0.51100000000E-03 0.  1.
        -12    1    4    4    0    0 -0.10011407601E+02  0.75471153670E+00  0.61291980537E+01  0.11762862765E+02  0.00000000000E+00 0.  1.
</event>
<event>
 8    1  0.1271559E-006  0.9118800E+02  0.7816164E-02  0.1184000E+00
        -11   -1    0    0    0    0  0.00000000000E+00  0.00000000000E+00  0.45593999997E+02  0.45594000000E+02  0.51100000000E-03 0.  1.
         11   -1    0    0    0    0 -0.00000000000E+00 -0.00000000000E+00 -0.45593999997E+02  0.45594000000E+02  0.51100000000E-03 0. -1.
         23    2    1    2    0    0  0.00000000000E+00  0.00000000000E+00  0.00000000000E+00  0.91188000000E+02  0.91188000000E+02 0.  0.
    9900012    2    3    3    0    0  0.28628110343E+02 -0.15087886708E+02  0.17566065930E+02  0.54367086114E+02  0.40000004414E+02 0.  0.
         12    1    3    3    0    0 -0.28628110343E+02  0.15087886708E+02 -0.17566065930E+02  0.36820913886E+02  0.00000000000E+00 0. -1.
         11    1    4    4    0    0  0.24246381638E+02 -0.62413629952E+01  0.25022579900E+02  0.35397332380E+02  0.51100000000E-03 0.  1.
        -11    1    4    4    0    0  0.79806266703E+01 -0.58319771059E+00 -0.56018937394E+01  0.97678930864E+01  0.51100000000E-03 0. -1.
        -12    1    4    4    0    0 -0.35988979646E+01 -0.82633260018E+01 -0.18546202299E+01  0.92018606471E+01  0.00000000000E+00 0.  1.
</event>
<event>
 8    1  0.1271559E-006  0.9118800E+02  0.7816164E-02  0.1184000E+00
        -11   -1    0    0    0    0  0.00000000000E+00  0.00000000000E+00  0.45593999997E+02  0.45594000000E+02  0.51100000000E-03 0. -1.
         11   -1    0    0    0    0 -0.00000000000E+00 -0.00000000000E+00 -0.45593999997E+02  0.45594000000E+02  0.51100000000E-03 0.  1.
         23    2    1    2    0    0  0.00000000000E+00 -0.35527136788E-14  0.00000000000E+00  0.91188000000E+02  0.91188000000E+02 0.  0.
    9900012    2    3    3    0    0 -0.10183331123E+02  0.24739116514E+02  0.25299328604E+02  0.54367080044E+02  0.39999990576E+02 0.  0.
        -12    1    3    3    0    0  0.10183331123E+02 -0.24739116514E+02 -0.25299328604E+02  0.36820919956E+02  0.00000000000E+00 0.  1.
         11    1    4    4    0    0 -0.17076337268E+02 -0.71578684485E+00  0.99849303085E+01  0.19794253682E+02  0.51100000000E-03 0. -1.
        -11    1    4    4    0    0  0.10041686867E+01  0.11920157844E+02 -0.16615923132E+01  0.12077226794E+02  0.51100000000E-03 0.  1.
         12    1    4    4    0    0  0.58888374583E+01  0.13534745515E+02  0.16975990608E+02  0.22495599567E+02  0.00000000000E+00 0. -1.
</event>
<event>
 8    1  0.1271559E-006  0.9118800E+02  0.7816164E-02  0.1184000E+00
        -11   -1    0    0    0    0  0.00000000000E+00  0.00000000000E+00  0.45593999997E+02  0.45594000000E+02  0.51100000000E-03 0. -1.
         11   -1    0    0    0    0 -0.00000000000E+00 -0.00000000000E+00 -0.45593999997E+02  0.45594000000E+02  0.51100000000E-03 0.  1.
         23    2    1    2    0    0  0.00000000000E+00 -0.35527136788E-14 -0.17763568394E-14  0.91188000000E+02  0.91188000000E+02 0.  0.
    9900012    2    3    3    0    0 -0.23117148276E+02  0.25895715949E+02 -0.12279556510E+02  0.54367107059E+02  0.40000052162E+02 0.  0.
         12    1    3    3    0    0  0.23117148276E+02 -0.25895715949E+02  0.12279556510E+02  0.36820892941E+02  0.00000000000E+00 0. -1.
         11    1    4    4    0    0 -0.78499175937E-01 -0.26596129279E+00 -0.21955398128E+01  0.22129827972E+01  0.51100000000E-03 0. -1.
        -11    1    4    4    0    0 -0.18559993616E+02  0.11403034061E+01 -0.17645051949E+02  0.25634381471E+02  0.51100000000E-03 0.  1.
         12    1    4    4    0    0 -0.44786554845E+01  0.25021373836E+02  0.75610352522E+01  0.26519742790E+02  0.00000000000E+00 0. -1.
</event>
<event>
 8    1  0.1271559E-006  0.9118800E+02  0.7816164E-02  0.1184000E+00
        -11   -1    0    0    0    0  0.00000000000E+00  0.00000000000E+00  0.45593999997E+02  0.45594000000E+02  0.51100000000E-03 0.  1.
         11   -1    0    0    0    0 -0.00000000000E+00 -0.00000000000E+00 -0.45593999997E+02  0.45594000000E+02  0.51100000000E-03 0. -1.
         23    2    1    2    0    0 -0.35527136788E-14  0.35527136788E-14 -0.35527136788E-14  0.91188000000E+02  0.91188000000E+02 0.  0.
    9900012    2    3    3    0    0  0.16735198472E+02 -0.18131866411E+02  0.27330352999E+02  0.54367086887E+02  0.40000006176E+02 0.  0.
         12    1    3    3    0    0 -0.16735198472E+02  0.18131866411E+02 -0.27330352999E+02  0.36820913113E+02  0.00000000000E+00 0. -1.
         11    1    4    4    0    0  0.55792898399E+01 -0.13507579834E+02  0.19054520855E+02  0.24013703449E+02  0.51100000000E-03 0. -1.
        -11    1    4    4    0    0  0.45722393092E+01 -0.85835071851E+01  0.16466269227E+02  0.19123806902E+02  0.51100000000E-03 0.  1.
         12    1    4    4    0    0  0.65836693225E+01  0.39592206077E+01 -0.81904370829E+01  0.11229576536E+02  0.00000000000E+00 0. -1.
</event>
<event>
 8    1  0.1271559E-006  0.9118800E+02  0.7816164E-02  0.1184000E+00
        -11   -1    0    0    0    0  0.00000000000E+00  0.00000000000E+00  0.45593999997E+02  0.45594000000E+02  0.51100000000E-03 0. -1.
         11   -1    0    0    0    0 -0.00000000000E+00 -0.00000000000E+00 -0.45593999997E+02  0.45594000000E+02  0.51100000000E-03 0.  1.
         23    2    1    2    0    0  0.00000000000E+00  0.22204460493E-14  0.71054273576E-14  0.91188000000E+02  0.91188000000E+02 0.  0.
    9900012    2    3    3    0    0  0.81099406688E+00 -0.31733566152E+01 -0.36674859913E+02  0.54367173649E+02  0.40000203966E+02 0.  0.
         12    1    3    3    0    0 -0.81099406688E+00  0.31733566152E+01  0.36674859913E+02  0.36820826351E+02  0.00000000000E+00 0. -1.
         11    1    4    4    0    0 -0.17602101695E+01 -0.12723551933E+02 -0.75741522923E+01  0.14911569228E+02  0.51100000000E-03 0. -1.
        -11    1    4    4    0    0  0.34813348402E+01 -0.69470425121E+01 -0.25397055045E+01  0.81750349385E+01  0.51100000000E-03 0.  1.
        -12    1    4    4    0    0 -0.91013060379E+00  0.16497237830E+02 -0.26561002116E+02  0.31280569482E+02  0.00000000000E+00 0.  1.
</event>
<event>
 8    1  0.1271559E-006  0.9118800E+02  0.7816164E-02  0.1184000E+00
        -11   -1    0    0    0    0  0.00000000000E+00  0.00000000000E+00  0.45593999997E+02  0.45594000000E+02  0.51100000000E-03 0. -1.
         11   -1    0    0    0    0 -0.00000000000E+00 -0.00000000000E+00 -0.45593999997E+02  0.45594000000E+02  0.51100000000E-03 0.  1.
         23    2    1    2    0    0  0.35527136788E-14  0.13322676296E-14  0.00000000000E+00  0.91188000000E+02  0.91188000000E+02 0.  0.
    9900012    2    3    3    0    0  0.24505915020E+02  0.31721692746E+01 -0.27297958881E+02  0.54367067259E+02  0.39999961429E+02 0.  0.
         12    1    3    3    0    0 -0.24505915020E+02 -0.31721692746E+01  0.27297958881E+02  0.36820932741E+02  0.00000000000E+00 0. -1.
         11    1    4    4    0    0 -0.39208637616E+01 -0.34272793233E+01 -0.17352072605E+02  0.18116672988E+02  0.51100000000E-03 0.  1.
        -11    1    4    4    0    0 -0.13264529933E+01  0.27270019239E+01 -0.49907133856E+01  0.58397977187E+01  0.51100000000E-03 0. -1.
         12    1    4    4    0    0  0.29753231775E+02  0.38724466740E+01 -0.49551728908E+01  0.30410596552E+02  0.00000000000E+00 0. -1.
</event>
<event>
 8    1  0.1271559E-006  0.9118800E+02  0.7816164E-02  0.1184000E+00
        -11   -1    0    0    0    0  0.00000000000E+00  0.00000000000E+00  0.45593999997E+02  0.45594000000E+02  0.51100000000E-03 0.  1.
         11   -1    0    0    0    0 -0.00000000000E+00 -0.00000000000E+00 -0.45593999997E+02  0.45594000000E+02  0.51100000000E-03 0. -1.
         23    2    1    2    0    0  0.88817841970E-15  0.00000000000E+00  0.00000000000E+00  0.91188000000E+02  0.91188000000E+02 0.  0.
    9900012    2    3    3    0    0  0.63873568800E+01  0.13063875402E+02  0.33827744770E+02  0.54367089030E+02  0.40000011062E+02 0.  0.
         12    1    3    3    0    0 -0.63873568800E+01 -0.13063875402E+02 -0.33827744770E+02  0.36820910970E+02  0.00000000000E+00 0. -1.
         11    1    4    4    0    0 -0.65021724796E+01  0.64572261846E+01  0.19533268878E+02  0.21575972985E+02  0.51100000000E-03 0. -1.
        -11    1    4    4    0    0  0.10236425585E+02 -0.89613915321E+01  0.51828493947E+01  0.14558601412E+02  0.51100000000E-03 0.  1.
         12    1    4    4    0    0  0.26531037742E+01  0.15568040750E+02  0.91116264970E+01  0.18232514633E+02  0.00000000000E+00 0. -1.
</event>
<event>
 8    1  0.1271559E-006  0.9118800E+02  0.7816164E-02  0.1184000E+00
        -11   -1    0    0    0    0  0.00000000000E+00  0.00000000000E+00  0.45593999997E+02  0.45594000000E+02  0.51100000000E-03 0. -1.
         11   -1    0    0    0    0 -0.00000000000E+00 -0.00000000000E+00 -0.45593999997E+02  0.45594000000E+02  0.51100000000E-03 0.  1.
         23    2    1    2    0    0  0.88817841970E-15  0.13322676296E-14  0.71054273576E-14  0.91188000000E+02  0.91188000000E+02 0.  0.
    9900012    2    3    3    0    0  0.24386665917E+01  0.34917216498E+01  0.36573781251E+02  0.54367072665E+02  0.39999973755E+02 0.  0.
        -12    1    3    3    0    0 -0.24386665917E+01 -0.34917216498E+01 -0.36573781251E+02  0.36820927335E+02  0.00000000000E+00 0.  1.
         11    1    4    4    0    0 -0.12624973181E+02  0.55211072057E+01  0.29044154982E+02  0.32147091805E+02  0.51100000000E-03 0. -1.
        -11    1    4    4    0    0  0.30761521770E+01 -0.49368691127E+01  0.79820231471E+01  0.98766432878E+01  0.51100000000E-03 0.  1.
        -12    1    4    4    0    0  0.11987487596E+02  0.29074835568E+01 -0.45239687864E+00  0.12343337573E+02  0.00000000000E+00 0.  1.
</event>
<event>
 8    1  0.1271559E-006  0.9118800E+02  0.7816164E-02  0.1184000E+00
        -11   -1    0    0    0    0  0.00000000000E+00  0.00000000000E+00  0.45593999997E+02  0.45594000000E+02  0.51100000000E-03 0.  1.
         11   -1    0    0    0    0 -0.00000000000E+00 -0.00000000000E+00 -0.45593999997E+02  0.45594000000E+02  0.51100000000E-03 0. -1.
         23    2    1    2    0    0  0.88817841970E-15  0.00000000000E+00  0.17763568394E-14  0.91188000000E+02  0.91188000000E+02 0.  0.
    9900012    2    3    3    0    0  0.29607964784E+01 -0.34250435399E+02  0.13187942703E+02  0.54367075601E+02  0.39999980448E+02 0.  0.
         12    1    3    3    0    0 -0.29607964784E+01  0.34250435399E+02 -0.13187942703E+02  0.36820924399E+02  0.00000000000E+00 0. -1.
         11    1    4    4    0    0 -0.10101106470E+02 -0.93957284499E+01  0.43738404121E+01  0.14472129948E+02  0.51100000000E-03 0. -1.
        -11    1    4    4    0    0 -0.66647235829E+01 -0.73306366987E+01 -0.38472753615E+01  0.10628184361E+02  0.51100000000E-03 0.  1.
         12    1    4    4    0    0  0.19726626531E+02 -0.17524070251E+02  0.12661377653E+02  0.29266761292E+02  0.00000000000E+00 0. -1.
</event>
<event>
 8    1  0.1271559E-006  0.9118800E+02  0.7816164E-02  0.1184000E+00
        -11   -1    0    0    0    0  0.00000000000E+00  0.00000000000E+00  0.45593999997E+02  0.45594000000E+02  0.51100000000E-03 0.  1.
         11   -1    0    0    0    0 -0.00000000000E+00 -0.00000000000E+00 -0.45593999997E+02  0.45594000000E+02  0.51100000000E-03 0. -1.
         23    2    1    2    0    0 -0.71054273576E-14  0.00000000000E+00  0.00000000000E+00  0.91188000000E+02  0.91188000000E+02 0.  0.
    9900012    2    3    3    0    0 -0.31882829380E+02  0.32434371771E+01 -0.18131280026E+02  0.54367109063E+02  0.40000056731E+02 0.  0.
        -12    1    3    3    0    0  0.31882829380E+02 -0.32434371771E+01  0.18131280026E+02  0.36820890937E+02  0.00000000000E+00 0.  1.
         11    1    4    4    0    0 -0.87123489651E+01  0.63532283174E-01 -0.43921081503E+01  0.97570320849E+01  0.51100000000E-03 0. -1.
        -11    1    4    4    0    0  0.38302544296E+01  0.46258729066E+01  0.79381612219E+01  0.99540922735E+01  0.51100000000E-03 0.  1.
        -12    1    4    4    0    0 -0.27000734844E+02 -0.14459680127E+01 -0.21677333098E+02  0.34655984705E+02  0.00000000000E+00 0.  1.
</event>
<event>
 8    1  0.1271559E-006  0.9118800E+02  0.7816164E-02  0.1184000E+00
        -11   -1    0    0    0    0  0.00000000000E+00  0.00000000000E+00  0.45593999997E+02  0.45594000000E+02  0.51100000000E-03 0.  1.
         11   -1    0    0    0    0 -0.00000000000E+00 -0.00000000000E+00 -0.45593999997E+02  0.45594000000E+02  0.51100000000E-03 0. -1.
         23    2    1    2    0    0 -0.17763568394E-14  0.00000000000E+00  0.00000000000E+00  0.91188000000E+02  0.91188000000E+02 0.  0.
    9900012    2    3    3    0    0 -0.75253559012E+01  0.33772547154E+02  0.12592296247E+02  0.54367056944E+02  0.39999937916E+02 0.  0.
        -12    1    3    3    0    0  0.75253559012E+01 -0.33772547154E+02 -0.12592296247E+02  0.36820943056E+02  0.00000000000E+00 0.  1.
         11    1    4    4    0    0  0.22953352948E+01  0.12536888115E+02 -0.11341850356E+02  0.17061057924E+02  0.51100000000E-03 0. -1.
        -11    1    4    4    0    0 -0.76159983375E-01  0.17608336179E+01 -0.24989061960E+01  0.30579188692E+01  0.51100000000E-03 0.  1.
        -12    1    4    4    0    0 -0.97445312126E+01  0.19474825421E+02  0.26433052799E+02  0.34248080151E+02  0.00000000000E+00 0.  1.
</event>
<event>
 8    1  0.1271559E-006  0.9118800E+02  0.7816164E-02  0.1184000E+00
        -11   -1    0    0    0    0  0.00000000000E+00  0.00000000000E+00  0.45593999997E+02  0.45594000000E+02  0.51100000000E-03 0.  1.
         11   -1    0    0    0    0 -0.00000000000E+00 -0.00000000000E+00 -0.45593999997E+02  0.45594000000E+02  0.51100000000E-03 0. -1.
         23    2    1    2    0    0  0.00000000000E+00  0.00000000000E+00  0.00000000000E+00  0.91188000000E+02  0.91188000000E+02 0.  0.
    9900012    2    3    3    0    0  0.14510693554E+02  0.21323866756E+02 -0.26277595904E+02  0.54367087907E+02  0.40000008502E+02 0.  0.
        -12    1    3    3    0    0 -0.14510693554E+02 -0.21323866756E+02  0.26277595904E+02  0.36820912093E+02  0.00000000000E+00 0.  1.
         11    1    4    4    0    0  0.40177487220E+01 -0.51393592635E+01 -0.15985225055E+02  0.17265072799E+02  0.51100000000E-03 0. -1.
        -11    1    4    4    0    0  0.14761671185E+02  0.27070028310E+02 -0.10991880928E+02  0.32734000909E+02  0.51100000000E-03 0.  1.
        -12    1    4    4    0    0 -0.42687263530E+01 -0.60680229049E+00  0.69951007934E+00  0.43680141996E+01  0.00000000000E+00 0.  1.
</event>
<event>
 8    1  0.1271559E-006  0.9118800E+02  0.7816164E-02  0.1184000E+00
        -11   -1    0    0    0    0  0.00000000000E+00  0.00000000000E+00  0.45593999997E+02  0.45594000000E+02  0.51100000000E-03 0.  1.
         11   -1    0    0    0    0 -0.00000000000E+00 -0.00000000000E+00 -0.45593999997E+02  0.45594000000E+02  0.51100000000E-03 0. -1.
         23    2    1    2    0    0 -0.88817841970E-15  0.00000000000E+00 -0.17763568394E-14  0.91188000000E+02  0.91188000000E+02 0.  0.
    9900012    2    3    3    0    0  0.27297563290E+01 -0.33937606103E+02  0.14020231853E+02  0.54367087751E+02  0.40000008146E+02 0.  0.
         12    1    3    3    0    0 -0.27297563290E+01  0.33937606103E+02 -0.14020231853E+02  0.36820912249E+02  0.00000000000E+00 0. -1.
         11    1    4    4    0    0 -0.76881360278E+01 -0.17504067584E+02 -0.89706807498E+01  0.21118071193E+02  0.51100000000E-03 0. -1.
        -11    1    4    4    0    0  0.90343797004E+01 -0.92191092191E+01  0.50465677241E+01  0.13859287046E+02  0.51100000000E-03 0.  1.
         12    1    4    4    0    0  0.13835126564E+01 -0.72144293006E+01  0.17944344879E+02  0.19389729512E+02  0.00000000000E+00 0. -1.
</event>
<event>
 8    1  0.1271559E-006  0.9118800E+02  0.7816164E-02  0.1184000E+00
        -11   -1    0    0    0    0  0.00000000000E+00  0.00000000000E+00  0.45593999997E+02  0.45594000000E+02  0.51100000000E-03 0.  1.
         11   -1    0    0    0    0 -0.00000000000E+00 -0.00000000000E+00 -0.45593999997E+02  0.45594000000E+02  0.51100000000E-03 0. -1.
         23    2    1    2    0    0  0.00000000000E+00  0.00000000000E+00  0.00000000000E+00  0.91188000000E+02  0.91188000000E+02 0.  0.
    9900012    2    3    3    0    0 -0.11248431541E+02  0.13622774520E+02  0.32305918528E+02  0.54367087875E+02  0.40000008430E+02 0.  0.
         12    1    3    3    0    0  0.11248431541E+02 -0.13622774520E+02 -0.32305918528E+02  0.36820912125E+02  0.00000000000E+00 0. -1.
         11    1    4    4    0    0 -0.76378241662E+01  0.12745970485E+02  0.23258502395E+02  0.27599892310E+02  0.51100000000E-03 0. -1.
        -11    1    4    4    0    0 -0.93673208633E+01  0.81871862320E+01  0.11713875361E+02  0.17087761550E+02  0.51100000000E-03 0.  1.
         12    1    4    4    0    0  0.57567134887E+01 -0.73103821968E+01 -0.26664592279E+01  0.96794340159E+01  0.00000000000E+00 0. -1.
</event>
<event>
 8    1  0.1271559E-006  0.9118800E+02  0.7816164E-02  0.1184000E+00
        -11   -1    0    0    0    0  0.00000000000E+00  0.00000000000E+00  0.45593999997E+02  0.45594000000E+02  0.51100000000E-03 0. -1.
         11   -1    0    0    0    0 -0.00000000000E+00 -0.00000000000E+00 -0.45593999997E+02  0.45594000000E+02  0.51100000000E-03 0.  1.
         23    2    1    2    0    0  0.35527136788E-14  0.00000000000E+00  0.00000000000E+00  0.91188000000E+02  0.91188000000E+02 0.  0.
    9900012    2    3    3    0    0 -0.16890649045E+02  0.28130333126E+02 -0.16708379150E+02  0.54367087453E+02  0.40000007467E+02 0.  0.
         12    1    3    3    0    0  0.16890649045E+02 -0.28130333126E+02  0.16708379150E+02  0.36820912547E+02  0.00000000000E+00 0. -1.
         11    1    4    4    0    0 -0.72314232048E+01 -0.57668519089E+01 -0.25761309397E+01  0.96013808062E+01  0.51100000000E-03 0. -1.
        -11    1    4    4    0    0 -0.17099460346E+01  0.33870715096E+02 -0.83237880974E+01  0.34920405282E+02  0.51100000000E-03 0.  1.
        -12    1    4    4    0    0 -0.79492798053E+01  0.26469939476E-01 -0.58084601128E+01  0.98453013648E+01  0.00000000000E+00 0.  1.
</event>
<event>
 8    1  0.1271559E-006  0.9118800E+02  0.7816164E-02  0.1184000E+00
        -11   -1    0    0    0    0  0.00000000000E+00  0.00000000000E+00  0.45593999997E+02  0.45594000000E+02  0.51100000000E-03 0.  1.
         11   -1    0    0    0    0 -0.00000000000E+00 -0.00000000000E+00 -0.45593999997E+02  0.45594000000E+02  0.51100000000E-03 0. -1.
         23    2    1    2    0    0 -0.35527136788E-14  0.88817841970E-15  0.00000000000E+00  0.91188000000E+02  0.91188000000E+02 0.  0.
    9900012    2    3    3    0    0  0.25401897160E+02 -0.51461538971E+01 -0.26154165678E+02  0.54367086628E+02  0.40000005585E+02 0.  0.
        -12    1    3    3    0    0 -0.25401897160E+02  0.51461538971E+01  0.26154165678E+02  0.36820913372E+02  0.00000000000E+00 0.  1.
         11    1    4    4    0    0  0.88141268694E+01 -0.15360290000E+02 -0.61091607821E+01  0.18733637849E+02  0.51100000000E-03 0. -1.
        -11    1    4    4    0    0  0.56002368652E+01  0.10385489375E+02 -0.21523552251E+02  0.24545556508E+02  0.51100000000E-03 0.  1.
         12    1    4    4    0    0  0.10987533426E+02 -0.17135327190E+00  0.14785473553E+01  0.11087892271E+02  0.00000000000E+00 0. -1.
</event>
<event>
 8    1  0.1271559E-006  0.9118800E+02  0.7816164E-02  0.1184000E+00
        -11   -1    0    0    0    0  0.00000000000E+00  0.00000000000E+00  0.45593999997E+02  0.45594000000E+02  0.51100000000E-03 0.  1.
         11   -1    0    0    0    0 -0.00000000000E+00 -0.00000000000E+00 -0.45593999997E+02  0.45594000000E+02  0.51100000000E-03 0. -1.
         23    2    1    2    0    0  0.00000000000E+00 -0.13322676296E-14  0.00000000000E+00  0.91188000000E+02  0.91188000000E+02 0.  0.
    9900012    2    3    3    0    0  0.36319706519E+02  0.21858573896E+01 -0.56457549905E+01  0.54367168891E+02  0.40000193119E+02 0.  0.
        -12    1    3    3    0    0 -0.36319706519E+02 -0.21858573896E+01  0.56457549905E+01  0.36820831109E+02  0.00000000000E+00 0.  1.
         11    1    4    4    0    0  0.11821957725E+02 -0.14402528353E+02  0.14087469474E+01  0.18686253654E+02  0.51100000000E-03 0. -1.
        -11    1    4    4    0    0  0.56151331632E+01  0.10794446652E+02  0.42919014368E+01  0.12902333788E+02  0.51100000000E-03 0.  1.
         12    1    4    4    0    0  0.18882615631E+02  0.57939390902E+01 -0.11346403375E+02  0.22778581448E+02  0.00000000000E+00 0. -1.
</event>
<event>
 8    1  0.1271559E-006  0.9118800E+02  0.7816164E-02  0.1184000E+00
        -11   -1    0    0    0    0  0.00000000000E+00  0.00000000000E+00  0.45593999997E+02  0.45594000000E+02  0.51100000000E-03 0. -1.
         11   -1    0    0    0    0 -0.00000000000E+00 -0.00000000000E+00 -0.45593999997E+02  0.45594000000E+02  0.51100000000E-03 0.  1.
         23    2    1    2    0    0 -0.13322676296E-14  0.00000000000E+00  0.55511151231E-15  0.91188000000E+02  0.91188000000E+02 0.  0.
    9900012    2    3    3    0    0  0.29417844586E+01 -0.36693174045E+02  0.85710074576E+00  0.54367112735E+02  0.40000065103E+02 0.  0.
        -12    1    3    3    0    0 -0.29417844586E+01  0.36693174045E+02 -0.85710074576E+00  0.36820887265E+02  0.00000000000E+00 0.  1.
         11    1    4    4    0    0  0.14381666268E+02 -0.28999194717E+02  0.43513223424E+01  0.32660673987E+02  0.51100000000E-03 0. -1.
        -11    1    4    4    0    0  0.37915504326E+01 -0.40114504144E+01 -0.23350950023E+01  0.59933511528E+01  0.51100000000E-03 0.  1.
        -12    1    4    4    0    0 -0.15231432242E+02 -0.36825289131E+01 -0.11591265943E+01  0.15713087596E+02  0.00000000000E+00 0.  1.
</event>
<event>
 8    1  0.1271559E-006  0.9118800E+02  0.7816164E-02  0.1184000E+00
        -11   -1    0    0    0    0  0.00000000000E+00  0.00000000000E+00  0.45593999997E+02  0.45594000000E+02  0.51100000000E-03 0.  1.
         11   -1    0    0    0    0 -0.00000000000E+00 -0.00000000000E+00 -0.45593999997E+02  0.45594000000E+02  0.51100000000E-03 0. -1.
         23    2    1    2    0    0  0.00000000000E+00  0.35527136788E-14 -0.17763568394E-14  0.91188000000E+02  0.91188000000E+02 0.  0.
    9900012    2    3    3    0    0 -0.10133671456E+02 -0.31998724235E+02  0.15138369308E+02  0.54367083728E+02  0.39999998975E+02 0.  0.
         12    1    3    3    0    0  0.10133671456E+02  0.31998724235E+02 -0.15138369308E+02  0.36820916272E+02  0.00000000000E+00 0. -1.
         11    1    4    4    0    0  0.97810949542E+01 -0.17902746835E+02  0.37380507611E+01  0.20740086463E+02  0.51100000000E-03 0. -1.
        -11    1    4    4    0    0 -0.19333203798E+02 -0.18467097250E+02  0.75721024220E+01  0.27787464535E+02  0.51100000000E-03 0.  1.
        -12    1    4    4    0    0 -0.58156261192E+00  0.43711198499E+01  0.38282161245E+01  0.58395327305E+01  0.00000000000E+00 0.  1.
</event>
<event>
 8    1  0.1271559E-006  0.9118800E+02  0.7816164E-02  0.1184000E+00
        -11   -1    0    0    0    0  0.00000000000E+00  0.00000000000E+00  0.45593999997E+02  0.45594000000E+02  0.51100000000E-03 0.  1.
         11   -1    0    0    0    0 -0.00000000000E+00 -0.00000000000E+00 -0.45593999997E+02  0.45594000000E+02  0.51100000000E-03 0. -1.
         23    2    1    2    0    0 -0.66613381478E-15 -0.71054273576E-14  0.71054273576E-14  0.91188000000E+02  0.91188000000E+02 0.  0.
    9900012    2    3    3    0    0  0.18754078508E+01  0.28047326684E+02 -0.23782464501E+02  0.54367145767E+02  0.40000140404E+02 0.  0.
        -12    1    3    3    0    0 -0.18754078508E+01 -0.28047326684E+02  0.23782464501E+02  0.36820854233E+02  0.00000000000E+00 0.  1.
         11    1    4    4    0    0 -0.59381319153E+01  0.14374410239E+01 -0.41914518172E+01  0.74091778179E+01  0.51100000000E-03 0. -1.
        -11    1    4    4    0    0 -0.52092865669E+01  0.13051662361E+02  0.59363015499E+01  0.15255236257E+02  0.51100000000E-03 0.  1.
         12    1    4    4    0    0  0.13022826333E+02  0.13558223300E+02 -0.25527314233E+02  0.31702731692E+02  0.00000000000E+00 0. -1.
</event>
<event>
 8    1  0.1271559E-006  0.9118800E+02  0.7816164E-02  0.1184000E+00
        -11   -1    0    0    0    0  0.00000000000E+00  0.00000000000E+00  0.45593999997E+02  0.45594000000E+02  0.51100000000E-03 0. -1.
         11   -1    0    0    0    0 -0.00000000000E+00 -0.00000000000E+00 -0.45593999997E+02  0.45594000000E+02  0.51100000000E-03 0.  1.
         23    2    1    2    0    0  0.00000000000E+00  0.35527136788E-14  0.00000000000E+00  0.91188000000E+02  0.91188000000E+02 0.  0.
    9900012    2    3    3    0    0  0.18104723805E+02 -0.26169467490E+02 -0.18524538643E+02  0.54367074092E+02  0.39999977007E+02 0.  0.
         12    1    3    3    0    0 -0.18104723805E+02  0.26169467490E+02  0.18524538643E+02  0.36820925908E+02  0.00000000000E+00 0. -1.
         11    1    4    4    0    0 -0.33342311706E+01 -0.97214061169E+01  0.62384075454E+01  0.12022502375E+02  0.51100000000E-03 0. -1.
        -11    1    4    4    0    0  0.80809019913E+00  0.41718602846E+01 -0.70120880830E+01  0.81991955427E+01  0.51100000000E-03 0.  1.
         12    1    4    4    0    0  0.20630864776E+02 -0.20619921658E+02 -0.17750858105E+02  0.34145376174E+02  0.00000000000E+00 0. -1.
</event>
<event>
 8    1  0.1271559E-006  0.9118800E+02  0.7816164E-02  0.1184000E+00
        -11   -1    0    0    0    0  0.00000000000E+00  0.00000000000E+00  0.45593999997E+02  0.45594000000E+02  0.51100000000E-03 0.  1.
         11   -1    0    0    0    0 -0.00000000000E+00 -0.00000000000E+00 -0.45593999997E+02  0.45594000000E+02  0.51100000000E-03 0. -1.
         23    2    1    2    0    0  0.17763568394E-14  0.88817841970E-15 -0.71054273576E-14  0.91188000000E+02  0.91188000000E+02 0.  0.
    9900012    2    3    3    0    0 -0.10837460214E+02 -0.51831679419E+01  0.34806093580E+02  0.54367083063E+02  0.39999997459E+02 0.  0.
         12    1    3    3    0    0  0.10837460214E+02  0.51831679419E+01 -0.34806093580E+02  0.36820916937E+02  0.00000000000E+00 0. -1.
         11    1    4    4    0    0 -0.19295839759E+02 -0.30861852925E+01  0.90278444722E+01  0.21525704350E+02  0.51100000000E-03 0. -1.
        -11    1    4    4    0    0 -0.51867036110E+01 -0.40247291060E+01  0.85476621259E+01  0.10777887864E+02  0.51100000000E-03 0.  1.
         12    1    4    4    0    0  0.13645083156E+02  0.19277464566E+01  0.17230586982E+02  0.22063490849E+02  0.00000000000E+00 0. -1.
</event>
<event>
 8    1  0.1271559E-006  0.9118800E+02  0.7816164E-02  0.1184000E+00
        -11   -1    0    0    0    0  0.00000000000E+00  0.00000000000E+00  0.45593999997E+02  0.45594000000E+02  0.51100000000E-03 0.  1.
         11   -1    0    0    0    0 -0.00000000000E+00 -0.00000000000E+00 -0.45593999997E+02  0.45594000000E+02  0.51100000000E-03 0. -1.
         23    2    1    2    0    0  0.00000000000E+00  0.88817841970E-15  0.35527136788E-14  0.91188000000E+02  0.91188000000E+02 0.  0.
    9900012    2    3    3    0    0 -0.32816096841E+02  0.24705796216E+01 -0.16516092810E+02  0.54367064417E+02  0.39999954951E+02 0.  0.
        -12    1    3    3    0    0  0.32816096841E+02 -0.24705796216E+01  0.16516092810E+02  0.36820935583E+02  0.00000000000E+00 0.  1.
         11    1    4    4    0    0 -0.12662076916E+01  0.32430021073E+01 -0.12807267875E+02  0.13272017755E+02  0.51100000000E-03 0. -1.
        -11    1    4    4    0    0 -0.26973138146E+02 -0.67546326803E+01  0.63566481704E+01  0.28523362710E+02  0.51100000000E-03 0.  1.
        -12    1    4    4    0    0 -0.45767510032E+01  0.59822101946E+01 -0.10065473105E+02  0.12571683952E+02  0.00000000000E+00 0.  1.
</event>
<event>
 8    1  0.1271559E-006  0.9118800E+02  0.7816164E-02  0.1184000E+00
        -11   -1    0    0    0    0  0.00000000000E+00  0.00000000000E+00  0.45593999997E+02  0.45594000000E+02  0.51100000000E-03 0.  1.
         11   -1    0    0    0    0 -0.00000000000E+00 -0.00000000000E+00 -0.45593999997E+02  0.45594000000E+02  0.51100000000E-03 0. -1.
         23    2    1    2    0    0  0.00000000000E+00  0.00000000000E+00  0.00000000000E+00  0.91188000000E+02  0.91188000000E+02 0.  0.
    9900012    2    3    3    0    0 -0.61655564537E+01  0.35398299605E+02 -0.80452022845E+01  0.54367095868E+02  0.40000026651E+02 0.  0.
        -12    1    3    3    0    0  0.61655564537E+01 -0.35398299605E+02  0.80452022845E+01  0.36820904132E+02  0.00000000000E+00 0.  1.
         11    1    4    4    0    0  0.11339696814E+01  0.11888950907E+02 -0.12748479392E+02  0.17468736874E+02  0.51100000000E-03 0. -1.
        -11    1    4    4    0    0 -0.21577380418E+00 -0.59398209313E+01 -0.11363974501E+01  0.60513990495E+01  0.51100000000E-03 0.  1.
         12    1    4    4    0    0 -0.70837523309E+01  0.29449169629E+02  0.58396745571E+01  0.30846959945E+02  0.00000000000E+00 0. -1.
</event>
<event>
 8    1  0.1271559E-006  0.9118800E+02  0.7816164E-02  0.1184000E+00
        -11   -1    0    0    0    0  0.00000000000E+00  0.00000000000E+00  0.45593999997E+02  0.45594000000E+02  0.51100000000E-03 0. -1.
         11   -1    0    0    0    0 -0.00000000000E+00 -0.00000000000E+00 -0.45593999997E+02  0.45594000000E+02  0.51100000000E-03 0.  1.
         23    2    1    2    0    0  0.00000000000E+00  0.00000000000E+00  0.00000000000E+00  0.91188000000E+02  0.91188000000E+02 0.  0.
    9900012    2    3    3    0    0 -0.18121621279E+02  0.29540070087E+02 -0.12440719153E+02  0.54367076715E+02  0.39999982987E+02 0.  0.
        -12    1    3    3    0    0  0.18121621279E+02 -0.29540070087E+02  0.12440719153E+02  0.36820923285E+02  0.00000000000E+00 0.  1.
         11    1    4    4    0    0  0.85978637071E+01  0.14584244279E+02 -0.14298060581E+02  0.22159828026E+02  0.51100000000E-03 0. -1.
        -11    1    4    4    0    0 -0.26583851260E+02  0.16038066237E+02  0.19772541514E+01  0.31109970277E+02  0.51100000000E-03 0.  1.
        -12    1    4    4    0    0 -0.13563372602E+00 -0.10822404279E+01 -0.11991272376E+00  0.10972784117E+01  0.00000000000E+00 0.  1.
</event>
<event>
 8    1  0.1271559E-006  0.9118800E+02  0.7816164E-02  0.1184000E+00
        -11   -1    0    0    0    0  0.00000000000E+00  0.00000000000E+00  0.45593999997E+02  0.45594000000E+02  0.51100000000E-03 0. -1.
         11   -1    0    0    0    0 -0.00000000000E+00 -0.00000000000E+00 -0.45593999997E+02  0.45594000000E+02  0.51100000000E-03 0.  1.
         23    2    1    2    0    0  0.88817841970E-15  0.00000000000E+00  0.00000000000E+00  0.91188000000E+02  0.91188000000E+02 0.  0.
    9900012    2    3    3    0    0  0.38849073728E+01 -0.10540070423E+02 -0.35065644655E+02  0.54367013798E+02  0.39999839555E+02 0.  0.
         12    1    3    3    0    0 -0.38849073728E+01  0.10540070423E+02  0.35065644655E+02  0.36820986202E+02  0.00000000000E+00 0. -1.
         11    1    4    4    0    0  0.10563732974E+01 -0.13239989764E+02  0.55652838485E+00  0.13293719479E+02  0.51100000000E-03 0. -1.
        -11    1    4    4    0    0 -0.75968314389E+01 -0.31267380948E+01 -0.17990526262E+02  0.19777446106E+02  0.51100000000E-03 0.  1.
         12    1    4    4    0    0  0.10425365514E+02  0.58266574360E+01 -0.17631646778E+02  0.21295848212E+02  0.00000000000E+00 0. -1.
</event>
<event>
 8    1  0.1271559E-006  0.9118800E+02  0.7816164E-02  0.1184000E+00
        -11   -1    0    0    0    0  0.00000000000E+00  0.00000000000E+00  0.45593999997E+02  0.45594000000E+02  0.51100000000E-03 0. -1.
         11   -1    0    0    0    0 -0.00000000000E+00 -0.00000000000E+00 -0.45593999997E+02  0.45594000000E+02  0.51100000000E-03 0.  1.
         23    2    1    2    0    0 -0.35527136788E-14  0.00000000000E+00  0.00000000000E+00  0.91188000000E+02  0.91188000000E+02 0.  0.
    9900012    2    3    3    0    0  0.27050253526E+02 -0.49285525076E+01 -0.24490081758E+02  0.54367204922E+02  0.40000275259E+02 0.  0.
         12    1    3    3    0    0 -0.27050253526E+02  0.49285525076E+01  0.24490081758E+02  0.36820795078E+02  0.00000000000E+00 0. -1.
         11    1    4    4    0    0 -0.58201635378E+01 -0.54801506806E+01 -0.25632134809E+01  0.83950234483E+01  0.51100000000E-03 0. -1.
        -11    1    4    4    0    0  0.33472152774E+01  0.90384387422E+01 -0.62157490560E+01  0.11468773326E+02  0.51100000000E-03 0.  1.
         12    1    4    4    0    0  0.29523201787E+02 -0.84868405693E+01 -0.15711119222E+02  0.34503408147E+02  0.00000000000E+00 0. -1.
</event>
<event>
 8    1  0.1271559E-006  0.9118800E+02  0.7816164E-02  0.1184000E+00
        -11   -1    0    0    0    0  0.00000000000E+00  0.00000000000E+00  0.45593999997E+02  0.45594000000E+02  0.51100000000E-03 0. -1.
         11   -1    0    0    0    0 -0.00000000000E+00 -0.00000000000E+00 -0.45593999997E+02  0.45594000000E+02  0.51100000000E-03 0.  1.
         23    2    1    2    0    0  0.00000000000E+00  0.00000000000E+00 -0.44408920985E-15  0.91188000000E+02  0.91188000000E+02 0.  0.
    9900012    2    3    3    0    0 -0.29592177419E+02 -0.21710700526E+02  0.29543435713E+01  0.54367087088E+02  0.40000006635E+02 0.  0.
         12    1    3    3    0    0  0.29592177419E+02  0.21710700526E+02 -0.29543435713E+01  0.36820912912E+02  0.00000000000E+00 0. -1.
         11    1    4    4    0    0  0.56622028531E+01  0.16351056142E+01 -0.22478883252E+01  0.63077027278E+01  0.51100000000E-03 0. -1.
        -11    1    4    4    0    0 -0.19858167274E+02 -0.24246865714E+02  0.80911995602E+01  0.32368577587E+02  0.51100000000E-03 0.  1.
        -12    1    4    4    0    0 -0.15396212998E+02  0.90105957327E+00 -0.28889676636E+01  0.15690806773E+02  0.00000000000E+00 0.  1.
</event>
<event>
 8    1  0.1271559E-006  0.9118800E+02  0.7816164E-02  0.1184000E+00
        -11   -1    0    0    0    0  0.00000000000E+00  0.00000000000E+00  0.45593999997E+02  0.45594000000E+02  0.51100000000E-03 0. -1.
         11   -1    0    0    0    0 -0.00000000000E+00 -0.00000000000E+00 -0.45593999997E+02  0.45594000000E+02  0.51100000000E-03 0.  1.
         23    2    1    2    0    0 -0.19428902931E-15  0.13322676296E-14  0.00000000000E+00  0.91188000000E+02  0.91188000000E+02 0.  0.
    9900012    2    3    3    0    0  0.57600219326E-01 -0.28880450054E+01 -0.36707434256E+02  0.54367084050E+02  0.39999999709E+02 0.  0.
         12    1    3    3    0    0 -0.57600219326E-01  0.28880450054E+01  0.36707434256E+02  0.36820915950E+02  0.00000000000E+00 0. -1.
         11    1    4    4    0    0  0.38889273863E+01 -0.19447972009E+02 -0.16980443478E+02  0.26109056522E+02  0.51100000000E-03 0. -1.
        -11    1    4    4    0    0 -0.24130822653E+01  0.76619343006E+01 -0.17067542132E+02  0.18863435475E+02  0.51100000000E-03 0.  1.
         12    1    4    4    0    0 -0.14182449017E+01  0.88979927033E+01 -0.26594486465E+01  0.93945920535E+01  0.00000000000E+00 0. -1.
</event>
<event>
 8    1  0.1271559E-006  0.9118800E+02  0.7816164E-02  0.1184000E+00
        -11   -1    0    0    0    0  0.00000000000E+00  0.00000000000E+00  0.45593999997E+02  0.45594000000E+02  0.51100000000E-03 0. -1.
         11   -1    0    0    0    0 -0.00000000000E+00 -0.00000000000E+00 -0.45593999997E+02  0.45594000000E+02  0.51100000000E-03 0.  1.
         23    2    1    2    0    0  0.00000000000E+00  0.88817841970E-15  0.00000000000E+00  0.91188000000E+02  0.91188000000E+02 0.  0.
    9900012    2    3    3    0    0  0.31628464107E+01 -0.20782992692E+01 -0.36625892729E+02  0.54367096379E+02  0.40000027815E+02 0.  0.
         12    1    3    3    0    0 -0.31628464107E+01  0.20782992692E+01  0.36625892729E+02  0.36820903621E+02  0.00000000000E+00 0. -1.
         11    1    4    4    0    0  0.14003489442E+01  0.13520161589E+02 -0.50588660699E+01  0.14503374529E+02  0.51100000000E-03 0. -1.
        -11    1    4    4    0    0 -0.53170448769E+00 -0.86742066332E+01 -0.31386116677E+02  0.32567052226E+02  0.51100000000E-03 0.  1.
        -12    1    4    4    0    0  0.22942019542E+01 -0.69242542247E+01 -0.18090998217E+00  0.72966696236E+01  0.00000000000E+00 0.  1.
</event>
<event>
 8    1  0.1271559E-006  0.9118800E+02  0.7816164E-02  0.1184000E+00
        -11   -1    0    0    0    0  0.00000000000E+00  0.00000000000E+00  0.45593999997E+02  0.45594000000E+02  0.51100000000E-03 0. -1.
         11   -1    0    0    0    0 -0.00000000000E+00 -0.00000000000E+00 -0.45593999997E+02  0.45594000000E+02  0.51100000000E-03 0.  1.
         23    2    1    2    0    0  0.00000000000E+00 -0.17763568394E-14  0.00000000000E+00  0.91188000000E+02  0.91188000000E+02 0.  0.
    9900012    2    3    3    0    0 -0.10618797015E+02 -0.10582158092E+02 -0.33630908836E+02  0.54367096303E+02  0.40000027642E+02 0.  0.
         12    1    3    3    0    0  0.10618797015E+02  0.10582158092E+02  0.33630908836E+02  0.36820903697E+02  0.00000000000E+00 0. -1.
         11    1    4    4    0    0 -0.52026146990E+01  0.52194282757E+01  0.74959103991E+00  0.74075311825E+01  0.51100000000E-03 0. -1.
        -11    1    4    4    0    0 -0.12827290410E+02 -0.11495853090E+02 -0.75745950782E+01  0.18816708224E+02  0.51100000000E-03 0.  1.
        -12    1    4    4    0    0  0.74111080943E+01 -0.43057332778E+01 -0.26805904798E+02  0.28142856896E+02  0.00000000000E+00 0.  1.
</event>
<event>
 8    1  0.1271559E-006  0.9118800E+02  0.7816164E-02  0.1184000E+00
        -11   -1    0    0    0    0  0.00000000000E+00  0.00000000000E+00  0.45593999997E+02  0.45594000000E+02  0.51100000000E-03 0. -1.
         11   -1    0    0    0    0 -0.00000000000E+00 -0.00000000000E+00 -0.45593999997E+02  0.45594000000E+02  0.51100000000E-03 0.  1.
         23    2    1    2    0    0 -0.35527136788E-14  0.00000000000E+00  0.00000000000E+00  0.91188000000E+02  0.91188000000E+02 0.  0.
    9900012    2    3    3    0    0  0.27509427619E+02 -0.86546472789E+01 -0.22893433885E+02  0.54367070592E+02  0.39999969028E+02 0.  0.
         12    1    3    3    0    0 -0.27509427619E+02  0.86546472789E+01  0.22893433885E+02  0.36820929408E+02  0.00000000000E+00 0. -1.
         11    1    4    4    0    0 -0.32999668464E+01  0.42606249813E+01 -0.21537537530E+01  0.58035645864E+01  0.51100000000E-03 0.  1.
        -11    1    4    4    0    0  0.10919577461E+02 -0.17320520284E+02 -0.14799015406E+01  0.20528704383E+02  0.51100000000E-03 0. -1.
         12    1    4    4    0    0  0.19889817004E+02  0.44052480234E+01 -0.19259778591E+02  0.28034801622E+02  0.00000000000E+00 0. -1.
</event>
<event>
 8    1  0.1271559E-006  0.9118800E+02  0.7816164E-02  0.1184000E+00
        -11   -1    0    0    0    0  0.00000000000E+00  0.00000000000E+00  0.45593999997E+02  0.45594000000E+02  0.51100000000E-03 0.  1.
         11   -1    0    0    0    0 -0.00000000000E+00 -0.00000000000E+00 -0.45593999997E+02  0.45594000000E+02  0.51100000000E-03 0. -1.
         23    2    1    2    0    0  0.17763568394E-14 -0.17763568394E-14 -0.71054273576E-14  0.91188000000E+02  0.91188000000E+02 0.  0.
    9900012    2    3    3    0    0  0.55047609766E+01  0.14563034049E+02 -0.33367585004E+02  0.54367080903E+02  0.39999992536E+02 0.  0.
        -12    1    3    3    0    0 -0.55047609766E+01 -0.14563034049E+02  0.33367585004E+02  0.36820919097E+02  0.00000000000E+00 0.  1.
         11    1    4    4    0    0  0.99961483540E+01  0.13201321035E+02 -0.32555211673E+02  0.36524507749E+02  0.51100000000E-03 0. -1.
        -11    1    4    4    0    0 -0.78427544573E+01  0.88824497690E+00 -0.71550705528E+01  0.10653300498E+02  0.51100000000E-03 0.  1.
         12    1    4    4    0    0  0.33513670799E+01  0.47346803710E+00  0.63426972218E+01  0.71892726568E+01  0.00000000000E+00 0. -1.
</event>
<event>
 8    1  0.1271559E-006  0.9118800E+02  0.7816164E-02  0.1184000E+00
        -11   -1    0    0    0    0  0.00000000000E+00  0.00000000000E+00  0.45593999997E+02  0.45594000000E+02  0.51100000000E-03 0. -1.
         11   -1    0    0    0    0 -0.00000000000E+00 -0.00000000000E+00 -0.45593999997E+02  0.45594000000E+02  0.51100000000E-03 0.  1.
         23    2    1    2    0    0 -0.44408920985E-15  0.00000000000E+00  0.00000000000E+00  0.91188000000E+02  0.91188000000E+02 0.  0.
    9900012    2    3    3    0    0 -0.15712544698E+01  0.34577143416E+02 -0.12559188877E+02  0.54367069639E+02  0.39999966855E+02 0.  0.
         12    1    3    3    0    0  0.15712544698E+01 -0.34577143416E+02  0.12559188877E+02  0.36820930361E+02  0.00000000000E+00 0. -1.
         11    1    4    4    0    0  0.15292692320E+01  0.47921848361E+01  0.78734733451E+01  0.93431944572E+01  0.51100000000E-03 0. -1.
        -11    1    4    4    0    0 -0.51680388812E+01  0.51969426556E+01  0.55486999135E+01  0.91926552114E+01  0.51100000000E-03 0.  1.
        -12    1    4    4    0    0  0.20675151794E+01  0.24588015925E+02 -0.25981362135E+02  0.35831219970E+02  0.00000000000E+00 0.  1.
</event>
<event>
 8    1  0.1271559E-006  0.9118800E+02  0.7816164E-02  0.1184000E+00
        -11   -1    0    0    0    0  0.00000000000E+00  0.00000000000E+00  0.45593999997E+02  0.45594000000E+02  0.51100000000E-03 0.  1.
         11   -1    0    0    0    0 -0.00000000000E+00 -0.00000000000E+00 -0.45593999997E+02  0.45594000000E+02  0.51100000000E-03 0. -1.
         23    2    1    2    0    0  0.00000000000E+00  0.00000000000E+00  0.00000000000E+00  0.91188000000E+02  0.91188000000E+02 0.  0.
    9900012    2    3    3    0    0  0.21357129912E+02  0.83421818360E+00 -0.29982610141E+02  0.54367084356E+02  0.40000000406E+02 0.  0.
        -12    1    3    3    0    0 -0.21357129912E+02 -0.83421818360E+00  0.29982610141E+02  0.36820915644E+02  0.00000000000E+00 0.  1.
         11    1    4    4    0    0  0.21640766957E+02  0.17441122577E+01 -0.34247545147E+02  0.40549464496E+02  0.51100000000E-03 0. -1.
        -11    1    4    4    0    0  0.21531937077E+01  0.19451735141E+01  0.80074874418E+01  0.85170299127E+01  0.51100000000E-03 0.  1.
         12    1    4    4    0    0 -0.24368307533E+01 -0.28550675882E+01 -0.37425524352E+01  0.53005899468E+01  0.00000000000E+00 0. -1.
</event>
<event>
 8    1  0.1271559E-006  0.9118800E+02  0.7816164E-02  0.1184000E+00
        -11   -1    0    0    0    0  0.00000000000E+00  0.00000000000E+00  0.45593999997E+02  0.45594000000E+02  0.51100000000E-03 0.  1.
         11   -1    0    0    0    0 -0.00000000000E+00 -0.00000000000E+00 -0.45593999997E+02  0.45594000000E+02  0.51100000000E-03 0. -1.
         23    2    1    2    0    0  0.88817841970E-15 -0.17763568394E-14  0.71054273576E-14  0.91188000000E+02  0.91188000000E+02 0.  0.
    9900012    2    3    3    0    0 -0.59368564698E+00 -0.95457136140E+01 -0.35557078641E+02  0.54367096256E+02  0.40000027535E+02 0.  0.
        -12    1    3    3    0    0  0.59368564698E+00  0.95457136140E+01  0.35557078641E+02  0.36820903744E+02  0.00000000000E+00 0.  1.
         11    1    4    4    0    0 -0.58528418055E+01  0.10770670414E+02 -0.18226020548E+02  0.21964765504E+02  0.51100000000E-03 0. -1.
        -11    1    4    4    0    0  0.77972467581E+01 -0.22847452354E+01 -0.97138059380E+01  0.12663930822E+02  0.51100000000E-03 0.  1.
         12    1    4    4    0    0 -0.25380905996E+01 -0.18031638792E+02 -0.76172521544E+01  0.19738399930E+02  0.00000000000E+00 0. -1.
</event>
<event>
 8    1  0.1271559E-006  0.9118800E+02  0.7816164E-02  0.1184000E+00
        -11   -1    0    0    0    0  0.00000000000E+00  0.00000000000E+00  0.45593999997E+02  0.45594000000E+02  0.51100000000E-03 0.  1.
         11   -1    0    0    0    0 -0.00000000000E+00 -0.00000000000E+00 -0.45593999997E+02  0.45594000000E+02  0.51100000000E-03 0. -1.
         23    2    1    2    0    0  0.00000000000E+00  0.00000000000E+00  0.17763568394E-14  0.91188000000E+02  0.91188000000E+02 0.  0.
    9900012    2    3    3    0    0  0.26131531551E+02  0.20538849030E+02 -0.15845472258E+02  0.54367078613E+02  0.39999987314E+02 0.  0.
        -12    1    3    3    0    0 -0.26131531551E+02 -0.20538849030E+02  0.15845472258E+02  0.36820921387E+02  0.00000000000E+00 0.  1.
         11    1    4    4    0    0 -0.25565255138E+01  0.11437718999E+01  0.44876009615E+00  0.28364454422E+01  0.51100000000E-03 0.  1.
        -11    1    4    4    0    0  0.13857896641E+02 -0.17188000515E+00 -0.22299170756E+02  0.26254977789E+02  0.51100000000E-03 0. -1.
        -12    1    4    4    0    0  0.14830160424E+02  0.19566957136E+02  0.60049384019E+01  0.25275655381E+02  0.00000000000E+00 0.  1.
</event>
<event>
 8    1  0.1271559E-006  0.9118800E+02  0.7816164E-02  0.1184000E+00
        -11   -1    0    0    0    0  0.00000000000E+00  0.00000000000E+00  0.45593999997E+02  0.45594000000E+02  0.51100000000E-03 0.  1.
         11   -1    0    0    0    0 -0.00000000000E+00 -0.00000000000E+00 -0.45593999997E+02  0.45594000000E+02  0.51100000000E-03 0. -1.
         23    2    1    2    0    0  0.00000000000E+00  0.35527136788E-14  0.00000000000E+00  0.91188000000E+02  0.91188000000E+02 0.  0.
    9900012    2    3    3    0    0 -0.18633115918E+02 -0.27820972569E+02 -0.15315963934E+02  0.54367105460E+02  0.40000048516E+02 0.  0.
        -12    1    3    3    0    0  0.18633115918E+02  0.27820972569E+02  0.15315963934E+02  0.36820894540E+02  0.00000000000E+00 0.  1.
         11    1    4    4    0    0 -0.35994673395E+01  0.14264771225E+01  0.12548112918E+01  0.40700803123E+01  0.51100000000E-03 0. -1.
        -11    1    4    4    0    0  0.26407617097E+01  0.66301725892E+01 -0.48190712890E+01  0.86114028659E+01  0.51100000000E-03 0.  1.
         12    1    4    4    0    0 -0.17674410288E+02 -0.35877622281E+02 -0.11751703937E+02  0.41685622282E+02  0.00000000000E+00 0. -1.
</event>
<event>
 8    1  0.1271559E-006  0.9118800E+02  0.7816164E-02  0.1184000E+00
        -11   -1    0    0    0    0  0.00000000000E+00  0.00000000000E+00  0.45593999997E+02  0.45594000000E+02  0.51100000000E-03 0.  1.
         11   -1    0    0    0    0 -0.00000000000E+00 -0.00000000000E+00 -0.45593999997E+02  0.45594000000E+02  0.51100000000E-03 0. -1.
         23    2    1    2    0    0 -0.35527136788E-14 -0.15543122345E-14  0.00000000000E+00  0.91188000000E+02  0.91188000000E+02 0.  0.
    9900012    2    3    3    0    0 -0.21575747051E+02  0.13279116096E+01 -0.29807667011E+02  0.54367174062E+02  0.40000204910E+02 0.  0.
        -12    1    3    3    0    0  0.21575747051E+02 -0.13279116096E+01  0.29807667011E+02  0.36820825938E+02  0.00000000000E+00 0.  1.
         11    1    4    4    0    0 -0.36216423668E+01  0.14904854350E+02 -0.16460808741E+01  0.15426618526E+02  0.51100000000E-03 0. -1.
        -11    1    4    4    0    0 -0.32465258228E+01  0.29816304824E+01 -0.25942249878E+01  0.51146900004E+01  0.51100000000E-03 0.  1.
         12    1    4    4    0    0 -0.14707578861E+02 -0.16558573223E+02 -0.25567361150E+02  0.33825865537E+02  0.00000000000E+00 0. -1.
</event>
<event>
 8    1  0.1271559E-006  0.9118800E+02  0.7816164E-02  0.1184000E+00
        -11   -1    0    0    0    0  0.00000000000E+00  0.00000000000E+00  0.45593999997E+02  0.45594000000E+02  0.51100000000E-03 0.  1.
         11   -1    0    0    0    0 -0.00000000000E+00 -0.00000000000E+00 -0.45593999997E+02  0.45594000000E+02  0.51100000000E-03 0. -1.
         23    2    1    2    0    0  0.00000000000E+00  0.00000000000E+00  0.88817841970E-15  0.91188000000E+02  0.91188000000E+02 0.  0.
    9900012    2    3    3    0    0  0.75974717144E+01 -0.35240099976E+02  0.74962839401E+01  0.54367075301E+02  0.39999979765E+02 0.  0.
         12    1    3    3    0    0 -0.75974717144E+01  0.35240099976E+02 -0.74962839401E+01  0.36820924699E+02  0.00000000000E+00 0. -1.
         11    1    4    4    0    0  0.86661363491E+00  0.33782879450E+00  0.15838541529E+02  0.15865829493E+02  0.51100000000E-03 0. -1.
        -11    1    4    4    0    0  0.46625583426E+01 -0.27680182315E+02 -0.19598560760E+01  0.28138460857E+02  0.51100000000E-03 0.  1.
         12    1    4    4    0    0  0.20682997369E+01 -0.78977464553E+01 -0.63824015130E+01  0.10362784951E+02  0.00000000000E+00 0. -1.
</event>
<event>
 8    1  0.1271559E-006  0.9118800E+02  0.7816164E-02  0.1184000E+00
        -11   -1    0    0    0    0  0.00000000000E+00  0.00000000000E+00  0.45593999997E+02  0.45594000000E+02  0.51100000000E-03 0. -1.
         11   -1    0    0    0    0 -0.00000000000E+00 -0.00000000000E+00 -0.45593999997E+02  0.45594000000E+02  0.51100000000E-03 0.  1.
         23    2    1    2    0    0  0.35527136788E-14  0.00000000000E+00  0.00000000000E+00  0.91188000000E+02  0.91188000000E+02 0.  0.
    9900012    2    3    3    0    0 -0.31721427396E+02 -0.13854500987E+01 -0.18644319562E+02  0.54367094525E+02  0.40000023589E+02 0.  0.
         12    1    3    3    0    0  0.31721427396E+02  0.13854500987E+01  0.18644319562E+02  0.36820905475E+02  0.00000000000E+00 0. -1.
         11    1    4    4    0    0 -0.12815277885E+02 -0.69627231244E+01 -0.16658510900E+01  0.14679438705E+02  0.51100000000E-03 0. -1.
        -11    1    4    4    0    0  0.49216413688E+01  0.13350110574E+01 -0.14485748286E+02  0.15357138794E+02  0.51100000000E-03 0.  1.
        -12    1    4    4    0    0 -0.23827790880E+02  0.42422619683E+01 -0.24927201868E+01  0.24330517026E+02  0.00000000000E+00 0.  1.
</event>
<event>
 8    1  0.1271559E-006  0.9118800E+02  0.7816164E-02  0.1184000E+00
        -11   -1    0    0    0    0  0.00000000000E+00  0.00000000000E+00  0.45593999997E+02  0.45594000000E+02  0.51100000000E-03 0. -1.
         11   -1    0    0    0    0 -0.00000000000E+00 -0.00000000000E+00 -0.45593999997E+02  0.45594000000E+02  0.51100000000E-03 0.  1.
         23    2    1    2    0    0  0.17763568394E-14  0.35527136788E-14  0.00000000000E+00  0.91188000000E+02  0.91188000000E+02 0.  0.
    9900012    2    3    3    0    0  0.34445889463E+01 -0.29477866742E+02 -0.21793791698E+02  0.54367093205E+02  0.40000020580E+02 0.  0.
         12    1    3    3    0    0 -0.34445889463E+01  0.29477866742E+02  0.21793791698E+02  0.36820906795E+02  0.00000000000E+00 0. -1.
         11    1    4    4    0    0 -0.87850547976E+01 -0.56310461264E+01  0.55780073024E+00  0.10449737326E+02  0.51100000000E-03 0. -1.
        -11    1    4    4    0    0 -0.47365883948E+01 -0.15509590318E+02 -0.18542374536E+02  0.24633357773E+02  0.51100000000E-03 0.  1.
        -12    1    4    4    0    0  0.16966232139E+02 -0.83372302967E+01 -0.38092178920E+01  0.19283998106E+02  0.00000000000E+00 0.  1.
</event>
<event>
 8    1  0.1271559E-006  0.9118800E+02  0.7816164E-02  0.1184000E+00
        -11   -1    0    0    0    0  0.00000000000E+00  0.00000000000E+00  0.45593999997E+02  0.45594000000E+02  0.51100000000E-03 0.  1.
         11   -1    0    0    0    0 -0.00000000000E+00 -0.00000000000E+00 -0.45593999997E+02  0.45594000000E+02  0.51100000000E-03 0. -1.
         23    2    1    2    0    0  0.17763568394E-14  0.00000000000E+00 -0.88817841970E-15  0.91188000000E+02  0.91188000000E+02 0.  0.
    9900012    2    3    3    0    0  0.10238045275E+02 -0.34767568619E+02  0.64943904637E+01  0.54367102316E+02  0.40000041350E+02 0.  0.
        -12    1    3    3    0    0 -0.10238045275E+02  0.34767568619E+02 -0.64943904637E+01  0.36820897684E+02  0.00000000000E+00 0.  1.
         11    1    4    4    0    0 -0.75856663393E+01 -0.19319918581E+02  0.13721798225E+01  0.20801068855E+02  0.51100000000E-03 0. -1.
        -11    1    4    4    0    0  0.10430276225E+02 -0.15248069056E+02  0.13130364328E+02  0.22664967233E+02  0.51100000000E-03 0.  1.
        -12    1    4    4    0    0  0.73934353897E+01 -0.19958098204E+00 -0.80081536864E+01  0.10901066227E+02  0.00000000000E+00 0.  1.
</event>
<event>
 8    1  0.1271559E-006  0.9118800E+02  0.7816164E-02  0.1184000E+00
        -11   -1    0    0    0    0  0.00000000000E+00  0.00000000000E+00  0.45593999997E+02  0.45594000000E+02  0.51100000000E-03 0. -1.
         11   -1    0    0    0    0 -0.00000000000E+00 -0.00000000000E+00 -0.45593999997E+02  0.45594000000E+02  0.51100000000E-03 0.  1.
         23    2    1    2    0    0  0.35527136788E-14  0.00000000000E+00  0.00000000000E+00  0.91188000000E+02  0.91188000000E+02 0.  0.
    9900012    2    3    3    0    0 -0.15446491379E+02 -0.25077669742E+02 -0.22097406897E+02  0.54367095514E+02  0.40000025843E+02 0.  0.
         12    1    3    3    0    0  0.15446491379E+02  0.25077669742E+02  0.22097406897E+02  0.36820904486E+02  0.00000000000E+00 0. -1.
         11    1    4    4    0    0  0.54351724853E+01 -0.94398536796E-01  0.16406453533E+01  0.56781800311E+01  0.51100000000E-03 0. -1.
        -11    1    4    4    0    0  0.63433322461E+01 -0.33211672440E+01 -0.72447036620E+01  0.10185958338E+02  0.51100000000E-03 0.  1.
         12    1    4    4    0    0 -0.27224996111E+02 -0.21662103961E+02 -0.16493348588E+02  0.38502957145E+02  0.00000000000E+00 0. -1.
</event>
<event>
 8    1  0.1271559E-006  0.9118800E+02  0.7816164E-02  0.1184000E+00
        -11   -1    0    0    0    0  0.00000000000E+00  0.00000000000E+00  0.45593999997E+02  0.45594000000E+02  0.51100000000E-03 0.  1.
         11   -1    0    0    0    0 -0.00000000000E+00 -0.00000000000E+00 -0.45593999997E+02  0.45594000000E+02  0.51100000000E-03 0. -1.
         23    2    1    2    0    0  0.00000000000E+00 -0.35527136788E-14  0.00000000000E+00  0.91188000000E+02  0.91188000000E+02 0.  0.
    9900012    2    3    3    0    0 -0.21228872102E+02 -0.29869013510E+02 -0.35994501516E+01  0.54367095338E+02  0.40000025442E+02 0.  0.
        -12    1    3    3    0    0  0.21228872102E+02  0.29869013510E+02  0.35994501516E+01  0.36820904662E+02  0.00000000000E+00 0.  1.
         11    1    4    4    0    0 -0.17974643073E+01 -0.11444920256E+02 -0.56917683732E+01  0.12907877636E+02  0.51100000000E-03 0. -1.
        -11    1    4    4    0    0 -0.24373451476E+01 -0.32347631871E+01 -0.13334794886E+02  0.13936323014E+02  0.51100000000E-03 0.  1.
        -12    1    4    4    0    0 -0.16994062647E+02 -0.15189330067E+02  0.15427113108E+02  0.27522894687E+02  0.00000000000E+00 0.  1.
</event>
<event>
 8    1  0.1271559E-006  0.9118800E+02  0.7816164E-02  0.1184000E+00
        -11   -1    0    0    0    0  0.00000000000E+00  0.00000000000E+00  0.45593999997E+02  0.45594000000E+02  0.51100000000E-03 0. -1.
         11   -1    0    0    0    0 -0.00000000000E+00 -0.00000000000E+00 -0.45593999997E+02  0.45594000000E+02  0.51100000000E-03 0.  1.
         23    2    1    2    0    0  0.22204460493E-14 -0.71054273576E-14  0.35527136788E-14  0.91188000000E+02  0.91188000000E+02 0.  0.
    9900012    2    3    3    0    0 -0.22636724729E+01  0.32284234921E+02 -0.17560862784E+02  0.54367082858E+02  0.39999996991E+02 0.  0.
         12    1    3    3    0    0  0.22636724729E+01 -0.32284234921E+02  0.17560862784E+02  0.36820917142E+02  0.00000000000E+00 0. -1.
         11    1    4    4    0    0 -0.48491750843E+00  0.79033166267E+01 -0.39655595544E+01  0.88556886538E+01  0.51100000000E-03 0. -1.
        -11    1    4    4    0    0  0.15986477202E+02  0.18969374990E+02 -0.66413440409E+01  0.25680967500E+02  0.51100000000E-03 0.  1.
         12    1    4    4    0    0 -0.17765232166E+02  0.54115433047E+01 -0.69539591883E+01  0.19830426704E+02  0.00000000000E+00 0. -1.
</event>
<event>
 8    1  0.1271559E-006  0.9118800E+02  0.7816164E-02  0.1184000E+00
        -11   -1    0    0    0    0  0.00000000000E+00  0.00000000000E+00  0.45593999997E+02  0.45594000000E+02  0.51100000000E-03 0. -1.
         11   -1    0    0    0    0 -0.00000000000E+00 -0.00000000000E+00 -0.45593999997E+02  0.45594000000E+02  0.51100000000E-03 0.  1.
         23    2    1    2    0    0  0.88817841970E-15 -0.71054273576E-14  0.88817841970E-15  0.91188000000E+02  0.91188000000E+02 0.  0.
    9900012    2    3    3    0    0  0.79340084020E+01 -0.35325274109E+02  0.67049086459E+01  0.54367091808E+02  0.40000017394E+02 0.  0.
        -12    1    3    3    0    0 -0.79340084020E+01  0.35325274109E+02 -0.67049086459E+01  0.36820908192E+02  0.00000000000E+00 0.  1.
         11    1    4    4    0    0  0.19225095993E+01 -0.39402297983E+01 -0.10251605880E+02  0.11149747863E+02  0.51100000000E-03 0. -1.
        -11    1    4    4    0    0 -0.68397512846E+01 -0.17226064422E+02  0.14361107562E+01  0.18589833444E+02  0.51100000000E-03 0.  1.
         12    1    4    4    0    0  0.12851250087E+02 -0.14158979889E+02  0.15520403770E+02  0.24627510501E+02  0.00000000000E+00 0. -1.
</event>
<event>
 8    1  0.1271559E-006  0.9118800E+02  0.7816164E-02  0.1184000E+00
        -11   -1    0    0    0    0  0.00000000000E+00  0.00000000000E+00  0.45593999997E+02  0.45594000000E+02  0.51100000000E-03 0.  1.
         11   -1    0    0    0    0 -0.00000000000E+00 -0.00000000000E+00 -0.45593999997E+02  0.45594000000E+02  0.51100000000E-03 0. -1.
         23    2    1    2    0    0 -0.35527136788E-14  0.00000000000E+00  0.35527136788E-14  0.91188000000E+02  0.91188000000E+02 0.  0.
    9900012    2    3    3    0    0 -0.27539417543E+02 -0.15369027363E+02  0.19004046934E+02  0.54367077679E+02  0.39999985186E+02 0.  0.
         12    1    3    3    0    0  0.27539417543E+02  0.15369027363E+02 -0.19004046934E+02  0.36820922321E+02  0.00000000000E+00 0. -1.
         11    1    4    4    0    0 -0.55332281751E-01 -0.11234887696E+02  0.28702684430E+01  0.11595870144E+02  0.51100000000E-03 0. -1.
        -11    1    4    4    0    0 -0.22092083206E+01 -0.51738290268E+01 -0.66616351328E+01  0.87193171238E+01  0.51100000000E-03 0.  1.
        -12    1    4    4    0    0 -0.25274876941E+02  0.10396893600E+01  0.22795413623E+02  0.34051890411E+02  0.00000000000E+00 0.  1.
</event>
<event>
 8    1  0.1271559E-006  0.9118800E+02  0.7816164E-02  0.1184000E+00
        -11   -1    0    0    0    0  0.00000000000E+00  0.00000000000E+00  0.45593999997E+02  0.45594000000E+02  0.51100000000E-03 0. -1.
         11   -1    0    0    0    0 -0.00000000000E+00 -0.00000000000E+00 -0.45593999997E+02  0.45594000000E+02  0.51100000000E-03 0.  1.
         23    2    1    2    0    0  0.00000000000E+00  0.22204460493E-15 -0.88817841970E-15  0.91188000000E+02  0.91188000000E+02 0.  0.
    9900012    2    3    3    0    0  0.36312429357E+02 -0.19330442823E+01  0.57836280946E+01  0.54367088279E+02  0.40000009350E+02 0.  0.
        -12    1    3    3    0    0 -0.36312429357E+02  0.19330442823E+01 -0.57836280946E+01  0.36820911721E+02  0.00000000000E+00 0.  1.
         11    1    4    4    0    0  0.49134383412E+01  0.83762089175E+00  0.28828362268E+01  0.57579710023E+01  0.51100000000E-03 0. -1.
        -11    1    4    4    0    0  0.16375090107E+02 -0.47710321902E+01  0.19650343535E+02  0.26020037000E+02  0.51100000000E-03 0.  1.
        -12    1    4    4    0    0  0.15023900909E+02  0.20003670161E+01 -0.16749551667E+02  0.22589080277E+02  0.00000000000E+00 0.  1.
</event>
<event>
 8    1  0.1271559E-006  0.9118800E+02  0.7816164E-02  0.1184000E+00
        -11   -1    0    0    0    0  0.00000000000E+00  0.00000000000E+00  0.45593999997E+02  0.45594000000E+02  0.51100000000E-03 0.  1.
         11   -1    0    0    0    0 -0.00000000000E+00 -0.00000000000E+00 -0.45593999997E+02  0.45594000000E+02  0.51100000000E-03 0. -1.
         23    2    1    2    0    0 -0.17763568394E-14 -0.22204460493E-15  0.00000000000E+00  0.91188000000E+02  0.91188000000E+02 0.  0.
    9900012    2    3    3    0    0  0.73095114656E+01  0.17043827910E+01  0.36047875295E+02  0.54367038689E+02  0.39999896300E+02 0.  0.
         12    1    3    3    0    0 -0.73095114656E+01 -0.17043827910E+01 -0.36047875295E+02  0.36820961311E+02  0.00000000000E+00 0. -1.
         11    1    4    4    0    0  0.16140366579E+02 -0.62924745796E+01  0.13771710220E+02  0.22130672657E+02  0.51100000000E-03 0. -1.
        -11    1    4    4    0    0  0.58739715777E+01 -0.11424203085E+01  0.59793936047E+01  0.84594216350E+01  0.51100000000E-03 0.  1.
         12    1    4    4    0    0 -0.14704826691E+02  0.91392776791E+01  0.16296771470E+02  0.23776944397E+02  0.00000000000E+00 0. -1.
</event>
<event>
 8    1  0.1271559E-006  0.9118800E+02  0.7816164E-02  0.1184000E+00
        -11   -1    0    0    0    0  0.00000000000E+00  0.00000000000E+00  0.45593999997E+02  0.45594000000E+02  0.51100000000E-03 0.  1.
         11   -1    0    0    0    0 -0.00000000000E+00 -0.00000000000E+00 -0.45593999997E+02  0.45594000000E+02  0.51100000000E-03 0. -1.
         23    2    1    2    0    0  0.00000000000E+00  0.88817841970E-15  0.00000000000E+00  0.91188000000E+02  0.91188000000E+02 0.  0.
    9900012    2    3    3    0    0  0.81863846281E+01 -0.70382190123E+01 -0.35202621421E+02  0.54367109529E+02  0.40000057793E+02 0.  0.
        -12    1    3    3    0    0 -0.81863846281E+01  0.70382190123E+01  0.35202621421E+02  0.36820890471E+02  0.00000000000E+00 0.  1.
         11    1    4    4    0    0 -0.76528580608E+01 -0.10646775605E+01 -0.64393197683E+01  0.10058062147E+02  0.51100000000E-03 0.  1.
        -11    1    4    4    0    0  0.28938055722E+01 -0.16664141703E+02 -0.14640145099E+02  0.22369657534E+02  0.51100000000E-03 0. -1.
         12    1    4    4    0    0  0.12945437117E+02  0.10690600251E+02 -0.14123156554E+02  0.21939389849E+02  0.00000000000E+00 0. -1.
</event>
<event>
 8    1  0.1271559E-006  0.9118800E+02  0.7816164E-02  0.1184000E+00
        -11   -1    0    0    0    0  0.00000000000E+00  0.00000000000E+00  0.45593999997E+02  0.45594000000E+02  0.51100000000E-03 0. -1.
         11   -1    0    0    0    0 -0.00000000000E+00 -0.00000000000E+00 -0.45593999997E+02  0.45594000000E+02  0.51100000000E-03 0.  1.
         23    2    1    2    0    0  0.00000000000E+00 -0.17763568394E-14  0.00000000000E+00  0.91188000000E+02  0.91188000000E+02 0.  0.
    9900012    2    3    3    0    0 -0.27411634775E+02 -0.11845487187E+02  0.21542152542E+02  0.54367114298E+02  0.40000068665E+02 0.  0.
        -12    1    3    3    0    0  0.27411634775E+02  0.11845487187E+02 -0.21542152542E+02  0.36820885702E+02  0.00000000000E+00 0.  1.
         11    1    4    4    0    0 -0.34664962034E+00 -0.70547398629E+01 -0.34516452837E+00  0.70716800907E+01  0.51100000000E-03 0. -1.
        -11    1    4    4    0    0 -0.89144726063E+01  0.11716782397E+02  0.16617917741E+02  0.22201486479E+02  0.51100000000E-03 0.  1.
        -12    1    4    4    0    0 -0.18150512548E+02 -0.16507529721E+02  0.52693993291E+01  0.25093947728E+02  0.00000000000E+00 0.  1.
</event>
<event>
 8    1  0.1271559E-006  0.9118800E+02  0.7816164E-02  0.1184000E+00
        -11   -1    0    0    0    0  0.00000000000E+00  0.00000000000E+00  0.45593999997E+02  0.45594000000E+02  0.51100000000E-03 0. -1.
         11   -1    0    0    0    0 -0.00000000000E+00 -0.00000000000E+00 -0.45593999997E+02  0.45594000000E+02  0.51100000000E-03 0.  1.
         23    2    1    2    0    0 -0.17763568394E-14  0.35527136788E-14  0.00000000000E+00  0.91188000000E+02  0.91188000000E+02 0.  0.
    9900012    2    3    3    0    0 -0.13124467434E+02  0.27324249620E+02  0.20902492625E+02  0.54367075777E+02  0.39999980848E+02 0.  0.
        -12    1    3    3    0    0  0.13124467434E+02 -0.27324249620E+02 -0.20902492625E+02  0.36820924223E+02  0.00000000000E+00 0.  1.
         11    1    4    4    0    0 -0.66406733474E+01  0.22121508902E+02 -0.75735988253E+00  0.23109160367E+02  0.51100000000E-03 0. -1.
        -11    1    4    4    0    0 -0.82952560239E+01  0.91378633193E+01  0.23506001933E+02  0.26548897259E+02  0.51100000000E-03 0.  1.
        -12    1    4    4    0    0  0.18114619375E+01 -0.39351226009E+01 -0.18461494262E+01  0.47090181503E+01  0.00000000000E+00 0.  1.
</event>
<event>
 8    1  0.1271559E-006  0.9118800E+02  0.7816164E-02  0.1184000E+00
        -11   -1    0    0    0    0  0.00000000000E+00  0.00000000000E+00  0.45593999997E+02  0.45594000000E+02  0.51100000000E-03 0.  1.
         11   -1    0    0    0    0 -0.00000000000E+00 -0.00000000000E+00 -0.45593999997E+02  0.45594000000E+02  0.51100000000E-03 0. -1.
         23    2    1    2    0    0 -0.35527136788E-14  0.00000000000E+00  0.66613381478E-15  0.91188000000E+02  0.91188000000E+02 0.  0.
    9900012    2    3    3    0    0  0.16196377623E+02 -0.33059862147E+02  0.70942090295E+00  0.54367076447E+02  0.39999982377E+02 0.  0.
        -12    1    3    3    0    0 -0.16196377623E+02  0.33059862147E+02 -0.70942090295E+00  0.36820923553E+02  0.00000000000E+00 0.  1.
         11    1    4    4    0    0  0.21842384471E+01 -0.21702910456E+02 -0.61174565854E+01  0.22654149624E+02  0.51100000000E-03 0. -1.
        -11    1    4    4    0    0  0.10194915022E+02 -0.62087989849E+01  0.16344098715E+02  0.20238948594E+02  0.51100000000E-03 0.  1.
        -12    1    4    4    0    0  0.38172241540E+01 -0.51481527061E+01 -0.95172212267E+01  0.11473978229E+02  0.00000000000E+00 0.  1.
</event>
<event>
 8    1  0.1271559E-006  0.9118800E+02  0.7816164E-02  0.1184000E+00
        -11   -1    0    0    0    0  0.00000000000E+00  0.00000000000E+00  0.45593999997E+02  0.45594000000E+02  0.51100000000E-03 0.  1.
         11   -1    0    0    0    0 -0.00000000000E+00 -0.00000000000E+00 -0.45593999997E+02  0.45594000000E+02  0.51100000000E-03 0. -1.
         23    2    1    2    0    0 -0.17763568394E-14 -0.71054273576E-14 -0.35527136788E-14  0.91188000000E+02  0.91188000000E+02 0.  0.
    9900012    2    3    3    0    0  0.11806814333E+02 -0.32511406226E+02 -0.12624919698E+02  0.54367068495E+02  0.39999964249E+02 0.  0.
         12    1    3    3    0    0 -0.11806814333E+02  0.32511406226E+02  0.12624919698E+02  0.36820931505E+02  0.00000000000E+00 0. -1.
         11    1    4    4    0    0 -0.75669241850E+01 -0.18704429123E+02 -0.59239812579E+01  0.21028731884E+02  0.51100000000E-03 0. -1.
        -11    1    4    4    0    0  0.15412966418E+02 -0.13155895271E+02  0.50809560571E+01  0.20891463063E+02  0.51100000000E-03 0.  1.
        -12    1    4    4    0    0  0.39607721002E+01 -0.65108183156E+00 -0.11781894497E+02  0.12446873548E+02  0.00000000000E+00 0.  1.
</event>
<event>
 8    1  0.1271559E-006  0.9118800E+02  0.7816164E-02  0.1184000E+00
        -11   -1    0    0    0    0  0.00000000000E+00  0.00000000000E+00  0.45593999997E+02  0.45594000000E+02  0.51100000000E-03 0.  1.
         11   -1    0    0    0    0 -0.00000000000E+00 -0.00000000000E+00 -0.45593999997E+02  0.45594000000E+02  0.51100000000E-03 0. -1.
         23    2    1    2    0    0  0.00000000000E+00  0.00000000000E+00  0.35527136788E-14  0.91188000000E+02  0.91188000000E+02 0.  0.
    9900012    2    3    3    0    0  0.19244389252E+02 -0.13548708724E+02 -0.28317317724E+02  0.54367020805E+02  0.39999855530E+02 0.  0.
        -12    1    3    3    0    0 -0.19244389252E+02  0.13548708724E+02  0.28317317724E+02  0.36820979195E+02  0.00000000000E+00 0.  1.
         11    1    4    4    0    0  0.24011545015E+02 -0.11946939102E+02 -0.25366444828E+02  0.36915310799E+02  0.51100000000E-03 0. -1.
        -11    1    4    4    0    0 -0.25180760449E+01 -0.54678777198E+01  0.53298489196E+01  0.80402539446E+01  0.51100000000E-03 0.  1.
        -12    1    4    4    0    0 -0.22490797181E+01  0.38661080984E+01 -0.82807218162E+01  0.94114560619E+01  0.00000000000E+00 0.  1.
</event>
<event>
 8    1  0.1271559E-006  0.9118800E+02  0.7816164E-02  0.1184000E+00
        -11   -1    0    0    0    0  0.00000000000E+00  0.00000000000E+00  0.45593999997E+02  0.45594000000E+02  0.51100000000E-03 0. -1.
         11   -1    0    0    0    0 -0.00000000000E+00 -0.00000000000E+00 -0.45593999997E+02  0.45594000000E+02  0.51100000000E-03 0.  1.
         23    2    1    2    0    0  0.71054273576E-14  0.00000000000E+00  0.00000000000E+00  0.91188000000E+02  0.91188000000E+02 0.  0.
    9900012    2    3    3    0    0  0.33241760161E+02  0.81405016558E+01 -0.13583021972E+02  0.54367070195E+02  0.39999968123E+02 0.  0.
         12    1    3    3    0    0 -0.33241760161E+02 -0.81405016558E+01  0.13583021972E+02  0.36820929805E+02  0.00000000000E+00 0. -1.
         11    1    4    4    0    0 -0.29636208513E+01  0.14626721944E+01 -0.39688105431E+00  0.33286593895E+01  0.51100000000E-03 0. -1.
        -11    1    4    4    0    0  0.22434127731E+02 -0.12503405521E+02 -0.63667923841E+01  0.26460560883E+02  0.51100000000E-03 0.  1.
        -12    1    4    4    0    0  0.13771253281E+02  0.19181234983E+02 -0.68193485341E+01  0.24577849923E+02  0.00000000000E+00 0.  1.
</event>
<event>
 8    1  0.1271559E-006  0.9118800E+02  0.7816164E-02  0.1184000E+00
        -11   -1    0    0    0    0  0.00000000000E+00  0.00000000000E+00  0.45593999997E+02  0.45594000000E+02  0.51100000000E-03 0.  1.
         11   -1    0    0    0    0 -0.00000000000E+00 -0.00000000000E+00 -0.45593999997E+02  0.45594000000E+02  0.51100000000E-03 0. -1.
         23    2    1    2    0    0  0.00000000000E+00  0.35527136788E-14  0.00000000000E+00  0.91188000000E+02  0.91188000000E+02 0.  0.
    9900012    2    3    3    0    0  0.23405671669E+02 -0.16559972948E+02  0.23102413524E+02  0.54367086364E+02  0.40000004985E+02 0.  0.
         12    1    3    3    0    0 -0.23405671669E+02  0.16559972948E+02 -0.23102413524E+02  0.36820913636E+02  0.00000000000E+00 0. -1.
         11    1    4    4    0    0  0.15265032161E+02  0.85473898848E+01  0.19612501512E+02  0.26281729329E+02  0.51100000000E-03 0. -1.
        -11    1    4    4    0    0  0.52190966434E+00 -0.42184930002E+01 -0.26616358140E+01  0.50152146871E+01  0.51100000000E-03 0.  1.
         12    1    4    4    0    0  0.76187298441E+01 -0.20888869832E+02  0.61515478264E+01  0.23070142348E+02  0.00000000000E+00 0. -1.
</event>
<event>
 8    1  0.1271559E-006  0.9118800E+02  0.7816164E-02  0.1184000E+00
        -11   -1    0    0    0    0  0.00000000000E+00  0.00000000000E+00  0.45593999997E+02  0.45594000000E+02  0.51100000000E-03 0.  1.
         11   -1    0    0    0    0 -0.00000000000E+00 -0.00000000000E+00 -0.45593999997E+02  0.45594000000E+02  0.51100000000E-03 0. -1.
         23    2    1    2    0    0  0.35527136788E-14  0.00000000000E+00  0.00000000000E+00  0.91188000000E+02  0.91188000000E+02 0.  0.
    9900012    2    3    3    0    0 -0.22033914141E+02 -0.18621923798E+02 -0.22880281862E+02  0.54367126621E+02  0.40000096758E+02 0.  0.
        -12    1    3    3    0    0  0.22033914141E+02  0.18621923798E+02  0.22880281862E+02  0.36820873379E+02  0.00000000000E+00 0.  1.
         11    1    4    4    0    0  0.43654043794E+01  0.13794521080E+01 -0.70018453909E+01  0.83657326430E+01  0.51100000000E-03 0. -1.
        -11    1    4    4    0    0 -0.82043947624E+01  0.22899684029E+01  0.55133488428E+01  0.10146578952E+02  0.51100000000E-03 0.  1.
         12    1    4    4    0    0 -0.18194923758E+02 -0.22291344309E+02 -0.21391785314E+02  0.35854815026E+02  0.00000000000E+00 0. -1.
</event>
<event>
 8    1  0.1271559E-006  0.9118800E+02  0.7816164E-02  0.1184000E+00
        -11   -1    0    0    0    0  0.00000000000E+00  0.00000000000E+00  0.45593999997E+02  0.45594000000E+02  0.51100000000E-03 0.  1.
         11   -1    0    0    0    0 -0.00000000000E+00 -0.00000000000E+00 -0.45593999997E+02  0.45594000000E+02  0.51100000000E-03 0. -1.
         23    2    1    2    0    0  0.00000000000E+00  0.00000000000E+00  0.66613381478E-15  0.91188000000E+02  0.91188000000E+02 0.  0.
    9900012    2    3    3    0    0 -0.34642094595E+02 -0.12411195663E+02  0.12901106611E+01  0.54367124383E+02  0.40000091656E+02 0.  0.
         12    1    3    3    0    0  0.34642094595E+02  0.12411195663E+02 -0.12901106611E+01  0.36820875617E+02  0.00000000000E+00 0. -1.
         11    1    4    4    0    0  0.21703951363E+01 -0.89663975164E+01  0.13013027778E+01  0.93166672502E+01  0.51100000000E-03 0. -1.
        -11    1    4    4    0    0 -0.55991977952E+01  0.84166294056E+01 -0.50183939989E+01  0.11286050908E+02  0.51100000000E-03 0.  1.
         12    1    4    4    0    0 -0.31213291936E+02 -0.11861427552E+02  0.50072018822E+01  0.33764406225E+02  0.00000000000E+00 0. -1.
</event>
<event>
 8    1  0.1271559E-006  0.9118800E+02  0.7816164E-02  0.1184000E+00
        -11   -1    0    0    0    0  0.00000000000E+00  0.00000000000E+00  0.45593999997E+02  0.45594000000E+02  0.51100000000E-03 0.  1.
         11   -1    0    0    0    0 -0.00000000000E+00 -0.00000000000E+00 -0.45593999997E+02  0.45594000000E+02  0.51100000000E-03 0. -1.
         23    2    1    2    0    0  0.22204460493E-15 -0.35527136788E-14 -0.35527136788E-14  0.91188000000E+02  0.91188000000E+02 0.  0.
    9900012    2    3    3    0    0  0.44921399403E+00 -0.20483712963E+02  0.30594047154E+02  0.54367081880E+02  0.39999994762E+02 0.  0.
         12    1    3    3    0    0 -0.44921399403E+00  0.20483712963E+02 -0.30594047154E+02  0.36820918120E+02  0.00000000000E+00 0. -1.
         11    1    4    4    0    0  0.83164234158E+00  0.20665291436E+01  0.16674068860E+01  0.27825200215E+01  0.51100000000E-03 0. -1.
        -11    1    4    4    0    0 -0.79824514809E+01  0.24180340729E+01  0.23487531010E+02  0.24924496657E+02  0.51100000000E-03 0.  1.
         12    1    4    4    0    0  0.76000231333E+01 -0.24968276180E+02  0.54391092576E+01  0.26660065201E+02  0.00000000000E+00 0. -1.
</event>
<event>
 8    1  0.1271559E-006  0.9118800E+02  0.7816164E-02  0.1184000E+00
        -11   -1    0    0    0    0  0.00000000000E+00  0.00000000000E+00  0.45593999997E+02  0.45594000000E+02  0.51100000000E-03 0. -1.
         11   -1    0    0    0    0 -0.00000000000E+00 -0.00000000000E+00 -0.45593999997E+02  0.45594000000E+02  0.51100000000E-03 0.  1.
         23    2    1    2    0    0  0.00000000000E+00  0.88817841970E-15  0.00000000000E+00  0.91188000000E+02  0.91188000000E+02 0.  0.
    9900012    2    3    3    0    0  0.35696750472E+02  0.59672015677E+01  0.67760628010E+01  0.54367075026E+02  0.39999979137E+02 0.  0.
        -12    1    3    3    0    0 -0.35696750472E+02 -0.59672015677E+01 -0.67760628010E+01  0.36820924974E+02  0.00000000000E+00 0.  1.
         11    1    4    4    0    0  0.84288833877E+01  0.56343007251E+01  0.16193762878E+02  0.19105741971E+02  0.51100000000E-03 0. -1.
        -11    1    4    4    0    0  0.20221173963E+02 -0.74002224040E+01 -0.11767672781E+02  0.24538485915E+02  0.51100000000E-03 0.  1.
        -12    1    4    4    0    0  0.70466931220E+01  0.77331232466E+01  0.23499727031E+01  0.10722847141E+02  0.00000000000E+00 0.  1.
</event>
<event>
 8    1  0.1271559E-006  0.9118800E+02  0.7816164E-02  0.1184000E+00
        -11   -1    0    0    0    0  0.00000000000E+00  0.00000000000E+00  0.45593999997E+02  0.45594000000E+02  0.51100000000E-03 0. -1.
         11   -1    0    0    0    0 -0.00000000000E+00 -0.00000000000E+00 -0.45593999997E+02  0.45594000000E+02  0.51100000000E-03 0.  1.
         23    2    1    2    0    0  0.00000000000E+00  0.35527136788E-14 -0.17763568394E-14  0.91188000000E+02  0.91188000000E+02 0.  0.
    9900012    2    3    3    0    0 -0.15932562382E+02  0.31564475317E+02  0.10277007757E+02  0.54367088353E+02  0.40000009517E+02 0.  0.
         12    1    3    3    0    0  0.15932562382E+02 -0.31564475317E+02 -0.10277007757E+02  0.36820911647E+02  0.00000000000E+00 0. -1.
         11    1    4    4    0    0 -0.48616456040E+01 -0.19044629365E+01  0.60340493680E+01  0.79794942880E+01  0.51100000000E-03 0. -1.
        -11    1    4    4    0    0 -0.44128116609E+01 -0.31289693414E+01  0.72747695106E+01  0.90656289130E+01  0.51100000000E-03 0.  1.
        -12    1    4    4    0    0 -0.66581051171E+01  0.36597907595E+02 -0.30318111217E+01  0.37321965152E+02  0.00000000000E+00 0.  1.
</event>
<event>
 8    1  0.1271559E-006  0.9118800E+02  0.7816164E-02  0.1184000E+00
        -11   -1    0    0    0    0  0.00000000000E+00  0.00000000000E+00  0.45593999997E+02  0.45594000000E+02  0.51100000000E-03 0. -1.
         11   -1    0    0    0    0 -0.00000000000E+00 -0.00000000000E+00 -0.45593999997E+02  0.45594000000E+02  0.51100000000E-03 0.  1.
         23    2    1    2    0    0  0.00000000000E+00 -0.17763568394E-14  0.00000000000E+00  0.91188000000E+02  0.91188000000E+02 0.  0.
    9900012    2    3    3    0    0  0.15027923178E+02  0.78742449066E+01 -0.32679318598E+02  0.54367081056E+02  0.39999992883E+02 0.  0.
         12    1    3    3    0    0 -0.15027923178E+02 -0.78742449066E+01  0.32679318598E+02  0.36820918944E+02  0.00000000000E+00 0. -1.
         11    1    4    4    0    0 -0.42205362384E+01  0.50197470108E+00 -0.30630053554E+01  0.52389795579E+01  0.51100000000E-03 0. -1.
        -11    1    4    4    0    0  0.16115682073E+01  0.16993677114E+02 -0.21518706880E+02  0.27467015855E+02  0.51100000000E-03 0.  1.
         12    1    4    4    0    0  0.17636891209E+02 -0.96214069083E+01 -0.80976063618E+01  0.21661085642E+02  0.00000000000E+00 0. -1.
</event>
<event>
 8    1  0.1271559E-006  0.9118800E+02  0.7816164E-02  0.1184000E+00
        -11   -1    0    0    0    0  0.00000000000E+00  0.00000000000E+00  0.45593999997E+02  0.45594000000E+02  0.51100000000E-03 0.  1.
         11   -1    0    0    0    0 -0.00000000000E+00 -0.00000000000E+00 -0.45593999997E+02  0.45594000000E+02  0.51100000000E-03 0. -1.
         23    2    1    2    0    0  0.35527136788E-14  0.00000000000E+00  0.00000000000E+00  0.91188000000E+02  0.91188000000E+02 0.  0.
    9900012    2    3    3    0    0 -0.24928569380E+02  0.18843242724E+01 -0.27033202622E+02  0.54367105208E+02  0.40000047943E+02 0.  0.
        -12    1    3    3    0    0  0.24928569380E+02 -0.18843242724E+01  0.27033202622E+02  0.36820894792E+02  0.00000000000E+00 0.  1.
         11    1    4    4    0    0 -0.22337451757E+02 -0.30464669007E+01 -0.10498676385E+02  0.24868954897E+02  0.51100000000E-03 0. -1.
        -11    1    4    4    0    0 -0.59255561817E+01  0.77734121855E+00 -0.21439820879E+02  0.22257187491E+02  0.51100000000E-03 0.  1.
        -12    1    4    4    0    0  0.33344385589E+01  0.41534499545E+01  0.49052946425E+01  0.72409628198E+01  0.00000000000E+00 0.  1.
</event>
<event>
 8    1  0.1271559E-006  0.9118800E+02  0.7816164E-02  0.1184000E+00
        -11   -1    0    0    0    0  0.00000000000E+00  0.00000000000E+00  0.45593999997E+02  0.45594000000E+02  0.51100000000E-03 0.  1.
         11   -1    0    0    0    0 -0.00000000000E+00 -0.00000000000E+00 -0.45593999997E+02  0.45594000000E+02  0.51100000000E-03 0. -1.
         23    2    1    2    0    0  0.26645352591E-14  0.00000000000E+00 -0.35527136788E-14  0.91188000000E+02  0.91188000000E+02 0.  0.
    9900012    2    3    3    0    0  0.36064674815E+01  0.19536510061E+02 -0.31001583888E+02  0.54367081535E+02  0.39999993974E+02 0.  0.
        -12    1    3    3    0    0 -0.36064674815E+01 -0.19536510061E+02  0.31001583888E+02  0.36820918465E+02  0.00000000000E+00 0.  1.
         11    1    4    4    0    0  0.14672298311E+02  0.67272727554E+01 -0.15888782261E+02  0.22649192888E+02  0.51100000000E-03 0. -1.
        -11    1    4    4    0    0 -0.70742437474E+01  0.16288632461E+02 -0.23665441522E+01  0.17915496185E+02  0.51100000000E-03 0.  1.
         12    1    4    4    0    0 -0.39915870821E+01 -0.34793951552E+01 -0.12746257475E+02  0.13802392462E+02  0.00000000000E+00 0. -1.
</event>
<event>
 8    1  0.1271559E-006  0.9118800E+02  0.7816164E-02  0.1184000E+00
        -11   -1    0    0    0    0  0.00000000000E+00  0.00000000000E+00  0.45593999997E+02  0.45594000000E+02  0.51100000000E-03 0.  1.
         11   -1    0    0    0    0 -0.00000000000E+00 -0.00000000000E+00 -0.45593999997E+02  0.45594000000E+02  0.51100000000E-03 0. -1.
         23    2    1    2    0    0 -0.35527136788E-14  0.00000000000E+00 -0.17763568394E-14  0.91188000000E+02  0.91188000000E+02 0.  0.
    9900012    2    3    3    0    0 -0.20051924297E+02  0.28776885356E+02 -0.11206808792E+02  0.54367063535E+02  0.39999952942E+02 0.  0.
        -12    1    3    3    0    0  0.20051924297E+02 -0.28776885356E+02  0.11206808792E+02  0.36820936465E+02  0.00000000000E+00 0.  1.
         11    1    4    4    0    0 -0.95949172185E+01  0.74900484561E+01  0.31180847433E+01  0.12565258256E+02  0.51100000000E-03 0. -1.
        -11    1    4    4    0    0 -0.18640559088E+01 -0.82606819271E+01 -0.24180962650E+01  0.88068586987E+01  0.51100000000E-03 0.  1.
        -12    1    4    4    0    0 -0.85929511701E+01  0.29547518827E+02 -0.11906797271E+02  0.32994946581E+02  0.00000000000E+00 0.  1.
</event>
<event>
 8    1  0.1271559E-006  0.9118800E+02  0.7816164E-02  0.1184000E+00
        -11   -1    0    0    0    0  0.00000000000E+00  0.00000000000E+00  0.45593999997E+02  0.45594000000E+02  0.51100000000E-03 0.  1.
         11   -1    0    0    0    0 -0.00000000000E+00 -0.00000000000E+00 -0.45593999997E+02  0.45594000000E+02  0.51100000000E-03 0. -1.
         23    2    1    2    0    0  0.00000000000E+00  0.00000000000E+00  0.00000000000E+00  0.91188000000E+02  0.91188000000E+02 0.  0.
    9900012    2    3    3    0    0  0.32909617353E+02 -0.28677480458E+01 -0.16263824039E+02  0.54367097437E+02  0.40000030228E+02 0.  0.
         12    1    3    3    0    0 -0.32909617353E+02  0.28677480458E+01  0.16263824039E+02  0.36820902563E+02  0.00000000000E+00 0. -1.
         11    1    4    4    0    0  0.28755862797E+02  0.66039541668E+01 -0.16914319392E+02  0.34008911430E+02  0.51100000000E-03 0. -1.
        -11    1    4    4    0    0  0.10700899752E+02 -0.32939499190E+01  0.15855118535E+01  0.11308103716E+02  0.51100000000E-03 0.  1.
        -12    1    4    4    0    0 -0.65471451964E+01 -0.61777522937E+01 -0.93501650005E+00  0.90500822914E+01  0.00000000000E+00 0.  1.
</event>
<event>
 8    1  0.1271559E-006  0.9118800E+02  0.7816164E-02  0.1184000E+00
        -11   -1    0    0    0    0  0.00000000000E+00  0.00000000000E+00  0.45593999997E+02  0.45594000000E+02  0.51100000000E-03 0. -1.
         11   -1    0    0    0    0 -0.00000000000E+00 -0.00000000000E+00 -0.45593999997E+02  0.45594000000E+02  0.51100000000E-03 0.  1.
         23    2    1    2    0    0  0.17763568394E-14  0.71054273576E-14  0.00000000000E+00  0.91188000000E+02  0.91188000000E+02 0.  0.
    9900012    2    3    3    0    0 -0.83570243032E+01 -0.34933664909E+02 -0.80981114348E+01  0.54367079208E+02  0.39999988670E+02 0.  0.
         12    1    3    3    0    0  0.83570243032E+01  0.34933664909E+02  0.80981114348E+01  0.36820920792E+02  0.00000000000E+00 0. -1.
         11    1    4    4    0    0  0.89598888598E+01  0.92306404972E+00 -0.20748604568E+01  0.92431975958E+01  0.51100000000E-03 0.  1.
        -11    1    4    4    0    0  0.96695008512E+00 -0.28030377297E+01  0.49662971116E+01  0.57841265756E+01  0.51100000000E-03 0. -1.
        -12    1    4    4    0    0 -0.18283863248E+02 -0.33053691229E+02 -0.10989548090E+02  0.39339755037E+02  0.00000000000E+00 0.  1.
</event>
<event>
 8    1  0.1271559E-006  0.9118800E+02  0.7816164E-02  0.1184000E+00
        -11   -1    0    0    0    0  0.00000000000E+00  0.00000000000E+00  0.45593999997E+02  0.45594000000E+02  0.51100000000E-03 0.  1.
         11   -1    0    0    0    0 -0.00000000000E+00 -0.00000000000E+00 -0.45593999997E+02  0.45594000000E+02  0.51100000000E-03 0. -1.
         23    2    1    2    0    0  0.35527136788E-14  0.00000000000E+00  0.00000000000E+00  0.91188000000E+02  0.91188000000E+02 0.  0.
    9900012    2    3    3    0    0  0.19686522859E+02  0.25759138596E+02  0.17455276882E+02  0.54367094328E+02  0.40000023139E+02 0.  0.
         12    1    3    3    0    0 -0.19686522859E+02 -0.25759138596E+02 -0.17455276882E+02  0.36820905672E+02  0.00000000000E+00 0. -1.
         11    1    4    4    0    0  0.23155116439E+02  0.98340405039E+01  0.75988062451E+01  0.26279452554E+02  0.51100000000E-03 0. -1.
        -11    1    4    4    0    0 -0.15830660887E+00 -0.69015530087E+00  0.11079171897E+02  0.11101775782E+02  0.51100000000E-03 0.  1.
         12    1    4    4    0    0 -0.33102869704E+01  0.16615253393E+02 -0.12227012606E+01  0.16985865992E+02  0.00000000000E+00 0. -1.
</event>
<event>
 8    1  0.1271559E-006  0.9118800E+02  0.7816164E-02  0.1184000E+00
        -11   -1    0    0    0    0  0.00000000000E+00  0.00000000000E+00  0.45593999997E+02  0.45594000000E+02  0.51100000000E-03 0. -1.
         11   -1    0    0    0    0 -0.00000000000E+00 -0.00000000000E+00 -0.45593999997E+02  0.45594000000E+02  0.51100000000E-03 0.  1.
         23    2    1    2    0    0  0.00000000000E+00 -0.35527136788E-14  0.35527136788E-14  0.91188000000E+02  0.91188000000E+02 0.  0.
    9900012    2    3    3    0    0  0.26121281967E+02  0.22125892352E+02  0.13561114730E+02  0.54367077732E+02  0.39999985305E+02 0.  0.
        -12    1    3    3    0    0 -0.26121281967E+02 -0.22125892352E+02 -0.13561114730E+02  0.36820922268E+02  0.00000000000E+00 0.  1.
         11    1    4    4    0    0  0.14972941928E+02  0.95017906998E+01  0.17373533776E+02  0.24825645864E+02  0.51100000000E-03 0. -1.
        -11    1    4    4    0    0  0.23734805750E+01  0.52754639333E+01 -0.13409938121E+02  0.14604464058E+02  0.51100000000E-03 0.  1.
        -12    1    4    4    0    0  0.87748594639E+01  0.73486377193E+01  0.95975190751E+01  0.14936967809E+02  0.00000000000E+00 0.  1.
</event>
<event>
 8    1  0.1271559E-006  0.9118800E+02  0.7816164E-02  0.1184000E+00
        -11   -1    0    0    0    0  0.00000000000E+00  0.00000000000E+00  0.45593999997E+02  0.45594000000E+02  0.51100000000E-03 0.  1.
         11   -1    0    0    0    0 -0.00000000000E+00 -0.00000000000E+00 -0.45593999997E+02  0.45594000000E+02  0.51100000000E-03 0. -1.
         23    2    1    2    0    0 -0.66613381478E-15 -0.88817841970E-15  0.00000000000E+00  0.91188000000E+02  0.91188000000E+02 0.  0.
    9900012    2    3    3    0    0 -0.17410159618E+01  0.64106897656E+01 -0.36216671371E+02  0.54367144972E+02  0.40000138591E+02 0.  0.
        -12    1    3    3    0    0  0.17410159618E+01 -0.64106897656E+01  0.36216671371E+02  0.36820855028E+02  0.00000000000E+00 0.  1.
         11    1    4    4    0    0 -0.13171802331E+02  0.86383912294E+01 -0.18490519620E+02  0.24290275745E+02  0.51100000000E-03 0. -1.
        -11    1    4    4    0    0  0.99272621068E+01  0.84879242252E+01 -0.12426617830E+02  0.18028206277E+02  0.51100000000E-03 0.  1.
        -12    1    4    4    0    0  0.15035242626E+01 -0.10715625689E+02 -0.52995339204E+01  0.12048662950E+02  0.00000000000E+00 0.  1.
</event>
<event>
 8    1  0.1271559E-006  0.9118800E+02  0.7816164E-02  0.1184000E+00
        -11   -1    0    0    0    0  0.00000000000E+00  0.00000000000E+00  0.45593999997E+02  0.45594000000E+02  0.51100000000E-03 0.  1.
         11   -1    0    0    0    0 -0.00000000000E+00 -0.00000000000E+00 -0.45593999997E+02  0.45594000000E+02  0.51100000000E-03 0. -1.
         23    2    1    2    0    0 -0.88817841970E-15  0.00000000000E+00  0.00000000000E+00  0.91188000000E+02  0.91188000000E+02 0.  0.
    9900012    2    3    3    0    0 -0.43485346269E+01  0.51425738092E+01 -0.36199707423E+02  0.54367154867E+02  0.40000161151E+02 0.  0.
        -12    1    3    3    0    0  0.43485346269E+01 -0.51425738092E+01  0.36199707423E+02  0.36820845133E+02  0.00000000000E+00 0.  1.
         11    1    4    4    0    0  0.14027695200E+00  0.93030945657E+01 -0.19194650390E+02  0.21330772372E+02  0.51100000000E-03 0. -1.
        -11    1    4    4    0    0  0.32659624639E+01  0.82499188442E+01 -0.16089291631E+02  0.18373703415E+02  0.51100000000E-03 0.  1.
         12    1    4    4    0    0 -0.77547740428E+01 -0.12410439601E+02 -0.91576540199E+00  0.14662679080E+02  0.00000000000E+00 0. -1.
</event>
<event>
 8    1  0.1271559E-006  0.9118800E+02  0.7816164E-02  0.1184000E+00
        -11   -1    0    0    0    0  0.00000000000E+00  0.00000000000E+00  0.45593999997E+02  0.45594000000E+02  0.51100000000E-03 0.  1.
         11   -1    0    0    0    0 -0.00000000000E+00 -0.00000000000E+00 -0.45593999997E+02  0.45594000000E+02  0.51100000000E-03 0. -1.
         23    2    1    2    0    0  0.00000000000E+00  0.00000000000E+00  0.00000000000E+00  0.91188000000E+02  0.91188000000E+02 0.  0.
    9900012    2    3    3    0    0 -0.15931686113E+02 -0.27708285417E+02  0.18281471900E+02  0.54367083146E+02  0.39999997648E+02 0.  0.
         12    1    3    3    0    0  0.15931686113E+02  0.27708285417E+02 -0.18281471900E+02  0.36820916854E+02  0.00000000000E+00 0. -1.
         11    1    4    4    0    0 -0.93246740651E+00 -0.41771742806E+01 -0.20401262402E+01  0.47413495728E+01  0.51100000000E-03 0. -1.
        -11    1    4    4    0    0 -0.99837588438E+01  0.79354405554E+01  0.97525148286E+01  0.16054849834E+02  0.51100000000E-03 0.  1.
        -12    1    4    4    0    0 -0.50154598630E+01 -0.31466551691E+02  0.10569083311E+02  0.33570883739E+02  0.00000000000E+00 0.  1.
</event>
<event>
 8    1  0.1271559E-006  0.9118800E+02  0.7816164E-02  0.1184000E+00
        -11   -1    0    0    0    0  0.00000000000E+00  0.00000000000E+00  0.45593999997E+02  0.45594000000E+02  0.51100000000E-03 0.  1.
         11   -1    0    0    0    0 -0.00000000000E+00 -0.00000000000E+00 -0.45593999997E+02  0.45594000000E+02  0.51100000000E-03 0. -1.
         23    2    1    2    0    0 -0.35527136788E-14  0.35527136788E-14  0.00000000000E+00  0.91188000000E+02  0.91188000000E+02 0.  0.
    9900012    2    3    3    0    0 -0.18664378070E+02  0.25203324555E+02 -0.19292871531E+02  0.54367062080E+02  0.39999949623E+02 0.  0.
        -12    1    3    3    0    0  0.18664378070E+02 -0.25203324555E+02  0.19292871531E+02  0.36820937920E+02  0.00000000000E+00 0.  1.
         11    1    4    4    0    0 -0.19043723131E+01  0.94139022586E+01 -0.13985383873E+02  0.16965823056E+02  0.51100000000E-03 0. -1.
        -11    1    4    4    0    0 -0.13750405886E+02 -0.51059689414E+01 -0.69408337015E+01  0.16227130172E+02  0.51100000000E-03 0.  1.
         12    1    4    4    0    0 -0.30095998709E+01  0.20895391238E+02  0.16333460432E+01  0.21174108852E+02  0.00000000000E+00 0. -1.
</event>
<event>
 8    1  0.1271559E-006  0.9118800E+02  0.7816164E-02  0.1184000E+00
        -11   -1    0    0    0    0  0.00000000000E+00  0.00000000000E+00  0.45593999997E+02  0.45594000000E+02  0.51100000000E-03 0.  1.
         11   -1    0    0    0    0 -0.00000000000E+00 -0.00000000000E+00 -0.45593999997E+02  0.45594000000E+02  0.51100000000E-03 0. -1.
         23    2    1    2    0    0  0.35527136788E-14  0.35527136788E-14  0.00000000000E+00  0.91188000000E+02  0.91188000000E+02 0.  0.
    9900012    2    3    3    0    0 -0.24527927416E+02 -0.26027988793E+02  0.87581040319E+01  0.54367084609E+02  0.40000000984E+02 0.  0.
         12    1    3    3    0    0  0.24527927416E+02  0.26027988793E+02 -0.87581040319E+01  0.36820915391E+02  0.00000000000E+00 0. -1.
         11    1    4    4    0    0  0.13397119372E+01 -0.19160221200E+02  0.77050407800E+01  0.20694843758E+02  0.51100000000E-03 0. -1.
        -11    1    4    4    0    0 -0.27786064973E+02 -0.19905915664E+01 -0.13856369100E+01  0.27891716537E+02  0.51100000000E-03 0.  1.
        -12    1    4    4    0    0  0.19184256198E+01 -0.48771760271E+01  0.24387001619E+01  0.57805243134E+01  0.00000000000E+00 0.  1.
</event>
<event>
 8    1  0.1271559E-006  0.9118800E+02  0.7816164E-02  0.1184000E+00
        -11   -1    0    0    0    0  0.00000000000E+00  0.00000000000E+00  0.45593999997E+02  0.45594000000E+02  0.51100000000E-03 0.  1.
         11   -1    0    0    0    0 -0.00000000000E+00 -0.00000000000E+00 -0.45593999997E+02  0.45594000000E+02  0.51100000000E-03 0. -1.
         23    2    1    2    0    0  0.35527136788E-14 -0.10658141036E-13  0.35527136788E-14  0.91188000000E+02  0.91188000000E+02 0.  0.
    9900012    2    3    3    0    0 -0.18422086878E+02  0.29004619178E+02 -0.13233993959E+02  0.54367084548E+02  0.40000000844E+02 0.  0.
        -12    1    3    3    0    0  0.18422086878E+02 -0.29004619178E+02  0.13233993959E+02  0.36820915452E+02  0.00000000000E+00 0.  1.
         11    1    4    4    0    0 -0.14494094887E+02  0.25626146629E+02  0.31540243318E+01  0.29609560067E+02  0.51100000000E-03 0. -1.
        -11    1    4    4    0    0 -0.58503074184E+00 -0.48081290171E+01  0.12715236246E+01  0.50077078792E+01  0.51100000000E-03 0.  1.
        -12    1    4    4    0    0 -0.33429612495E+01  0.81866015665E+01 -0.17659541915E+02  0.19749816601E+02  0.00000000000E+00 0.  1.
</event>
<event>
 8    1  0.1271559E-006  0.9118800E+02  0.7816164E-02  0.1184000E+00
        -11   -1    0    0    0    0  0.00000000000E+00  0.00000000000E+00  0.45593999997E+02  0.45594000000E+02  0.51100000000E-03 0. -1.
         11   -1    0    0    0    0 -0.00000000000E+00 -0.00000000000E+00 -0.45593999997E+02  0.45594000000E+02  0.51100000000E-03 0.  1.
         23    2    1    2    0    0  0.00000000000E+00  0.00000000000E+00  0.17763568394E-14  0.91188000000E+02  0.91188000000E+02 0.  0.
    9900012    2    3    3    0    0 -0.42742055386E+01  0.33465138142E+02  0.14751055596E+02  0.54367109937E+02  0.40000058723E+02 0.  0.
        -12    1    3    3    0    0  0.42742055386E+01 -0.33465138142E+02 -0.14751055596E+02  0.36820890063E+02  0.00000000000E+00 0.  1.
         11    1    4    4    0    0  0.23975633961E+00  0.17707975659E+02  0.13819094215E+02  0.22463242202E+02  0.51100000000E-03 0. -1.
        -11    1    4    4    0    0 -0.62978223570E+01 -0.21600638741E+01  0.97881709968E+01  0.11837936227E+02  0.51100000000E-03 0.  1.
        -12    1    4    4    0    0  0.17838604788E+01  0.17917226357E+02 -0.88562096157E+01  0.20065931508E+02  0.00000000000E+00 0.  1.
</event>
<event>
 8    1  0.1271559E-006  0.9118800E+02  0.7816164E-02  0.1184000E+00
        -11   -1    0    0    0    0  0.00000000000E+00  0.00000000000E+00  0.45593999997E+02  0.45594000000E+02  0.51100000000E-03 0. -1.
         11   -1    0    0    0    0 -0.00000000000E+00 -0.00000000000E+00 -0.45593999997E+02  0.45594000000E+02  0.51100000000E-03 0.  1.
         23    2    1    2    0    0  0.00000000000E+00 -0.35527136788E-14  0.00000000000E+00  0.91188000000E+02  0.91188000000E+02 0.  0.
    9900012    2    3    3    0    0  0.11848766316E+02  0.22408385719E+02  0.26706776101E+02  0.54367069763E+02  0.39999967139E+02 0.  0.
        -12    1    3    3    0    0 -0.11848766316E+02 -0.22408385719E+02 -0.26706776101E+02  0.36820930237E+02  0.00000000000E+00 0.  1.
         11    1    4    4    0    0  0.78051786974E+01  0.16311335594E+02 -0.27036002735E+01  0.18283597514E+02  0.51100000000E-03 0. -1.
        -11    1    4    4    0    0  0.59846991429E+01 -0.57980395893E+01  0.16090976848E+02  0.18120524913E+02  0.51100000000E-03 0.  1.
        -12    1    4    4    0    0 -0.19411115240E+01  0.11895089714E+02  0.13319399526E+02  0.17962947336E+02  0.00000000000E+00 0.  1.
</event>
<event>
 8    1  0.1271559E-006  0.9118800E+02  0.7816164E-02  0.1184000E+00
        -11   -1    0    0    0    0  0.00000000000E+00  0.00000000000E+00  0.45593999997E+02  0.45594000000E+02  0.51100000000E-03 0.  1.
         11   -1    0    0    0    0 -0.00000000000E+00 -0.00000000000E+00 -0.45593999997E+02  0.45594000000E+02  0.51100000000E-03 0. -1.
         23    2    1    2    0    0  0.00000000000E+00  0.00000000000E+00  0.35527136788E-14  0.91188000000E+02  0.91188000000E+02 0.  0.
    9900012    2    3    3    0    0  0.17589627073E+02 -0.17322676430E+02  0.27318661184E+02  0.54367090884E+02  0.40000015288E+02 0.  0.
         12    1    3    3    0    0 -0.17589627073E+02  0.17322676430E+02 -0.27318661184E+02  0.36820909116E+02  0.00000000000E+00 0. -1.
         11    1    4    4    0    0 -0.61642106224E+01  0.19388674459E+01 -0.47153481267E+01  0.79994504679E+01  0.51100000000E-03 0. -1.
        -11    1    4    4    0    0  0.23232478655E+02 -0.14655775808E+02  0.21579204259E+02  0.34931388259E+02  0.51100000000E-03 0.  1.
         12    1    4    4    0    0  0.52135904020E+00 -0.46057680681E+01  0.10454805051E+02  0.11436252157E+02  0.00000000000E+00 0. -1.
</event>
<event>
 8    1  0.1271559E-006  0.9118800E+02  0.7816164E-02  0.1184000E+00
        -11   -1    0    0    0    0  0.00000000000E+00  0.00000000000E+00  0.45593999997E+02  0.45594000000E+02  0.51100000000E-03 0.  1.
         11   -1    0    0    0    0 -0.00000000000E+00 -0.00000000000E+00 -0.45593999997E+02  0.45594000000E+02  0.51100000000E-03 0. -1.
         23    2    1    2    0    0  0.00000000000E+00 -0.35527136788E-14  0.00000000000E+00  0.91188000000E+02  0.91188000000E+02 0.  0.
    9900012    2    3    3    0    0 -0.63327554753E+01  0.21304640461E+02 -0.29356161797E+02  0.54367139981E+02  0.40000127215E+02 0.  0.
        -12    1    3    3    0    0  0.63327554753E+01 -0.21304640461E+02  0.29356161797E+02  0.36820860019E+02  0.00000000000E+00 0.  1.
         11    1    4    4    0    0 -0.12124729931E+01  0.35721025122E+01 -0.27544975540E+02  0.27802080585E+02  0.51100000000E-03 0. -1.
        -11    1    4    4    0    0  0.21210116212E+01  0.12193338774E+00 -0.65977693643E+01  0.69313865059E+01  0.51100000000E-03 0.  1.
        -12    1    4    4    0    0 -0.72412941033E+01  0.17610604561E+02  0.47865831075E+01  0.19633672890E+02  0.00000000000E+00 0.  1.
</event>
<event>
 8    1  0.1271559E-006  0.9118800E+02  0.7816164E-02  0.1184000E+00
        -11   -1    0    0    0    0  0.00000000000E+00  0.00000000000E+00  0.45593999997E+02  0.45594000000E+02  0.51100000000E-03 0.  1.
         11   -1    0    0    0    0 -0.00000000000E+00 -0.00000000000E+00 -0.45593999997E+02  0.45594000000E+02  0.51100000000E-03 0. -1.
         23    2    1    2    0    0  0.00000000000E+00  0.35527136788E-14  0.17763568394E-14  0.91188000000E+02  0.91188000000E+02 0.  0.
    9900012    2    3    3    0    0 -0.12599656505E+02  0.31156280980E+02 -0.15043733255E+02  0.54367094270E+02  0.40000023007E+02 0.  0.
        -12    1    3    3    0    0  0.12599656505E+02 -0.31156280980E+02  0.15043733255E+02  0.36820905730E+02  0.00000000000E+00 0.  1.
         11    1    4    4    0    0  0.77969445610E+00  0.20303312069E+02 -0.13738442950E+02  0.24527071153E+02  0.51100000000E-03 0. -1.
        -11    1    4    4    0    0 -0.56003934320E+01  0.94053174038E+01 -0.12189810007E+02  0.16383402282E+02  0.51100000000E-03 0.  1.
        -12    1    4    4    0    0 -0.77789575291E+01  0.14476515075E+01  0.10884519702E+02  0.13456620834E+02  0.00000000000E+00 0.  1.
</event>
<event>
 8    1  0.1271559E-006  0.9118800E+02  0.7816164E-02  0.1184000E+00
        -11   -1    0    0    0    0  0.00000000000E+00  0.00000000000E+00  0.45593999997E+02  0.45594000000E+02  0.51100000000E-03 0.  1.
         11   -1    0    0    0    0 -0.00000000000E+00 -0.00000000000E+00 -0.45593999997E+02  0.45594000000E+02  0.51100000000E-03 0. -1.
         23    2    1    2    0    0  0.00000000000E+00  0.00000000000E+00  0.00000000000E+00  0.91188000000E+02  0.91188000000E+02 0.  0.
    9900012    2    3    3    0    0 -0.15443869746E+02 -0.24969763065E+02 -0.22221121184E+02  0.54367076506E+02  0.39999982512E+02 0.  0.
        -12    1    3    3    0    0  0.15443869746E+02  0.24969763065E+02  0.22221121184E+02  0.36820923494E+02  0.00000000000E+00 0.  1.
         11    1    4    4    0    0 -0.18062133537E+02 -0.21914389209E+02 -0.21373534856E+02  0.35543060009E+02  0.51100000000E-03 0. -1.
        -11    1    4    4    0    0 -0.73779009590E+01  0.20577224052E+00 -0.32077731625E+01  0.80477061141E+01  0.51100000000E-03 0.  1.
         12    1    4    4    0    0  0.99961647502E+01 -0.32611460970E+01  0.23601868350E+01  0.10776310383E+02  0.00000000000E+00 0. -1.
</event>
<event>
 8    1  0.1271559E-006  0.9118800E+02  0.7816164E-02  0.1184000E+00
        -11   -1    0    0    0    0  0.00000000000E+00  0.00000000000E+00  0.45593999997E+02  0.45594000000E+02  0.51100000000E-03 0. -1.
         11   -1    0    0    0    0 -0.00000000000E+00 -0.00000000000E+00 -0.45593999997E+02  0.45594000000E+02  0.51100000000E-03 0.  1.
         23    2    1    2    0    0  0.00000000000E+00 -0.11102230246E-14  0.00000000000E+00  0.91188000000E+02  0.91188000000E+02 0.  0.
    9900012    2    3    3    0    0  0.19211521391E+02 -0.12079921989E+01  0.31388496748E+02  0.54367088450E+02  0.40000009739E+02 0.  0.
        -12    1    3    3    0    0 -0.19211521391E+02  0.12079921989E+01 -0.31388496748E+02  0.36820911550E+02  0.00000000000E+00 0.  1.
         11    1    4    4    0    0  0.11305641315E+02  0.17772498586E+02  0.19002242734E+02  0.28368370780E+02  0.51100000000E-03 0. -1.
        -11    1    4    4    0    0 -0.21295129304E+01 -0.51482718745E+01  0.45746566162E+01  0.72088148840E+01  0.51100000000E-03 0.  1.
         12    1    4    4    0    0  0.10035393007E+02 -0.13832218911E+02  0.78115973975E+01  0.18789902786E+02  0.00000000000E+00 0. -1.
</event>
<event>
 8    1  0.1271559E-006  0.9118800E+02  0.7816164E-02  0.1184000E+00
        -11   -1    0    0    0    0  0.00000000000E+00  0.00000000000E+00  0.45593999997E+02  0.45594000000E+02  0.51100000000E-03 0.  1.
         11   -1    0    0    0    0 -0.00000000000E+00 -0.00000000000E+00 -0.45593999997E+02  0.45594000000E+02  0.51100000000E-03 0. -1.
         23    2    1    2    0    0  0.22204460493E-14  0.00000000000E+00  0.15543122345E-14  0.91188000000E+02  0.91188000000E+02 0.  0.
    9900012    2    3    3    0    0 -0.25335372802E+01  0.36697498925E+02 -0.16292941080E+01  0.54367084235E+02  0.40000000130E+02 0.  0.
        -12    1    3    3    0    0  0.25335372802E+01 -0.36697498925E+02  0.16292941080E+01  0.36820915765E+02  0.00000000000E+00 0.  1.
         11    1    4    4    0    0 -0.12363161995E+02  0.82403339407E+01 -0.13781342647E+02  0.20265149479E+02  0.51100000000E-03 0. -1.
        -11    1    4    4    0    0 -0.71024298053E+00  0.36879487890E+01  0.49928653399E+01  0.62477288614E+01  0.51100000000E-03 0.  1.
         12    1    4    4    0    0  0.10539867695E+02  0.24769216195E+02  0.71591831994E+01  0.27854205895E+02  0.00000000000E+00 0. -1.
</event>
<event>
 8    1  0.1271559E-006  0.9118800E+02  0.7816164E-02  0.1184000E+00
        -11   -1    0    0    0    0  0.00000000000E+00  0.00000000000E+00  0.45593999997E+02  0.45594000000E+02  0.51100000000E-03 0. -1.
         11   -1    0    0    0    0 -0.00000000000E+00 -0.00000000000E+00 -0.45593999997E+02  0.45594000000E+02  0.51100000000E-03 0.  1.
         23    2    1    2    0    0  0.00000000000E+00  0.35527136788E-14 -0.17763568394E-14  0.91188000000E+02  0.91188000000E+02 0.  0.
    9900012    2    3    3    0    0  0.25045351383E+02 -0.26268410018E+02  0.62033732682E+01  0.54367070752E+02  0.39999969393E+02 0.  0.
        -12    1    3    3    0    0 -0.25045351383E+02  0.26268410018E+02 -0.62033732682E+01  0.36820929248E+02  0.00000000000E+00 0.  1.
         11    1    4    4    0    0  0.21506526731E+02 -0.19246026320E+02  0.17172174812E+02  0.33583088143E+02  0.51100000000E-03 0. -1.
        -11    1    4    4    0    0 -0.44754700516E+01 -0.99171325281E+00 -0.96297384550E+01  0.10665139021E+02  0.51100000000E-03 0.  1.
        -12    1    4    4    0    0  0.80142947036E+01 -0.60306704446E+01 -0.13390630892E+01  0.10118843588E+02  0.00000000000E+00 0.  1.
</event>
<event>
 8    1  0.1271559E-006  0.9118800E+02  0.7816164E-02  0.1184000E+00
        -11   -1    0    0    0    0  0.00000000000E+00  0.00000000000E+00  0.45593999997E+02  0.45594000000E+02  0.51100000000E-03 0.  1.
         11   -1    0    0    0    0 -0.00000000000E+00 -0.00000000000E+00 -0.45593999997E+02  0.45594000000E+02  0.51100000000E-03 0. -1.
         23    2    1    2    0    0  0.00000000000E+00  0.13322676296E-14  0.00000000000E+00  0.91188000000E+02  0.91188000000E+02 0.  0.
    9900012    2    3    3    0    0 -0.65527452162E+01 -0.31680813338E+01 -0.36094366898E+02  0.54367101980E+02  0.40000040584E+02 0.  0.
        -12    1    3    3    0    0  0.65527452162E+01  0.31680813338E+01  0.36094366898E+02  0.36820898020E+02  0.00000000000E+00 0.  1.
         11    1    4    4    0    0 -0.29669043919E+01 -0.93380919147E+01 -0.19108808574E+01  0.99826824146E+01  0.51100000000E-03 0. -1.
        -11    1    4    4    0    0  0.98715321887E+01 -0.44403340199E+01 -0.99417246761E+01  0.14696993017E+02  0.51100000000E-03 0.  1.
         12    1    4    4    0    0 -0.13457373013E+02  0.10610344601E+02 -0.24241761365E+02  0.29687426548E+02  0.00000000000E+00 0. -1.
</event>
<event>
 8    1  0.1271559E-006  0.9118800E+02  0.7816164E-02  0.1184000E+00
        -11   -1    0    0    0    0  0.00000000000E+00  0.00000000000E+00  0.45593999997E+02  0.45594000000E+02  0.51100000000E-03 0.  1.
         11   -1    0    0    0    0 -0.00000000000E+00 -0.00000000000E+00 -0.45593999997E+02  0.45594000000E+02  0.51100000000E-03 0. -1.
         23    2    1    2    0    0  0.35527136788E-14 -0.17763568394E-14  0.35527136788E-14  0.91188000000E+02  0.91188000000E+02 0.  0.
    9900012    2    3    3    0    0  0.21380415267E+02  0.15146171445E+02 -0.25869908960E+02  0.54367070408E+02  0.39999968610E+02 0.  0.
        -12    1    3    3    0    0 -0.21380415267E+02 -0.15146171445E+02  0.25869908960E+02  0.36820929592E+02  0.00000000000E+00 0.  1.
         11    1    4    4    0    0  0.12916507710E+02 -0.91690444439E+01 -0.48315082918E+01  0.16560525960E+02  0.51100000000E-03 0. -1.
        -11    1    4    4    0    0  0.14876342922E+01  0.12047347217E+02 -0.20327254322E+02  0.23675913906E+02  0.51100000000E-03 0.  1.
         12    1    4    4    0    0  0.69762732646E+01  0.12267868671E+02 -0.71114634613E+00  0.14130630542E+02  0.00000000000E+00 0. -1.
</event>
<event>
 8    1  0.1271559E-006  0.9118800E+02  0.7816164E-02  0.1184000E+00
        -11   -1    0    0    0    0  0.00000000000E+00  0.00000000000E+00  0.45593999997E+02  0.45594000000E+02  0.51100000000E-03 0. -1.
         11   -1    0    0    0    0 -0.00000000000E+00 -0.00000000000E+00 -0.45593999997E+02  0.45594000000E+02  0.51100000000E-03 0.  1.
         23    2    1    2    0    0 -0.35527136788E-14 -0.71054273576E-14  0.77715611724E-15  0.91188000000E+02  0.91188000000E+02 0.  0.
    9900012    2    3    3    0    0 -0.15847053090E+02 -0.33231925630E+02  0.53904496472E+00  0.54367074669E+02  0.39999978323E+02 0.  0.
        -12    1    3    3    0    0  0.15847053090E+02  0.33231925630E+02 -0.53904496472E+00  0.36820925331E+02  0.00000000000E+00 0.  1.
         11    1    4    4    0    0  0.31728333457E+01 -0.11250664153E+01 -0.96015347328E+00  0.35006486301E+01  0.51100000000E-03 0. -1.
        -11    1    4    4    0    0 -0.22583647557E+02 -0.21240824583E+02 -0.11937796341E+02  0.33222052130E+02  0.51100000000E-03 0.  1.
         12    1    4    4    0    0  0.35637611213E+01 -0.10866034632E+02  0.13436994779E+02  0.17644373909E+02  0.00000000000E+00 0. -1.
</event>
<event>
 8    1  0.1271559E-006  0.9118800E+02  0.7816164E-02  0.1184000E+00
        -11   -1    0    0    0    0  0.00000000000E+00  0.00000000000E+00  0.45593999997E+02  0.45594000000E+02  0.51100000000E-03 0.  1.
         11   -1    0    0    0    0 -0.00000000000E+00 -0.00000000000E+00 -0.45593999997E+02  0.45594000000E+02  0.51100000000E-03 0. -1.
         23    2    1    2    0    0 -0.88817841970E-15  0.35527136788E-14  0.71054273576E-14  0.91188000000E+02  0.91188000000E+02 0.  0.
    9900012    2    3    3    0    0 -0.49208058294E+01 -0.16616424401E+02 -0.32487862982E+02  0.54367066674E+02  0.39999960097E+02 0.  0.
        -12    1    3    3    0    0  0.49208058294E+01  0.16616424401E+02  0.32487862982E+02  0.36820933326E+02  0.00000000000E+00 0.  1.
         11    1    4    4    0    0 -0.18599190354E+02 -0.48968102052E+01 -0.27543633715E+02  0.33594052903E+02  0.51100000000E-03 0. -1.
        -11    1    4    4    0    0  0.28559839534E+01 -0.30108183289E+00  0.20778107439E+01  0.35446568749E+01  0.51100000000E-03 0.  1.
         12    1    4    4    0    0  0.10822400571E+02 -0.11418532363E+02 -0.70220400107E+01  0.17228356896E+02  0.00000000000E+00 0. -1.
</event>
<event>
 8    1  0.1271559E-006  0.9118800E+02  0.7816164E-02  0.1184000E+00
        -11   -1    0    0    0    0  0.00000000000E+00  0.00000000000E+00  0.45593999997E+02  0.45594000000E+02  0.51100000000E-03 0. -1.
         11   -1    0    0    0    0 -0.00000000000E+00 -0.00000000000E+00 -0.45593999997E+02  0.45594000000E+02  0.51100000000E-03 0.  1.
         23    2    1    2    0    0  0.00000000000E+00  0.00000000000E+00  0.00000000000E+00  0.91188000000E+02  0.91188000000E+02 0.  0.
    9900012    2    3    3    0    0 -0.31629951453E+02 -0.13826078167E+02  0.12812702627E+02  0.54367087260E+02  0.40000007027E+02 0.  0.
        -12    1    3    3    0    0  0.31629951453E+02  0.13826078167E+02 -0.12812702627E+02  0.36820912740E+02  0.00000000000E+00 0.  1.
         11    1    4    4    0    0 -0.12052421021E+02  0.84836324315E+01  0.44226524145E+01  0.15388070910E+02  0.51100000000E-03 0. -1.
        -11    1    4    4    0    0 -0.16223283408E+02 -0.14906817014E+02 -0.56602211396E+01  0.22747444288E+02  0.51100000000E-03 0.  1.
        -12    1    4    4    0    0 -0.33542470238E+01 -0.74028935842E+01  0.14050271352E+02  0.16231572062E+02  0.00000000000E+00 0.  1.
</event>
<event>
 8    1  0.1271559E-006  0.9118800E+02  0.7816164E-02  0.1184000E+00
        -11   -1    0    0    0    0  0.00000000000E+00  0.00000000000E+00  0.45593999997E+02  0.45594000000E+02  0.51100000000E-03 0.  1.
         11   -1    0    0    0    0 -0.00000000000E+00 -0.00000000000E+00 -0.45593999997E+02  0.45594000000E+02  0.51100000000E-03 0. -1.
         23    2    1    2    0    0  0.27755575616E-15  0.00000000000E+00  0.00000000000E+00  0.91188000000E+02  0.91188000000E+02 0.  0.
    9900012    2    3    3    0    0 -0.29779893759E+00  0.89040115185E+01  0.35726881722E+02  0.54367079548E+02  0.39999989446E+02 0.  0.
         12    1    3    3    0    0  0.29779893759E+00 -0.89040115185E+01 -0.35726881722E+02  0.36820920452E+02  0.00000000000E+00 0. -1.
         11    1    4    4    0    0  0.77610310612E+01  0.40284047908E+01  0.40947087435E+01  0.96554797005E+01  0.51100000000E-03 0. -1.
        -11    1    4    4    0    0 -0.30483615808E+01  0.84492380310E+01  0.36039447758E+02  0.37141942957E+02  0.51100000000E-03 0.  1.
        -12    1    4    4    0    0 -0.50104684180E+01 -0.35736313033E+01 -0.44072747797E+01  0.75696568907E+01  0.00000000000E+00 0.  1.
</event>
<event>
 8    1  0.1271559E-006  0.9118800E+02  0.7816164E-02  0.1184000E+00
        -11   -1    0    0    0    0  0.00000000000E+00  0.00000000000E+00  0.45593999997E+02  0.45594000000E+02  0.51100000000E-03 0. -1.
         11   -1    0    0    0    0 -0.00000000000E+00 -0.00000000000E+00 -0.45593999997E+02  0.45594000000E+02  0.51100000000E-03 0.  1.
         23    2    1    2    0    0  0.00000000000E+00  0.00000000000E+00  0.00000000000E+00  0.91188000000E+02  0.91188000000E+02 0.  0.
    9900012    2    3    3    0    0  0.32460380799E+02 -0.12651661286E+02  0.11918231231E+02  0.54367012906E+02  0.39999837521E+02 0.  0.
        -12    1    3    3    0    0 -0.32460380799E+02  0.12651661286E+02 -0.11918231231E+02  0.36820987094E+02  0.00000000000E+00 0.  1.
         11    1    4    4    0    0  0.88356848050E+01 -0.15771804990E+01  0.16367260813E+02  0.18666656130E+02  0.51100000000E-03 0. -1.
        -11    1    4    4    0    0  0.22811804979E+02 -0.44981037798E+01  0.53618815403E+01  0.23861289947E+02  0.51100000000E-03 0.  1.
        -12    1    4    4    0    0  0.81289101541E+00 -0.65763770072E+01 -0.98109111218E+01  0.11839066829E+02  0.00000000000E+00 0.  1.
</event>
<event>
 8    1  0.1271559E-006  0.9118800E+02  0.7816164E-02  0.1184000E+00
        -11   -1    0    0    0    0  0.00000000000E+00  0.00000000000E+00  0.45593999997E+02  0.45594000000E+02  0.51100000000E-03 0.  1.
         11   -1    0    0    0    0 -0.00000000000E+00 -0.00000000000E+00 -0.45593999997E+02  0.45594000000E+02  0.51100000000E-03 0. -1.
         23    2    1    2    0    0  0.00000000000E+00 -0.71054273576E-14 -0.44408920985E-14  0.91188000000E+02  0.91188000000E+02 0.  0.
    9900012    2    3    3    0    0  0.17448333319E+02  0.31775170783E+02  0.64555985252E+01  0.54367074344E+02  0.39999977581E+02 0.  0.
         12    1    3    3    0    0 -0.17448333319E+02 -0.31775170783E+02 -0.64555985252E+01  0.36820925656E+02  0.00000000000E+00 0. -1.
         11    1    4    4    0    0  0.10922486013E+02  0.80343083950E+01 -0.14800933231E+02  0.20072828322E+02  0.51100000000E-03 0. -1.
        -11    1    4    4    0    0 -0.21301429642E+01  0.49949821407E+01  0.13113338622E+01  0.55863183218E+01  0.51100000000E-03 0.  1.
         12    1    4    4    0    0  0.86559902697E+01  0.18745880247E+02  0.19945197894E+02  0.28707927700E+02  0.00000000000E+00 0. -1.
</event>
<event>
 8    1  0.1271559E-006  0.9118800E+02  0.7816164E-02  0.1184000E+00
        -11   -1    0    0    0    0  0.00000000000E+00  0.00000000000E+00  0.45593999997E+02  0.45594000000E+02  0.51100000000E-03 0.  1.
         11   -1    0    0    0    0 -0.00000000000E+00 -0.00000000000E+00 -0.45593999997E+02  0.45594000000E+02  0.51100000000E-03 0. -1.
         23    2    1    2    0    0  0.00000000000E+00  0.00000000000E+00  0.17763568394E-14  0.91188000000E+02  0.91188000000E+02 0.  0.
    9900012    2    3    3    0    0  0.10200911201E+02  0.33086305471E+02 -0.12530791980E+02  0.54367042018E+02  0.39999903888E+02 0.  0.
        -12    1    3    3    0    0 -0.10200911201E+02 -0.33086305471E+02  0.12530791980E+02  0.36820957982E+02  0.00000000000E+00 0.  1.
         11    1    4    4    0    0 -0.66109238764E+01  0.32848214051E+02 -0.12590377277E+02  0.35794232512E+02  0.51100000000E-03 0. -1.
        -11    1    4    4    0    0  0.32646188954E+01 -0.25218769984E+01  0.20469988423E+01  0.46051932260E+01  0.51100000000E-03 0.  1.
         12    1    4    4    0    0  0.13547216182E+02  0.27599684182E+01 -0.19874135451E+01  0.13967616280E+02  0.00000000000E+00 0. -1.
</event>
<event>
 8    1  0.1271559E-006  0.9118800E+02  0.7816164E-02  0.1184000E+00
        -11   -1    0    0    0    0  0.00000000000E+00  0.00000000000E+00  0.45593999997E+02  0.45594000000E+02  0.51100000000E-03 0.  1.
         11   -1    0    0    0    0 -0.00000000000E+00 -0.00000000000E+00 -0.45593999997E+02  0.45594000000E+02  0.51100000000E-03 0. -1.
         23    2    1    2    0    0  0.00000000000E+00  0.00000000000E+00  0.44408920985E-15  0.91188000000E+02  0.91188000000E+02 0.  0.
    9900012    2    3    3    0    0  0.54857420057E+01  0.36379555928E+02  0.14880631562E+01  0.54367084926E+02  0.40000001706E+02 0.  0.
        -12    1    3    3    0    0 -0.54857420057E+01 -0.36379555928E+02 -0.14880631562E+01  0.36820915074E+02  0.00000000000E+00 0.  1.
         11    1    4    4    0    0 -0.68234621946E+00  0.28600284518E+02 -0.89869176860E+01  0.29986773095E+02  0.51100000000E-03 0. -1.
        -11    1    4    4    0    0  0.12694124711E+02  0.44195699299E+01  0.27417684607E+01  0.13718261373E+02  0.51100000000E-03 0.  1.
        -12    1    4    4    0    0 -0.65260364856E+01  0.33597014805E+01  0.77332123814E+01  0.10662050459E+02  0.00000000000E+00 0.  1.
</event>
<event>
 8    1  0.1271559E-006  0.9118800E+02  0.7816164E-02  0.1184000E+00
        -11   -1    0    0    0    0  0.00000000000E+00  0.00000000000E+00  0.45593999997E+02  0.45594000000E+02  0.51100000000E-03 0. -1.
         11   -1    0    0    0    0 -0.00000000000E+00 -0.00000000000E+00 -0.45593999997E+02  0.45594000000E+02  0.51100000000E-03 0.  1.
         23    2    1    2    0    0 -0.35527136788E-14  0.00000000000E+00  0.00000000000E+00  0.91188000000E+02  0.91188000000E+02 0.  0.
    9900012    2    3    3    0    0 -0.25923881874E+02  0.14269582041E+02 -0.21911456044E+02  0.54367074849E+02  0.39999978732E+02 0.  0.
         12    1    3    3    0    0  0.25923881874E+02 -0.14269582041E+02  0.21911456044E+02  0.36820925151E+02  0.00000000000E+00 0. -1.
         11    1    4    4    0    0  0.25771178280E+01  0.11444387079E+02 -0.46515977825E+01  0.12619544133E+02  0.51100000000E-03 0. -1.
        -11    1    4    4    0    0 -0.33890169079E+01  0.81847667883E+01  0.26598446328E+01  0.92493576378E+01  0.51100000000E-03 0.  1.
        -12    1    4    4    0    0 -0.25111982794E+02 -0.53595718269E+01 -0.19919702894E+02  0.32498173078E+02  0.00000000000E+00 0.  1.
</event>
<event>
 8    1  0.1271559E-006  0.9118800E+02  0.7816164E-02  0.1184000E+00
        -11   -1    0    0    0    0  0.00000000000E+00  0.00000000000E+00  0.45593999997E+02  0.45594000000E+02  0.51100000000E-03 0.  1.
         11   -1    0    0    0    0 -0.00000000000E+00 -0.00000000000E+00 -0.45593999997E+02  0.45594000000E+02  0.51100000000E-03 0. -1.
         23    2    1    2    0    0  0.00000000000E+00  0.00000000000E+00  0.88817841970E-15  0.91188000000E+02  0.91188000000E+02 0.  0.
    9900012    2    3    3    0    0  0.70266020246E+01 -0.35539386547E+02  0.65846813852E+01  0.54367093423E+02  0.40000021077E+02 0.  0.
         12    1    3    3    0    0 -0.70266020246E+01  0.35539386547E+02 -0.65846813852E+01  0.36820906577E+02  0.00000000000E+00 0. -1.
         11    1    4    4    0    0 -0.91082097513E+00 -0.15271519677E+02  0.45659961633E+01  0.15965501224E+02  0.51100000000E-03 0. -1.
        -11    1    4    4    0    0  0.36239835669E+01 -0.28372443790E+02  0.43435035867E+01  0.28930863229E+02  0.51100000000E-03 0.  1.
        -12    1    4    4    0    0  0.43134394328E+01  0.81045769202E+01 -0.23248183649E+01  0.94707289701E+01  0.00000000000E+00 0.  1.
</event>
<event>
 8    1  0.1271559E-006  0.9118800E+02  0.7816164E-02  0.1184000E+00
        -11   -1    0    0    0    0  0.00000000000E+00  0.00000000000E+00  0.45593999997E+02  0.45594000000E+02  0.51100000000E-03 0. -1.
         11   -1    0    0    0    0 -0.00000000000E+00 -0.00000000000E+00 -0.45593999997E+02  0.45594000000E+02  0.51100000000E-03 0.  1.
         23    2    1    2    0    0 -0.88817841970E-15  0.00000000000E+00  0.00000000000E+00  0.91188000000E+02  0.91188000000E+02 0.  0.
    9900012    2    3    3    0    0 -0.38794803991E+01 -0.22018243093E+02  0.29256212846E+02  0.54367090354E+02  0.40000014080E+02 0.  0.
        -12    1    3    3    0    0  0.38794803991E+01  0.22018243093E+02 -0.29256212846E+02  0.36820909646E+02  0.00000000000E+00 0.  1.
         11    1    4    4    0    0  0.49389726370E-01 -0.47094624570E+01 -0.71937382460E+00  0.47643441248E+01  0.51100000000E-03 0. -1.
        -11    1    4    4    0    0  0.13597191316E+02 -0.23518337032E+00  0.46095297798E+01  0.14359202204E+02  0.51100000000E-03 0.  1.
         12    1    4    4    0    0 -0.17526061441E+02 -0.17073597265E+02  0.25366056891E+02  0.35243544025E+02  0.00000000000E+00 0. -1.
</event>
<event>
 8    1  0.1271559E-006  0.9118800E+02  0.7816164E-02  0.1184000E+00
        -11   -1    0    0    0    0  0.00000000000E+00  0.00000000000E+00  0.45593999997E+02  0.45594000000E+02  0.51100000000E-03 0. -1.
         11   -1    0    0    0    0 -0.00000000000E+00 -0.00000000000E+00 -0.45593999997E+02  0.45594000000E+02  0.51100000000E-03 0.  1.
         23    2    1    2    0    0  0.35527136788E-14  0.35527136788E-14  0.71054273576E-14  0.91188000000E+02  0.91188000000E+02 0.  0.
    9900012    2    3    3    0    0  0.17928179033E+02  0.23341166968E+02  0.22125694432E+02  0.54367135901E+02  0.40000117914E+02 0.  0.
        -12    1    3    3    0    0 -0.17928179033E+02 -0.23341166968E+02 -0.22125694432E+02  0.36820864099E+02  0.00000000000E+00 0.  1.
         11    1    4    4    0    0  0.15125001413E+01  0.11381176636E+01 -0.47320041473E+00  0.19511246468E+01  0.51100000000E-03 0. -1.
        -11    1    4    4    0    0  0.69101434930E+01  0.29091974768E+02  0.36472276083E+01  0.30123003643E+02  0.51100000000E-03 0.  1.
         12    1    4    4    0    0  0.95055353985E+01 -0.68889254635E+01  0.18951667238E+02  0.22293007612E+02  0.00000000000E+00 0. -1.
</event>
<event>
 8    1  0.1271559E-006  0.9118800E+02  0.7816164E-02  0.1184000E+00
        -11   -1    0    0    0    0  0.00000000000E+00  0.00000000000E+00  0.45593999997E+02  0.45594000000E+02  0.51100000000E-03 0. -1.
         11   -1    0    0    0    0 -0.00000000000E+00 -0.00000000000E+00 -0.45593999997E+02  0.45594000000E+02  0.51100000000E-03 0.  1.
         23    2    1    2    0    0  0.00000000000E+00  0.88817841970E-15  0.35527136788E-14  0.91188000000E+02  0.91188000000E+02 0.  0.
    9900012    2    3    3    0    0 -0.32417409335E+02  0.10094615789E+01 -0.17431965312E+02  0.54367070418E+02  0.39999968631E+02 0.  0.
         12    1    3    3    0    0  0.32417409335E+02 -0.10094615789E+01  0.17431965312E+02  0.36820929582E+02  0.00000000000E+00 0. -1.
         11    1    4    4    0    0 -0.17555064564E+02 -0.37273653562E+01 -0.71440870194E+01  0.19316094946E+02  0.51100000000E-03 0. -1.
        -11    1    4    4    0    0 -0.11606973601E+02  0.79992618658E+01 -0.19902431839E+02  0.24388866721E+02  0.51100000000E-03 0.  1.
        -12    1    4    4    0    0 -0.32553711693E+01 -0.32624349307E+01  0.96145535459E+01  0.10662108751E+02  0.00000000000E+00 0.  1.
</event>
<event>
 8    1  0.1271559E-006  0.9118800E+02  0.7816164E-02  0.1184000E+00
        -11   -1    0    0    0    0  0.00000000000E+00  0.00000000000E+00  0.45593999997E+02  0.45594000000E+02  0.51100000000E-03 0.  1.
         11   -1    0    0    0    0 -0.00000000000E+00 -0.00000000000E+00 -0.45593999997E+02  0.45594000000E+02  0.51100000000E-03 0. -1.
         23    2    1    2    0    0  0.88817841970E-15  0.00000000000E+00  0.00000000000E+00  0.91188000000E+02  0.91188000000E+02 0.  0.
    9900012    2    3    3    0    0  0.20986538203E+01 -0.33067182412E+02  0.16060452234E+02  0.54367068094E+02  0.39999963333E+02 0.  0.
         12    1    3    3    0    0 -0.20986538203E+01  0.33067182412E+02 -0.16060452234E+02  0.36820931906E+02  0.00000000000E+00 0. -1.
         11    1    4    4    0    0  0.14411046733E+02  0.10167739363E+00  0.31598024577E+01  0.14753743866E+02  0.51100000000E-03 0. -1.
        -11    1    4    4    0    0 -0.28613388034E+01 -0.15258454881E+02 -0.14306074994E+00  0.15525082020E+02  0.51100000000E-03 0.  1.
        -12    1    4    4    0    0 -0.94510541095E+01 -0.17910404925E+02  0.13043710526E+02  0.24088242207E+02  0.00000000000E+00 0.  1.
</event>
<event>
 8    1  0.1271559E-006  0.9118800E+02  0.7816164E-02  0.1184000E+00
        -11   -1    0    0    0    0  0.00000000000E+00  0.00000000000E+00  0.45593999997E+02  0.45594000000E+02  0.51100000000E-03 0. -1.
         11   -1    0    0    0    0 -0.00000000000E+00 -0.00000000000E+00 -0.45593999997E+02  0.45594000000E+02  0.51100000000E-03 0.  1.
         23    2    1    2    0    0  0.71054273576E-14  0.00000000000E+00  0.17763568394E-14  0.91188000000E+02  0.91188000000E+02 0.  0.
    9900012    2    3    3    0    0 -0.32523121317E+02  0.12816459609E+02 -0.11565650643E+02  0.54367091105E+02  0.40000015791E+02 0.  0.
         12    1    3    3    0    0  0.32523121317E+02 -0.12816459609E+02  0.11565650643E+02  0.36820908895E+02  0.00000000000E+00 0. -1.
         11    1    4    4    0    0 -0.31826972449E+01 -0.50108225601E+01 -0.67690157766E+01  0.90031927296E+01  0.51100000000E-03 0. -1.
        -11    1    4    4    0    0 -0.16441598293E+02 -0.64142146078E+01 -0.16946052832E+01  0.17729635946E+02  0.51100000000E-03 0.  1.
        -12    1    4    4    0    0 -0.12898825779E+02  0.24241496777E+02 -0.31020295836E+01  0.27634262429E+02  0.00000000000E+00 0.  1.
</event>
<event>
 8    1  0.1271559E-006  0.9118800E+02  0.7816164E-02  0.1184000E+00
        -11   -1    0    0    0    0  0.00000000000E+00  0.00000000000E+00  0.45593999997E+02  0.45594000000E+02  0.51100000000E-03 0.  1.
         11   -1    0    0    0    0 -0.00000000000E+00 -0.00000000000E+00 -0.45593999997E+02  0.45594000000E+02  0.51100000000E-03 0. -1.
         23    2    1    2    0    0  0.00000000000E+00  0.00000000000E+00  0.35527136788E-14  0.91188000000E+02  0.91188000000E+02 0.  0.
    9900012    2    3    3    0    0  0.21387577461E+02  0.13627666192E+02  0.26695277692E+02  0.54367087374E+02  0.40000007287E+02 0.  0.
         12    1    3    3    0    0 -0.21387577461E+02 -0.13627666192E+02 -0.26695277692E+02  0.36820912626E+02  0.00000000000E+00 0. -1.
         11    1    4    4    0    0 -0.36096145985E+00  0.33113537241E+01  0.72282244182E+01  0.79588055110E+01  0.51100000000E-03 0. -1.
        -11    1    4    4    0    0  0.16625159089E+01  0.36569689867E+01  0.24359826609E+02  0.24688834197E+02  0.51100000000E-03 0.  1.
        -12    1    4    4    0    0  0.20086023012E+02  0.66593434811E+01 -0.48927733345E+01  0.21719447667E+02  0.00000000000E+00 0.  1.
</event>
<event>
 8    1  0.1271559E-006  0.9118800E+02  0.7816164E-02  0.1184000E+00
        -11   -1    0    0    0    0  0.00000000000E+00  0.00000000000E+00  0.45593999997E+02  0.45594000000E+02  0.51100000000E-03 0. -1.
         11   -1    0    0    0    0 -0.00000000000E+00 -0.00000000000E+00 -0.45593999997E+02  0.45594000000E+02  0.51100000000E-03 0.  1.
         23    2    1    2    0    0  0.00000000000E+00  0.00000000000E+00 -0.17763568394E-14  0.91188000000E+02  0.91188000000E+02 0.  0.
    9900012    2    3    3    0    0  0.34366607784E+02 -0.72212664601E+01  0.11071079823E+02  0.54367092511E+02  0.40000018997E+02 0.  0.
        -12    1    3    3    0    0 -0.34366607784E+02  0.72212664601E+01 -0.11071079823E+02  0.36820907489E+02  0.00000000000E+00 0.  1.
         11    1    4    4    0    0  0.28417636730E+01 -0.45949263503E+00  0.98410953214E+01  0.10253482903E+02  0.51100000000E-03 0. -1.
        -11    1    4    4    0    0  0.45311021135E+01  0.10861949751E+02 -0.91600459054E+00  0.11804740718E+02  0.51100000000E-03 0.  1.
        -12    1    4    4    0    0  0.26993741998E+02 -0.17623723576E+02  0.21459890917E+01  0.32308868889E+02  0.00000000000E+00 0.  1.
</event>
<event>
 8    1  0.1271559E-006  0.9118800E+02  0.7816164E-02  0.1184000E+00
        -11   -1    0    0    0    0  0.00000000000E+00  0.00000000000E+00  0.45593999997E+02  0.45594000000E+02  0.51100000000E-03 0.  1.
         11   -1    0    0    0    0 -0.00000000000E+00 -0.00000000000E+00 -0.45593999997E+02  0.45594000000E+02  0.51100000000E-03 0. -1.
         23    2    1    2    0    0  0.17763568394E-14  0.35527136788E-14  0.35527136788E-14  0.91188000000E+02  0.91188000000E+02 0.  0.
    9900012    2    3    3    0    0 -0.10348360713E+02  0.22088960007E+02  0.27582025696E+02  0.54367097442E+02  0.40000030239E+02 0.  0.
         12    1    3    3    0    0  0.10348360713E+02 -0.22088960007E+02 -0.27582025696E+02  0.36820902558E+02  0.00000000000E+00 0. -1.
         11    1    4    4    0    0  0.85397232191E+01  0.16521417189E+02  0.24666258293E+01  0.18760819327E+02  0.51100000000E-03 0. -1.
        -11    1    4    4    0    0 -0.77183991188E+00 -0.36134819520E+01  0.88353926570E+01  0.95769072425E+01  0.51100000000E-03 0.  1.
        -12    1    4    4    0    0 -0.18116244021E+02  0.91810247703E+01  0.16280007210E+02  0.26029370872E+02  0.00000000000E+00 0.  1.
</event>
<event>
 8    1  0.1271559E-006  0.9118800E+02  0.7816164E-02  0.1184000E+00
        -11   -1    0    0    0    0  0.00000000000E+00  0.00000000000E+00  0.45593999997E+02  0.45594000000E+02  0.51100000000E-03 0.  1.
         11   -1    0    0    0    0 -0.00000000000E+00 -0.00000000000E+00 -0.45593999997E+02  0.45594000000E+02  0.51100000000E-03 0. -1.
         23    2    1    2    0    0  0.00000000000E+00  0.00000000000E+00  0.35527136788E-14  0.91188000000E+02  0.91188000000E+02 0.  0.
    9900012    2    3    3    0    0  0.26090191129E+02  0.19934098830E+02  0.16664752102E+02  0.54367077525E+02  0.39999984834E+02 0.  0.
         12    1    3    3    0    0 -0.26090191129E+02 -0.19934098830E+02 -0.16664752102E+02  0.36820922475E+02  0.00000000000E+00 0. -1.
         11    1    4    4    0    0 -0.39353597268E+01  0.42024522824E+01 -0.10716675208E+01  0.58562900288E+01  0.51100000000E-03 0. -1.
        -11    1    4    4    0    0  0.89584042884E+01 -0.46236743824E+01  0.16319364581E+02  0.19182101886E+02  0.51100000000E-03 0.  1.
        -12    1    4    4    0    0  0.21067146567E+02  0.20355320930E+02  0.14170550420E+01  0.29328685610E+02  0.00000000000E+00 0.  1.
</event>
<event>
 8    1  0.1271559E-006  0.9118800E+02  0.7816164E-02  0.1184000E+00
        -11   -1    0    0    0    0  0.00000000000E+00  0.00000000000E+00  0.45593999997E+02  0.45594000000E+02  0.51100000000E-03 0.  1.
         11   -1    0    0    0    0 -0.00000000000E+00 -0.00000000000E+00 -0.45593999997E+02  0.45594000000E+02  0.51100000000E-03 0. -1.
         23    2    1    2    0    0 -0.71054273576E-14  0.00000000000E+00 -0.88817841970E-15  0.91188000000E+02  0.91188000000E+02 0.  0.
    9900012    2    3    3    0    0  0.32654966454E+02 -0.16311750448E+02 -0.48332275815E+01  0.54367080326E+02  0.39999991219E+02 0.  0.
        -12    1    3    3    0    0 -0.32654966454E+02  0.16311750448E+02  0.48332275815E+01  0.36820919674E+02  0.00000000000E+00 0.  1.
         11    1    4    4    0    0  0.64376004842E+01 -0.18540069000E+01  0.47975019775E+01  0.82399069815E+01  0.51100000000E-03 0. -1.
        -11    1    4    4    0    0  0.22098255711E+02 -0.91764276031E+01  0.95860996469E+01  0.25776598606E+02  0.51100000000E-03 0.  1.
         12    1    4    4    0    0  0.41191102595E+01 -0.52813159447E+01 -0.19216829206E+02  0.20350574738E+02  0.00000000000E+00 0. -1.
</event>
<event>
 8    1  0.1271559E-006  0.9118800E+02  0.7816164E-02  0.1184000E+00
        -11   -1    0    0    0    0  0.00000000000E+00  0.00000000000E+00  0.45593999997E+02  0.45594000000E+02  0.51100000000E-03 0.  1.
         11   -1    0    0    0    0 -0.00000000000E+00 -0.00000000000E+00 -0.45593999997E+02  0.45594000000E+02  0.51100000000E-03 0. -1.
         23    2    1    2    0    0  0.00000000000E+00 -0.35527136788E-14  0.35527136788E-14  0.91188000000E+02  0.91188000000E+02 0.  0.
    9900012    2    3    3    0    0  0.24908686819E+02  0.17186034410E+02 -0.20975658582E+02  0.54367072381E+02  0.39999973107E+02 0.  0.
        -12    1    3    3    0    0 -0.24908686819E+02 -0.17186034410E+02  0.20975658582E+02  0.36820927619E+02  0.00000000000E+00 0.  1.
         11    1    4    4    0    0  0.67444395400E+01  0.20862829731E+02 -0.20169073426E+02  0.29791553371E+02  0.51100000000E-03 0. -1.
        -11    1    4    4    0    0  0.58774340884E+01 -0.68702622624E+01 -0.60088425615E+01  0.10855916553E+02  0.51100000000E-03 0.  1.
         12    1    4    4    0    0  0.12286813190E+02  0.31934669407E+01  0.52022574055E+01  0.13719602457E+02  0.00000000000E+00 0. -1.
</event>
<event>
 8    1  0.1271559E-006  0.9118800E+02  0.7816164E-02  0.1184000E+00
        -11   -1    0    0    0    0  0.00000000000E+00  0.00000000000E+00  0.45593999997E+02  0.45594000000E+02  0.51100000000E-03 0.  1.
         11   -1    0    0    0    0 -0.00000000000E+00 -0.00000000000E+00 -0.45593999997E+02  0.45594000000E+02  0.51100000000E-03 0. -1.
         23    2    1    2    0    0  0.71054273576E-14 -0.17763568394E-14  0.00000000000E+00  0.91188000000E+02  0.91188000000E+02 0.  0.
    9900012    2    3    3    0    0 -0.34448881958E+02  0.12963202447E+02  0.10053674743E+01  0.54367070495E+02  0.39999968807E+02 0.  0.
        -12    1    3    3    0    0  0.34448881958E+02 -0.12963202447E+02 -0.10053674743E+01  0.36820929505E+02  0.00000000000E+00 0.  1.
         11    1    4    4    0    0  0.74478532652E+01  0.43494863881E+01  0.44645660597E+01  0.97118947926E+01  0.51100000000E-03 0. -1.
        -11    1    4    4    0    0 -0.16163012240E+02 -0.69441512041E+00  0.31995630097E+01  0.16491281962E+02  0.51100000000E-03 0.  1.
         12    1    4    4    0    0 -0.25733722984E+02  0.93081311793E+01 -0.66587615951E+01  0.28163893740E+02  0.00000000000E+00 0. -1.
</event>
<event>
 8    1  0.1271559E-006  0.9118800E+02  0.7816164E-02  0.1184000E+00
        -11   -1    0    0    0    0  0.00000000000E+00  0.00000000000E+00  0.45593999997E+02  0.45594000000E+02  0.51100000000E-03 0.  1.
         11   -1    0    0    0    0 -0.00000000000E+00 -0.00000000000E+00 -0.45593999997E+02  0.45594000000E+02  0.51100000000E-03 0. -1.
         23    2    1    2    0    0 -0.17763568394E-14  0.00000000000E+00  0.00000000000E+00  0.91188000000E+02  0.91188000000E+02 0.  0.
    9900012    2    3    3    0    0  0.13697210703E+02  0.28491658700E+02  0.18878341541E+02  0.54367082360E+02  0.39999995856E+02 0.  0.
         12    1    3    3    0    0 -0.13697210703E+02 -0.28491658700E+02 -0.18878341541E+02  0.36820917640E+02  0.00000000000E+00 0. -1.
         11    1    4    4    0    0 -0.25275545873E+01  0.11636942844E+02  0.49528536117E+01  0.12897198537E+02  0.51100000000E-03 0. -1.
        -11    1    4    4    0    0  0.38381736225E+01  0.22834035710E+02  0.19562226818E+01  0.23236858028E+02  0.51100000000E-03 0.  1.
        -12    1    4    4    0    0  0.12386591667E+02 -0.59793198541E+01  0.11969265248E+02  0.18233025794E+02  0.00000000000E+00 0.  1.
</event>
<event>
 8    1  0.1271559E-006  0.9118800E+02  0.7816164E-02  0.1184000E+00
        -11   -1    0    0    0    0  0.00000000000E+00  0.00000000000E+00  0.45593999997E+02  0.45594000000E+02  0.51100000000E-03 0. -1.
         11   -1    0    0    0    0 -0.00000000000E+00 -0.00000000000E+00 -0.45593999997E+02  0.45594000000E+02  0.51100000000E-03 0.  1.
         23    2    1    2    0    0  0.00000000000E+00  0.00000000000E+00  0.00000000000E+00  0.91188000000E+02  0.91188000000E+02 0.  0.
    9900012    2    3    3    0    0  0.19282532552E+02  0.27994379854E+02 -0.14152012333E+02  0.54367070922E+02  0.39999969782E+02 0.  0.
         12    1    3    3    0    0 -0.19282532552E+02 -0.27994379854E+02  0.14152012333E+02  0.36820929078E+02  0.00000000000E+00 0. -1.
         11    1    4    4    0    0  0.21102976619E+02  0.81689110614E+01 -0.23762519214E+01  0.22753314123E+02  0.51100000000E-03 0. -1.
        -11    1    4    4    0    0  0.26253359791E+01  0.22485687475E+02 -0.51746446334E+01  0.23222305604E+02  0.51100000000E-03 0.  1.
        -12    1    4    4    0    0 -0.44457800458E+01 -0.26602186821E+01 -0.66011157779E+01  0.83914511954E+01  0.00000000000E+00 0.  1.
</event>
<event>
 8    1  0.1271559E-006  0.9118800E+02  0.7816164E-02  0.1184000E+00
        -11   -1    0    0    0    0  0.00000000000E+00  0.00000000000E+00  0.45593999997E+02  0.45594000000E+02  0.51100000000E-03 0.  1.
         11   -1    0    0    0    0 -0.00000000000E+00 -0.00000000000E+00 -0.45593999997E+02  0.45594000000E+02  0.51100000000E-03 0. -1.
         23    2    1    2    0    0  0.00000000000E+00  0.13322676296E-14 -0.71054273576E-14  0.91188000000E+02  0.91188000000E+02 0.  0.
    9900012    2    3    3    0    0  0.15856154003E+02 -0.35085643021E+01  0.33046210959E+02  0.54367086079E+02  0.40000004334E+02 0.  0.
         12    1    3    3    0    0 -0.15856154003E+02  0.35085643021E+01 -0.33046210959E+02  0.36820913921E+02  0.00000000000E+00 0. -1.
         11    1    4    4    0    0  0.63295690639E+01  0.44253118670E+01 -0.63963881467E+01  0.10027991386E+02  0.51100000000E-03 0. -1.
        -11    1    4    4    0    0  0.68727881310E+01  0.32346373710E+01  0.23474880240E+02  0.24673226343E+02  0.51100000000E-03 0.  1.
         12    1    4    4    0    0  0.26537968085E+01 -0.11168513540E+02  0.15967718865E+02  0.19665868350E+02  0.00000000000E+00 0. -1.
</event>
<event>
 8    1  0.1271559E-006  0.9118800E+02  0.7816164E-02  0.1184000E+00
        -11   -1    0    0    0    0  0.00000000000E+00  0.00000000000E+00  0.45593999997E+02  0.45594000000E+02  0.51100000000E-03 0. -1.
         11   -1    0    0    0    0 -0.00000000000E+00 -0.00000000000E+00 -0.45593999997E+02  0.45594000000E+02  0.51100000000E-03 0.  1.
         23    2    1    2    0    0  0.00000000000E+00  0.00000000000E+00  0.35527136788E-14  0.91188000000E+02  0.91188000000E+02 0.  0.
    9900012    2    3    3    0    0 -0.19059290459E+02  0.19457203872E+02 -0.24777818608E+02  0.54367087053E+02  0.40000006554E+02 0.  0.
         12    1    3    3    0    0  0.19059290459E+02 -0.19457203872E+02  0.24777818608E+02  0.36820912947E+02  0.00000000000E+00 0. -1.
         11    1    4    4    0    0 -0.10708505765E+02 -0.58879375430E+01 -0.14684004286E+01  0.12308375372E+02  0.51100000000E-03 0. -1.
        -11    1    4    4    0    0 -0.12632919312E+01  0.18849941708E+02 -0.25941180182E+02  0.32091448057E+02  0.51100000000E-03 0.  1.
        -12    1    4    4    0    0 -0.70874927634E+01  0.64951997062E+01  0.26317620025E+01  0.99672636231E+01  0.00000000000E+00 0.  1.
</event>
<event>
 8    1  0.1271559E-006  0.9118800E+02  0.7816164E-02  0.1184000E+00
        -11   -1    0    0    0    0  0.00000000000E+00  0.00000000000E+00  0.45593999997E+02  0.45594000000E+02  0.51100000000E-03 0. -1.
         11   -1    0    0    0    0 -0.00000000000E+00 -0.00000000000E+00 -0.45593999997E+02  0.45594000000E+02  0.51100000000E-03 0.  1.
         23    2    1    2    0    0 -0.35527136788E-14  0.17763568394E-14  0.00000000000E+00  0.91188000000E+02  0.91188000000E+02 0.  0.
    9900012    2    3    3    0    0  0.29868455064E+02  0.15825871262E+02 -0.14601273631E+02  0.54367082022E+02  0.39999995086E+02 0.  0.
        -12    1    3    3    0    0 -0.29868455064E+02 -0.15825871262E+02  0.14601273631E+02  0.36820917978E+02  0.00000000000E+00 0.  1.
         11    1    4    4    0    0 -0.23013341751E+01  0.10221262512E+02 -0.13759599571E+02  0.17294418954E+02  0.51100000000E-03 0. -1.
        -11    1    4    4    0    0  0.18645157572E+02  0.84432025029E+01 -0.74151884755E+01  0.21769579458E+02  0.51100000000E-03 0.  1.
         12    1    4    4    0    0  0.13524631667E+02 -0.28385937528E+01  0.65735144158E+01  0.15303083611E+02  0.00000000000E+00 0. -1.
</event>
<event>
 8    1  0.1271559E-006  0.9118800E+02  0.7816164E-02  0.1184000E+00
        -11   -1    0    0    0    0  0.00000000000E+00  0.00000000000E+00  0.45593999997E+02  0.45594000000E+02  0.51100000000E-03 0. -1.
         11   -1    0    0    0    0 -0.00000000000E+00 -0.00000000000E+00 -0.45593999997E+02  0.45594000000E+02  0.51100000000E-03 0.  1.
         23    2    1    2    0    0  0.44408920985E-15  0.88817841970E-15  0.00000000000E+00  0.91188000000E+02  0.91188000000E+02 0.  0.
    9900012    2    3    3    0    0 -0.26468593382E+01 -0.32939287504E+01  0.36577646340E+02  0.54367081451E+02  0.39999993785E+02 0.  0.
        -12    1    3    3    0    0  0.26468593382E+01  0.32939287504E+01 -0.36577646340E+02  0.36820918549E+02  0.00000000000E+00 0.  1.
         11    1    4    4    0    0 -0.29729360236E+01 -0.11259229208E+02  0.21967197964E+02  0.24862951908E+02  0.51100000000E-03 0. -1.
        -11    1    4    4    0    0  0.10481470371E+02 -0.65241942676E+00  0.11973696037E+02  0.15926590008E+02  0.51100000000E-03 0.  1.
         12    1    4    4    0    0 -0.10155393685E+02  0.86177198846E+01  0.26367523399E+01  0.13577539535E+02  0.00000000000E+00 0. -1.
</event>
<event>
 8    1  0.1271559E-006  0.9118800E+02  0.7816164E-02  0.1184000E+00
        -11   -1    0    0    0    0  0.00000000000E+00  0.00000000000E+00  0.45593999997E+02  0.45594000000E+02  0.51100000000E-03 0. -1.
         11   -1    0    0    0    0 -0.00000000000E+00 -0.00000000000E+00 -0.45593999997E+02  0.45594000000E+02  0.51100000000E-03 0.  1.
         23    2    1    2    0    0  0.00000000000E+00  0.00000000000E+00  0.00000000000E+00  0.91188000000E+02  0.91188000000E+02 0.  0.
    9900012    2    3    3    0    0 -0.35825078324E+02  0.52849123222E+01  0.66643034716E+01  0.54367089148E+02  0.40000011331E+02 0.  0.
        -12    1    3    3    0    0  0.35825078324E+02 -0.52849123222E+01 -0.66643034716E+01  0.36820910852E+02  0.00000000000E+00 0.  1.
         11    1    4    4    0    0  0.35137836634E+01  0.98351208562E+01  0.20812661815E+01  0.10649316742E+02  0.51100000000E-03 0. -1.
        -11    1    4    4    0    0 -0.31673509329E+02 -0.10794323606E+02  0.21230104334E+01  0.33529625541E+02  0.51100000000E-03 0.  1.
        -12    1    4    4    0    0 -0.76653526585E+01  0.62441150724E+01  0.24600268567E+01  0.10188146866E+02  0.00000000000E+00 0.  1.
</event>
<event>
 8    1  0.1271559E-006  0.9118800E+02  0.7816164E-02  0.1184000E+00
        -11   -1    0    0    0    0  0.00000000000E+00  0.00000000000E+00  0.45593999997E+02  0.45594000000E+02  0.51100000000E-03 0.  1.
         11   -1    0    0    0    0 -0.00000000000E+00 -0.00000000000E+00 -0.45593999997E+02  0.45594000000E+02  0.51100000000E-03 0. -1.
         23    2    1    2    0    0  0.00000000000E+00 -0.35527136788E-14 -0.17763568394E-14  0.91188000000E+02  0.91188000000E+02 0.  0.
    9900012    2    3    3    0    0  0.12942038177E+02  0.30750664194E+02  0.15578189874E+02  0.54367086102E+02  0.40000004386E+02 0.  0.
         12    1    3    3    0    0 -0.12942038177E+02 -0.30750664194E+02 -0.15578189874E+02  0.36820913898E+02  0.00000000000E+00 0. -1.
         11    1    4    4    0    0  0.78675500822E+01  0.27194215525E+01  0.13526677501E+01  0.84334635933E+01  0.51100000000E-03 0. -1.
        -11    1    4    4    0    0  0.14524417252E+02  0.46378816338E+00  0.45651660381E+01  0.15232023410E+02  0.51100000000E-03 0.  1.
         12    1    4    4    0    0 -0.94499291567E+01  0.27567454478E+02  0.96603560856E+01  0.30701599098E+02  0.00000000000E+00 0. -1.
</event>
<event>
 8    1  0.1271559E-006  0.9118800E+02  0.7816164E-02  0.1184000E+00
        -11   -1    0    0    0    0  0.00000000000E+00  0.00000000000E+00  0.45593999997E+02  0.45594000000E+02  0.51100000000E-03 0. -1.
         11   -1    0    0    0    0 -0.00000000000E+00 -0.00000000000E+00 -0.45593999997E+02  0.45594000000E+02  0.51100000000E-03 0.  1.
         23    2    1    2    0    0 -0.35527136788E-14 -0.44408920985E-15  0.00000000000E+00  0.91188000000E+02  0.91188000000E+02 0.  0.
    9900012    2    3    3    0    0 -0.31428314758E+02 -0.30998716161E+01 -0.18932286515E+02  0.54367086849E+02  0.40000006091E+02 0.  0.
         12    1    3    3    0    0  0.31428314758E+02  0.30998716161E+01  0.18932286515E+02  0.36820913151E+02  0.00000000000E+00 0. -1.
         11    1    4    4    0    0 -0.20199829835E+02  0.10297542473E+02 -0.93813954959E+01  0.24537381442E+02  0.51100000000E-03 0. -1.
        -11    1    4    4    0    0 -0.15127725122E+02 -0.16916941628E+01 -0.85309367379E+01  0.17449549518E+02  0.51100000000E-03 0.  1.
         12    1    4    4    0    0  0.38992401982E+01 -0.11705719926E+02 -0.10199542810E+01  0.12380155889E+02  0.00000000000E+00 0. -1.
</event>
<event>
 8    1  0.1271559E-006  0.9118800E+02  0.7816164E-02  0.1184000E+00
        -11   -1    0    0    0    0  0.00000000000E+00  0.00000000000E+00  0.45593999997E+02  0.45594000000E+02  0.51100000000E-03 0. -1.
         11   -1    0    0    0    0 -0.00000000000E+00 -0.00000000000E+00 -0.45593999997E+02  0.45594000000E+02  0.51100000000E-03 0.  1.
         23    2    1    2    0    0  0.00000000000E+00  0.00000000000E+00  0.00000000000E+00  0.91188000000E+02  0.91188000000E+02 0.  0.
    9900012    2    3    3    0    0 -0.25378613962E+02 -0.11290148360E+02 -0.24171073527E+02  0.54367050907E+02  0.39999924153E+02 0.  0.
         12    1    3    3    0    0  0.25378613962E+02  0.11290148360E+02  0.24171073527E+02  0.36820949093E+02  0.00000000000E+00 0. -1.
         11    1    4    4    0    0  0.29094488579E+01 -0.14182514679E+01 -0.22800271000E+02  0.23028866403E+02  0.51100000000E-03 0. -1.
        -11    1    4    4    0    0 -0.10444775682E+02  0.42146312196E+00  0.14247973791E+01  0.10549929764E+02  0.51100000000E-03 0.  1.
        -12    1    4    4    0    0 -0.17843287139E+02 -0.10293360014E+02 -0.27955999070E+01  0.20788254740E+02  0.00000000000E+00 0.  1.
</event>
<event>
 8    1  0.1271559E-006  0.9118800E+02  0.7816164E-02  0.1184000E+00
        -11   -1    0    0    0    0  0.00000000000E+00  0.00000000000E+00  0.45593999997E+02  0.45594000000E+02  0.51100000000E-03 0.  1.
         11   -1    0    0    0    0 -0.00000000000E+00 -0.00000000000E+00 -0.45593999997E+02  0.45594000000E+02  0.51100000000E-03 0. -1.
         23    2    1    2    0    0 -0.35527136788E-14  0.35527136788E-14  0.11102230246E-15  0.91188000000E+02  0.91188000000E+02 0.  0.
    9900012    2    3    3    0    0 -0.21730605266E+02  0.29720740131E+02 -0.48719813333E+00  0.54367096138E+02  0.40000027267E+02 0.  0.
        -12    1    3    3    0    0  0.21730605266E+02 -0.29720740131E+02  0.48719813333E+00  0.36820903862E+02  0.00000000000E+00 0.  1.
         11    1    4    4    0    0 -0.11983491229E+02  0.75326761749E+01  0.38787485599E+01  0.14676169903E+02  0.51100000000E-03 0. -1.
        -11    1    4    4    0    0 -0.56658461791E+01 -0.75278389573E+01 -0.34868306390E+00  0.94282422769E+01  0.51100000000E-03 0.  1.
        -12    1    4    4    0    0 -0.40812678585E+01  0.29715902913E+02 -0.40172636293E+01  0.30262683958E+02  0.00000000000E+00 0.  1.
</event>
<event>
 8    1  0.1271559E-006  0.9118800E+02  0.7816164E-02  0.1184000E+00
        -11   -1    0    0    0    0  0.00000000000E+00  0.00000000000E+00  0.45593999997E+02  0.45594000000E+02  0.51100000000E-03 0.  1.
         11   -1    0    0    0    0 -0.00000000000E+00 -0.00000000000E+00 -0.45593999997E+02  0.45594000000E+02  0.51100000000E-03 0. -1.
         23    2    1    2    0    0  0.44408920985E-15  0.00000000000E+00  0.00000000000E+00  0.91188000000E+02  0.91188000000E+02 0.  0.
    9900012    2    3    3    0    0 -0.39836228102E+01  0.23181672496E+02 -0.28328769369E+02  0.54367104242E+02  0.40000045741E+02 0.  0.
         12    1    3    3    0    0  0.39836228102E+01 -0.23181672496E+02  0.28328769369E+02  0.36820895758E+02  0.00000000000E+00 0. -1.
         11    1    4    4    0    0  0.19489393728E+01  0.46800795124E+01  0.55572675764E+01  0.75222823729E+01  0.51100000000E-03 0. -1.
        -11    1    4    4    0    0 -0.10095079830E+02  0.23357855839E+02 -0.23443203820E+02  0.34598899863E+02  0.51100000000E-03 0.  1.
         12    1    4    4    0    0  0.41625176472E+01 -0.48562628547E+01 -0.10442833126E+02  0.12245922006E+02  0.00000000000E+00 0. -1.
</event>
<event>
 8    1  0.1271559E-006  0.9118800E+02  0.7816164E-02  0.1184000E+00
        -11   -1    0    0    0    0  0.00000000000E+00  0.00000000000E+00  0.45593999997E+02  0.45594000000E+02  0.51100000000E-03 0. -1.
         11   -1    0    0    0    0 -0.00000000000E+00 -0.00000000000E+00 -0.45593999997E+02  0.45594000000E+02  0.51100000000E-03 0.  1.
         23    2    1    2    0    0  0.00000000000E+00 -0.71054273576E-14  0.00000000000E+00  0.91188000000E+02  0.91188000000E+02 0.  0.
    9900012    2    3    3    0    0 -0.20500909024E+02  0.29220821176E+02 -0.90347483955E+01  0.54367213213E+02  0.40000294160E+02 0.  0.
         12    1    3    3    0    0  0.20500909024E+02 -0.29220821176E+02  0.90347483955E+01  0.36820786787E+02  0.00000000000E+00 0. -1.
         11    1    4    4    0    0 -0.12099516613E+02  0.14287158158E+02  0.14603962377E+02  0.23744407929E+02  0.51100000000E-03 0. -1.
        -11    1    4    4    0    0 -0.77648688348E+01  0.97571895286E+01 -0.98821746599E+01  0.15910792305E+02  0.51100000000E-03 0.  1.
        -12    1    4    4    0    0 -0.63652357634E+00  0.51764734899E+01 -0.13756536113E+02  0.14712012979E+02  0.00000000000E+00 0.  1.
</event>
<event>
 8    1  0.1271559E-006  0.9118800E+02  0.7816164E-02  0.1184000E+00
        -11   -1    0    0    0    0  0.00000000000E+00  0.00000000000E+00  0.45593999997E+02  0.45594000000E+02  0.51100000000E-03 0.  1.
         11   -1    0    0    0    0 -0.00000000000E+00 -0.00000000000E+00 -0.45593999997E+02  0.45594000000E+02  0.51100000000E-03 0. -1.
         23    2    1    2    0    0  0.35527136788E-14  0.22204460493E-15 -0.35527136788E-14  0.91188000000E+02  0.91188000000E+02 0.  0.
    9900012    2    3    3    0    0 -0.22103930574E+02  0.11286964996E+01  0.29426535175E+02  0.54367100024E+02  0.40000036125E+02 0.  0.
         12    1    3    3    0    0  0.22103930574E+02 -0.11286964996E+01 -0.29426535175E+02  0.36820899976E+02  0.00000000000E+00 0. -1.
         11    1    4    4    0    0  0.48167333265E+01  0.57422804947E+01 -0.38339984866E+01  0.84186845691E+01  0.51100000000E-03 0. -1.
        -11    1    4    4    0    0 -0.14406592891E+02  0.10917596322E+01  0.64628580455E+01  0.15827520090E+02  0.51100000000E-03 0.  1.
        -12    1    4    4    0    0 -0.12514071009E+02 -0.57053436273E+01  0.26797675616E+02  0.30120895365E+02  0.00000000000E+00 0.  1.
</event>
<event>
 8    1  0.1271559E-006  0.9118800E+02  0.7816164E-02  0.1184000E+00
        -11   -1    0    0    0    0  0.00000000000E+00  0.00000000000E+00  0.45593999997E+02  0.45594000000E+02  0.51100000000E-03 0. -1.
         11   -1    0    0    0    0 -0.00000000000E+00 -0.00000000000E+00 -0.45593999997E+02  0.45594000000E+02  0.51100000000E-03 0.  1.
         23    2    1    2    0    0 -0.71054273576E-14  0.00000000000E+00 -0.26645352591E-14  0.91188000000E+02  0.91188000000E+02 0.  0.
    9900012    2    3    3    0    0  0.34519145401E+02 -0.12414957107E+02 -0.31758037569E+01  0.54366969478E+02  0.39999738517E+02 0.  0.
        -12    1    3    3    0    0 -0.34519145401E+02  0.12414957107E+02  0.31758037569E+01  0.36821030522E+02  0.00000000000E+00 0.  1.
         11    1    4    4    0    0  0.51017514781E+01 -0.29851620656E+01 -0.75334601364E+01  0.95755982889E+01  0.51100000000E-03 0. -1.
        -11    1    4    4    0    0  0.79771131224E+01 -0.18236228737E+02 -0.37131425368E+01  0.20248007312E+02  0.51100000000E-03 0.  1.
         12    1    4    4    0    0  0.21440280801E+02  0.88064336959E+01  0.80707989162E+01  0.24543363877E+02  0.00000000000E+00 0. -1.
</event>
<event>
 8    1  0.1271559E-006  0.9118800E+02  0.7816164E-02  0.1184000E+00
        -11   -1    0    0    0    0  0.00000000000E+00  0.00000000000E+00  0.45593999997E+02  0.45594000000E+02  0.51100000000E-03 0. -1.
         11   -1    0    0    0    0 -0.00000000000E+00 -0.00000000000E+00 -0.45593999997E+02  0.45594000000E+02  0.51100000000E-03 0.  1.
         23    2    1    2    0    0  0.00000000000E+00  0.00000000000E+00  0.35527136788E-14  0.91188000000E+02  0.91188000000E+02 0.  0.
    9900012    2    3    3    0    0  0.26580641119E+02  0.16842055239E+02 -0.19120522707E+02  0.54367086165E+02  0.40000004531E+02 0.  0.
         12    1    3    3    0    0 -0.26580641119E+02 -0.16842055239E+02  0.19120522707E+02  0.36820913835E+02  0.00000000000E+00 0. -1.
         11    1    4    4    0    0 -0.11686430616E+01  0.99794822930E+01 -0.28767956784E+01  0.10451399288E+02  0.51100000000E-03 0. -1.
        -11    1    4    4    0    0  0.23662363339E+02  0.50327183090E+01 -0.24558047692E+02  0.34472211984E+02  0.51100000000E-03 0.  1.
        -12    1    4    4    0    0  0.40869208417E+01  0.18298546374E+01  0.83143206633E+01  0.94434748929E+01  0.00000000000E+00 0.  1.
</event>
<event>
 8    1  0.1271559E-006  0.9118800E+02  0.7816164E-02  0.1184000E+00
        -11   -1    0    0    0    0  0.00000000000E+00  0.00000000000E+00  0.45593999997E+02  0.45594000000E+02  0.51100000000E-03 0. -1.
         11   -1    0    0    0    0 -0.00000000000E+00 -0.00000000000E+00 -0.45593999997E+02  0.45594000000E+02  0.51100000000E-03 0.  1.
         23    2    1    2    0    0  0.35527136788E-14  0.00000000000E+00  0.00000000000E+00  0.91188000000E+02  0.91188000000E+02 0.  0.
    9900012    2    3    3    0    0  0.26619890859E+02 -0.15849915768E+02  0.19898294627E+02  0.54367074588E+02  0.39999978137E+02 0.  0.
        -12    1    3    3    0    0 -0.26619890859E+02  0.15849915768E+02 -0.19898294627E+02  0.36820925412E+02  0.00000000000E+00 0.  1.
         11    1    4    4    0    0 -0.30720604967E+01 -0.61434537205E+01 -0.72303693963E+01  0.99728542143E+01  0.51100000000E-03 0. -1.
        -11    1    4    4    0    0  0.12387790565E+02 -0.11651694519E+02  0.89366199803E+01  0.19211520429E+02  0.51100000000E-03 0.  1.
         12    1    4    4    0    0  0.17304160790E+02  0.19452324721E+01  0.18192044043E+02  0.25182699944E+02  0.00000000000E+00 0. -1.
</event>
<event>
 8    1  0.1271559E-006  0.9118800E+02  0.7816164E-02  0.1184000E+00
        -11   -1    0    0    0    0  0.00000000000E+00  0.00000000000E+00  0.45593999997E+02  0.45594000000E+02  0.51100000000E-03 0. -1.
         11   -1    0    0    0    0 -0.00000000000E+00 -0.00000000000E+00 -0.45593999997E+02  0.45594000000E+02  0.51100000000E-03 0.  1.
         23    2    1    2    0    0 -0.35527136788E-14  0.00000000000E+00  0.00000000000E+00  0.91188000000E+02  0.91188000000E+02 0.  0.
    9900012    2    3    3    0    0 -0.19760221981E+02  0.50316576483E+01  0.30659360042E+02  0.54367077828E+02  0.39999985524E+02 0.  0.
        -12    1    3    3    0    0  0.19760221981E+02 -0.50316576483E+01 -0.30659360042E+02  0.36820922172E+02  0.00000000000E+00 0.  1.
         11    1    4    4    0    0 -0.10168720888E+02  0.34457400777E+01  0.51940972436E+00  0.10749223037E+02  0.51100000000E-03 0. -1.
        -11    1    4    4    0    0 -0.20024676580E+02  0.37358114601E+01  0.15935105492E+02  0.25862551048E+02  0.51100000000E-03 0.  1.
        -12    1    4    4    0    0  0.10433175487E+02 -0.21498938896E+01  0.14204844825E+02  0.17755303742E+02  0.00000000000E+00 0.  1.
</event>
<event>
 8    1  0.1271559E-006  0.9118800E+02  0.7816164E-02  0.1184000E+00
        -11   -1    0    0    0    0  0.00000000000E+00  0.00000000000E+00  0.45593999997E+02  0.45594000000E+02  0.51100000000E-03 0. -1.
         11   -1    0    0    0    0 -0.00000000000E+00 -0.00000000000E+00 -0.45593999997E+02  0.45594000000E+02  0.51100000000E-03 0.  1.
         23    2    1    2    0    0 -0.17763568394E-14 -0.26645352591E-14  0.00000000000E+00  0.91188000000E+02  0.91188000000E+02 0.  0.
    9900012    2    3    3    0    0 -0.12262326705E+02 -0.41790548064E+01  0.34466660693E+02  0.54367084006E+02  0.39999999608E+02 0.  0.
        -12    1    3    3    0    0  0.12262326705E+02  0.41790548064E+01 -0.34466660693E+02  0.36820915994E+02  0.00000000000E+00 0.  1.
         11    1    4    4    0    0 -0.13212352674E+02  0.12552080755E+02  0.12661778249E+02  0.22191025735E+02  0.51100000000E-03 0. -1.
        -11    1    4    4    0    0  0.84429920270E+01 -0.68383848477E+01  0.13089915892E+02  0.17011570181E+02  0.51100000000E-03 0.  1.
         12    1    4    4    0    0 -0.74929660580E+01 -0.98927507136E+01  0.87149665522E+01  0.15164488090E+02  0.00000000000E+00 0. -1.
</event>
<event>
 8    1  0.1271559E-006  0.9118800E+02  0.7816164E-02  0.1184000E+00
        -11   -1    0    0    0    0  0.00000000000E+00  0.00000000000E+00  0.45593999997E+02  0.45594000000E+02  0.51100000000E-03 0.  1.
         11   -1    0    0    0    0 -0.00000000000E+00 -0.00000000000E+00 -0.45593999997E+02  0.45594000000E+02  0.51100000000E-03 0. -1.
         23    2    1    2    0    0  0.17763568394E-14  0.00000000000E+00  0.00000000000E+00  0.91188000000E+02  0.91188000000E+02 0.  0.
    9900012    2    3    3    0    0 -0.12734319216E+02  0.34539134869E+02 -0.81567494276E+00  0.54367081367E+02  0.39999993591E+02 0.  0.
         12    1    3    3    0    0  0.12734319216E+02 -0.34539134869E+02  0.81567494276E+00  0.36820918633E+02  0.00000000000E+00 0. -1.
         11    1    4    4    0    0 -0.20092765180E+02  0.17588656697E+02  0.31541061858E+00  0.26705421567E+02  0.51100000000E-03 0. -1.
        -11    1    4    4    0    0 -0.65280604023E+01  0.10404395481E+02 -0.72627448494E+00  0.12304246943E+02  0.51100000000E-03 0.  1.
         12    1    4    4    0    0  0.13886506366E+02  0.65460826910E+01 -0.40481107640E+00  0.15357412857E+02  0.00000000000E+00 0. -1.
</event>
<event>
 8    1  0.1271559E-006  0.9118800E+02  0.7816164E-02  0.1184000E+00
        -11   -1    0    0    0    0  0.00000000000E+00  0.00000000000E+00  0.45593999997E+02  0.45594000000E+02  0.51100000000E-03 0.  1.
         11   -1    0    0    0    0 -0.00000000000E+00 -0.00000000000E+00 -0.45593999997E+02  0.45594000000E+02  0.51100000000E-03 0. -1.
         23    2    1    2    0    0  0.00000000000E+00  0.00000000000E+00  0.00000000000E+00  0.91188000000E+02  0.91188000000E+02 0.  0.
    9900012    2    3    3    0    0 -0.29648134686E+02 -0.19647317758E+02 -0.95263064644E+01  0.54367088818E+02  0.40000010577E+02 0.  0.
        -12    1    3    3    0    0  0.29648134686E+02  0.19647317758E+02  0.95263064644E+01  0.36820911182E+02  0.00000000000E+00 0.  1.
         11    1    4    4    0    0 -0.23108963728E+02 -0.26536764980E+02 -0.44977462945E+01  0.35474692700E+02  0.51100000000E-03 0. -1.
        -11    1    4    4    0    0 -0.97770836861E+01  0.36379565753E+01 -0.82381486375E+01  0.13292598944E+02  0.51100000000E-03 0.  1.
         12    1    4    4    0    0  0.32379127273E+01  0.32514906469E+01  0.32095884676E+01  0.55997971738E+01  0.00000000000E+00 0. -1.
</event>
<event>
 8    1  0.1271559E-006  0.9118800E+02  0.7816164E-02  0.1184000E+00
        -11   -1    0    0    0    0  0.00000000000E+00  0.00000000000E+00  0.45593999997E+02  0.45594000000E+02  0.51100000000E-03 0. -1.
         11   -1    0    0    0    0 -0.00000000000E+00 -0.00000000000E+00 -0.45593999997E+02  0.45594000000E+02  0.51100000000E-03 0.  1.
         23    2    1    2    0    0  0.00000000000E+00  0.00000000000E+00 -0.17763568394E-14  0.91188000000E+02  0.91188000000E+02 0.  0.
    9900012    2    3    3    0    0  0.33741187397E+02  0.86789614581E+01  0.11915872705E+02  0.54367080386E+02  0.39999991355E+02 0.  0.
        -12    1    3    3    0    0 -0.33741187397E+02 -0.86789614581E+01 -0.11915872705E+02  0.36820919614E+02  0.00000000000E+00 0.  1.
         11    1    4    4    0    0  0.25216271390E+02  0.64172643633E+01 -0.58243445039E+01  0.26663919702E+02  0.51100000000E-03 0. -1.
        -11    1    4    4    0    0 -0.10809159102E+01  0.58980686279E+01 -0.12389765945E+01  0.61229613756E+01  0.51100000000E-03 0.  1.
         12    1    4    4    0    0  0.96058319172E+01 -0.36363715330E+01  0.18979193803E+02  0.21580199308E+02  0.00000000000E+00 0. -1.
</event>
<event>
 8    1  0.1271559E-006  0.9118800E+02  0.7816164E-02  0.1184000E+00
        -11   -1    0    0    0    0  0.00000000000E+00  0.00000000000E+00  0.45593999997E+02  0.45594000000E+02  0.51100000000E-03 0. -1.
         11   -1    0    0    0    0 -0.00000000000E+00 -0.00000000000E+00 -0.45593999997E+02  0.45594000000E+02  0.51100000000E-03 0.  1.
         23    2    1    2    0    0 -0.35527136788E-14  0.00000000000E+00  0.00000000000E+00  0.91188000000E+02  0.91188000000E+02 0.  0.
    9900012    2    3    3    0    0  0.29924773959E+02 -0.96436882955E+01  0.19164747481E+02  0.54367077056E+02  0.39999983765E+02 0.  0.
        -12    1    3    3    0    0 -0.29924773959E+02  0.96436882955E+01 -0.19164747481E+02  0.36820922944E+02  0.00000000000E+00 0.  1.
         11    1    4    4    0    0  0.25424061708E+02 -0.65813774749E+01  0.41793920239E+00  0.26265416742E+02  0.51100000000E-03 0. -1.
        -11    1    4    4    0    0  0.94743614849E+01  0.35524636968E+01  0.34157870452E+01  0.10679472143E+02  0.51100000000E-03 0.  1.
         12    1    4    4    0    0 -0.49736492337E+01 -0.66147745175E+01  0.15331021233E+02  0.17422188171E+02  0.00000000000E+00 0. -1.
</event>
<event>
 8    1  0.1271559E-006  0.9118800E+02  0.7816164E-02  0.1184000E+00
        -11   -1    0    0    0    0  0.00000000000E+00  0.00000000000E+00  0.45593999997E+02  0.45594000000E+02  0.51100000000E-03 0. -1.
         11   -1    0    0    0    0 -0.00000000000E+00 -0.00000000000E+00 -0.45593999997E+02  0.45594000000E+02  0.51100000000E-03 0.  1.
         23    2    1    2    0    0  0.00000000000E+00 -0.35527136788E-14  0.00000000000E+00  0.91188000000E+02  0.91188000000E+02 0.  0.
    9900012    2    3    3    0    0 -0.76803772397E+01  0.22423134524E+02  0.28177884674E+02  0.54367104558E+02  0.40000046461E+02 0.  0.
        -12    1    3    3    0    0  0.76803772397E+01 -0.22423134524E+02 -0.28177884674E+02  0.36820895442E+02  0.00000000000E+00 0.  1.
         11    1    4    4    0    0 -0.72669062528E+00 -0.88259120050E+01 -0.17390093595E+00  0.88574851838E+01  0.51100000000E-03 0. -1.
        -11    1    4    4    0    0  0.39797418806E+01  0.17393788826E+02  0.16010104757E+02  0.23973020039E+02  0.51100000000E-03 0.  1.
        -12    1    4    4    0    0 -0.10933428495E+02  0.13855257703E+02  0.12341680853E+02  0.21536599336E+02  0.00000000000E+00 0.  1.
</event>
<event>
 8    1  0.1271559E-006  0.9118800E+02  0.7816164E-02  0.1184000E+00
        -11   -1    0    0    0    0  0.00000000000E+00  0.00000000000E+00  0.45593999997E+02  0.45594000000E+02  0.51100000000E-03 0. -1.
         11   -1    0    0    0    0 -0.00000000000E+00 -0.00000000000E+00 -0.45593999997E+02  0.45594000000E+02  0.51100000000E-03 0.  1.
         23    2    1    2    0    0  0.00000000000E+00 -0.35527136788E-14  0.00000000000E+00  0.91188000000E+02  0.91188000000E+02 0.  0.
    9900012    2    3    3    0    0 -0.59097741787E+01  0.23926504990E+02  0.27356483787E+02  0.54367078269E+02  0.39999986531E+02 0.  0.
        -12    1    3    3    0    0  0.59097741787E+01 -0.23926504990E+02 -0.27356483787E+02  0.36820921731E+02  0.00000000000E+00 0.  1.
         11    1    4    4    0    0 -0.57056405151E+01  0.19802169684E+02  0.20931298672E+02  0.29373449274E+02  0.51100000000E-03 0. -1.
        -11    1    4    4    0    0 -0.11903081612E+02  0.32930272628E+01  0.23113155804E+01  0.12564615410E+02  0.51100000000E-03 0.  1.
         12    1    4    4    0    0  0.11698947949E+02  0.83130804339E+00  0.41138695349E+01  0.12429013586E+02  0.00000000000E+00 0. -1.
</event>
<event>
 8    1  0.1271559E-006  0.9118800E+02  0.7816164E-02  0.1184000E+00
        -11   -1    0    0    0    0  0.00000000000E+00  0.00000000000E+00  0.45593999997E+02  0.45594000000E+02  0.51100000000E-03 0.  1.
         11   -1    0    0    0    0 -0.00000000000E+00 -0.00000000000E+00 -0.45593999997E+02  0.45594000000E+02  0.51100000000E-03 0. -1.
         23    2    1    2    0    0  0.00000000000E+00  0.00000000000E+00  0.00000000000E+00  0.91188000000E+02  0.91188000000E+02 0.  0.
    9900012    2    3    3    0    0  0.13800007286E+02  0.30302138273E+02  0.15720090788E+02  0.54367067918E+02  0.39999962933E+02 0.  0.
         12    1    3    3    0    0 -0.13800007286E+02 -0.30302138273E+02 -0.15720090788E+02  0.36820932082E+02  0.00000000000E+00 0. -1.
         11    1    4    4    0    0  0.79319582538E+01 -0.52495346930E+00 -0.10557851634E+02  0.13215890786E+02  0.51100000000E-03 0. -1.
        -11    1    4    4    0    0  0.28524110601E+01  0.18197611275E+02  0.17987581378E+02  0.25745725646E+02  0.51100000000E-03 0.  1.
         12    1    4    4    0    0  0.30156379721E+01  0.12629480467E+02  0.82903610439E+01  0.15405451486E+02  0.00000000000E+00 0. -1.
</event>
<event>
 8    1  0.1271559E-006  0.9118800E+02  0.7816164E-02  0.1184000E+00
        -11   -1    0    0    0    0  0.00000000000E+00  0.00000000000E+00  0.45593999997E+02  0.45594000000E+02  0.51100000000E-03 0.  1.
         11   -1    0    0    0    0 -0.00000000000E+00 -0.00000000000E+00 -0.45593999997E+02  0.45594000000E+02  0.51100000000E-03 0. -1.
         23    2    1    2    0    0  0.00000000000E+00 -0.35527136788E-14  0.17763568394E-14  0.91188000000E+02  0.91188000000E+02 0.  0.
    9900012    2    3    3    0    0  0.25902216481E+02 -0.22922966084E+02  0.12625244475E+02  0.54367027840E+02  0.39999871568E+02 0.  0.
        -12    1    3    3    0    0 -0.25902216481E+02  0.22922966084E+02 -0.12625244475E+02  0.36820972160E+02  0.00000000000E+00 0.  1.
         11    1    4    4    0    0  0.11198625569E+02 -0.15799508866E+02  0.23784164727E+02  0.30671162140E+02  0.51100000000E-03 0. -1.
        -11    1    4    4    0    0 -0.78403438430E-01  0.15243430028E+01  0.16964419085E+01  0.22820350784E+01  0.51100000000E-03 0.  1.
         12    1    4    4    0    0  0.14781994350E+02 -0.86478002215E+01 -0.12855362160E+02  0.21413830622E+02  0.00000000000E+00 0. -1.
</event>
<event>
 8    1  0.1271559E-006  0.9118800E+02  0.7816164E-02  0.1184000E+00
        -11   -1    0    0    0    0  0.00000000000E+00  0.00000000000E+00  0.45593999997E+02  0.45594000000E+02  0.51100000000E-03 0.  1.
         11   -1    0    0    0    0 -0.00000000000E+00 -0.00000000000E+00 -0.45593999997E+02  0.45594000000E+02  0.51100000000E-03 0. -1.
         23    2    1    2    0    0  0.00000000000E+00 -0.17763568394E-14  0.35527136788E-14  0.91188000000E+02  0.91188000000E+02 0.  0.
    9900012    2    3    3    0    0  0.25995780089E+02  0.14794254989E+02 -0.21473932505E+02  0.54367077410E+02  0.39999984572E+02 0.  0.
        -12    1    3    3    0    0 -0.25995780089E+02 -0.14794254989E+02  0.21473932505E+02  0.36820922590E+02  0.00000000000E+00 0.  1.
         11    1    4    4    0    0  0.14451365216E+02 -0.10452251703E+02 -0.46260378385E+01  0.18425301860E+02  0.51100000000E-03 0. -1.
        -11    1    4    4    0    0 -0.37040093735E+01  0.62454015631E+01 -0.25661077204E+01  0.77012749085E+01  0.51100000000E-03 0.  1.
         12    1    4    4    0    0  0.15248424247E+02  0.19001105129E+02 -0.14281786946E+02  0.28240500642E+02  0.00000000000E+00 0. -1.
</event>
<event>
 8    1  0.1271559E-006  0.9118800E+02  0.7816164E-02  0.1184000E+00
        -11   -1    0    0    0    0  0.00000000000E+00  0.00000000000E+00  0.45593999997E+02  0.45594000000E+02  0.51100000000E-03 0.  1.
         11   -1    0    0    0    0 -0.00000000000E+00 -0.00000000000E+00 -0.45593999997E+02  0.45594000000E+02  0.51100000000E-03 0. -1.
         23    2    1    2    0    0  0.00000000000E+00  0.00000000000E+00 -0.88817841970E-15  0.91188000000E+02  0.91188000000E+02 0.  0.
    9900012    2    3    3    0    0  0.35990413979E+02  0.49223167562E+01 -0.60199536597E+01  0.54367096390E+02  0.40000027839E+02 0.  0.
        -12    1    3    3    0    0 -0.35990413979E+02 -0.49223167562E+01  0.60199536597E+01  0.36820903610E+02  0.00000000000E+00 0.  1.
         11    1    4    4    0    0  0.89292527452E+01 -0.15710077618E+01  0.77361458118E+01  0.11918371208E+02  0.51100000000E-03 0. -1.
        -11    1    4    4    0    0 -0.23434578645E+01 -0.44365788430E+01 -0.95631332306E+01  0.10799469618E+02  0.51100000000E-03 0.  1.
        -12    1    4    4    0    0  0.29404619098E+02  0.10929903361E+02 -0.41929662409E+01  0.31649255563E+02  0.00000000000E+00 0.  1.
</event>
<event>
 8    1  0.1271559E-006  0.9118800E+02  0.7816164E-02  0.1184000E+00
        -11   -1    0    0    0    0  0.00000000000E+00  0.00000000000E+00  0.45593999997E+02  0.45594000000E+02  0.51100000000E-03 0. -1.
         11   -1    0    0    0    0 -0.00000000000E+00 -0.00000000000E+00 -0.45593999997E+02  0.45594000000E+02  0.51100000000E-03 0.  1.
         23    2    1    2    0    0  0.88817841970E-15  0.00000000000E+00  0.00000000000E+00  0.91188000000E+02  0.91188000000E+02 0.  0.
    9900012    2    3    3    0    0  0.48512469420E+01 -0.21303399070E+02 -0.29637988932E+02  0.54367084792E+02  0.40000001401E+02 0.  0.
         12    1    3    3    0    0 -0.48512469420E+01  0.21303399070E+02  0.29637988932E+02  0.36820915208E+02  0.00000000000E+00 0. -1.
         11    1    4    4    0    0  0.13236433009E+02 -0.71343501338E+01 -0.44573247317E+01  0.15683426113E+02  0.51100000000E-03 0. -1.
        -11    1    4    4    0    0  0.40840927039E+01 -0.15293557783E+02 -0.89471894621E+01  0.18183094412E+02  0.51100000000E-03 0.  1.
         12    1    4    4    0    0 -0.12469278770E+02  0.11245088469E+01 -0.16233474738E+02  0.20500564267E+02  0.00000000000E+00 0. -1.
</event>
<event>
 8    1  0.1271559E-006  0.9118800E+02  0.7816164E-02  0.1184000E+00
        -11   -1    0    0    0    0  0.00000000000E+00  0.00000000000E+00  0.45593999997E+02  0.45594000000E+02  0.51100000000E-03 0.  1.
         11   -1    0    0    0    0 -0.00000000000E+00 -0.00000000000E+00 -0.45593999997E+02  0.45594000000E+02  0.51100000000E-03 0. -1.
         23    2    1    2    0    0  0.17763568394E-14  0.00000000000E+00 -0.35527136788E-14  0.91188000000E+02  0.91188000000E+02 0.  0.
    9900012    2    3    3    0    0  0.81444662352E+01 -0.19646769699E+02 -0.30057395045E+02  0.54367151466E+02  0.40000153396E+02 0.  0.
        -12    1    3    3    0    0 -0.81444662352E+01  0.19646769699E+02  0.30057395045E+02  0.36820848534E+02  0.00000000000E+00 0.  1.
         11    1    4    4    0    0  0.79842557293E+01 -0.14187135130E+02 -0.24849720916E+02  0.29707436318E+02  0.51100000000E-03 0. -1.
        -11    1    4    4    0    0 -0.80156964962E+01  0.17723951591E+01 -0.98289432867E+01  0.12806283665E+02  0.51100000000E-03 0.  1.
        -12    1    4    4    0    0  0.81759070022E+01 -0.72320297280E+01  0.46212691568E+01  0.11853431483E+02  0.00000000000E+00 0.  1.
</event>
<event>
 8    1  0.1271559E-006  0.9118800E+02  0.7816164E-02  0.1184000E+00
        -11   -1    0    0    0    0  0.00000000000E+00  0.00000000000E+00  0.45593999997E+02  0.45594000000E+02  0.51100000000E-03 0.  1.
         11   -1    0    0    0    0 -0.00000000000E+00 -0.00000000000E+00 -0.45593999997E+02  0.45594000000E+02  0.51100000000E-03 0. -1.
         23    2    1    2    0    0 -0.71054273576E-14 -0.35527136788E-14  0.00000000000E+00  0.91188000000E+02  0.91188000000E+02 0.  0.
    9900012    2    3    3    0    0 -0.30936738215E+02 -0.16267735579E+02  0.11577743727E+02  0.54367283792E+02  0.40000455059E+02 0.  0.
         12    1    3    3    0    0  0.30936738215E+02  0.16267735579E+02 -0.11577743727E+02  0.36820716208E+02  0.00000000000E+00 0. -1.
         11    1    4    4    0    0 -0.16723035198E+02 -0.10192043141E+02  0.13954617612E+02  0.24047224426E+02  0.51100000000E-03 0. -1.
        -11    1    4    4    0    0 -0.83207459540E+01  0.53780924792E+01  0.88111386467E+01  0.13258765269E+02  0.51100000000E-03 0.  1.
         12    1    4    4    0    0 -0.58929570627E+01 -0.11453784917E+02 -0.11188012532E+02  0.17061294097E+02  0.00000000000E+00 0. -1.
</event>
<event>
 8    1  0.1271559E-006  0.9118800E+02  0.7816164E-02  0.1184000E+00
        -11   -1    0    0    0    0  0.00000000000E+00  0.00000000000E+00  0.45593999997E+02  0.45594000000E+02  0.51100000000E-03 0.  1.
         11   -1    0    0    0    0 -0.00000000000E+00 -0.00000000000E+00 -0.45593999997E+02  0.45594000000E+02  0.51100000000E-03 0. -1.
         23    2    1    2    0    0  0.00000000000E+00  0.00000000000E+00  0.35527136788E-14  0.91188000000E+02  0.91188000000E+02 0.  0.
    9900012    2    3    3    0    0  0.16147111058E+01 -0.20867192046E+02  0.30294100369E+02  0.54367088645E+02  0.40000010184E+02 0.  0.
         12    1    3    3    0    0 -0.16147111058E+01  0.20867192046E+02 -0.30294100369E+02  0.36820911355E+02  0.00000000000E+00 0. -1.
         11    1    4    4    0    0 -0.15701649811E+02 -0.11583183753E+02  0.90364071778E+01  0.21502758139E+02  0.51100000000E-03 0. -1.
        -11    1    4    4    0    0  0.11348913173E+02 -0.88585892587E+01  0.22540298506E+02  0.26745793891E+02  0.51100000000E-03 0.  1.
        -12    1    4    4    0    0  0.59674477433E+01 -0.42541903419E+00 -0.12826053143E+01  0.61185366155E+01  0.00000000000E+00 0.  1.
</event>
<event>
 8    1  0.1271559E-006  0.9118800E+02  0.7816164E-02  0.1184000E+00
        -11   -1    0    0    0    0  0.00000000000E+00  0.00000000000E+00  0.45593999997E+02  0.45594000000E+02  0.51100000000E-03 0. -1.
         11   -1    0    0    0    0 -0.00000000000E+00 -0.00000000000E+00 -0.45593999997E+02  0.45594000000E+02  0.51100000000E-03 0.  1.
         23    2    1    2    0    0  0.00000000000E+00  0.71054273576E-14 -0.88817841970E-15  0.91188000000E+02  0.91188000000E+02 0.  0.
    9900012    2    3    3    0    0 -0.14080595744E+02 -0.33401479577E+02  0.64697809050E+01  0.54367080954E+02  0.39999992652E+02 0.  0.
         12    1    3    3    0    0  0.14080595744E+02  0.33401479577E+02 -0.64697809050E+01  0.36820919046E+02  0.00000000000E+00 0. -1.
         11    1    4    4    0    0  0.17460603442E+01 -0.60027068210E+00  0.13570096403E+02  0.13695129363E+02  0.51100000000E-03 0. -1.
        -11    1    4    4    0    0 -0.15686522881E+02 -0.13371545887E+02 -0.33350651390E+01  0.20880323255E+02  0.51100000000E-03 0.  1.
         12    1    4    4    0    0 -0.14013320660E+00 -0.19429663008E+02 -0.37652503595E+01  0.19791628336E+02  0.00000000000E+00 0. -1.
</event>
<event>
 8    1  0.1271559E-006  0.9118800E+02  0.7816164E-02  0.1184000E+00
        -11   -1    0    0    0    0  0.00000000000E+00  0.00000000000E+00  0.45593999997E+02  0.45594000000E+02  0.51100000000E-03 0. -1.
         11   -1    0    0    0    0 -0.00000000000E+00 -0.00000000000E+00 -0.45593999997E+02  0.45594000000E+02  0.51100000000E-03 0.  1.
         23    2    1    2    0    0  0.33306690739E-15 -0.35527136788E-14  0.00000000000E+00  0.91188000000E+02  0.91188000000E+02 0.  0.
    9900012    2    3    3    0    0  0.17388472335E+00  0.26536266140E+02 -0.25526000945E+02  0.54367076862E+02  0.39999983321E+02 0.  0.
         12    1    3    3    0    0 -0.17388472335E+00 -0.26536266140E+02  0.25526000945E+02  0.36820923138E+02  0.00000000000E+00 0. -1.
         11    1    4    4    0    0  0.12377048139E+02  0.13605272051E+02  0.22322191002E+01  0.18527750823E+02  0.51100000000E-03 0. -1.
        -11    1    4    4    0    0  0.23988608236E+01  0.45095869024E+01 -0.31159091259E+01  0.59832931754E+01  0.51100000000E-03 0.  1.
         12    1    4    4    0    0 -0.14602024239E+02  0.84214071866E+01 -0.24642310919E+02  0.29856032863E+02  0.00000000000E+00 0. -1.
</event>
<event>
 8    1  0.1271559E-006  0.9118800E+02  0.7816164E-02  0.1184000E+00
        -11   -1    0    0    0    0  0.00000000000E+00  0.00000000000E+00  0.45593999997E+02  0.45594000000E+02  0.51100000000E-03 0. -1.
         11   -1    0    0    0    0 -0.00000000000E+00 -0.00000000000E+00 -0.45593999997E+02  0.45594000000E+02  0.51100000000E-03 0.  1.
         23    2    1    2    0    0  0.35527136788E-14 -0.44408920985E-15 -0.35527136788E-14  0.91188000000E+02  0.91188000000E+02 0.  0.
    9900012    2    3    3    0    0  0.31691579056E+02  0.20176272533E+01 -0.18637198872E+02  0.54367188160E+02  0.40000237048E+02 0.  0.
         12    1    3    3    0    0 -0.31691579056E+02 -0.20176272533E+01  0.18637198872E+02  0.36820811840E+02  0.00000000000E+00 0. -1.
         11    1    4    4    0    0  0.29399937118E+02  0.45455930079E+01 -0.86437639595E+01  0.30979563812E+02  0.51100000000E-03 0. -1.
        -11    1    4    4    0    0  0.10393075232E+02  0.33229327113E+01 -0.69676815318E+01  0.12946292163E+02  0.51100000000E-03 0.  1.
        -12    1    4    4    0    0 -0.81014332942E+01 -0.58508984659E+01 -0.30257533803E+01  0.10441332185E+02  0.00000000000E+00 0.  1.
</event>
<event>
 8    1  0.1271559E-006  0.9118800E+02  0.7816164E-02  0.1184000E+00
        -11   -1    0    0    0    0  0.00000000000E+00  0.00000000000E+00  0.45593999997E+02  0.45594000000E+02  0.51100000000E-03 0.  1.
         11   -1    0    0    0    0 -0.00000000000E+00 -0.00000000000E+00 -0.45593999997E+02  0.45594000000E+02  0.51100000000E-03 0. -1.
         23    2    1    2    0    0 -0.44408920985E-15 -0.71054273576E-14  0.00000000000E+00  0.91188000000E+02  0.91188000000E+02 0.  0.
    9900012    2    3    3    0    0 -0.34180583221E+01 -0.33470209359E+02  0.14961333108E+02  0.54367088474E+02  0.40000009794E+02 0.  0.
         12    1    3    3    0    0  0.34180583221E+01  0.33470209359E+02 -0.14961333108E+02  0.36820911526E+02  0.00000000000E+00 0. -1.
         11    1    4    4    0    0  0.40844466308E+01 -0.14332421167E+02 -0.61995357389E+01  0.16141104188E+02  0.51100000000E-03 0. -1.
        -11    1    4    4    0    0 -0.30910799762E+01 -0.20656132478E+02  0.50980021601E+01  0.21499307213E+02  0.51100000000E-03 0.  1.
         12    1    4    4    0    0 -0.44114249767E+01  0.15183442849E+01  0.16062866687E+02  0.16726677073E+02  0.00000000000E+00 0. -1.
</event>
<event>
 8    1  0.1271559E-006  0.9118800E+02  0.7816164E-02  0.1184000E+00
        -11   -1    0    0    0    0  0.00000000000E+00  0.00000000000E+00  0.45593999997E+02  0.45594000000E+02  0.51100000000E-03 0.  1.
         11   -1    0    0    0    0 -0.00000000000E+00 -0.00000000000E+00 -0.45593999997E+02  0.45594000000E+02  0.51100000000E-03 0. -1.
         23    2    1    2    0    0  0.17763568394E-14  0.35527136788E-14  0.00000000000E+00  0.91188000000E+02  0.91188000000E+02 0.  0.
    9900012    2    3    3    0    0 -0.96549989326E+01  0.25714889903E+02 -0.24521467384E+02  0.54367123724E+02  0.40000090152E+02 0.  0.
        -12    1    3    3    0    0  0.96549989326E+01 -0.25714889903E+02  0.24521467384E+02  0.36820876276E+02  0.00000000000E+00 0.  1.
         11    1    4    4    0    0  0.24241128635E+01  0.20726426402E+02 -0.25928795754E+02  0.33283081649E+02  0.51100000000E-03 0. -1.
        -11    1    4    4    0    0 -0.34722841675E+01  0.92831855795E+01  0.46303567709E+01  0.10939583901E+02  0.51100000000E-03 0.  1.
         12    1    4    4    0    0 -0.86068276286E+01 -0.42947220778E+01 -0.32230284001E+01  0.10144458173E+02  0.00000000000E+00 0. -1.
</event>
<event>
 8    1  0.1271559E-006  0.9118800E+02  0.7816164E-02  0.1184000E+00
        -11   -1    0    0    0    0  0.00000000000E+00  0.00000000000E+00  0.45593999997E+02  0.45594000000E+02  0.51100000000E-03 0. -1.
         11   -1    0    0    0    0 -0.00000000000E+00 -0.00000000000E+00 -0.45593999997E+02  0.45594000000E+02  0.51100000000E-03 0.  1.
         23    2    1    2    0    0  0.35527136788E-14  0.00000000000E+00  0.00000000000E+00  0.91188000000E+02  0.91188000000E+02 0.  0.
    9900012    2    3    3    0    0 -0.17827643601E+02  0.27033907885E+02  0.17524868851E+02  0.54367108103E+02  0.40000054542E+02 0.  0.
         12    1    3    3    0    0  0.17827643601E+02 -0.27033907885E+02 -0.17524868851E+02  0.36820891897E+02  0.00000000000E+00 0. -1.
         11    1    4    4    0    0  0.32490976792E+01 -0.97702954734E+00 -0.92249568721E+01  0.98290921258E+01  0.51100000000E-03 0. -1.
        -11    1    4    4    0    0 -0.47733921879E+01  0.10888824883E+02  0.10365457144E+02  0.15773220419E+02  0.51100000000E-03 0.  1.
         12    1    4    4    0    0 -0.16303349092E+02  0.17122112549E+02  0.16384368579E+02  0.28764795558E+02  0.00000000000E+00 0. -1.
</event>
<event>
 8    1  0.1271559E-006  0.9118800E+02  0.7816164E-02  0.1184000E+00
        -11   -1    0    0    0    0  0.00000000000E+00  0.00000000000E+00  0.45593999997E+02  0.45594000000E+02  0.51100000000E-03 0.  1.
         11   -1    0    0    0    0 -0.00000000000E+00 -0.00000000000E+00 -0.45593999997E+02  0.45594000000E+02  0.51100000000E-03 0. -1.
         23    2    1    2    0    0 -0.35527136788E-14  0.22204460493E-15 -0.35527136788E-14  0.91188000000E+02  0.91188000000E+02 0.  0.
    9900012    2    3    3    0    0 -0.29277200816E+02 -0.17985754568E+01  0.22257409776E+02  0.54367059610E+02  0.39999943992E+02 0.  0.
        -12    1    3    3    0    0  0.29277200816E+02  0.17985754568E+01 -0.22257409776E+02  0.36820940390E+02  0.00000000000E+00 0.  1.
         11    1    4    4    0    0  0.64774678037E+00 -0.27078489228E+01 -0.61312008050E+01  0.67337690228E+01  0.51100000000E-03 0. -1.
        -11    1    4    4    0    0  0.26260030702E+01 -0.14038182492E+01  0.94385383343E+01  0.98971007851E+01  0.51100000000E-03 0.  1.
         12    1    4    4    0    0 -0.32550950667E+02  0.23130917153E+01  0.18950072247E+02  0.37736189802E+02  0.00000000000E+00 0. -1.
</event>
<event>
 8    1  0.1271559E-006  0.9118800E+02  0.7816164E-02  0.1184000E+00
        -11   -1    0    0    0    0  0.00000000000E+00  0.00000000000E+00  0.45593999997E+02  0.45594000000E+02  0.51100000000E-03 0.  1.
         11   -1    0    0    0    0 -0.00000000000E+00 -0.00000000000E+00 -0.45593999997E+02  0.45594000000E+02  0.51100000000E-03 0. -1.
         23    2    1    2    0    0  0.00000000000E+00  0.00000000000E+00  0.00000000000E+00  0.91188000000E+02  0.91188000000E+02 0.  0.
    9900012    2    3    3    0    0  0.12357447363E+02 -0.29894451535E+02  0.17589558482E+02  0.54367118622E+02  0.40000078522E+02 0.  0.
        -12    1    3    3    0    0 -0.12357447363E+02  0.29894451535E+02 -0.17589558482E+02  0.36820881378E+02  0.00000000000E+00 0.  1.
         11    1    4    4    0    0  0.10105559564E+02 -0.86303459072E+01 -0.95535341530E+01  0.16366894013E+02  0.51100000000E-03 0. -1.
        -11    1    4    4    0    0  0.70688963136E+01 -0.15996101501E+02  0.11855328230E+02  0.21128023240E+02  0.51100000000E-03 0.  1.
        -12    1    4    4    0    0 -0.48170085144E+01 -0.52680041265E+01  0.15287764406E+02  0.16872201369E+02  0.00000000000E+00 0.  1.
</event>
<event>
 8    1  0.1271559E-006  0.9118800E+02  0.7816164E-02  0.1184000E+00
        -11   -1    0    0    0    0  0.00000000000E+00  0.00000000000E+00  0.45593999997E+02  0.45594000000E+02  0.51100000000E-03 0.  1.
         11   -1    0    0    0    0 -0.00000000000E+00 -0.00000000000E+00 -0.45593999997E+02  0.45594000000E+02  0.51100000000E-03 0. -1.
         23    2    1    2    0    0  0.35527136788E-14  0.00000000000E+00  0.35527136788E-14  0.91188000000E+02  0.91188000000E+02 0.  0.
    9900012    2    3    3    0    0  0.26478110943E+02 -0.44376208587E+01 -0.25199128856E+02  0.54367096520E+02  0.40000028137E+02 0.  0.
        -12    1    3    3    0    0 -0.26478110943E+02  0.44376208587E+01  0.25199128856E+02  0.36820903480E+02  0.00000000000E+00 0.  1.
         11    1    4    4    0    0  0.92385402064E+01 -0.15282452436E+01 -0.18759823852E+02  0.20967049146E+02  0.51100000000E-03 0. -1.
        -11    1    4    4    0    0 -0.87327178824E+00 -0.70962380541E+01  0.73499350784E+01  0.10253816073E+02  0.51100000000E-03 0.  1.
        -12    1    4    4    0    0  0.18112842525E+02  0.41868624390E+01 -0.13789240082E+02  0.23146231301E+02  0.00000000000E+00 0.  1.
</event>
<event>
 8    1  0.1271559E-006  0.9118800E+02  0.7816164E-02  0.1184000E+00
        -11   -1    0    0    0    0  0.00000000000E+00  0.00000000000E+00  0.45593999997E+02  0.45594000000E+02  0.51100000000E-03 0.  1.
         11   -1    0    0    0    0 -0.00000000000E+00 -0.00000000000E+00 -0.45593999997E+02  0.45594000000E+02  0.51100000000E-03 0. -1.
         23    2    1    2    0    0 -0.35527136788E-14  0.00000000000E+00 -0.44408920985E-15  0.91188000000E+02  0.91188000000E+02 0.  0.
    9900012    2    3    3    0    0  0.16080992328E+02  0.32893814607E+02  0.38959987472E+01  0.54367079861E+02  0.39999990159E+02 0.  0.
        -12    1    3    3    0    0 -0.16080992328E+02 -0.32893814607E+02 -0.38959987472E+01  0.36820920139E+02  0.00000000000E+00 0.  1.
         11    1    4    4    0    0  0.84264089819E+01  0.22244739570E+02  0.14320460820E+02  0.27765237352E+02  0.51100000000E-03 0. -1.
        -11    1    4    4    0    0 -0.63787186885E+01  0.72035003692E+01 -0.18461263273E+01  0.97972778032E+01  0.51100000000E-03 0.  1.
        -12    1    4    4    0    0  0.14033302035E+02  0.34455746678E+01 -0.85783357452E+01  0.16804564706E+02  0.00000000000E+00 0.  1.
</event>
<event>
 8    1  0.1271559E-006  0.9118800E+02  0.7816164E-02  0.1184000E+00
        -11   -1    0    0    0    0  0.00000000000E+00  0.00000000000E+00  0.45593999997E+02  0.45594000000E+02  0.51100000000E-03 0.  1.
         11   -1    0    0    0    0 -0.00000000000E+00 -0.00000000000E+00 -0.45593999997E+02  0.45594000000E+02  0.51100000000E-03 0. -1.
         23    2    1    2    0    0  0.00000000000E+00  0.35527136788E-14  0.35527136788E-14  0.91188000000E+02  0.91188000000E+02 0.  0.
    9900012    2    3    3    0    0 -0.14202210499E+02 -0.29167287089E+02 -0.17416890914E+02  0.54367061550E+02  0.39999948417E+02 0.  0.
        -12    1    3    3    0    0  0.14202210499E+02  0.29167287089E+02  0.17416890914E+02  0.36820938450E+02  0.00000000000E+00 0.  1.
         11    1    4    4    0    0  0.32016887085E+01  0.54293044804E+01 -0.11872879616E+02  0.13442225574E+02  0.51100000000E-03 0. -1.
        -11    1    4    4    0    0 -0.13658406633E+02 -0.33565929298E+02 -0.67406291296E+01  0.36860002207E+02  0.51100000000E-03 0.  1.
        -12    1    4    4    0    0 -0.37454925740E+01 -0.10306622716E+01  0.11966178318E+01  0.40648337697E+01  0.00000000000E+00 0.  1.
</event>
<event>
 8    1  0.1271559E-006  0.9118800E+02  0.7816164E-02  0.1184000E+00
        -11   -1    0    0    0    0  0.00000000000E+00  0.00000000000E+00  0.45593999997E+02  0.45594000000E+02  0.51100000000E-03 0.  1.
         11   -1    0    0    0    0 -0.00000000000E+00 -0.00000000000E+00 -0.45593999997E+02  0.45594000000E+02  0.51100000000E-03 0. -1.
         23    2    1    2    0    0  0.17763568394E-14  0.17763568394E-14  0.71054273576E-14  0.91188000000E+02  0.91188000000E+02 0.  0.
    9900012    2    3    3    0    0 -0.73193955066E+01 -0.12608077106E+02 -0.33811836748E+02  0.54367116481E+02  0.40000073641E+02 0.  0.
        -12    1    3    3    0    0  0.73193955066E+01  0.12608077106E+02  0.33811836748E+02  0.36820883519E+02  0.00000000000E+00 0.  1.
         11    1    4    4    0    0 -0.62367757317E+01 -0.10341798579E+01 -0.11527293739E+02  0.13147068141E+02  0.51100000000E-03 0.  1.
        -11    1    4    4    0    0 -0.83419965833E+01  0.59933909078E+01 -0.19458174711E+02  0.22002959004E+02  0.51100000000E-03 0. -1.
         12    1    4    4    0    0  0.72593768084E+01 -0.17567288156E+02 -0.28263682980E+01  0.19217089336E+02  0.00000000000E+00 0. -1.
</event>
<event>
 8    1  0.1271559E-006  0.9118800E+02  0.7816164E-02  0.1184000E+00
        -11   -1    0    0    0    0  0.00000000000E+00  0.00000000000E+00  0.45593999997E+02  0.45594000000E+02  0.51100000000E-03 0.  1.
         11   -1    0    0    0    0 -0.00000000000E+00 -0.00000000000E+00 -0.45593999997E+02  0.45594000000E+02  0.51100000000E-03 0. -1.
         23    2    1    2    0    0  0.00000000000E+00  0.00000000000E+00 -0.17763568394E-14  0.91188000000E+02  0.91188000000E+02 0.  0.
    9900012    2    3    3    0    0 -0.25312264081E+02 -0.25233936749E+02 -0.88497440489E+01  0.54367078685E+02  0.39999987478E+02 0.  0.
        -12    1    3    3    0    0  0.25312264081E+02  0.25233936749E+02  0.88497440489E+01  0.36820921315E+02  0.00000000000E+00 0.  1.
         11    1    4    4    0    0 -0.26579487029E+02 -0.70887804243E+01 -0.12658564241E+02  0.30281333979E+02  0.51100000000E-03 0. -1.
        -11    1    4    4    0    0 -0.52026771995E+00 -0.10847220768E+02 -0.54591868496E+01  0.12154653357E+02  0.51100000000E-03 0.  1.
        -12    1    4    4    0    0  0.17874906681E+01 -0.72979355562E+01  0.92680070415E+01  0.11931091350E+02  0.00000000000E+00 0.  1.
</event>
<event>
 8    1  0.1271559E-006  0.9118800E+02  0.7816164E-02  0.1184000E+00
        -11   -1    0    0    0    0  0.00000000000E+00  0.00000000000E+00  0.45593999997E+02  0.45594000000E+02  0.51100000000E-03 0. -1.
         11   -1    0    0    0    0 -0.00000000000E+00 -0.00000000000E+00 -0.45593999997E+02  0.45594000000E+02  0.51100000000E-03 0.  1.
         23    2    1    2    0    0  0.17763568394E-14  0.00000000000E+00  0.35527136788E-14  0.91188000000E+02  0.91188000000E+02 0.  0.
    9900012    2    3    3    0    0 -0.11652153241E+02 -0.21847282348E+02  0.27252598371E+02  0.54367074711E+02  0.39999978419E+02 0.  0.
        -12    1    3    3    0    0  0.11652153241E+02  0.21847282348E+02 -0.27252598371E+02  0.36820925289E+02  0.00000000000E+00 0.  1.
         11    1    4    4    0    0  0.72813352324E+01 -0.13072627175E+02  0.44218024599E+01  0.15603325328E+02  0.51100000000E-03 0. -1.
        -11    1    4    4    0    0  0.11083340753E+01 -0.17929698982E+01  0.16475160264E+02  0.16609456688E+02  0.51100000000E-03 0.  1.
         12    1    4    4    0    0 -0.20041822549E+02 -0.69816852747E+01  0.63556356463E+01  0.22154292695E+02  0.00000000000E+00 0. -1.
</event>
<event>
 8    1  0.1271559E-006  0.9118800E+02  0.7816164E-02  0.1184000E+00
        -11   -1    0    0    0    0  0.00000000000E+00  0.00000000000E+00  0.45593999997E+02  0.45594000000E+02  0.51100000000E-03 0. -1.
         11   -1    0    0    0    0 -0.00000000000E+00 -0.00000000000E+00 -0.45593999997E+02  0.45594000000E+02  0.51100000000E-03 0.  1.
         23    2    1    2    0    0  0.00000000000E+00 -0.35527136788E-14 -0.17763568394E-14  0.91188000000E+02  0.91188000000E+02 0.  0.
    9900012    2    3    3    0    0 -0.25225794824E+02  0.24480693669E+02  0.10960599777E+02  0.54367084279E+02  0.40000000232E+02 0.  0.
        -12    1    3    3    0    0  0.25225794824E+02 -0.24480693669E+02 -0.10960599777E+02  0.36820915721E+02  0.00000000000E+00 0.  1.
         11    1    4    4    0    0 -0.11719321284E+02  0.25243443269E+02  0.18025015755E+02  0.33158333985E+02  0.51100000000E-03 0. -1.
        -11    1    4    4    0    0 -0.21920158407E+01  0.44096369716E+01  0.24941365454E+01  0.55200134995E+01  0.51100000000E-03 0.  1.
        -12    1    4    4    0    0 -0.11314457699E+02 -0.51723865719E+01 -0.95585525232E+01  0.15688736795E+02  0.00000000000E+00 0.  1.
</event>
<event>
 8    1  0.1271559E-006  0.9118800E+02  0.7816164E-02  0.1184000E+00
        -11   -1    0    0    0    0  0.00000000000E+00  0.00000000000E+00  0.45593999997E+02  0.45594000000E+02  0.51100000000E-03 0.  1.
         11   -1    0    0    0    0 -0.00000000000E+00 -0.00000000000E+00 -0.45593999997E+02  0.45594000000E+02  0.51100000000E-03 0. -1.
         23    2    1    2    0    0 -0.71054273576E-14  0.00000000000E+00  0.00000000000E+00  0.91188000000E+02  0.91188000000E+02 0.  0.
    9900012    2    3    3    0    0  0.28779018348E+02  0.16304160778E+02 -0.16177801009E+02  0.54367098311E+02  0.40000032219E+02 0.  0.
        -12    1    3    3    0    0 -0.28779018348E+02 -0.16304160778E+02  0.16177801009E+02  0.36820901689E+02  0.00000000000E+00 0.  1.
         11    1    4    4    0    0  0.12610553203E+01  0.33863445709E+01 -0.15766970617E+02  0.16175752000E+02  0.51100000000E-03 0. -1.
        -11    1    4    4    0    0  0.53593741184E+01 -0.33256759754E+01 -0.75169666527E+01  0.98126346897E+01  0.51100000000E-03 0.  1.
         12    1    4    4    0    0  0.22158588909E+02  0.16243492182E+02  0.71061362607E+01  0.28378711621E+02  0.00000000000E+00 0. -1.
</event>
<event>
 8    1  0.1271559E-006  0.9118800E+02  0.7816164E-02  0.1184000E+00
        -11   -1    0    0    0    0  0.00000000000E+00  0.00000000000E+00  0.45593999997E+02  0.45594000000E+02  0.51100000000E-03 0.  1.
         11   -1    0    0    0    0 -0.00000000000E+00 -0.00000000000E+00 -0.45593999997E+02  0.45594000000E+02  0.51100000000E-03 0. -1.
         23    2    1    2    0    0  0.00000000000E+00 -0.17763568394E-14  0.00000000000E+00  0.91188000000E+02  0.91188000000E+02 0.  0.
    9900012    2    3    3    0    0 -0.30870877755E+02 -0.15795582160E+02 -0.12379449230E+02  0.54367322760E+02  0.40000543892E+02 0.  0.
        -12    1    3    3    0    0  0.30870877755E+02  0.15795582160E+02  0.12379449230E+02  0.36820677240E+02  0.00000000000E+00 0.  1.
         11    1    4    4    0    0 -0.10102493974E+02 -0.68441088646E+01  0.18177114729E+01  0.12337191168E+02  0.51100000000E-03 0. -1.
        -11    1    4    4    0    0 -0.23523599345E+02  0.42049609346E+01 -0.15565427735E+02  0.28518835240E+02  0.51100000000E-03 0.  1.
        -12    1    4    4    0    0  0.27552155633E+01 -0.13156434230E+02  0.13682670318E+01  0.13511296353E+02  0.00000000000E+00 0.  1.
</event>
<event>
 8    1  0.1271559E-006  0.9118800E+02  0.7816164E-02  0.1184000E+00
        -11   -1    0    0    0    0  0.00000000000E+00  0.00000000000E+00  0.45593999997E+02  0.45594000000E+02  0.51100000000E-03 0.  1.
         11   -1    0    0    0    0 -0.00000000000E+00 -0.00000000000E+00 -0.45593999997E+02  0.45594000000E+02  0.51100000000E-03 0. -1.
         23    2    1    2    0    0  0.44408920985E-15 -0.17763568394E-14  0.00000000000E+00  0.91188000000E+02  0.91188000000E+02 0.  0.
    9900012    2    3    3    0    0  0.35097462011E+01 -0.46435299960E+01  0.36357964672E+02  0.54367051013E+02  0.39999924395E+02 0.  0.
         12    1    3    3    0    0 -0.35097462011E+01  0.46435299960E+01 -0.36357964672E+02  0.36820948987E+02  0.00000000000E+00 0. -1.
         11    1    4    4    0    0  0.28737440359E+01  0.11368814752E+02  0.14134929255E+02  0.18365853613E+02  0.51100000000E-03 0.  1.
        -11    1    4    4    0    0  0.50108147492E+01 -0.22592870952E+01 -0.34927414923E+01  0.65124408652E+01  0.51100000000E-03 0. -1.
         12    1    4    4    0    0 -0.43748125840E+01 -0.13753057653E+02  0.25715776909E+02  0.29488756535E+02  0.00000000000E+00 0. -1.
</event>
<event>
 8    1  0.1271559E-006  0.9118800E+02  0.7816164E-02  0.1184000E+00
        -11   -1    0    0    0    0  0.00000000000E+00  0.00000000000E+00  0.45593999997E+02  0.45594000000E+02  0.51100000000E-03 0. -1.
         11   -1    0    0    0    0 -0.00000000000E+00 -0.00000000000E+00 -0.45593999997E+02  0.45594000000E+02  0.51100000000E-03 0.  1.
         23    2    1    2    0    0  0.00000000000E+00 -0.35527136788E-14 -0.35527136788E-14  0.91188000000E+02  0.91188000000E+02 0.  0.
    9900012    2    3    3    0    0 -0.21130240618E+02 -0.27522344819E+02 -0.12321243834E+02  0.54367087701E+02  0.40000008033E+02 0.  0.
         12    1    3    3    0    0  0.21130240618E+02  0.27522344819E+02  0.12321243834E+02  0.36820912299E+02  0.00000000000E+00 0. -1.
         11    1    4    4    0    0 -0.72764287445E+01  0.45005648849E+01  0.50807538193E+01  0.99506562190E+01  0.51100000000E-03 0. -1.
        -11    1    4    4    0    0  0.36095195643E+01 -0.13909647720E+02 -0.10492791057E+01  0.14408605695E+02  0.51100000000E-03 0.  1.
        -12    1    4    4    0    0 -0.17463331438E+02 -0.18113261984E+02 -0.16352718547E+02  0.30007825787E+02  0.00000000000E+00 0.  1.
</event>
<event>
 8    1  0.1271559E-006  0.9118800E+02  0.7816164E-02  0.1184000E+00
        -11   -1    0    0    0    0  0.00000000000E+00  0.00000000000E+00  0.45593999997E+02  0.45594000000E+02  0.51100000000E-03 0. -1.
         11   -1    0    0    0    0 -0.00000000000E+00 -0.00000000000E+00 -0.45593999997E+02  0.45594000000E+02  0.51100000000E-03 0.  1.
         23    2    1    2    0    0  0.00000000000E+00  0.00000000000E+00  0.00000000000E+00  0.91188000000E+02  0.91188000000E+02 0.  0.
    9900012    2    3    3    0    0 -0.18695450798E+02 -0.21280940058E+02  0.23524063328E+02  0.54367084127E+02  0.39999999884E+02 0.  0.
         12    1    3    3    0    0  0.18695450798E+02  0.21280940058E+02 -0.23524063328E+02  0.36820915873E+02  0.00000000000E+00 0. -1.
         11    1    4    4    0    0  0.43481988876E+01 -0.14323947854E+02  0.10630695667E+02  0.18360119997E+02  0.51100000000E-03 0. -1.
        -11    1    4    4    0    0 -0.19273517042E+02  0.59230720965E+01  0.85514866571E+01  0.21901579088E+02  0.51100000000E-03 0.  1.
         12    1    4    4    0    0 -0.37701326440E+01 -0.12880064301E+02  0.43418810035E+01  0.14105385042E+02  0.00000000000E+00 0. -1.
</event>
<event>
 8    1  0.1271559E-006  0.9118800E+02  0.7816164E-02  0.1184000E+00
        -11   -1    0    0    0    0  0.00000000000E+00  0.00000000000E+00  0.45593999997E+02  0.45594000000E+02  0.51100000000E-03 0. -1.
         11   -1    0    0    0    0 -0.00000000000E+00 -0.00000000000E+00 -0.45593999997E+02  0.45594000000E+02  0.51100000000E-03 0.  1.
         23    2    1    2    0    0  0.00000000000E+00  0.00000000000E+00  0.71054273576E-14  0.91188000000E+02  0.91188000000E+02 0.  0.
    9900012    2    3    3    0    0 -0.56737000213E+01 -0.10928348190E+02 -0.34701017624E+02  0.54367078091E+02  0.39999986125E+02 0.  0.
         12    1    3    3    0    0  0.56737000213E+01  0.10928348190E+02  0.34701017624E+02  0.36820921909E+02  0.00000000000E+00 0. -1.
         11    1    4    4    0    0  0.38713528863E+01 -0.14930774749E+02 -0.24946402578E+02  0.29329821166E+02  0.51100000000E-03 0. -1.
        -11    1    4    4    0    0 -0.76846971148E+01 -0.65297980074E+01 -0.10185812217E+02  0.14333303965E+02  0.51100000000E-03 0.  1.
        -12    1    4    4    0    0 -0.18603557928E+01  0.10532224566E+02  0.43119717139E+00  0.10703952961E+02  0.00000000000E+00 0.  1.
</event>
<event>
 8    1  0.1271559E-006  0.9118800E+02  0.7816164E-02  0.1184000E+00
        -11   -1    0    0    0    0  0.00000000000E+00  0.00000000000E+00  0.45593999997E+02  0.45594000000E+02  0.51100000000E-03 0.  1.
         11   -1    0    0    0    0 -0.00000000000E+00 -0.00000000000E+00 -0.45593999997E+02  0.45594000000E+02  0.51100000000E-03 0. -1.
         23    2    1    2    0    0 -0.17763568394E-14  0.71054273576E-14 -0.11102230246E-15  0.91188000000E+02  0.91188000000E+02 0.  0.
    9900012    2    3    3    0    0  0.14440551990E+02  0.33862238401E+02 -0.77344804329E+00  0.54367096247E+02  0.40000027515E+02 0.  0.
         12    1    3    3    0    0 -0.14440551990E+02 -0.33862238401E+02  0.77344804329E+00  0.36820903753E+02  0.00000000000E+00 0. -1.
         11    1    4    4    0    0 -0.10652703169E+01 -0.36198259595E+01  0.62629430984E+00  0.38249425681E+01  0.51100000000E-03 0. -1.
        -11    1    4    4    0    0  0.18079634014E+02  0.40977545363E+02 -0.47762849432E+01  0.45042705161E+02  0.51100000000E-03 0.  1.
        -12    1    4    4    0    0 -0.25738117076E+01 -0.34954810025E+01  0.33765425901E+01  0.54994485185E+01  0.00000000000E+00 0.  1.
</event>
<event>
 8    1  0.1271559E-006  0.9118800E+02  0.7816164E-02  0.1184000E+00
        -11   -1    0    0    0    0  0.00000000000E+00  0.00000000000E+00  0.45593999997E+02  0.45594000000E+02  0.51100000000E-03 0.  1.
         11   -1    0    0    0    0 -0.00000000000E+00 -0.00000000000E+00 -0.45593999997E+02  0.45594000000E+02  0.51100000000E-03 0. -1.
         23    2    1    2    0    0 -0.35527136788E-14  0.00000000000E+00 -0.35527136788E-14  0.91188000000E+02  0.91188000000E+02 0.  0.
    9900012    2    3    3    0    0 -0.31086872631E+02  0.24694402722E+01 -0.19577735102E+02  0.54367088863E+02  0.40000010682E+02 0.  0.
        -12    1    3    3    0    0  0.31086872631E+02 -0.24694402722E+01  0.19577735102E+02  0.36820911137E+02  0.00000000000E+00 0.  1.
         11    1    4    4    0    0 -0.11241943443E+02  0.14229345828E+02 -0.17690906816E+02  0.25334240847E+02  0.51100000000E-03 0. -1.
        -11    1    4    4    0    0 -0.19129960237E+02 -0.21221572873E+01 -0.21355208799E+01  0.19365417112E+02  0.51100000000E-03 0.  1.
        -12    1    4    4    0    0 -0.71496895111E+00 -0.96377482685E+01  0.24869259403E+00  0.96674309046E+01  0.00000000000E+00 0.  1.
</event>
<event>
 8    1  0.1271559E-006  0.9118800E+02  0.7816164E-02  0.1184000E+00
        -11   -1    0    0    0    0  0.00000000000E+00  0.00000000000E+00  0.45593999997E+02  0.45594000000E+02  0.51100000000E-03 0. -1.
         11   -1    0    0    0    0 -0.00000000000E+00 -0.00000000000E+00 -0.45593999997E+02  0.45594000000E+02  0.51100000000E-03 0.  1.
         23    2    1    2    0    0  0.88817841970E-15  0.00000000000E+00 -0.17763568394E-14  0.91188000000E+02  0.91188000000E+02 0.  0.
    9900012    2    3    3    0    0  0.54382339068E+01 -0.34124496039E+02  0.12717047545E+02  0.54367096749E+02  0.40000028659E+02 0.  0.
        -12    1    3    3    0    0 -0.54382339068E+01  0.34124496039E+02 -0.12717047545E+02  0.36820903251E+02  0.00000000000E+00 0.  1.
         11    1    4    4    0    0 -0.22455727960E+01 -0.45736616776E+01  0.32996127647E+01  0.60702901892E+01  0.51100000000E-03 0.  1.
        -11    1    4    4    0    0  0.55568153083E+01 -0.28520612206E+02  0.21397783328E+02  0.36085573968E+02  0.51100000000E-03 0. -1.
        -12    1    4    4    0    0  0.21269913945E+01 -0.10302221549E+01 -0.11980348548E+02  0.12211232592E+02  0.00000000000E+00 0.  1.
</event>
<event>
 8    1  0.1271559E-006  0.9118800E+02  0.7816164E-02  0.1184000E+00
        -11   -1    0    0    0    0  0.00000000000E+00  0.00000000000E+00  0.45593999997E+02  0.45594000000E+02  0.51100000000E-03 0.  1.
         11   -1    0    0    0    0 -0.00000000000E+00 -0.00000000000E+00 -0.45593999997E+02  0.45594000000E+02  0.51100000000E-03 0. -1.
         23    2    1    2    0    0  0.00000000000E+00  0.00000000000E+00  0.00000000000E+00  0.91188000000E+02  0.91188000000E+02 0.  0.
    9900012    2    3    3    0    0  0.18815431673E+02 -0.23751562994E+02 -0.20919436695E+02  0.54367081417E+02  0.39999993705E+02 0.  0.
        -12    1    3    3    0    0 -0.18815431673E+02  0.23751562994E+02  0.20919436695E+02  0.36820918583E+02  0.00000000000E+00 0.  1.
         11    1    4    4    0    0  0.10184166741E+02 -0.94881479255E+01 -0.19540976684E+01  0.14055628809E+02  0.51100000000E-03 0.  1.
        -11    1    4    4    0    0  0.55299977197E+01 -0.21607933548E+02 -0.30512652654E+01  0.22512083133E+02  0.51100000000E-03 0. -1.
        -12    1    4    4    0    0  0.31012672124E+01  0.73445184797E+01 -0.15914073761E+02  0.17799369474E+02  0.00000000000E+00 0.  1.
</event>
<event>
 8    1  0.1271559E-006  0.9118800E+02  0.7816164E-02  0.1184000E+00
        -11   -1    0    0    0    0  0.00000000000E+00  0.00000000000E+00  0.45593999997E+02  0.45594000000E+02  0.51100000000E-03 0.  1.
         11   -1    0    0    0    0 -0.00000000000E+00 -0.00000000000E+00 -0.45593999997E+02  0.45594000000E+02  0.51100000000E-03 0. -1.
         23    2    1    2    0    0  0.35527136788E-14  0.00000000000E+00 -0.22204460493E-15  0.91188000000E+02  0.91188000000E+02 0.  0.
    9900012    2    3    3    0    0 -0.26863796832E+02 -0.25155955502E+02 -0.11361441563E+01  0.54367129546E+02  0.40000103426E+02 0.  0.
        -12    1    3    3    0    0  0.26863796832E+02  0.25155955502E+02  0.11361441563E+01  0.36820870454E+02  0.00000000000E+00 0.  1.
         11    1    4    4    0    0 -0.14792150242E+00 -0.39922162627E+01 -0.59396423594E+01  0.71581438290E+01  0.51100000000E-03 0. -1.
        -11    1    4    4    0    0  0.55276945455E+01 -0.12202672986E+02 -0.28449354174E-01  0.13396322055E+02  0.51100000000E-03 0.  1.
         12    1    4    4    0    0 -0.32243569875E+02 -0.89610662533E+01  0.48319475572E+01  0.33812663662E+02  0.00000000000E+00 0. -1.
</event>
<event>
 8    1  0.1271559E-006  0.9118800E+02  0.7816164E-02  0.1184000E+00
        -11   -1    0    0    0    0  0.00000000000E+00  0.00000000000E+00  0.45593999997E+02  0.45594000000E+02  0.51100000000E-03 0.  1.
         11   -1    0    0    0    0 -0.00000000000E+00 -0.00000000000E+00 -0.45593999997E+02  0.45594000000E+02  0.51100000000E-03 0. -1.
         23    2    1    2    0    0 -0.35527136788E-14  0.00000000000E+00  0.35527136788E-14  0.91188000000E+02  0.91188000000E+02 0.  0.
    9900012    2    3    3    0    0  0.28872725867E+02  0.11304749284E+02 -0.19858170884E+02  0.54367100958E+02  0.40000038255E+02 0.  0.
        -12    1    3    3    0    0 -0.28872725867E+02 -0.11304749284E+02  0.19858170884E+02  0.36820899042E+02  0.00000000000E+00 0.  1.
         11    1    4    4    0    0  0.12312331463E+02  0.96778273089E+01 -0.29036514837E+02  0.32990499263E+02  0.51100000000E-03 0. -1.
        -11    1    4    4    0    0  0.12735326254E+02  0.76765818321E+00  0.16184991136E+01  0.12860691021E+02  0.51100000000E-03 0.  1.
         12    1    4    4    0    0  0.38250681505E+01  0.85926379206E+00  0.75598448396E+01  0.85159106747E+01  0.00000000000E+00 0. -1.
</event>
<event>
 8    1  0.1271559E-006  0.9118800E+02  0.7816164E-02  0.1184000E+00
        -11   -1    0    0    0    0  0.00000000000E+00  0.00000000000E+00  0.45593999997E+02  0.45594000000E+02  0.51100000000E-03 0.  1.
         11   -1    0    0    0    0 -0.00000000000E+00 -0.00000000000E+00 -0.45593999997E+02  0.45594000000E+02  0.51100000000E-03 0. -1.
         23    2    1    2    0    0  0.00000000000E+00 -0.26645352591E-14  0.00000000000E+00  0.91188000000E+02  0.91188000000E+02 0.  0.
    9900012    2    3    3    0    0  0.35892718590E+02 -0.77016617709E+01 -0.28596927567E+01  0.54367072737E+02  0.39999973919E+02 0.  0.
         12    1    3    3    0    0 -0.35892718590E+02  0.77016617709E+01  0.28596927567E+01  0.36820927263E+02  0.00000000000E+00 0. -1.
         11    1    4    4    0    0  0.69322367285E+01  0.91013937940E+01 -0.43236050327E+01  0.12230487962E+02  0.51100000000E-03 0. -1.
        -11    1    4    4    0    0  0.24972945728E+02 -0.46782976414E+01  0.94187312904E+01  0.27096992205E+02  0.51100000000E-03 0.  1.
         12    1    4    4    0    0  0.39875361337E+01 -0.12124757924E+02 -0.79548190143E+01  0.15039592570E+02  0.00000000000E+00 0. -1.
</event>
<event>
 8    1  0.1271559E-006  0.9118800E+02  0.7816164E-02  0.1184000E+00
        -11   -1    0    0    0    0  0.00000000000E+00  0.00000000000E+00  0.45593999997E+02  0.45594000000E+02  0.51100000000E-03 0.  1.
         11   -1    0    0    0    0 -0.00000000000E+00 -0.00000000000E+00 -0.45593999997E+02  0.45594000000E+02  0.51100000000E-03 0. -1.
         23    2    1    2    0    0 -0.35527136788E-14 -0.35527136788E-14  0.17763568394E-14  0.91188000000E+02  0.91188000000E+02 0.  0.
    9900012    2    3    3    0    0 -0.24667109685E+02 -0.25461666869E+02  0.99507400176E+01  0.54367081938E+02  0.39999994895E+02 0.  0.
         12    1    3    3    0    0  0.24667109685E+02  0.25461666869E+02 -0.99507400176E+01  0.36820918062E+02  0.00000000000E+00 0. -1.
         11    1    4    4    0    0  0.74429490431E+01 -0.55933034150E+01 -0.24528361256E+01  0.96280288154E+01  0.51100000000E-03 0. -1.
        -11    1    4    4    0    0  0.16221165295E+01  0.21009247229E+01  0.14430041423E+00  0.26581891576E+01  0.51100000000E-03 0.  1.
         12    1    4    4    0    0 -0.33732175258E+02 -0.21969288177E+02  0.12259275729E+02  0.42080863965E+02  0.00000000000E+00 0. -1.
</event>
<event>
 8    1  0.1271559E-006  0.9118800E+02  0.7816164E-02  0.1184000E+00
        -11   -1    0    0    0    0  0.00000000000E+00  0.00000000000E+00  0.45593999997E+02  0.45594000000E+02  0.51100000000E-03 0.  1.
         11   -1    0    0    0    0 -0.00000000000E+00 -0.00000000000E+00 -0.45593999997E+02  0.45594000000E+02  0.51100000000E-03 0. -1.
         23    2    1    2    0    0 -0.71054273576E-14  0.00000000000E+00  0.00000000000E+00  0.91188000000E+02  0.91188000000E+02 0.  0.
    9900012    2    3    3    0    0  0.36333917777E+02  0.39631238778E+00 -0.59557738081E+01  0.54367056419E+02  0.39999936719E+02 0.  0.
         12    1    3    3    0    0 -0.36333917777E+02 -0.39631238778E+00  0.59557738081E+01  0.36820943581E+02  0.00000000000E+00 0. -1.
         11    1    4    4    0    0  0.96754331571E+01 -0.10446537185E+01 -0.10617827225E+02  0.14402901215E+02  0.51100000000E-03 0. -1.
        -11    1    4    4    0    0  0.31676948462E+02  0.21046548111E+01  0.93184279159E+01  0.33086126017E+02  0.51100000000E-03 0.  1.
        -12    1    4    4    0    0 -0.50184638419E+01 -0.66368870481E+00 -0.46563744990E+01  0.68780291875E+01  0.00000000000E+00 0.  1.
</event>
<event>
 8    1  0.1271559E-006  0.9118800E+02  0.7816164E-02  0.1184000E+00
        -11   -1    0    0    0    0  0.00000000000E+00  0.00000000000E+00  0.45593999997E+02  0.45594000000E+02  0.51100000000E-03 0. -1.
         11   -1    0    0    0    0 -0.00000000000E+00 -0.00000000000E+00 -0.45593999997E+02  0.45594000000E+02  0.51100000000E-03 0.  1.
         23    2    1    2    0    0  0.00000000000E+00  0.10658141036E-13  0.35527136788E-14  0.91188000000E+02  0.91188000000E+02 0.  0.
    9900012    2    3    3    0    0 -0.96986767518E+01  0.25660399637E+02  0.24561341013E+02  0.54367083219E+02  0.39999997814E+02 0.  0.
        -12    1    3    3    0    0  0.96986767518E+01 -0.25660399637E+02 -0.24561341013E+02  0.36820916781E+02  0.00000000000E+00 0.  1.
         11    1    4    4    0    0 -0.29688556131E+01 -0.70437463132E+01 -0.35985656883E+01  0.84485585191E+01  0.51100000000E-03 0. -1.
        -11    1    4    4    0    0 -0.43765580453E+00  0.96079960087E+01  0.93031501070E+00  0.96628472091E+01  0.51100000000E-03 0.  1.
         12    1    4    4    0    0 -0.62921653342E+01  0.23096149941E+02  0.27229591690E+02  0.36255677491E+02  0.00000000000E+00 0. -1.
</event>
<event>
 8    1  0.1271559E-006  0.9118800E+02  0.7816164E-02  0.1184000E+00
        -11   -1    0    0    0    0  0.00000000000E+00  0.00000000000E+00  0.45593999997E+02  0.45594000000E+02  0.51100000000E-03 0. -1.
         11   -1    0    0    0    0 -0.00000000000E+00 -0.00000000000E+00 -0.45593999997E+02  0.45594000000E+02  0.51100000000E-03 0.  1.
         23    2    1    2    0    0  0.00000000000E+00 -0.35527136788E-14  0.35527136788E-14  0.91188000000E+02  0.91188000000E+02 0.  0.
    9900012    2    3    3    0    0 -0.55087716656E+01 -0.21067818505E+02 -0.29691712620E+02  0.54366846567E+02  0.39999458316E+02 0.  0.
         12    1    3    3    0    0  0.55087716656E+01  0.21067818505E+02  0.29691712620E+02  0.36821153433E+02  0.00000000000E+00 0. -1.
         11    1    4    4    0    0 -0.33829428870E+01  0.22772001632E+01  0.31098375789E+00  0.40898232625E+01  0.51100000000E-03 0. -1.
        -11    1    4    4    0    0 -0.47698651821E+01 -0.24795115281E+02 -0.58262220931E+01  0.25913205510E+02  0.51100000000E-03 0.  1.
        -12    1    4    4    0    0  0.26440364035E+01  0.14500966134E+01 -0.24176474285E+02  0.24363817795E+02  0.00000000000E+00 0.  1.
</event>
<event>
 8    1  0.1271559E-006  0.9118800E+02  0.7816164E-02  0.1184000E+00
        -11   -1    0    0    0    0  0.00000000000E+00  0.00000000000E+00  0.45593999997E+02  0.45594000000E+02  0.51100000000E-03 0.  1.
         11   -1    0    0    0    0 -0.00000000000E+00 -0.00000000000E+00 -0.45593999997E+02  0.45594000000E+02  0.51100000000E-03 0. -1.
         23    2    1    2    0    0  0.17763568394E-14  0.00000000000E+00 -0.22204460493E-15  0.91188000000E+02  0.91188000000E+02 0.  0.
    9900012    2    3    3    0    0  0.27185053794E+01 -0.36700315664E+02 -0.12150039756E+01  0.54367086432E+02  0.40000005139E+02 0.  0.
         12    1    3    3    0    0 -0.27185053794E+01  0.36700315664E+02  0.12150039756E+01  0.36820913568E+02  0.00000000000E+00 0. -1.
         11    1    4    4    0    0 -0.24497637055E+01 -0.17188740051E+02 -0.58310878427E+01  0.18315450102E+02  0.51100000000E-03 0. -1.
        -11    1    4    4    0    0 -0.68456960647E+01 -0.22376270875E+02  0.27620415070E+01  0.23562468598E+02  0.51100000000E-03 0.  1.
        -12    1    4    4    0    0  0.12013965150E+02  0.28646952620E+01  0.18540423601E+01  0.12489167732E+02  0.00000000000E+00 0.  1.
</event>
<event>
 8    1  0.1271559E-006  0.9118800E+02  0.7816164E-02  0.1184000E+00
        -11   -1    0    0    0    0  0.00000000000E+00  0.00000000000E+00  0.45593999997E+02  0.45594000000E+02  0.51100000000E-03 0. -1.
         11   -1    0    0    0    0 -0.00000000000E+00 -0.00000000000E+00 -0.45593999997E+02  0.45594000000E+02  0.51100000000E-03 0.  1.
         23    2    1    2    0    0  0.00000000000E+00 -0.88817841970E-15  0.00000000000E+00  0.91188000000E+02  0.91188000000E+02 0.  0.
    9900012    2    3    3    0    0 -0.15931712199E+02 -0.48363315034E+01 -0.32841591003E+02  0.54367086709E+02  0.40000005771E+02 0.  0.
         12    1    3    3    0    0  0.15931712199E+02  0.48363315034E+01  0.32841591003E+02  0.36820913291E+02  0.00000000000E+00 0. -1.
         11    1    4    4    0    0 -0.17881127845E+02  0.92180709050E+01 -0.98583342709E+01  0.22402997993E+02  0.51100000000E-03 0. -1.
        -11    1    4    4    0    0 -0.46382666878E+01 -0.14728511523E+02 -0.14318079514E+02  0.21058251845E+02  0.51100000000E-03 0.  1.
        -12    1    4    4    0    0  0.65876823345E+01  0.67410911431E+00 -0.86651772173E+01  0.10905836870E+02  0.00000000000E+00 0.  1.
</event>
<event>
 8    1  0.1271559E-006  0.9118800E+02  0.7816164E-02  0.1184000E+00
        -11   -1    0    0    0    0  0.00000000000E+00  0.00000000000E+00  0.45593999997E+02  0.45594000000E+02  0.51100000000E-03 0.  1.
         11   -1    0    0    0    0 -0.00000000000E+00 -0.00000000000E+00 -0.45593999997E+02  0.45594000000E+02  0.51100000000E-03 0. -1.
         23    2    1    2    0    0  0.00000000000E+00  0.44408920985E-15 -0.17763568394E-14  0.91188000000E+02  0.91188000000E+02 0.  0.
    9900012    2    3    3    0    0  0.34542985504E+02 -0.38567295253E+01 -0.12152927760E+02  0.54367002414E+02  0.39999813602E+02 0.  0.
        -12    1    3    3    0    0 -0.34542985504E+02  0.38567295253E+01  0.12152927760E+02  0.36820997586E+02  0.00000000000E+00 0.  1.
         11    1    4    4    0    0  0.57304630925E+01 -0.69800538127E+01 -0.98645428636E+01  0.13374175289E+02  0.51100000000E-03 0. -1.
        -11    1    4    4    0    0  0.25982253966E+02  0.10978584154E+02  0.64204848649E+01  0.28928004724E+02  0.51100000000E-03 0.  1.
        -12    1    4    4    0    0  0.28302684450E+01 -0.78552598664E+01 -0.87088697611E+01  0.12064822400E+02  0.00000000000E+00 0.  1.
</event>
<event>
 8    1  0.1271559E-006  0.9118800E+02  0.7816164E-02  0.1184000E+00
        -11   -1    0    0    0    0  0.00000000000E+00  0.00000000000E+00  0.45593999997E+02  0.45594000000E+02  0.51100000000E-03 0.  1.
         11   -1    0    0    0    0 -0.00000000000E+00 -0.00000000000E+00 -0.45593999997E+02  0.45594000000E+02  0.51100000000E-03 0. -1.
         23    2    1    2    0    0 -0.71054273576E-14  0.00000000000E+00  0.00000000000E+00  0.91188000000E+02  0.91188000000E+02 0.  0.
    9900012    2    3    3    0    0  0.30583577784E+02 -0.23614400997E+01 -0.20367821862E+02  0.54367084791E+02  0.40000001399E+02 0.  0.
        -12    1    3    3    0    0 -0.30583577784E+02  0.23614400997E+01  0.20367821862E+02  0.36820915209E+02  0.00000000000E+00 0.  1.
         11    1    4    4    0    0  0.14090490267E+02  0.19660613672E+01 -0.13309918345E+02  0.19482331480E+02  0.51100000000E-03 0. -1.
        -11    1    4    4    0    0  0.17815423199E+02  0.53458919327E+01  0.51049326966E+01  0.19288032621E+02  0.51100000000E-03 0.  1.
         12    1    4    4    0    0 -0.13223356824E+01 -0.96733933996E+01 -0.12162836214E+02  0.15596720690E+02  0.00000000000E+00 0. -1.
</event>
<event>
 8    1  0.1271559E-006  0.9118800E+02  0.7816164E-02  0.1184000E+00
        -11   -1    0    0    0    0  0.00000000000E+00  0.00000000000E+00  0.45593999997E+02  0.45594000000E+02  0.51100000000E-03 0.  1.
         11   -1    0    0    0    0 -0.00000000000E+00 -0.00000000000E+00 -0.45593999997E+02  0.45594000000E+02  0.51100000000E-03 0. -1.
         23    2    1    2    0    0  0.00000000000E+00 -0.17763568394E-14  0.17763568394E-14  0.91188000000E+02  0.91188000000E+02 0.  0.
    9900012    2    3    3    0    0 -0.31621862334E+02  0.11043053988E+02  0.15293451185E+02  0.54367070246E+02  0.39999968240E+02 0.  0.
         12    1    3    3    0    0  0.31621862334E+02 -0.11043053988E+02 -0.15293451185E+02  0.36820929754E+02  0.00000000000E+00 0. -1.
         11    1    4    4    0    0 -0.10308656213E+02  0.59227768308E+01  0.43122329731E+00  0.11896790832E+02  0.51100000000E-03 0. -1.
        -11    1    4    4    0    0 -0.26738982412E+02  0.13270373296E+02  0.12718126289E+02  0.32447291480E+02  0.51100000000E-03 0.  1.
         12    1    4    4    0    0  0.54257762917E+01 -0.81500961394E+01  0.21441015985E+01  0.10022987933E+02  0.00000000000E+00 0. -1.
</event>
<event>
 8    1  0.1271559E-006  0.9118800E+02  0.7816164E-02  0.1184000E+00
        -11   -1    0    0    0    0  0.00000000000E+00  0.00000000000E+00  0.45593999997E+02  0.45594000000E+02  0.51100000000E-03 0. -1.
         11   -1    0    0    0    0 -0.00000000000E+00 -0.00000000000E+00 -0.45593999997E+02  0.45594000000E+02  0.51100000000E-03 0.  1.
         23    2    1    2    0    0 -0.71054273576E-14  0.00000000000E+00 -0.15543122345E-14  0.91188000000E+02  0.91188000000E+02 0.  0.
    9900012    2    3    3    0    0 -0.32379280376E+02 -0.17492884443E+02  0.11668870825E+01  0.54367076202E+02  0.39999981819E+02 0.  0.
         12    1    3    3    0    0  0.32379280376E+02  0.17492884443E+02 -0.11668870825E+01  0.36820923798E+02  0.00000000000E+00 0. -1.
         11    1    4    4    0    0 -0.14031768032E+02 -0.80711356848E+01  0.15572235473E+02  0.22461706596E+02  0.51100000000E-03 0. -1.
        -11    1    4    4    0    0 -0.44577873059E+01 -0.10261729005E+02 -0.14083352233E+02  0.17986543866E+02  0.51100000000E-03 0.  1.
        -12    1    4    4    0    0 -0.13889725039E+02  0.83998024678E+00 -0.32199615662E+00  0.13918825740E+02  0.00000000000E+00 0.  1.
</event>
<event>
 8    1  0.1271559E-006  0.9118800E+02  0.7816164E-02  0.1184000E+00
        -11   -1    0    0    0    0  0.00000000000E+00  0.00000000000E+00  0.45593999997E+02  0.45594000000E+02  0.51100000000E-03 0.  1.
         11   -1    0    0    0    0 -0.00000000000E+00 -0.00000000000E+00 -0.45593999997E+02  0.45594000000E+02  0.51100000000E-03 0. -1.
         23    2    1    2    0    0  0.00000000000E+00  0.00000000000E+00  0.00000000000E+00  0.91188000000E+02  0.91188000000E+02 0.  0.
    9900012    2    3    3    0    0  0.31729687145E+02  0.18612566220E+02  0.16063973133E+01  0.54367066009E+02  0.39999958581E+02 0.  0.
        -12    1    3    3    0    0 -0.31729687145E+02 -0.18612566220E+02 -0.16063973133E+01  0.36820933991E+02  0.00000000000E+00 0.  1.
         11    1    4    4    0    0  0.33155932687E+02  0.17438192183E+02  0.18739638933E+01  0.37508907741E+02  0.51100000000E-03 0. -1.
        -11    1    4    4    0    0  0.37224441936E+01 -0.58854249958E+01  0.29279766468E+01  0.75543276114E+01  0.51100000000E-03 0.  1.
         12    1    4    4    0    0 -0.51486897357E+01  0.70597990333E+01 -0.31955432267E+01  0.93038306572E+01  0.00000000000E+00 0. -1.
</event>
<event>
 8    1  0.1271559E-006  0.9118800E+02  0.7816164E-02  0.1184000E+00
        -11   -1    0    0    0    0  0.00000000000E+00  0.00000000000E+00  0.45593999997E+02  0.45594000000E+02  0.51100000000E-03 0. -1.
         11   -1    0    0    0    0 -0.00000000000E+00 -0.00000000000E+00 -0.45593999997E+02  0.45594000000E+02  0.51100000000E-03 0.  1.
         23    2    1    2    0    0  0.00000000000E+00  0.00000000000E+00  0.35527136788E-14  0.91188000000E+02  0.91188000000E+02 0.  0.
    9900012    2    3    3    0    0 -0.17756673163E+02  0.17519062321E+02 -0.27084379066E+02  0.54367074213E+02  0.39999977282E+02 0.  0.
         12    1    3    3    0    0  0.17756673163E+02 -0.17519062321E+02  0.27084379066E+02  0.36820925787E+02  0.00000000000E+00 0. -1.
         11    1    4    4    0    0 -0.19094412722E+01  0.47407073436E+01  0.10326686284E+02  0.11522183906E+02  0.51100000000E-03 0. -1.
        -11    1    4    4    0    0 -0.78718288617E+01  0.79413172344E+01 -0.16318228336E+02  0.19781678022E+02  0.51100000000E-03 0.  1.
         12    1    4    4    0    0 -0.79754030293E+01  0.48370377430E+01 -0.21092837014E+02  0.23063212285E+02  0.00000000000E+00 0. -1.
</event>
<event>
 8    1  0.1271559E-006  0.9118800E+02  0.7816164E-02  0.1184000E+00
        -11   -1    0    0    0    0  0.00000000000E+00  0.00000000000E+00  0.45593999997E+02  0.45594000000E+02  0.51100000000E-03 0.  1.
         11   -1    0    0    0    0 -0.00000000000E+00 -0.00000000000E+00 -0.45593999997E+02  0.45594000000E+02  0.51100000000E-03 0. -1.
         23    2    1    2    0    0  0.00000000000E+00  0.00000000000E+00 -0.35527136788E-14  0.91188000000E+02  0.91188000000E+02 0.  0.
    9900012    2    3    3    0    0 -0.19603878359E+02  0.11051875166E+02  0.29143148317E+02  0.54367094454E+02  0.40000023427E+02 0.  0.
         12    1    3    3    0    0  0.19603878359E+02 -0.11051875166E+02 -0.29143148317E+02  0.36820905546E+02  0.00000000000E+00 0. -1.
         11    1    4    4    0    0  0.91558517998E+01 -0.41575650157E+01  0.32857853257E+01  0.10578816309E+02  0.51100000000E-03 0. -1.
        -11    1    4    4    0    0 -0.16542793623E+02  0.16009121240E+02  0.18218006304E+02  0.29357311486E+02  0.51100000000E-03 0.  1.
        -12    1    4    4    0    0 -0.12216936535E+02 -0.79968105834E+00  0.76393566869E+01  0.14430966658E+02  0.00000000000E+00 0.  1.
</event>
<event>
 8    1  0.1271559E-006  0.9118800E+02  0.7816164E-02  0.1184000E+00
        -11   -1    0    0    0    0  0.00000000000E+00  0.00000000000E+00  0.45593999997E+02  0.45594000000E+02  0.51100000000E-03 0. -1.
         11   -1    0    0    0    0 -0.00000000000E+00 -0.00000000000E+00 -0.45593999997E+02  0.45594000000E+02  0.51100000000E-03 0.  1.
         23    2    1    2    0    0  0.00000000000E+00  0.00000000000E+00  0.00000000000E+00  0.91188000000E+02  0.91188000000E+02 0.  0.
    9900012    2    3    3    0    0  0.24692713947E+02  0.82643215413E+01  0.26033658222E+02  0.54367075337E+02  0.39999979846E+02 0.  0.
        -12    1    3    3    0    0 -0.24692713947E+02 -0.82643215413E+01 -0.26033658222E+02  0.36820924663E+02  0.00000000000E+00 0.  1.
         11    1    4    4    0    0  0.17884988626E+02 -0.17078217176E+01  0.16194251729E+02  0.24187667571E+02  0.51100000000E-03 0. -1.
        -11    1    4    4    0    0  0.49687820995E+01  0.17108680310E+02 -0.87649692095E-01  0.17815819382E+02  0.51100000000E-03 0.  1.
         12    1    4    4    0    0  0.18389432209E+01 -0.71365370512E+01  0.99270561850E+01  0.12363588385E+02  0.00000000000E+00 0. -1.
</event>
<event>
 8    1  0.1271559E-006  0.9118800E+02  0.7816164E-02  0.1184000E+00
        -11   -1    0    0    0    0  0.00000000000E+00  0.00000000000E+00  0.45593999997E+02  0.45594000000E+02  0.51100000000E-03 0.  1.
         11   -1    0    0    0    0 -0.00000000000E+00 -0.00000000000E+00 -0.45593999997E+02  0.45594000000E+02  0.51100000000E-03 0. -1.
         23    2    1    2    0    0  0.35527136788E-14  0.35527136788E-14  0.17763568394E-14  0.91188000000E+02  0.91188000000E+02 0.  0.
    9900012    2    3    3    0    0  0.19213194903E+02 -0.31061727161E+02 -0.46694583384E+01  0.54367060390E+02  0.39999945770E+02 0.  0.
        -12    1    3    3    0    0 -0.19213194903E+02  0.31061727161E+02  0.46694583384E+01  0.36820939610E+02  0.00000000000E+00 0.  1.
         11    1    4    4    0    0  0.16815827257E+02 -0.29964871672E+02 -0.15273029224E+02  0.37602273902E+02  0.51100000000E-03 0. -1.
        -11    1    4    4    0    0  0.31369921681E+01  0.16407465789E+01 -0.18486309383E+01  0.39937708755E+01  0.51100000000E-03 0.  1.
         12    1    4    4    0    0 -0.73962452188E+00 -0.27376020684E+01  0.12452201824E+02  0.12771015613E+02  0.00000000000E+00 0. -1.
</event>
<event>
 8    1  0.1271559E-006  0.9118800E+02  0.7816164E-02  0.1184000E+00
        -11   -1    0    0    0    0  0.00000000000E+00  0.00000000000E+00  0.45593999997E+02  0.45594000000E+02  0.51100000000E-03 0.  1.
         11   -1    0    0    0    0 -0.00000000000E+00 -0.00000000000E+00 -0.45593999997E+02  0.45594000000E+02  0.51100000000E-03 0. -1.
         23    2    1    2    0    0 -0.35527136788E-14  0.12212453271E-14  0.35527136788E-14  0.91188000000E+02  0.91188000000E+02 0.  0.
    9900012    2    3    3    0    0  0.26610604627E+02 -0.83254371321E+00 -0.25435444129E+02  0.54367092546E+02  0.40000019077E+02 0.  0.
        -12    1    3    3    0    0 -0.26610604627E+02  0.83254371321E+00  0.25435444129E+02  0.36820907454E+02  0.00000000000E+00 0.  1.
         11    1    4    4    0    0  0.10249094099E+02  0.10557131448E+01 -0.11084043024E+01  0.10362770887E+02  0.51100000000E-03 0. -1.
        -11    1    4    4    0    0  0.15627961704E+01  0.13734439841E+02 -0.39695809134E+01  0.14381750329E+02  0.51100000000E-03 0.  1.
        -12    1    4    4    0    0  0.14798714358E+02 -0.15622696699E+02 -0.20357458914E+02  0.29622571331E+02  0.00000000000E+00 0.  1.
</event>
<event>
 8    1  0.1271559E-006  0.9118800E+02  0.7816164E-02  0.1184000E+00
        -11   -1    0    0    0    0  0.00000000000E+00  0.00000000000E+00  0.45593999997E+02  0.45594000000E+02  0.51100000000E-03 0.  1.
         11   -1    0    0    0    0 -0.00000000000E+00 -0.00000000000E+00 -0.45593999997E+02  0.45594000000E+02  0.51100000000E-03 0. -1.
         23    2    1    2    0    0 -0.88817841970E-15 -0.35527136788E-14  0.00000000000E+00  0.91188000000E+02  0.91188000000E+02 0.  0.
    9900012    2    3    3    0    0  0.65998950100E+01 -0.31124303489E+02  0.18533674945E+02  0.54367109343E+02  0.40000057370E+02 0.  0.
         12    1    3    3    0    0 -0.65998950100E+01  0.31124303489E+02 -0.18533674945E+02  0.36820890657E+02  0.00000000000E+00 0. -1.
         11    1    4    4    0    0 -0.29090163796E+01 -0.17693339182E+02 -0.48023551702E+01  0.18562845772E+02  0.51100000000E-03 0. -1.
        -11    1    4    4    0    0  0.72862705285E+01  0.44823213045E+01  0.43135150393E+01  0.95805717339E+01  0.51100000000E-03 0.  1.
         12    1    4    4    0    0  0.22226408610E+01 -0.17913285611E+02  0.19022515076E+02  0.26223691838E+02  0.00000000000E+00 0. -1.
</event>
<event>
 8    1  0.1271559E-006  0.9118800E+02  0.7816164E-02  0.1184000E+00
        -11   -1    0    0    0    0  0.00000000000E+00  0.00000000000E+00  0.45593999997E+02  0.45594000000E+02  0.51100000000E-03 0.  1.
         11   -1    0    0    0    0 -0.00000000000E+00 -0.00000000000E+00 -0.45593999997E+02  0.45594000000E+02  0.51100000000E-03 0. -1.
         23    2    1    2    0    0  0.17763568394E-14  0.00000000000E+00  0.00000000000E+00  0.91188000000E+02  0.91188000000E+02 0.  0.
    9900012    2    3    3    0    0 -0.10970062058E+02  0.34801936057E+02 -0.49256850251E+01  0.54367090345E+02  0.40000014060E+02 0.  0.
        -12    1    3    3    0    0  0.10970062058E+02 -0.34801936057E+02  0.49256850251E+01  0.36820909655E+02  0.00000000000E+00 0.  1.
         11    1    4    4    0    0 -0.84636521940E+01  0.21705212783E+02 -0.92956071560E+01  0.25083021810E+02  0.51100000000E-03 0.  1.
        -11    1    4    4    0    0 -0.11211793212E+02 -0.12848369867E+01  0.52570820468E+01  0.12449579311E+02  0.51100000000E-03 0. -1.
        -12    1    4    4    0    0  0.87053833481E+01  0.14381560260E+02 -0.88715991588E+00  0.16834489225E+02  0.00000000000E+00 0.  1.
</event>
<event>
 8    1  0.1271559E-006  0.9118800E+02  0.7816164E-02  0.1184000E+00
        -11   -1    0    0    0    0  0.00000000000E+00  0.00000000000E+00  0.45593999997E+02  0.45594000000E+02  0.51100000000E-03 0.  1.
         11   -1    0    0    0    0 -0.00000000000E+00 -0.00000000000E+00 -0.45593999997E+02  0.45594000000E+02  0.51100000000E-03 0. -1.
         23    2    1    2    0    0  0.00000000000E+00  0.00000000000E+00 -0.17763568394E-14  0.91188000000E+02  0.91188000000E+02 0.  0.
    9900012    2    3    3    0    0  0.35207811936E+02  0.97101459676E+01  0.46805068313E+01  0.54367026354E+02  0.39999868179E+02 0.  0.
         12    1    3    3    0    0 -0.35207811936E+02 -0.97101459676E+01 -0.46805068313E+01  0.36820973646E+02  0.00000000000E+00 0. -1.
         11    1    4    4    0    0  0.20392970874E+02  0.75637020846E+01 -0.14080974093E+02  0.25910551557E+02  0.51100000000E-03 0. -1.
        -11    1    4    4    0    0  0.18008833593E+02  0.24350738093E+01  0.15544005090E+02  0.23913673209E+02  0.51100000000E-03 0.  1.
        -12    1    4    4    0    0 -0.31939925311E+01 -0.28862992631E+00  0.32174758344E+01  0.45428015880E+01  0.00000000000E+00 0.  1.
</event>
<event>
 8    1  0.1271559E-006  0.9118800E+02  0.7816164E-02  0.1184000E+00
        -11   -1    0    0    0    0  0.00000000000E+00  0.00000000000E+00  0.45593999997E+02  0.45594000000E+02  0.51100000000E-03 0. -1.
         11   -1    0    0    0    0 -0.00000000000E+00 -0.00000000000E+00 -0.45593999997E+02  0.45594000000E+02  0.51100000000E-03 0.  1.
         23    2    1    2    0    0  0.00000000000E+00  0.00000000000E+00  0.00000000000E+00  0.91188000000E+02  0.91188000000E+02 0.  0.
    9900012    2    3    3    0    0  0.34374020201E+02 -0.12388358311E+02 -0.45534881239E+01  0.54367096419E+02  0.40000027907E+02 0.  0.
         12    1    3    3    0    0 -0.34374020201E+02  0.12388358311E+02  0.45534881239E+01  0.36820903581E+02  0.00000000000E+00 0. -1.
         11    1    4    4    0    0 -0.43349417705E+01  0.10498513867E+01 -0.11722897144E+02  0.12542735977E+02  0.51100000000E-03 0. -1.
        -11    1    4    4    0    0  0.22705619758E+02 -0.60514046938E+01  0.53936103055E+01  0.24109245109E+02  0.51100000000E-03 0.  1.
         12    1    4    4    0    0  0.16003342214E+02 -0.73868050036E+01  0.17757987143E+01  0.17715115333E+02  0.00000000000E+00 0. -1.
</event>
<event>
 8    1  0.1271559E-006  0.9118800E+02  0.7816164E-02  0.1184000E+00
        -11   -1    0    0    0    0  0.00000000000E+00  0.00000000000E+00  0.45593999997E+02  0.45594000000E+02  0.51100000000E-03 0. -1.
         11   -1    0    0    0    0 -0.00000000000E+00 -0.00000000000E+00 -0.45593999997E+02  0.45594000000E+02  0.51100000000E-03 0.  1.
         23    2    1    2    0    0 -0.35527136788E-14  0.35527136788E-14 -0.35527136788E-14  0.91188000000E+02  0.91188000000E+02 0.  0.
    9900012    2    3    3    0    0 -0.30184404170E+02  0.17306069818E+02  0.12049302828E+02  0.54367027630E+02  0.39999871088E+02 0.  0.
        -12    1    3    3    0    0  0.30184404170E+02 -0.17306069818E+02 -0.12049302828E+02  0.36820972370E+02  0.00000000000E+00 0.  1.
         11    1    4    4    0    0 -0.11101799461E+02  0.15592336803E+02 -0.42886991063E+01  0.19615398506E+02  0.51100000000E-03 0. -1.
        -11    1    4    4    0    0 -0.23377120117E+01  0.26985340211E+01 -0.59004050779E+01  0.68965037271E+01  0.51100000000E-03 0.  1.
         12    1    4    4    0    0 -0.16744892697E+02 -0.98480100590E+00  0.22238407012E+02  0.27855125397E+02  0.00000000000E+00 0. -1.
</event>
<event>
 8    1  0.1271559E-006  0.9118800E+02  0.7816164E-02  0.1184000E+00
        -11   -1    0    0    0    0  0.00000000000E+00  0.00000000000E+00  0.45593999997E+02  0.45594000000E+02  0.51100000000E-03 0.  1.
         11   -1    0    0    0    0 -0.00000000000E+00 -0.00000000000E+00 -0.45593999997E+02  0.45594000000E+02  0.51100000000E-03 0. -1.
         23    2    1    2    0    0 -0.44408920985E-15  0.00000000000E+00  0.17763568394E-14  0.91188000000E+02  0.91188000000E+02 0.  0.
    9900012    2    3    3    0    0 -0.39669253394E+01 -0.34707789036E+02  0.11636800855E+02  0.54367051471E+02  0.39999925438E+02 0.  0.
         12    1    3    3    0    0  0.39669253394E+01  0.34707789036E+02 -0.11636800855E+02  0.36820948529E+02  0.00000000000E+00 0. -1.
         11    1    4    4    0    0  0.29788443810E+01  0.27321164601E+01 -0.57598543418E+01  0.70366111516E+01  0.51100000000E-03 0. -1.
        -11    1    4    4    0    0 -0.69973487855E+01 -0.18343887680E+02  0.20037219349E+02  0.28052651653E+02  0.51100000000E-03 0.  1.
        -12    1    4    4    0    0  0.51579065120E-01 -0.19096017816E+02 -0.26405641521E+01  0.19277788666E+02  0.00000000000E+00 0.  1.
</event>
<event>
 8    1  0.1271559E-006  0.9118800E+02  0.7816164E-02  0.1184000E+00
        -11   -1    0    0    0    0  0.00000000000E+00  0.00000000000E+00  0.45593999997E+02  0.45594000000E+02  0.51100000000E-03 0.  1.
         11   -1    0    0    0    0 -0.00000000000E+00 -0.00000000000E+00 -0.45593999997E+02  0.45594000000E+02  0.51100000000E-03 0. -1.
         23    2    1    2    0    0 -0.71054273576E-14  0.71054273576E-14  0.00000000000E+00  0.91188000000E+02  0.91188000000E+02 0.  0.
    9900012    2    3    3    0    0  0.19032832974E+02 -0.29342639252E+02  0.11512538021E+02  0.54367112708E+02  0.40000065040E+02 0.  0.
         12    1    3    3    0    0 -0.19032832974E+02  0.29342639252E+02 -0.11512538021E+02  0.36820887292E+02  0.00000000000E+00 0. -1.
         11    1    4    4    0    0 -0.10146145317E+01 -0.97428858524E+01  0.39378932474E+01  0.10557474645E+02  0.51100000000E-03 0. -1.
        -11    1    4    4    0    0  0.88056784991E+01 -0.19073284077E+02  0.18597189328E+02  0.28056827876E+02  0.51100000000E-03 0.  1.
         12    1    4    4    0    0  0.11241769007E+02 -0.52646932236E+00 -0.11022544554E+02  0.15752810187E+02  0.00000000000E+00 0. -1.
</event>
<event>
 8    1  0.1271559E-006  0.9118800E+02  0.7816164E-02  0.1184000E+00
        -11   -1    0    0    0    0  0.00000000000E+00  0.00000000000E+00  0.45593999997E+02  0.45594000000E+02  0.51100000000E-03 0. -1.
         11   -1    0    0    0    0 -0.00000000000E+00 -0.00000000000E+00 -0.45593999997E+02  0.45594000000E+02  0.51100000000E-03 0.  1.
         23    2    1    2    0    0 -0.71054273576E-14  0.35527136788E-14 -0.35527136788E-14  0.91188000000E+02  0.91188000000E+02 0.  0.
    9900012    2    3    3    0    0 -0.17499463361E+02  0.23118965077E+02 -0.22694966436E+02  0.54367092003E+02  0.40000017839E+02 0.  0.
         12    1    3    3    0    0  0.17499463361E+02 -0.23118965077E+02  0.22694966436E+02  0.36820907997E+02  0.00000000000E+00 0. -1.
         11    1    4    4    0    0  0.21162720876E+01  0.19739481395E+02  0.17488643095E+01  0.19929482179E+02  0.51100000000E-03 0. -1.
        -11    1    4    4    0    0 -0.10163203696E+02 -0.50283619495E+01 -0.90193047976E+01  0.14488719493E+02  0.51100000000E-03 0.  1.
         12    1    4    4    0    0 -0.94525317530E+01  0.84078456321E+01 -0.15424525948E+02  0.19948890331E+02  0.00000000000E+00 0. -1.
</event>
<event>
 8    1  0.1271559E-006  0.9118800E+02  0.7816164E-02  0.1184000E+00
        -11   -1    0    0    0    0  0.00000000000E+00  0.00000000000E+00  0.45593999997E+02  0.45594000000E+02  0.51100000000E-03 0. -1.
         11   -1    0    0    0    0 -0.00000000000E+00 -0.00000000000E+00 -0.45593999997E+02  0.45594000000E+02  0.51100000000E-03 0.  1.
         23    2    1    2    0    0  0.71054273576E-14  0.00000000000E+00  0.00000000000E+00  0.91188000000E+02  0.91188000000E+02 0.  0.
    9900012    2    3    3    0    0 -0.32081465507E+02 -0.16862257800E+02  0.64977916224E+01  0.54367116481E+02  0.40000073642E+02 0.  0.
        -12    1    3    3    0    0  0.32081465507E+02  0.16862257800E+02 -0.64977916224E+01  0.36820883519E+02  0.00000000000E+00 0.  1.
         11    1    4    4    0    0 -0.85878221011E+01  0.73322002383E+01  0.26342302718E+01  0.11595301555E+02  0.51100000000E-03 0. -1.
        -11    1    4    4    0    0 -0.21950277815E+02 -0.13410766644E+02  0.12753786213E+02  0.28711015676E+02  0.51100000000E-03 0.  1.
        -12    1    4    4    0    0 -0.15433655906E+01 -0.10783691394E+02 -0.88902248624E+01  0.14060799249E+02  0.00000000000E+00 0.  1.
</event>
<event>
 8    1  0.1271559E-006  0.9118800E+02  0.7816164E-02  0.1184000E+00
        -11   -1    0    0    0    0  0.00000000000E+00  0.00000000000E+00  0.45593999997E+02  0.45594000000E+02  0.51100000000E-03 0.  1.
         11   -1    0    0    0    0 -0.00000000000E+00 -0.00000000000E+00 -0.45593999997E+02  0.45594000000E+02  0.51100000000E-03 0. -1.
         23    2    1    2    0    0 -0.17763568394E-14  0.35527136788E-14 -0.35527136788E-14  0.91188000000E+02  0.91188000000E+02 0.  0.
    9900012    2    3    3    0    0  0.62241334693E+01 -0.31551770837E+02  0.17931152575E+02  0.54367077781E+02  0.39999985417E+02 0.  0.
         12    1    3    3    0    0 -0.62241334693E+01  0.31551770837E+02 -0.17931152575E+02  0.36820922219E+02  0.00000000000E+00 0. -1.
         11    1    4    4    0    0 -0.42510051285E+00  0.27490179718E+01  0.21024788912E+01  0.34868650683E+01  0.51100000000E-03 0. -1.
        -11    1    4    4    0    0 -0.10475227304E+02 -0.24452992940E+02  0.16155030645E+02  0.31123371703E+02  0.51100000000E-03 0.  1.
        -12    1    4    4    0    0  0.17124461286E+02 -0.98477958689E+01 -0.32635696137E+00  0.19756841009E+02  0.00000000000E+00 0.  1.
</event>
<event>
 8    1  0.1271559E-006  0.9118800E+02  0.7816164E-02  0.1184000E+00
        -11   -1    0    0    0    0  0.00000000000E+00  0.00000000000E+00  0.45593999997E+02  0.45594000000E+02  0.51100000000E-03 0.  1.
         11   -1    0    0    0    0 -0.00000000000E+00 -0.00000000000E+00 -0.45593999997E+02  0.45594000000E+02  0.51100000000E-03 0. -1.
         23    2    1    2    0    0 -0.35527136788E-14  0.00000000000E+00  0.88817841970E-15  0.91188000000E+02  0.91188000000E+02 0.  0.
    9900012    2    3    3    0    0 -0.31606976905E+02 -0.18207142637E+02  0.50277754640E+01  0.54367088031E+02  0.40000008785E+02 0.  0.
         12    1    3    3    0    0  0.31606976905E+02  0.18207142637E+02 -0.50277754640E+01  0.36820911969E+02  0.00000000000E+00 0. -1.
         11    1    4    4    0    0 -0.20195371546E+02 -0.90174965537E+01  0.15737947726E+02  0.27145004603E+02  0.51100000000E-03 0. -1.
        -11    1    4    4    0    0 -0.15009934074E+02 -0.12335277670E+02 -0.11187075530E+02  0.22418917353E+02  0.51100000000E-03 0.  1.
         12    1    4    4    0    0  0.35983287155E+01  0.31456315867E+01  0.47690326855E+00  0.48031660758E+01  0.00000000000E+00 0. -1.
</event>
<event>
 8    1  0.1271559E-006  0.9118800E+02  0.7816164E-02  0.1184000E+00
        -11   -1    0    0    0    0  0.00000000000E+00  0.00000000000E+00  0.45593999997E+02  0.45594000000E+02  0.51100000000E-03 0. -1.
         11   -1    0    0    0    0 -0.00000000000E+00 -0.00000000000E+00 -0.45593999997E+02  0.45594000000E+02  0.51100000000E-03 0.  1.
         23    2    1    2    0    0  0.17763568394E-14 -0.71054273576E-14  0.00000000000E+00  0.91188000000E+02  0.91188000000E+02 0.  0.
    9900012    2    3    3    0    0 -0.51960069320E+01  0.35129068522E+02 -0.97329416809E+01  0.54367080715E+02  0.39999992106E+02 0.  0.
        -12    1    3    3    0    0  0.51960069320E+01 -0.35129068522E+02  0.97329416809E+01  0.36820919285E+02  0.00000000000E+00 0.  1.
         11    1    4    4    0    0  0.13078807502E+02  0.14302654285E+02 -0.59759373538E+01  0.20281344945E+02  0.51100000000E-03 0. -1.
        -11    1    4    4    0    0  0.34585768742E+01  0.73044715689E+00 -0.27319196225E+01  0.44675152075E+01  0.51100000000E-03 0.  1.
         12    1    4    4    0    0 -0.21733391308E+02  0.20095967079E+02 -0.10250847046E+01  0.29618220562E+02  0.00000000000E+00 0. -1.
</event>
<event>
 8    1  0.1271559E-006  0.9118800E+02  0.7816164E-02  0.1184000E+00
        -11   -1    0    0    0    0  0.00000000000E+00  0.00000000000E+00  0.45593999997E+02  0.45594000000E+02  0.51100000000E-03 0.  1.
         11   -1    0    0    0    0 -0.00000000000E+00 -0.00000000000E+00 -0.45593999997E+02  0.45594000000E+02  0.51100000000E-03 0. -1.
         23    2    1    2    0    0  0.17763568394E-14 -0.44408920985E-15 -0.71054273576E-14  0.91188000000E+02  0.91188000000E+02 0.  0.
    9900012    2    3    3    0    0  0.11085216050E+02 -0.28689751861E+00 -0.35111473998E+02  0.54367082964E+02  0.39999997234E+02 0.  0.
        -12    1    3    3    0    0 -0.11085216050E+02  0.28689751861E+00  0.35111473998E+02  0.36820917036E+02  0.00000000000E+00 0.  1.
         11    1    4    4    0    0 -0.69226848251E+01 -0.85815225750E+00 -0.10372600458E+02  0.12500033240E+02  0.51100000000E-03 0. -1.
        -11    1    4    4    0    0 -0.21294638978E+01 -0.95956401397E+01 -0.13402521419E+02  0.16620424388E+02  0.51100000000E-03 0.  1.
        -12    1    4    4    0    0  0.20137364773E+02  0.10166894879E+02 -0.11336352121E+02  0.25246625336E+02  0.00000000000E+00 0.  1.
</event>
<event>
 8    1  0.1271559E-006  0.9118800E+02  0.7816164E-02  0.1184000E+00
        -11   -1    0    0    0    0  0.00000000000E+00  0.00000000000E+00  0.45593999997E+02  0.45594000000E+02  0.51100000000E-03 0.  1.
         11   -1    0    0    0    0 -0.00000000000E+00 -0.00000000000E+00 -0.45593999997E+02  0.45594000000E+02  0.51100000000E-03 0. -1.
         23    2    1    2    0    0  0.00000000000E+00  0.35527136788E-14 -0.35527136788E-14  0.91188000000E+02  0.91188000000E+02 0.  0.
    9900012    2    3    3    0    0 -0.16936118370E+02  0.11447380421E+02 -0.30625183991E+02  0.54367129309E+02  0.40000102885E+02 0.  0.
        -12    1    3    3    0    0  0.16936118370E+02 -0.11447380421E+02  0.30625183991E+02  0.36820870691E+02  0.00000000000E+00 0.  1.
         11    1    4    4    0    0 -0.43183518664E+01  0.12040989824E+02 -0.69979384840E+01  0.14580971918E+02  0.51100000000E-03 0. -1.
        -11    1    4    4    0    0  0.14035797321E+01  0.30111380377E+01  0.59732465381E+01  0.68349588742E+01  0.51100000000E-03 0.  1.
        -12    1    4    4    0    0 -0.14021346236E+02 -0.36047474403E+01 -0.29600492045E+02  0.32951198517E+02  0.00000000000E+00 0.  1.
</event>
<event>
 8    1  0.1271559E-006  0.9118800E+02  0.7816164E-02  0.1184000E+00
        -11   -1    0    0    0    0  0.00000000000E+00  0.00000000000E+00  0.45593999997E+02  0.45594000000E+02  0.51100000000E-03 0.  1.
         11   -1    0    0    0    0 -0.00000000000E+00 -0.00000000000E+00 -0.45593999997E+02  0.45594000000E+02  0.51100000000E-03 0. -1.
         23    2    1    2    0    0  0.00000000000E+00  0.00000000000E+00  0.00000000000E+00  0.91188000000E+02  0.91188000000E+02 0.  0.
    9900012    2    3    3    0    0  0.73508664679E+01  0.29634533842E+02 -0.20580063491E+02  0.54367084108E+02  0.39999999841E+02 0.  0.
        -12    1    3    3    0    0 -0.73508664679E+01 -0.29634533842E+02  0.20580063491E+02  0.36820915892E+02  0.00000000000E+00 0.  1.
         11    1    4    4    0    0  0.55389080199E+01  0.23154353688E+02 -0.26078629539E+02  0.35311450207E+02  0.51100000000E-03 0. -1.
        -11    1    4    4    0    0  0.78540718215E+01  0.86234387346E+01  0.47763027415E+01  0.12604094887E+02  0.51100000000E-03 0.  1.
        -12    1    4    4    0    0 -0.60421133735E+01 -0.21432585814E+01  0.72226330713E+00  0.64515390141E+01  0.00000000000E+00 0.  1.
</event>
<event>
 8    1  0.1271559E-006  0.9118800E+02  0.7816164E-02  0.1184000E+00
        -11   -1    0    0    0    0  0.00000000000E+00  0.00000000000E+00  0.45593999997E+02  0.45594000000E+02  0.51100000000E-03 0. -1.
         11   -1    0    0    0    0 -0.00000000000E+00 -0.00000000000E+00 -0.45593999997E+02  0.45594000000E+02  0.51100000000E-03 0.  1.
         23    2    1    2    0    0 -0.35527136788E-14 -0.88817841970E-15  0.00000000000E+00  0.91188000000E+02  0.91188000000E+02 0.  0.
    9900012    2    3    3    0    0  0.28937376873E+02  0.31860004741E+01  0.22544552264E+02  0.54367092677E+02  0.40000019376E+02 0.  0.
        -12    1    3    3    0    0 -0.28937376873E+02 -0.31860004741E+01 -0.22544552264E+02  0.36820907323E+02  0.00000000000E+00 0.  1.
         11    1    4    4    0    0  0.21847042229E+02 -0.19812961536E+01  0.11728813091E+02  0.24875366236E+02  0.51100000000E-03 0. -1.
        -11    1    4    4    0    0  0.14704522976E+02  0.78640218323E+01  0.12977178684E+02  0.21129907766E+02  0.51100000000E-03 0.  1.
        -12    1    4    4    0    0 -0.76141883317E+01 -0.26967252046E+01 -0.21614395122E+01  0.83618186745E+01  0.00000000000E+00 0.  1.
</event>
<event>
 8    1  0.1271559E-006  0.9118800E+02  0.7816164E-02  0.1184000E+00
        -11   -1    0    0    0    0  0.00000000000E+00  0.00000000000E+00  0.45593999997E+02  0.45594000000E+02  0.51100000000E-03 0. -1.
         11   -1    0    0    0    0 -0.00000000000E+00 -0.00000000000E+00 -0.45593999997E+02  0.45594000000E+02  0.51100000000E-03 0.  1.
         23    2    1    2    0    0 -0.17763568394E-14  0.00000000000E+00  0.88817841970E-15  0.91188000000E+02  0.91188000000E+02 0.  0.
    9900012    2    3    3    0    0  0.15721612250E+02  0.32646637930E+02 -0.65434437920E+01  0.54366963669E+02  0.39999725275E+02 0.  0.
         12    1    3    3    0    0 -0.15721612250E+02 -0.32646637930E+02  0.65434437920E+01  0.36821036331E+02  0.00000000000E+00 0. -1.
         11    1    4    4    0    0  0.23514905281E+02  0.64924538805E+01 -0.79397677162E+01  0.25654290858E+02  0.51100000000E-03 0. -1.
        -11    1    4    4    0    0 -0.38957715983E+01  0.19895522023E+02 -0.24082838978E+01  0.20415892449E+02  0.51100000000E-03 0.  1.
        -12    1    4    4    0    0 -0.38975214335E+01  0.62586620267E+01  0.38046078220E+01  0.82967803616E+01  0.00000000000E+00 0.  1.
</event>
<event>
 8    1  0.1271559E-006  0.9118800E+02  0.7816164E-02  0.1184000E+00
        -11   -1    0    0    0    0  0.00000000000E+00  0.00000000000E+00  0.45593999997E+02  0.45594000000E+02  0.51100000000E-03 0.  1.
         11   -1    0    0    0    0 -0.00000000000E+00 -0.00000000000E+00 -0.45593999997E+02  0.45594000000E+02  0.51100000000E-03 0. -1.
         23    2    1    2    0    0 -0.71054273576E-14  0.35527136788E-14  0.00000000000E+00  0.91188000000E+02  0.91188000000E+02 0.  0.
    9900012    2    3    3    0    0 -0.28582280769E+02  0.21338883146E+02 -0.91368827890E+01  0.54367118221E+02  0.40000077609E+02 0.  0.
        -12    1    3    3    0    0  0.28582280769E+02 -0.21338883146E+02  0.91368827890E+01  0.36820881779E+02  0.00000000000E+00 0.  1.
         11    1    4    4    0    0 -0.22672276876E+02  0.15070840911E+02 -0.77907692786E+01  0.28317105620E+02  0.51100000000E-03 0. -1.
        -11    1    4    4    0    0 -0.13139769977E+02  0.99570280385E+01 -0.48861516710E+01  0.17195070248E+02  0.51100000000E-03 0.  1.
        -12    1    4    4    0    0  0.72297660844E+01 -0.36889858035E+01  0.35400381606E+01  0.88549423528E+01  0.00000000000E+00 0.  1.
</event>
<event>
 8    1  0.1271559E-006  0.9118800E+02  0.7816164E-02  0.1184000E+00
        -11   -1    0    0    0    0  0.00000000000E+00  0.00000000000E+00  0.45593999997E+02  0.45594000000E+02  0.51100000000E-03 0.  1.
         11   -1    0    0    0    0 -0.00000000000E+00 -0.00000000000E+00 -0.45593999997E+02  0.45594000000E+02  0.51100000000E-03 0. -1.
         23    2    1    2    0    0  0.00000000000E+00  0.00000000000E+00  0.35527136788E-14  0.91188000000E+02  0.91188000000E+02 0.  0.
    9900012    2    3    3    0    0 -0.14157832420E+02  0.22603870748E+02 -0.25385031903E+02  0.54367095118E+02  0.40000024940E+02 0.  0.
        -12    1    3    3    0    0  0.14157832420E+02 -0.22603870748E+02  0.25385031903E+02  0.36820904882E+02  0.00000000000E+00 0.  1.
         11    1    4    4    0    0 -0.14830530900E+02  0.26233219352E+02 -0.99229406856E+01  0.31726821405E+02  0.51100000000E-03 0.  1.
        -11    1    4    4    0    0  0.11193382670E+01  0.63992388152E+01 -0.62890097304E+01  0.90418371596E+01  0.51100000000E-03 0. -1.
        -12    1    4    4    0    0 -0.44663978644E+00 -0.10028587419E+02 -0.91730814874E+01  0.13598436554E+02  0.00000000000E+00 0.  1.
</event>
<event>
 8    1  0.1271559E-006  0.9118800E+02  0.7816164E-02  0.1184000E+00
        -11   -1    0    0    0    0  0.00000000000E+00  0.00000000000E+00  0.45593999997E+02  0.45594000000E+02  0.51100000000E-03 0.  1.
         11   -1    0    0    0    0 -0.00000000000E+00 -0.00000000000E+00 -0.45593999997E+02  0.45594000000E+02  0.51100000000E-03 0. -1.
         23    2    1    2    0    0  0.00000000000E+00  0.00000000000E+00  0.35527136788E-14  0.91188000000E+02  0.91188000000E+02 0.  0.
    9900012    2    3    3    0    0 -0.29898958639E+02 -0.32198997800E+01  0.21247690682E+02  0.54367084183E+02  0.40000000013E+02 0.  0.
         12    1    3    3    0    0  0.29898958639E+02  0.32198997800E+01 -0.21247690682E+02  0.36820915817E+02  0.00000000000E+00 0. -1.
         11    1    4    4    0    0  0.16015308832E+01 -0.89513505788E+00 -0.35062799745E+01  0.39572929462E+01  0.51100000000E-03 0. -1.
        -11    1    4    4    0    0  0.50660857830E+01 -0.62069747909E+00  0.94357759580E+01  0.10727737819E+02  0.51100000000E-03 0.  1.
        -12    1    4    4    0    0 -0.36566575305E+02 -0.17040672431E+01  0.15318194698E+02  0.39682053418E+02  0.00000000000E+00 0.  1.
</event>
<event>
 8    1  0.1271559E-006  0.9118800E+02  0.7816164E-02  0.1184000E+00
        -11   -1    0    0    0    0  0.00000000000E+00  0.00000000000E+00  0.45593999997E+02  0.45594000000E+02  0.51100000000E-03 0.  1.
         11   -1    0    0    0    0 -0.00000000000E+00 -0.00000000000E+00 -0.45593999997E+02  0.45594000000E+02  0.51100000000E-03 0. -1.
         23    2    1    2    0    0  0.35527136788E-14  0.13322676296E-14  0.00000000000E+00  0.91188000000E+02  0.91188000000E+02 0.  0.
    9900012    2    3    3    0    0  0.27237893119E+02  0.30150161904E+01 -0.24592397474E+02  0.54367093470E+02  0.40000021183E+02 0.  0.
        -12    1    3    3    0    0 -0.27237893119E+02 -0.30150161904E+01  0.24592397474E+02  0.36820906530E+02  0.00000000000E+00 0.  1.
         11    1    4    4    0    0  0.59690210144E+01  0.58606539660E+01 -0.18518606535E+02  0.20320316559E+02  0.51100000000E-03 0. -1.
        -11    1    4    4    0    0  0.17392743219E+01 -0.10127372174E+02 -0.81296575567E+01  0.13102674329E+02  0.51100000000E-03 0.  1.
        -12    1    4    4    0    0  0.19529597783E+02  0.72817343987E+01  0.20558666175E+01  0.20944102582E+02  0.00000000000E+00 0.  1.
</event>
<event>
 8    1  0.1271559E-006  0.9118800E+02  0.7816164E-02  0.1184000E+00
        -11   -1    0    0    0    0  0.00000000000E+00  0.00000000000E+00  0.45593999997E+02  0.45594000000E+02  0.51100000000E-03 0.  1.
         11   -1    0    0    0    0 -0.00000000000E+00 -0.00000000000E+00 -0.45593999997E+02  0.45594000000E+02  0.51100000000E-03 0. -1.
         23    2    1    2    0    0 -0.35527136788E-14 -0.71054273576E-14  0.71054273576E-14  0.91188000000E+02  0.91188000000E+02 0.  0.
    9900012    2    3    3    0    0  0.20532990295E+02  0.23260047273E+02 -0.19827925327E+02  0.54367080506E+02  0.39999991630E+02 0.  0.
        -12    1    3    3    0    0 -0.20532990295E+02 -0.23260047273E+02  0.19827925327E+02  0.36820919494E+02  0.00000000000E+00 0.  1.
         11    1    4    4    0    0 -0.24686785977E+01 -0.35372751776E+01 -0.98699090164E+00  0.44250244069E+01  0.51100000000E-03 0. -1.
        -11    1    4    4    0    0  0.51055280278E+01 -0.48422980707E+01  0.28726095400E+01  0.76004047838E+01  0.51100000000E-03 0.  1.
         12    1    4    4    0    0  0.17896140865E+02  0.31639620521E+02 -0.21713543966E+02  0.42341651315E+02  0.00000000000E+00 0. -1.
</event>
<event>
 8    1  0.1271559E-006  0.9118800E+02  0.7816164E-02  0.1184000E+00
        -11   -1    0    0    0    0  0.00000000000E+00  0.00000000000E+00  0.45593999997E+02  0.45594000000E+02  0.51100000000E-03 0.  1.
         11   -1    0    0    0    0 -0.00000000000E+00 -0.00000000000E+00 -0.45593999997E+02  0.45594000000E+02  0.51100000000E-03 0. -1.
         23    2    1    2    0    0  0.17763568394E-14 -0.13322676296E-14  0.00000000000E+00  0.91188000000E+02  0.91188000000E+02 0.  0.
    9900012    2    3    3    0    0 -0.14789555442E+02 -0.30866020464E+00  0.33718747103E+02  0.54367080301E+02  0.39999991161E+02 0.  0.
         12    1    3    3    0    0  0.14789555442E+02  0.30866020464E+00 -0.33718747103E+02  0.36820919699E+02  0.00000000000E+00 0. -1.
         11    1    4    4    0    0  0.88357519724E+01 -0.15144671041E+01  0.19855638030E+02  0.21785556806E+02  0.51100000000E-03 0.  1.
        -11    1    4    4    0    0 -0.39463885854E+01  0.75590562517E+01  0.20654684770E+01  0.87737947648E+01  0.51100000000E-03 0. -1.
        -12    1    4    4    0    0 -0.19678918829E+02 -0.63532493523E+01  0.11797640596E+02  0.23807728730E+02  0.00000000000E+00 0.  1.
</event>
<event>
 8    1  0.1271559E-006  0.9118800E+02  0.7816164E-02  0.1184000E+00
        -11   -1    0    0    0    0  0.00000000000E+00  0.00000000000E+00  0.45593999997E+02  0.45594000000E+02  0.51100000000E-03 0.  1.
         11   -1    0    0    0    0 -0.00000000000E+00 -0.00000000000E+00 -0.45593999997E+02  0.45594000000E+02  0.51100000000E-03 0. -1.
         23    2    1    2    0    0  0.88817841970E-15  0.00000000000E+00  0.00000000000E+00  0.91188000000E+02  0.91188000000E+02 0.  0.
    9900012    2    3    3    0    0 -0.71569151483E+01  0.27641507571E+02  0.23248800432E+02  0.54367067139E+02  0.39999961158E+02 0.  0.
         12    1    3    3    0    0  0.71569151483E+01 -0.27641507571E+02 -0.23248800432E+02  0.36820932861E+02  0.00000000000E+00 0. -1.
         11    1    4    4    0    0  0.34195122325E+01  0.97484191170E+01 -0.41971252255E+01  0.11150811612E+02  0.51100000000E-03 0. -1.
        -11    1    4    4    0    0 -0.20191355764E+01 -0.64349942128E+01  0.21169254018E+01  0.70687645606E+01  0.51100000000E-03 0.  1.
        -12    1    4    4    0    0 -0.85572918045E+01  0.24328082667E+02  0.25329000255E+02  0.36147490967E+02  0.00000000000E+00 0.  1.
</event>
<event>
 8    1  0.1271559E-006  0.9118800E+02  0.7816164E-02  0.1184000E+00
        -11   -1    0    0    0    0  0.00000000000E+00  0.00000000000E+00  0.45593999997E+02  0.45594000000E+02  0.51100000000E-03 0.  1.
         11   -1    0    0    0    0 -0.00000000000E+00 -0.00000000000E+00 -0.45593999997E+02  0.45594000000E+02  0.51100000000E-03 0. -1.
         23    2    1    2    0    0  0.00000000000E+00  0.35527136788E-14  0.00000000000E+00  0.91188000000E+02  0.91188000000E+02 0.  0.
    9900012    2    3    3    0    0 -0.87520363703E+01  0.29056091647E+02  0.20854858720E+02  0.54367085635E+02  0.40000003322E+02 0.  0.
         12    1    3    3    0    0  0.87520363703E+01 -0.29056091647E+02 -0.20854858720E+02  0.36820914365E+02  0.00000000000E+00 0. -1.
         11    1    4    4    0    0 -0.66717814427E+01  0.10928976046E+01  0.12552944501E+01  0.68762531375E+01  0.51100000000E-03 0. -1.
        -11    1    4    4    0    0  0.21622327284E+00  0.31806135244E+02  0.25014562455E+02  0.40464865337E+02  0.51100000000E-03 0.  1.
        -12    1    4    4    0    0 -0.22964782005E+01 -0.38429412015E+01 -0.54149981848E+01  0.70259671608E+01  0.00000000000E+00 0.  1.
</event>
<event>
 8    1  0.1271559E-006  0.9118800E+02  0.7816164E-02  0.1184000E+00
        -11   -1    0    0    0    0  0.00000000000E+00  0.00000000000E+00  0.45593999997E+02  0.45594000000E+02  0.51100000000E-03 0. -1.
         11   -1    0    0    0    0 -0.00000000000E+00 -0.00000000000E+00 -0.45593999997E+02  0.45594000000E+02  0.51100000000E-03 0.  1.
         23    2    1    2    0    0 -0.35527136788E-14  0.00000000000E+00  0.35527136788E-14  0.91188000000E+02  0.91188000000E+02 0.  0.
    9900012    2    3    3    0    0  0.27546129794E+02  0.12342363549E+02 -0.21086866733E+02  0.54367093531E+02  0.40000021323E+02 0.  0.
         12    1    3    3    0    0 -0.27546129794E+02 -0.12342363549E+02  0.21086866733E+02  0.36820906469E+02  0.00000000000E+00 0. -1.
         11    1    4    4    0    0 -0.68129853142E+01  0.78151415803E+01 -0.84359744489E+01  0.13366333528E+02  0.51100000000E-03 0. -1.
        -11    1    4    4    0    0  0.80238423394E+01 -0.64414872035E+01 -0.51318967500E+01  0.11498311519E+02  0.51100000000E-03 0.  1.
         12    1    4    4    0    0  0.26335272769E+02  0.10968709172E+02 -0.75189955336E+01  0.29502448484E+02  0.00000000000E+00 0. -1.
</event>
<event>
 8    1  0.1271559E-006  0.9118800E+02  0.7816164E-02  0.1184000E+00
        -11   -1    0    0    0    0  0.00000000000E+00  0.00000000000E+00  0.45593999997E+02  0.45594000000E+02  0.51100000000E-03 0.  1.
         11   -1    0    0    0    0 -0.00000000000E+00 -0.00000000000E+00 -0.45593999997E+02  0.45594000000E+02  0.51100000000E-03 0. -1.
         23    2    1    2    0    0  0.00000000000E+00  0.00000000000E+00  0.00000000000E+00  0.91188000000E+02  0.91188000000E+02 0.  0.
    9900012    2    3    3    0    0 -0.24581161605E+02  0.47975346680E+01  0.26991432504E+02  0.54366983265E+02  0.39999769949E+02 0.  0.
         12    1    3    3    0    0  0.24581161605E+02 -0.47975346680E+01 -0.26991432504E+02  0.36821016735E+02  0.00000000000E+00 0. -1.
         11    1    4    4    0    0 -0.68647849712E+01  0.73078589201E-01  0.11782494435E+02  0.13636634062E+02  0.51100000000E-03 0. -1.
        -11    1    4    4    0    0 -0.44911311326E+01 -0.21581778202E+01  0.23259092954E+02  0.23786832401E+02  0.51100000000E-03 0.  1.
         12    1    4    4    0    0 -0.13225245501E+02  0.68826338990E+01 -0.80501548848E+01  0.16943516802E+02  0.00000000000E+00 0. -1.
</event>
<event>
 8    1  0.1271559E-006  0.9118800E+02  0.7816164E-02  0.1184000E+00
        -11   -1    0    0    0    0  0.00000000000E+00  0.00000000000E+00  0.45593999997E+02  0.45594000000E+02  0.51100000000E-03 0. -1.
         11   -1    0    0    0    0 -0.00000000000E+00 -0.00000000000E+00 -0.45593999997E+02  0.45594000000E+02  0.51100000000E-03 0.  1.
         23    2    1    2    0    0  0.35527136788E-14  0.00000000000E+00 -0.35527136788E-14  0.91188000000E+02  0.91188000000E+02 0.  0.
    9900012    2    3    3    0    0 -0.21699226281E+02  0.22671041957E+02 -0.19259966381E+02  0.54367097382E+02  0.40000030101E+02 0.  0.
         12    1    3    3    0    0  0.21699226281E+02 -0.22671041957E+02  0.19259966381E+02  0.36820902618E+02  0.00000000000E+00 0. -1.
         11    1    4    4    0    0 -0.24180681935E+02  0.15880726767E+02 -0.19003285107E+02  0.34612536842E+02  0.51100000000E-03 0.  1.
        -11    1    4    4    0    0  0.12574953724E+01  0.65416897757E+01  0.85618333320E+01  0.10848040837E+02  0.51100000000E-03 0. -1.
         12    1    4    4    0    0  0.12239602816E+01  0.24862541443E+00 -0.88185146056E+01  0.89065197028E+01  0.00000000000E+00 0. -1.
</event>
<event>
 8    1  0.1271559E-006  0.9118800E+02  0.7816164E-02  0.1184000E+00
        -11   -1    0    0    0    0  0.00000000000E+00  0.00000000000E+00  0.45593999997E+02  0.45594000000E+02  0.51100000000E-03 0. -1.
         11   -1    0    0    0    0 -0.00000000000E+00 -0.00000000000E+00 -0.45593999997E+02  0.45594000000E+02  0.51100000000E-03 0.  1.
         23    2    1    2    0    0  0.00000000000E+00 -0.88817841970E-15 -0.35527136788E-14  0.91188000000E+02  0.91188000000E+02 0.  0.
    9900012    2    3    3    0    0  0.19628569480E+02  0.58900241788E+01  0.30590938229E+02  0.54367100685E+02  0.40000037631E+02 0.  0.
        -12    1    3    3    0    0 -0.19628569480E+02 -0.58900241788E+01 -0.30590938229E+02  0.36820899315E+02  0.00000000000E+00 0.  1.
         11    1    4    4    0    0 -0.55213641796E+01  0.13964419923E+01  0.12830196114E+02  0.14037430151E+02  0.51100000000E-03 0. -1.
        -11    1    4    4    0    0  0.25693040545E+00 -0.77965380677E+01  0.72355742917E+01  0.10639809898E+02  0.51100000000E-03 0.  1.
         12    1    4    4    0    0  0.24893003254E+02  0.12290120254E+02  0.10525167823E+02  0.29689860636E+02  0.00000000000E+00 0. -1.
</event>
<event>
 8    1  0.1271559E-006  0.9118800E+02  0.7816164E-02  0.1184000E+00
        -11   -1    0    0    0    0  0.00000000000E+00  0.00000000000E+00  0.45593999997E+02  0.45594000000E+02  0.51100000000E-03 0.  1.
         11   -1    0    0    0    0 -0.00000000000E+00 -0.00000000000E+00 -0.45593999997E+02  0.45594000000E+02  0.51100000000E-03 0. -1.
         23    2    1    2    0    0  0.00000000000E+00  0.71054273576E-14  0.00000000000E+00  0.91188000000E+02  0.91188000000E+02 0.  0.
    9900012    2    3    3    0    0  0.73796531542E+01  0.35192416491E+02 -0.79255753443E+01  0.54367079266E+02  0.39999988803E+02 0.  0.
        -12    1    3    3    0    0 -0.73796531542E+01 -0.35192416491E+02  0.79255753443E+01  0.36820920734E+02  0.00000000000E+00 0.  1.
         11    1    4    4    0    0  0.16481081721E+02  0.17441545601E+02  0.14368939735E+01  0.24039513976E+02  0.51100000000E-03 0. -1.
        -11    1    4    4    0    0 -0.46627942494E+01 -0.31526436588E+01 -0.67655754329E+01  0.88007853883E+01  0.51100000000E-03 0.  1.
         12    1    4    4    0    0 -0.44386343178E+01  0.20903514549E+02 -0.25968938849E+01  0.21526779902E+02  0.00000000000E+00 0. -1.
</event>
<event>
 8    1  0.1271559E-006  0.9118800E+02  0.7816164E-02  0.1184000E+00
        -11   -1    0    0    0    0  0.00000000000E+00  0.00000000000E+00  0.45593999997E+02  0.45594000000E+02  0.51100000000E-03 0. -1.
         11   -1    0    0    0    0 -0.00000000000E+00 -0.00000000000E+00 -0.45593999997E+02  0.45594000000E+02  0.51100000000E-03 0.  1.
         23    2    1    2    0    0 -0.17763568394E-14  0.00000000000E+00  0.00000000000E+00  0.91188000000E+02  0.91188000000E+02 0.  0.
    9900012    2    3    3    0    0  0.93471896306E+01  0.99844252733E+01 -0.34186557860E+02  0.54367089631E+02  0.40000012433E+02 0.  0.
         12    1    3    3    0    0 -0.93471896306E+01 -0.99844252733E+01  0.34186557860E+02  0.36820910369E+02  0.00000000000E+00 0. -1.
         11    1    4    4    0    0  0.11885109781E+02 -0.55995314270E+00 -0.28492825433E+01  0.12234696290E+02  0.51100000000E-03 0. -1.
        -11    1    4    4    0    0  0.10147756313E+02  0.88579174169E+01 -0.23612575696E+02  0.27184432869E+02  0.51100000000E-03 0.  1.
        -12    1    4    4    0    0 -0.12685676464E+02  0.16864609991E+01 -0.77246996215E+01  0.14947960473E+02  0.00000000000E+00 0.  1.
</event>
<event>
 8    1  0.1271559E-006  0.9118800E+02  0.7816164E-02  0.1184000E+00
        -11   -1    0    0    0    0  0.00000000000E+00  0.00000000000E+00  0.45593999997E+02  0.45594000000E+02  0.51100000000E-03 0.  1.
         11   -1    0    0    0    0 -0.00000000000E+00 -0.00000000000E+00 -0.45593999997E+02  0.45594000000E+02  0.51100000000E-03 0. -1.
         23    2    1    2    0    0  0.00000000000E+00 -0.35527136788E-14 -0.44408920985E-15  0.91188000000E+02  0.91188000000E+02 0.  0.
    9900012    2    3    3    0    0 -0.31874960833E+02  0.18412658559E+02 -0.86080101235E+00  0.54367080651E+02  0.39999991960E+02 0.  0.
        -12    1    3    3    0    0  0.31874960833E+02 -0.18412658559E+02  0.86080101235E+00  0.36820919349E+02  0.00000000000E+00 0.  1.
         11    1    4    4    0    0 -0.57052446135E+01 -0.94414304678E-01 -0.12132901387E+02  0.13407685352E+02  0.51100000000E-03 0. -1.
        -11    1    4    4    0    0  0.17967111113E+01 -0.30543285456E+01 -0.81290391104E+00  0.36356439198E+01  0.51100000000E-03 0.  1.
         12    1    4    4    0    0 -0.27966427331E+02  0.21561401410E+02  0.12085004286E+02  0.37323751379E+02  0.00000000000E+00 0. -1.
</event>
<event>
 8    1  0.1271559E-006  0.9118800E+02  0.7816164E-02  0.1184000E+00
        -11   -1    0    0    0    0  0.00000000000E+00  0.00000000000E+00  0.45593999997E+02  0.45594000000E+02  0.51100000000E-03 0. -1.
         11   -1    0    0    0    0 -0.00000000000E+00 -0.00000000000E+00 -0.45593999997E+02  0.45594000000E+02  0.51100000000E-03 0.  1.
         23    2    1    2    0    0  0.00000000000E+00  0.00000000000E+00 -0.14432899320E-14  0.91188000000E+02  0.91188000000E+02 0.  0.
    9900012    2    3    3    0    0  0.31943145748E+02 -0.18291169289E+02  0.92125852787E+00  0.54367079975E+02  0.39999990418E+02 0.  0.
         12    1    3    3    0    0 -0.31943145748E+02  0.18291169289E+02 -0.92125852787E+00  0.36820920025E+02  0.00000000000E+00 0. -1.
         11    1    4    4    0    0  0.53727064222E+01 -0.10220801508E+02  0.16745567639E+02  0.20340717627E+02  0.51100000000E-03 0. -1.
        -11    1    4    4    0    0  0.17103061451E+02  0.56711995507E+00 -0.10945701324E+02  0.20313658306E+02  0.51100000000E-03 0.  1.
         12    1    4    4    0    0  0.94673778748E+01 -0.86374877360E+01 -0.48786077870E+01  0.13712704042E+02  0.00000000000E+00 0. -1.
</event>
<event>
 8    1  0.1271559E-006  0.9118800E+02  0.7816164E-02  0.1184000E+00
        -11   -1    0    0    0    0  0.00000000000E+00  0.00000000000E+00  0.45593999997E+02  0.45594000000E+02  0.51100000000E-03 0. -1.
         11   -1    0    0    0    0 -0.00000000000E+00 -0.00000000000E+00 -0.45593999997E+02  0.45594000000E+02  0.51100000000E-03 0.  1.
         23    2    1    2    0    0 -0.71054273576E-14 -0.35527136788E-14  0.10658141036E-13  0.91188000000E+02  0.91188000000E+02 0.  0.
    9900012    2    3    3    0    0  0.17074904789E+02  0.70214614887E+01 -0.31857897728E+02  0.54367096390E+02  0.40000027841E+02 0.  0.
         12    1    3    3    0    0 -0.17074904789E+02 -0.70214614887E+01  0.31857897728E+02  0.36820903610E+02  0.00000000000E+00 0. -1.
         11    1    4    4    0    0  0.30377195234E+01 -0.87330401120E+01  0.26280470253E+01  0.96125106465E+01  0.51100000000E-03 0. -1.
        -11    1    4    4    0    0  0.30249110027E+00 -0.42289068146E+01 -0.43484610496E+01  0.60732419245E+01  0.51100000000E-03 0.  1.
        -12    1    4    4    0    0  0.13734694165E+02  0.19983408415E+02 -0.30137483703E+02  0.38681343819E+02  0.00000000000E+00 0.  1.
</event>
<event>
 8    1  0.1271559E-006  0.9118800E+02  0.7816164E-02  0.1184000E+00
        -11   -1    0    0    0    0  0.00000000000E+00  0.00000000000E+00  0.45593999997E+02  0.45594000000E+02  0.51100000000E-03 0.  1.
         11   -1    0    0    0    0 -0.00000000000E+00 -0.00000000000E+00 -0.45593999997E+02  0.45594000000E+02  0.51100000000E-03 0. -1.
         23    2    1    2    0    0  0.00000000000E+00  0.00000000000E+00  0.88817841970E-15  0.91188000000E+02  0.91188000000E+02 0.  0.
    9900012    2    3    3    0    0 -0.12450812335E+02 -0.33999756572E+02 -0.66912857575E+01  0.54367089096E+02  0.40000011211E+02 0.  0.
         12    1    3    3    0    0  0.12450812335E+02  0.33999756572E+02  0.66912857575E+01  0.36820910904E+02  0.00000000000E+00 0. -1.
         11    1    4    4    0    0  0.43549127195E+01 -0.15096679820E+01 -0.12623762473E+02  0.13438889145E+02  0.51100000000E-03 0. -1.
        -11    1    4    4    0    0 -0.12185662853E+02 -0.33270419459E+02  0.33801866584E+01  0.35592651661E+02  0.51100000000E-03 0.  1.
        -12    1    4    4    0    0 -0.46200622017E+01  0.78033086913E+00  0.25522900576E+01  0.53355482896E+01  0.00000000000E+00 0.  1.
</event>
<event>
 8    1  0.1271559E-006  0.9118800E+02  0.7816164E-02  0.1184000E+00
        -11   -1    0    0    0    0  0.00000000000E+00  0.00000000000E+00  0.45593999997E+02  0.45594000000E+02  0.51100000000E-03 0.  1.
         11   -1    0    0    0    0 -0.00000000000E+00 -0.00000000000E+00 -0.45593999997E+02  0.45594000000E+02  0.51100000000E-03 0. -1.
         23    2    1    2    0    0  0.00000000000E+00  0.00000000000E+00  0.00000000000E+00  0.91188000000E+02  0.91188000000E+02 0.  0.
    9900012    2    3    3    0    0  0.23694000760E+02 -0.19280304646E+02  0.20558316262E+02  0.54367079496E+02  0.39999989326E+02 0.  0.
         12    1    3    3    0    0 -0.23694000760E+02  0.19280304646E+02 -0.20558316262E+02  0.36820920504E+02  0.00000000000E+00 0. -1.
         11    1    4    4    0    0  0.27839789229E-01 -0.99689202537E+01 -0.42160842994E+01  0.10823840038E+02  0.51100000000E-03 0. -1.
        -11    1    4    4    0    0  0.94051689865E+01  0.14677006410E+01 -0.34576116337E+01  0.10127508445E+02  0.51100000000E-03 0.  1.
        -12    1    4    4    0    0  0.14260991985E+02 -0.10779085033E+02  0.28232012195E+02  0.33415731013E+02  0.00000000000E+00 0.  1.
</event>
<event>
 8    1  0.1271559E-006  0.9118800E+02  0.7816164E-02  0.1184000E+00
        -11   -1    0    0    0    0  0.00000000000E+00  0.00000000000E+00  0.45593999997E+02  0.45594000000E+02  0.51100000000E-03 0.  1.
         11   -1    0    0    0    0 -0.00000000000E+00 -0.00000000000E+00 -0.45593999997E+02  0.45594000000E+02  0.51100000000E-03 0. -1.
         23    2    1    2    0    0 -0.22204460493E-15 -0.35527136788E-14  0.00000000000E+00  0.91188000000E+02  0.91188000000E+02 0.  0.
    9900012    2    3    3    0    0 -0.12862675498E+01 -0.24041633697E+02  0.27859020924E+02  0.54367086352E+02  0.40000004957E+02 0.  0.
         12    1    3    3    0    0  0.12862675498E+01  0.24041633697E+02 -0.27859020924E+02  0.36820913648E+02  0.00000000000E+00 0. -1.
         11    1    4    4    0    0 -0.31025894576E+01 -0.16842994260E+02 -0.22016608951E-01  0.17126383214E+02  0.51100000000E-03 0. -1.
        -11    1    4    4    0    0  0.46942581656E+00 -0.49709037973E+01  0.31989554848E+02  0.32376872375E+02  0.51100000000E-03 0.  1.
         12    1    4    4    0    0  0.13468960913E+01 -0.22277356396E+01 -0.41085173153E+01  0.48638307630E+01  0.00000000000E+00 0. -1.
</event>
<event>
 8    1  0.1271559E-006  0.9118800E+02  0.7816164E-02  0.1184000E+00
        -11   -1    0    0    0    0  0.00000000000E+00  0.00000000000E+00  0.45593999997E+02  0.45594000000E+02  0.51100000000E-03 0.  1.
         11   -1    0    0    0    0 -0.00000000000E+00 -0.00000000000E+00 -0.45593999997E+02  0.45594000000E+02  0.51100000000E-03 0. -1.
         23    2    1    2    0    0 -0.71054273576E-14  0.00000000000E+00 -0.71054273576E-14  0.91188000000E+02  0.91188000000E+02 0.  0.
    9900012    2    3    3    0    0 -0.18177466309E+02 -0.53063277652E+01 -0.31578502588E+02  0.54367092604E+02  0.40000019209E+02 0.  0.
        -12    1    3    3    0    0  0.18177466309E+02  0.53063277652E+01  0.31578502588E+02  0.36820907396E+02  0.00000000000E+00 0.  1.
         11    1    4    4    0    0 -0.14150573393E+02 -0.12773022325E+02 -0.95260753645E+01  0.21310442013E+02  0.51100000000E-03 0. -1.
        -11    1    4    4    0    0 -0.33121912099E+01 -0.60623042699E+01  0.30488321196E+00  0.69148461809E+01  0.51100000000E-03 0.  1.
        -12    1    4    4    0    0 -0.71470170597E+00  0.13528998830E+02 -0.22357310436E+02  0.26141804410E+02  0.00000000000E+00 0.  1.
</event>
<event>
 8    1  0.1271559E-006  0.9118800E+02  0.7816164E-02  0.1184000E+00
        -11   -1    0    0    0    0  0.00000000000E+00  0.00000000000E+00  0.45593999997E+02  0.45594000000E+02  0.51100000000E-03 0.  1.
         11   -1    0    0    0    0 -0.00000000000E+00 -0.00000000000E+00 -0.45593999997E+02  0.45594000000E+02  0.51100000000E-03 0. -1.
         23    2    1    2    0    0  0.17763568394E-14  0.00000000000E+00  0.00000000000E+00  0.91188000000E+02  0.91188000000E+02 0.  0.
    9900012    2    3    3    0    0  0.13836201222E+02  0.69835197627E+01  0.33400126789E+02  0.54367102645E+02  0.40000042099E+02 0.  0.
         12    1    3    3    0    0 -0.13836201222E+02 -0.69835197627E+01 -0.33400126789E+02  0.36820897355E+02  0.00000000000E+00 0. -1.
         11    1    4    4    0    0  0.24873406317E+01 -0.21686973294E+01 -0.88576062637E+01  0.94523701000E+01  0.51100000000E-03 0. -1.
        -11    1    4    4    0    0  0.14952890622E+01  0.19462792341E+01  0.12707092156E+02  0.12941950532E+02  0.51100000000E-03 0.  1.
        -12    1    4    4    0    0  0.98535715283E+01  0.72059378579E+01  0.29550640896E+02  0.31972782013E+02  0.00000000000E+00 0.  1.
</event>
<event>
 8    1  0.1271559E-006  0.9118800E+02  0.7816164E-02  0.1184000E+00
        -11   -1    0    0    0    0  0.00000000000E+00  0.00000000000E+00  0.45593999997E+02  0.45594000000E+02  0.51100000000E-03 0.  1.
         11   -1    0    0    0    0 -0.00000000000E+00 -0.00000000000E+00 -0.45593999997E+02  0.45594000000E+02  0.51100000000E-03 0. -1.
         23    2    1    2    0    0  0.35527136788E-14  0.00000000000E+00  0.00000000000E+00  0.91188000000E+02  0.91188000000E+02 0.  0.
    9900012    2    3    3    0    0  0.26761105223E+02 -0.16972327728E+02  0.18749993139E+02  0.54367096915E+02  0.40000029038E+02 0.  0.
         12    1    3    3    0    0 -0.26761105223E+02  0.16972327728E+02 -0.18749993139E+02  0.36820903085E+02  0.00000000000E+00 0. -1.
         11    1    4    4    0    0  0.23443707665E+02  0.74690830253E+01  0.87376551152E+01  0.26110175172E+02  0.51100000000E-03 0. -1.
        -11    1    4    4    0    0 -0.25491074882E+01 -0.90353150488E+01  0.92647211793E+00  0.94336216727E+01  0.51100000000E-03 0.  1.
        -12    1    4    4    0    0  0.58665050458E+01 -0.15406095704E+02  0.90858659057E+01  0.18823300071E+02  0.00000000000E+00 0.  1.
</event>
<event>
 8    1  0.1271559E-006  0.9118800E+02  0.7816164E-02  0.1184000E+00
        -11   -1    0    0    0    0  0.00000000000E+00  0.00000000000E+00  0.45593999997E+02  0.45594000000E+02  0.51100000000E-03 0. -1.
         11   -1    0    0    0    0 -0.00000000000E+00 -0.00000000000E+00 -0.45593999997E+02  0.45594000000E+02  0.51100000000E-03 0.  1.
         23    2    1    2    0    0  0.17763568394E-14 -0.17763568394E-14  0.00000000000E+00  0.91188000000E+02  0.91188000000E+02 0.  0.
    9900012    2    3    3    0    0 -0.81921987002E+01  0.15948935078E+02  0.32160537453E+02  0.54367070912E+02  0.39999969757E+02 0.  0.
        -12    1    3    3    0    0  0.81921987002E+01 -0.15948935078E+02 -0.32160537453E+02  0.36820929088E+02  0.00000000000E+00 0.  1.
         11    1    4    4    0    0 -0.15103649725E+02  0.12861332644E+02  0.34762246435E+02  0.40024341217E+02  0.51100000000E-03 0. -1.
        -11    1    4    4    0    0 -0.13291282046E+01  0.50726043183E+01 -0.26299703343E+01  0.58663992853E+01  0.51100000000E-03 0.  1.
         12    1    4    4    0    0  0.82405792292E+01 -0.19850018835E+01  0.28261352584E-01  0.84763304097E+01  0.00000000000E+00 0. -1.
</event>
<event>
 8    1  0.1271559E-006  0.9118800E+02  0.7816164E-02  0.1184000E+00
        -11   -1    0    0    0    0  0.00000000000E+00  0.00000000000E+00  0.45593999997E+02  0.45594000000E+02  0.51100000000E-03 0.  1.
         11   -1    0    0    0    0 -0.00000000000E+00 -0.00000000000E+00 -0.45593999997E+02  0.45594000000E+02  0.51100000000E-03 0. -1.
         23    2    1    2    0    0  0.00000000000E+00  0.35527136788E-14  0.00000000000E+00  0.91188000000E+02  0.91188000000E+02 0.  0.
    9900012    2    3    3    0    0  0.16577486200E+02  0.23127025819E+02  0.23368945735E+02  0.54367082076E+02  0.39999995210E+02 0.  0.
         12    1    3    3    0    0 -0.16577486200E+02 -0.23127025819E+02 -0.23368945735E+02  0.36820917924E+02  0.00000000000E+00 0. -1.
         11    1    4    4    0    0  0.10333015912E+02  0.32556722223E+02  0.19302974978E+02  0.39234120648E+02  0.51100000000E-03 0. -1.
        -11    1    4    4    0    0  0.79870118638E+01 -0.74608350871E+01  0.53930931547E+01  0.12187775545E+02  0.51100000000E-03 0.  1.
         12    1    4    4    0    0 -0.17425415762E+01 -0.19688613163E+01 -0.13271223978E+01  0.29451858832E+01  0.00000000000E+00 0. -1.
</event>
<event>
 8    1  0.1271559E-006  0.9118800E+02  0.7816164E-02  0.1184000E+00
        -11   -1    0    0    0    0  0.00000000000E+00  0.00000000000E+00  0.45593999997E+02  0.45594000000E+02  0.51100000000E-03 0.  1.
         11   -1    0    0    0    0 -0.00000000000E+00 -0.00000000000E+00 -0.45593999997E+02  0.45594000000E+02  0.51100000000E-03 0. -1.
         23    2    1    2    0    0  0.00000000000E+00  0.00000000000E+00  0.17763568394E-14  0.91188000000E+02  0.91188000000E+02 0.  0.
    9900012    2    3    3    0    0 -0.14110279327E+02  0.33519547219E+02 -0.57548533396E+01  0.54367104229E+02  0.40000045711E+02 0.  0.
         12    1    3    3    0    0  0.14110279327E+02 -0.33519547219E+02  0.57548533396E+01  0.36820895771E+02  0.00000000000E+00 0. -1.
         11    1    4    4    0    0 -0.97247829050E+01  0.14873015067E+02  0.10385300435E+02  0.20582333325E+02  0.51100000000E-03 0. -1.
        -11    1    4    4    0    0 -0.28499531542E+00  0.85016352996E+01 -0.20353345295E+02  0.22059412732E+02  0.51100000000E-03 0.  1.
        -12    1    4    4    0    0 -0.41005011062E+01  0.10144896853E+02  0.42131915202E+01  0.11725358172E+02  0.00000000000E+00 0.  1.
</event>
<event>
 8    1  0.1271559E-006  0.9118800E+02  0.7816164E-02  0.1184000E+00
        -11   -1    0    0    0    0  0.00000000000E+00  0.00000000000E+00  0.45593999997E+02  0.45594000000E+02  0.51100000000E-03 0. -1.
         11   -1    0    0    0    0 -0.00000000000E+00 -0.00000000000E+00 -0.45593999997E+02  0.45594000000E+02  0.51100000000E-03 0.  1.
         23    2    1    2    0    0  0.35527136788E-14  0.00000000000E+00  0.35527136788E-14  0.91188000000E+02  0.91188000000E+02 0.  0.
    9900012    2    3    3    0    0  0.22035366535E+02  0.24100703982E+02  0.17011138613E+02  0.54367080027E+02  0.39999990537E+02 0.  0.
        -12    1    3    3    0    0 -0.22035366535E+02 -0.24100703982E+02 -0.17011138613E+02  0.36820919973E+02  0.00000000000E+00 0.  1.
         11    1    4    4    0    0  0.25311771170E+01 -0.25475247817E+01  0.11938953976E+01  0.37844585601E+01  0.51100000000E-03 0. -1.
        -11    1    4    4    0    0  0.16573236605E+02 -0.39569152054E+01  0.81917035459E+01  0.18905907985E+02  0.51100000000E-03 0.  1.
         12    1    4    4    0    0  0.29309528136E+01  0.30605143969E+02  0.76255396695E+01  0.31676713481E+02  0.00000000000E+00 0. -1.
</event>
<event>
 8    1  0.1271559E-006  0.9118800E+02  0.7816164E-02  0.1184000E+00
        -11   -1    0    0    0    0  0.00000000000E+00  0.00000000000E+00  0.45593999997E+02  0.45594000000E+02  0.51100000000E-03 0.  1.
         11   -1    0    0    0    0 -0.00000000000E+00 -0.00000000000E+00 -0.45593999997E+02  0.45594000000E+02  0.51100000000E-03 0. -1.
         23    2    1    2    0    0  0.17763568394E-14  0.16653345369E-15 -0.71054273576E-14  0.91188000000E+02  0.91188000000E+02 0.  0.
    9900012    2    3    3    0    0  0.69947015670E+01  0.36919219003E+00 -0.36148552053E+02  0.54367082461E+02  0.39999996087E+02 0.  0.
        -12    1    3    3    0    0 -0.69947015670E+01 -0.36919219003E+00  0.36148552053E+02  0.36820917539E+02  0.00000000000E+00 0.  1.
         11    1    4    4    0    0  0.17966931117E+02  0.39568656291E+01 -0.28525866597E+02  0.33943960652E+02  0.51100000000E-03 0. -1.
        -11    1    4    4    0    0  0.34633012832E+01 -0.23760497303E+01 -0.31890982317E+01  0.52735581813E+01  0.51100000000E-03 0.  1.
        -12    1    4    4    0    0 -0.14435530833E+02 -0.12116237088E+01 -0.44335872244E+01  0.15149563628E+02  0.00000000000E+00 0.  1.
</event>
<event>
 8    1  0.1271559E-006  0.9118800E+02  0.7816164E-02  0.1184000E+00
        -11   -1    0    0    0    0  0.00000000000E+00  0.00000000000E+00  0.45593999997E+02  0.45594000000E+02  0.51100000000E-03 0. -1.
         11   -1    0    0    0    0 -0.00000000000E+00 -0.00000000000E+00 -0.45593999997E+02  0.45594000000E+02  0.51100000000E-03 0.  1.
         23    2    1    2    0    0  0.17763568394E-14 -0.44408920985E-15  0.00000000000E+00  0.91188000000E+02  0.91188000000E+02 0.  0.
    9900012    2    3    3    0    0 -0.11806640595E+02  0.25228026127E+01 -0.34785319590E+02  0.54367085371E+02  0.40000002719E+02 0.  0.
         12    1    3    3    0    0  0.11806640595E+02 -0.25228026127E+01  0.34785319590E+02  0.36820914629E+02  0.00000000000E+00 0. -1.
         11    1    4    4    0    0  0.92688255672E+01 -0.69370559009E-01 -0.50404413790E+01  0.10550923620E+02  0.51100000000E-03 0. -1.
        -11    1    4    4    0    0  0.15496369402E+01  0.35375168746E+01 -0.17799760147E+02  0.18213919453E+02  0.51100000000E-03 0.  1.
         12    1    4    4    0    0 -0.22625103103E+02 -0.94534370293E+00 -0.11945118064E+02  0.25602242298E+02  0.00000000000E+00 0. -1.
</event>
<event>
 8    1  0.1271559E-006  0.9118800E+02  0.7816164E-02  0.1184000E+00
        -11   -1    0    0    0    0  0.00000000000E+00  0.00000000000E+00  0.45593999997E+02  0.45594000000E+02  0.51100000000E-03 0.  1.
         11   -1    0    0    0    0 -0.00000000000E+00 -0.00000000000E+00 -0.45593999997E+02  0.45594000000E+02  0.51100000000E-03 0. -1.
         23    2    1    2    0    0  0.35527136788E-14 -0.17763568394E-14  0.35527136788E-14  0.91188000000E+02  0.91188000000E+02 0.  0.
    9900012    2    3    3    0    0  0.27095417078E+02  0.11244120200E+02  0.22252827895E+02  0.54367079112E+02  0.39999988451E+02 0.  0.
         12    1    3    3    0    0 -0.27095417078E+02 -0.11244120200E+02 -0.22252827895E+02  0.36820920888E+02  0.00000000000E+00 0. -1.
         11    1    4    4    0    0  0.23549406456E+01 -0.20264875597E+01  0.55207378737E+01  0.63348989104E+01  0.51100000000E-03 0. -1.
        -11    1    4    4    0    0  0.11755066608E+02  0.24812098570E+02  0.12405567444E+02  0.30128390768E+02  0.51100000000E-03 0.  1.
         12    1    4    4    0    0  0.12985409825E+02 -0.11541490810E+02  0.43265225776E+01  0.17903789433E+02  0.00000000000E+00 0. -1.
</event>
<event>
 8    1  0.1271559E-006  0.9118800E+02  0.7816164E-02  0.1184000E+00
        -11   -1    0    0    0    0  0.00000000000E+00  0.00000000000E+00  0.45593999997E+02  0.45594000000E+02  0.51100000000E-03 0.  1.
         11   -1    0    0    0    0 -0.00000000000E+00 -0.00000000000E+00 -0.45593999997E+02  0.45594000000E+02  0.51100000000E-03 0. -1.
         23    2    1    2    0    0  0.17763568394E-14  0.00000000000E+00  0.00000000000E+00  0.91188000000E+02  0.91188000000E+02 0.  0.
    9900012    2    3    3    0    0  0.10080087045E+02 -0.33615079538E+02 -0.11144434479E+02  0.54367080036E+02  0.39999990557E+02 0.  0.
        -12    1    3    3    0    0 -0.10080087045E+02  0.33615079538E+02  0.11144434479E+02  0.36820919964E+02  0.00000000000E+00 0.  1.
         11    1    4    4    0    0  0.82492739256E+00 -0.84171982219E+01 -0.17248746886E+02  0.19210648102E+02  0.51100000000E-03 0. -1.
        -11    1    4    4    0    0  0.55510158280E+01  0.28257743901E+01  0.22726833453E+01  0.66305254299E+01  0.51100000000E-03 0.  1.
        -12    1    4    4    0    0  0.37041438240E+01 -0.28023655706E+02  0.38316290612E+01  0.28525906504E+02  0.00000000000E+00 0.  1.
</event>
<event>
 8    1  0.1271559E-006  0.9118800E+02  0.7816164E-02  0.1184000E+00
        -11   -1    0    0    0    0  0.00000000000E+00  0.00000000000E+00  0.45593999997E+02  0.45594000000E+02  0.51100000000E-03 0. -1.
         11   -1    0    0    0    0 -0.00000000000E+00 -0.00000000000E+00 -0.45593999997E+02  0.45594000000E+02  0.51100000000E-03 0.  1.
         23    2    1    2    0    0  0.00000000000E+00  0.35527136788E-14  0.00000000000E+00  0.91188000000E+02  0.91188000000E+02 0.  0.
    9900012    2    3    3    0    0 -0.18093400326E+02 -0.27395509565E+02 -0.16670161017E+02  0.54367090886E+02  0.40000015292E+02 0.  0.
         12    1    3    3    0    0  0.18093400326E+02  0.27395509565E+02  0.16670161017E+02  0.36820909114E+02  0.00000000000E+00 0. -1.
         11    1    4    4    0    0 -0.19144100498E+02 -0.80737129833E+01 -0.59803768836E+01  0.21620507236E+02  0.51100000000E-03 0. -1.
        -11    1    4    4    0    0 -0.72867030396E+01 -0.29032256140E+01 -0.11944502126E+02  0.14289712784E+02  0.51100000000E-03 0.  1.
         12    1    4    4    0    0  0.83374032110E+01 -0.16418570967E+02  0.12547179927E+01  0.18456870866E+02  0.00000000000E+00 0. -1.
</event>
<event>
 8    1  0.1271559E-006  0.9118800E+02  0.7816164E-02  0.1184000E+00
        -11   -1    0    0    0    0  0.00000000000E+00  0.00000000000E+00  0.45593999997E+02  0.45594000000E+02  0.51100000000E-03 0.  1.
         11   -1    0    0    0    0 -0.00000000000E+00 -0.00000000000E+00 -0.45593999997E+02  0.45594000000E+02  0.51100000000E-03 0. -1.
         23    2    1    2    0    0  0.88817841970E-15  0.35527136788E-14  0.00000000000E+00  0.91188000000E+02  0.91188000000E+02 0.  0.
    9900012    2    3    3    0    0  0.28485547626E+01 -0.12522965090E+02  0.34508562240E+02  0.54367084928E+02  0.40000001710E+02 0.  0.
         12    1    3    3    0    0 -0.28485547626E+01  0.12522965090E+02 -0.34508562240E+02  0.36820915072E+02  0.00000000000E+00 0. -1.
         11    1    4    4    0    0 -0.10456473698E+02  0.82570399474E+01  0.37454131838E+01  0.13839966440E+02  0.51100000000E-03 0. -1.
        -11    1    4    4    0    0 -0.26327450114E+00 -0.68617444893E+01  0.94519087844E+01  0.11682954713E+02  0.51100000000E-03 0.  1.
         12    1    4    4    0    0  0.13568302961E+02 -0.13918260548E+02  0.21311240272E+02  0.28844163775E+02  0.00000000000E+00 0. -1.
</event>
<event>
 8    1  0.1271559E-006  0.9118800E+02  0.7816164E-02  0.1184000E+00
        -11   -1    0    0    0    0  0.00000000000E+00  0.00000000000E+00  0.45593999997E+02  0.45594000000E+02  0.51100000000E-03 0. -1.
         11   -1    0    0    0    0 -0.00000000000E+00 -0.00000000000E+00 -0.45593999997E+02  0.45594000000E+02  0.51100000000E-03 0.  1.
         23    2    1    2    0    0  0.00000000000E+00  0.00000000000E+00  0.35527136788E-14  0.91188000000E+02  0.91188000000E+02 0.  0.
    9900012    2    3    3    0    0 -0.18309827903E+02 -0.23169689385E+02 -0.21993098961E+02  0.54367072446E+02  0.39999973255E+02 0.  0.
         12    1    3    3    0    0  0.18309827903E+02  0.23169689385E+02  0.21993098961E+02  0.36820927554E+02  0.00000000000E+00 0. -1.
         11    1    4    4    0    0  0.51678320840E+01 -0.31375431723E+01 -0.15428194040E+02  0.16570450724E+02  0.51100000000E-03 0.  1.
        -11    1    4    4    0    0 -0.94757852848E+01 -0.19728719926E+02  0.94162033065E+00  0.21906609637E+02  0.51100000000E-03 0. -1.
        -12    1    4    4    0    0 -0.14001874702E+02 -0.30342628617E+00 -0.75065252524E+01  0.15890012085E+02  0.00000000000E+00 0.  1.
</event>
<event>
 8    1  0.1271559E-006  0.9118800E+02  0.7816164E-02  0.1184000E+00
        -11   -1    0    0    0    0  0.00000000000E+00  0.00000000000E+00  0.45593999997E+02  0.45594000000E+02  0.51100000000E-03 0.  1.
         11   -1    0    0    0    0 -0.00000000000E+00 -0.00000000000E+00 -0.45593999997E+02  0.45594000000E+02  0.51100000000E-03 0. -1.
         23    2    1    2    0    0  0.88817841970E-15  0.00000000000E+00  0.00000000000E+00  0.91188000000E+02  0.91188000000E+02 0.  0.
    9900012    2    3    3    0    0 -0.69770390908E+01  0.28797500604E+02  0.21858751523E+02  0.54367080218E+02  0.39999990972E+02 0.  0.
         12    1    3    3    0    0  0.69770390908E+01 -0.28797500604E+02 -0.21858751523E+02  0.36820919782E+02  0.00000000000E+00 0. -1.
         11    1    4    4    0    0 -0.35836148983E+01 -0.19183341611E+01 -0.91504215896E+01  0.10012617901E+02  0.51100000000E-03 0. -1.
        -11    1    4    4    0    0 -0.45935758618E+01  0.16145481143E+02  0.13479260219E+02  0.21528305945E+02  0.51100000000E-03 0.  1.
         12    1    4    4    0    0  0.12001516693E+01  0.14570353621E+02  0.17529912893E+02  0.22826156372E+02  0.00000000000E+00 0. -1.
</event>
<event>
 8    1  0.1271559E-006  0.9118800E+02  0.7816164E-02  0.1184000E+00
        -11   -1    0    0    0    0  0.00000000000E+00  0.00000000000E+00  0.45593999997E+02  0.45594000000E+02  0.51100000000E-03 0.  1.
         11   -1    0    0    0    0 -0.00000000000E+00 -0.00000000000E+00 -0.45593999997E+02  0.45594000000E+02  0.51100000000E-03 0. -1.
         23    2    1    2    0    0 -0.17763568394E-14 -0.35527136788E-14  0.35527136788E-14  0.91188000000E+02  0.91188000000E+02 0.  0.
    9900012    2    3    3    0    0 -0.34313928457E+01 -0.29817834320E+02 -0.21328553660E+02  0.54367015472E+02  0.39999843370E+02 0.  0.
        -12    1    3    3    0    0  0.34313928457E+01  0.29817834320E+02  0.21328553660E+02  0.36820984528E+02  0.00000000000E+00 0.  1.
         11    1    4    4    0    0 -0.13269368945E+02 -0.17982744100E+02 -0.22728322623E+02  0.31875255090E+02  0.51100000000E-03 0. -1.
        -11    1    4    4    0    0  0.86666388855E+01 -0.13305052625E+02  0.64228216792E+01  0.17128563673E+02  0.51100000000E-03 0.  1.
        -12    1    4    4    0    0  0.11713372142E+01  0.14699624043E+01 -0.50230527164E+01  0.53631967082E+01  0.00000000000E+00 0.  1.
</event>
<event>
 8    1  0.1271559E-006  0.9118800E+02  0.7816164E-02  0.1184000E+00
        -11   -1    0    0    0    0  0.00000000000E+00  0.00000000000E+00  0.45593999997E+02  0.45594000000E+02  0.51100000000E-03 0. -1.
         11   -1    0    0    0    0 -0.00000000000E+00 -0.00000000000E+00 -0.45593999997E+02  0.45594000000E+02  0.51100000000E-03 0.  1.
         23    2    1    2    0    0  0.11657341759E-14 -0.71054273576E-14 -0.17763568394E-14  0.91188000000E+02  0.91188000000E+02 0.  0.
    9900012    2    3    3    0    0  0.46311757724E+00  0.35564381614E+02  0.95257044110E+01  0.54367098843E+02  0.40000033433E+02 0.  0.
         12    1    3    3    0    0 -0.46311757724E+00 -0.35564381614E+02 -0.95257044110E+01  0.36820901157E+02  0.00000000000E+00 0. -1.
         11    1    4    4    0    0  0.30087428576E+01  0.62346451792E+01  0.10585941353E+02  0.12648537018E+02  0.51100000000E-03 0. -1.
        -11    1    4    4    0    0  0.88919572784E+01  0.96789370622E+01 -0.10772588574E+02  0.16994039889E+02  0.51100000000E-03 0.  1.
         12    1    4    4    0    0 -0.11437582559E+02  0.19650799373E+02  0.97123516317E+01  0.24724521937E+02  0.00000000000E+00 0. -1.
</event>
<event>
 8    1  0.1271559E-006  0.9118800E+02  0.7816164E-02  0.1184000E+00
        -11   -1    0    0    0    0  0.00000000000E+00  0.00000000000E+00  0.45593999997E+02  0.45594000000E+02  0.51100000000E-03 0.  1.
         11   -1    0    0    0    0 -0.00000000000E+00 -0.00000000000E+00 -0.45593999997E+02  0.45594000000E+02  0.51100000000E-03 0. -1.
         23    2    1    2    0    0 -0.71054273576E-14 -0.35527136788E-14 -0.35527136788E-14  0.91188000000E+02  0.91188000000E+02 0.  0.
    9900012    2    3    3    0    0  0.30186301490E+02  0.11476150236E+02  0.17688000687E+02  0.54367079450E+02  0.39999989222E+02 0.  0.
         12    1    3    3    0    0 -0.30186301490E+02 -0.11476150236E+02 -0.17688000687E+02  0.36820920550E+02  0.00000000000E+00 0. -1.
         11    1    4    4    0    0  0.53999984188E+01  0.58469662841E+01  0.91544319275E+01  0.12130565602E+02  0.51100000000E-03 0. -1.
        -11    1    4    4    0    0  0.24170344611E+02  0.17186582453E+02  0.45992423041E+01  0.30012284236E+02  0.51100000000E-03 0.  1.
         12    1    4    4    0    0  0.61595845927E+00 -0.11557398501E+02  0.39343264551E+01  0.12224229611E+02  0.00000000000E+00 0. -1.
</event>
<event>
 8    1  0.1271559E-006  0.9118800E+02  0.7816164E-02  0.1184000E+00
        -11   -1    0    0    0    0  0.00000000000E+00  0.00000000000E+00  0.45593999997E+02  0.45594000000E+02  0.51100000000E-03 0.  1.
         11   -1    0    0    0    0 -0.00000000000E+00 -0.00000000000E+00 -0.45593999997E+02  0.45594000000E+02  0.51100000000E-03 0. -1.
         23    2    1    2    0    0  0.17763568394E-14  0.35527136788E-14 -0.35527136788E-14  0.91188000000E+02  0.91188000000E+02 0.  0.
    9900012    2    3    3    0    0  0.15120299976E+02 -0.22113338858E+02  0.25261761959E+02  0.54367084149E+02  0.39999999934E+02 0.  0.
         12    1    3    3    0    0 -0.15120299976E+02  0.22113338858E+02 -0.25261761959E+02  0.36820915851E+02  0.00000000000E+00 0. -1.
         11    1    4    4    0    0 -0.56994521375E+01  0.34899167559E+01 -0.18547464612E+01  0.69356584639E+01  0.51100000000E-03 0. -1.
        -11    1    4    4    0    0 -0.13217306330E+01 -0.11925251550E+02  0.13491905454E+02  0.18055196189E+02  0.51100000000E-03 0.  1.
         12    1    4    4    0    0  0.22141482746E+02 -0.13678004065E+02  0.13624602967E+02  0.29376229496E+02  0.00000000000E+00 0. -1.
</event>
<event>
 8    1  0.1271559E-006  0.9118800E+02  0.7816164E-02  0.1184000E+00
        -11   -1    0    0    0    0  0.00000000000E+00  0.00000000000E+00  0.45593999997E+02  0.45594000000E+02  0.51100000000E-03 0. -1.
         11   -1    0    0    0    0 -0.00000000000E+00 -0.00000000000E+00 -0.45593999997E+02  0.45594000000E+02  0.51100000000E-03 0.  1.
         23    2    1    2    0    0 -0.35527136788E-14  0.71054273576E-14  0.17763568394E-14  0.91188000000E+02  0.91188000000E+02 0.  0.
    9900012    2    3    3    0    0  0.23207689872E+02 -0.25892113223E+02 -0.12115377539E+02  0.54367071586E+02  0.39999971295E+02 0.  0.
         12    1    3    3    0    0 -0.23207689872E+02  0.25892113223E+02  0.12115377539E+02  0.36820928414E+02  0.00000000000E+00 0. -1.
         11    1    4    4    0    0 -0.31818456632E+01 -0.17818125449E+01  0.26520806576E+01  0.45091606586E+01  0.51100000000E-03 0.  1.
        -11    1    4    4    0    0 -0.41215062866E+01 -0.65761846367E+01  0.52524511964E+01  0.93712999247E+01  0.51100000000E-03 0. -1.
        -12    1    4    4    0    0  0.30511041822E+02 -0.17534116042E+02 -0.20019909393E+02  0.40486611003E+02  0.00000000000E+00 0.  1.
</event>
<event>
 8    1  0.1271559E-006  0.9118800E+02  0.7816164E-02  0.1184000E+00
        -11   -1    0    0    0    0  0.00000000000E+00  0.00000000000E+00  0.45593999997E+02  0.45594000000E+02  0.51100000000E-03 0. -1.
         11   -1    0    0    0    0 -0.00000000000E+00 -0.00000000000E+00 -0.45593999997E+02  0.45594000000E+02  0.51100000000E-03 0.  1.
         23    2    1    2    0    0 -0.88817841970E-15  0.00000000000E+00  0.00000000000E+00  0.91188000000E+02  0.91188000000E+02 0.  0.
    9900012    2    3    3    0    0 -0.53133936485E+01 -0.27514497324E+02  0.23885153645E+02  0.54367078234E+02  0.39999986450E+02 0.  0.
        -12    1    3    3    0    0  0.53133936485E+01  0.27514497324E+02 -0.23885153645E+02  0.36820921766E+02  0.00000000000E+00 0.  1.
         11    1    4    4    0    0  0.10302882760E+02 -0.41081768806E+00  0.47667796242E+01  0.11359592977E+02  0.51100000000E-03 0.  1.
        -11    1    4    4    0    0 -0.30072666993E+01 -0.68719793459E+01  0.17586097825E+02  0.19119063526E+02  0.51100000000E-03 0. -1.
        -12    1    4    4    0    0 -0.12609009710E+02 -0.20231700290E+02  0.15322761954E+01  0.23888421731E+02  0.00000000000E+00 0.  1.
</event>
<event>
 8    1  0.1271559E-006  0.9118800E+02  0.7816164E-02  0.1184000E+00
        -11   -1    0    0    0    0  0.00000000000E+00  0.00000000000E+00  0.45593999997E+02  0.45594000000E+02  0.51100000000E-03 0.  1.
         11   -1    0    0    0    0 -0.00000000000E+00 -0.00000000000E+00 -0.45593999997E+02  0.45594000000E+02  0.51100000000E-03 0. -1.
         23    2    1    2    0    0  0.00000000000E+00  0.00000000000E+00  0.00000000000E+00  0.91188000000E+02  0.91188000000E+02 0.  0.
    9900012    2    3    3    0    0 -0.17027035288E+02  0.32358069372E+02  0.43373352789E+01  0.54367121935E+02  0.40000086074E+02 0.  0.
        -12    1    3    3    0    0  0.17027035288E+02 -0.32358069372E+02 -0.43373352789E+01  0.36820878065E+02  0.00000000000E+00 0.  1.
         11    1    4    4    0    0 -0.17865372251E+01  0.86130613734E+01  0.10824695574E+02  0.13948138801E+02  0.51100000000E-03 0. -1.
        -11    1    4    4    0    0  0.35306926867E+01 -0.46580006258E+01 -0.73200395287E+00  0.58905509697E+01  0.51100000000E-03 0.  1.
         12    1    4    4    0    0 -0.18771190749E+02  0.28403008625E+02 -0.57553563422E+01  0.34528432164E+02  0.00000000000E+00 0. -1.
</event>
<event>
 8    1  0.1271559E-006  0.9118800E+02  0.7816164E-02  0.1184000E+00
        -11   -1    0    0    0    0  0.00000000000E+00  0.00000000000E+00  0.45593999997E+02  0.45594000000E+02  0.51100000000E-03 0.  1.
         11   -1    0    0    0    0 -0.00000000000E+00 -0.00000000000E+00 -0.45593999997E+02  0.45594000000E+02  0.51100000000E-03 0. -1.
         23    2    1    2    0    0  0.17763568394E-14  0.88817841970E-15  0.71054273576E-14  0.91188000000E+02  0.91188000000E+02 0.  0.
    9900012    2    3    3    0    0 -0.90099327220E+01 -0.61421714169E+01 -0.35169229701E+02  0.54367083728E+02  0.39999998974E+02 0.  0.
        -12    1    3    3    0    0  0.90099327220E+01  0.61421714169E+01  0.35169229701E+02  0.36820916272E+02  0.00000000000E+00 0.  1.
         11    1    4    4    0    0 -0.99880324539E+01 -0.32800118185E+01 -0.40463309654E+02  0.41806682459E+02  0.51100000000E-03 0. -1.
        -11    1    4    4    0    0 -0.24825244071E+01  0.21578443348E+00 -0.24772194955E+01  0.35137027540E+01  0.51100000000E-03 0.  1.
        -12    1    4    4    0    0  0.34606241389E+01 -0.30779440320E+01  0.77712994484E+01  0.90466985145E+01  0.00000000000E+00 0.  1.
</event>
<event>
 8    1  0.1271559E-006  0.9118800E+02  0.7816164E-02  0.1184000E+00
        -11   -1    0    0    0    0  0.00000000000E+00  0.00000000000E+00  0.45593999997E+02  0.45594000000E+02  0.51100000000E-03 0.  1.
         11   -1    0    0    0    0 -0.00000000000E+00 -0.00000000000E+00 -0.45593999997E+02  0.45594000000E+02  0.51100000000E-03 0. -1.
         23    2    1    2    0    0  0.00000000000E+00 -0.88817841970E-15  0.00000000000E+00  0.91188000000E+02  0.91188000000E+02 0.  0.
    9900012    2    3    3    0    0  0.17928961330E+02  0.43920100873E+01  0.31859736137E+02  0.54367079402E+02  0.39999989113E+02 0.  0.
         12    1    3    3    0    0 -0.17928961330E+02 -0.43920100873E+01 -0.31859736137E+02  0.36820920598E+02  0.00000000000E+00 0. -1.
         11    1    4    4    0    0  0.49315990392E+01  0.15796663069E+02  0.59555337690E+01  0.17587598356E+02  0.51100000000E-03 0. -1.
        -11    1    4    4    0    0  0.16989196613E+02 -0.12458614430E+02  0.24729699029E+02  0.32487041869E+02  0.51100000000E-03 0.  1.
        -12    1    4    4    0    0 -0.39918343231E+01  0.10539614477E+01  0.11745033387E+01  0.42924391770E+01  0.00000000000E+00 0.  1.
</event>
<event>
 8    1  0.1271559E-006  0.9118800E+02  0.7816164E-02  0.1184000E+00
        -11   -1    0    0    0    0  0.00000000000E+00  0.00000000000E+00  0.45593999997E+02  0.45594000000E+02  0.51100000000E-03 0. -1.
         11   -1    0    0    0    0 -0.00000000000E+00 -0.00000000000E+00 -0.45593999997E+02  0.45594000000E+02  0.51100000000E-03 0.  1.
         23    2    1    2    0    0  0.00000000000E+00  0.00000000000E+00 -0.35527136788E-14  0.91188000000E+02  0.91188000000E+02 0.  0.
    9900012    2    3    3    0    0  0.27793605353E+02  0.15151569639E+02 -0.18807573793E+02  0.54367090275E+02  0.40000013899E+02 0.  0.
         12    1    3    3    0    0 -0.27793605353E+02 -0.15151569639E+02  0.18807573793E+02  0.36820909725E+02  0.00000000000E+00 0. -1.
         11    1    4    4    0    0  0.65283166152E+01  0.15567443627E+02  0.54315006515E+01  0.17733172826E+02  0.51100000000E-03 0. -1.
        -11    1    4    4    0    0  0.22890694889E+02  0.35600802000E+01 -0.20746437719E+02  0.31097793520E+02  0.51100000000E-03 0.  1.
         12    1    4    4    0    0 -0.16254061513E+01 -0.39759541874E+01 -0.34926367255E+01  0.55361239287E+01  0.00000000000E+00 0. -1.
</event>
<event>
 8    1  0.1271559E-006  0.9118800E+02  0.7816164E-02  0.1184000E+00
        -11   -1    0    0    0    0  0.00000000000E+00  0.00000000000E+00  0.45593999997E+02  0.45594000000E+02  0.51100000000E-03 0.  1.
         11   -1    0    0    0    0 -0.00000000000E+00 -0.00000000000E+00 -0.45593999997E+02  0.45594000000E+02  0.51100000000E-03 0. -1.
         23    2    1    2    0    0  0.22551405188E-15 -0.71054273576E-14 -0.13322676296E-14  0.91188000000E+02  0.91188000000E+02 0.  0.
    9900012    2    3    3    0    0  0.17943065134E-01 -0.36797073092E+02 -0.13248301369E+01  0.54367080878E+02  0.39999992477E+02 0.  0.
         12    1    3    3    0    0 -0.17943065134E-01  0.36797073092E+02  0.13248301369E+01  0.36820919122E+02  0.00000000000E+00 0. -1.
         11    1    4    4    0    0  0.41198520734E+01 -0.21842578851E+01  0.11267444930E+02  0.12194239588E+02  0.51100000000E-03 0. -1.
        -11    1    4    4    0    0  0.32675481801E+01  0.99319101341E+00  0.64890607448E+00  0.34762593190E+01  0.51100000000E-03 0.  1.
        -12    1    4    4    0    0 -0.73694571883E+01 -0.35606006220E+02 -0.13241181141E+02  0.38696581971E+02  0.00000000000E+00 0.  1.
</event>
<event>
 8    1  0.1271559E-006  0.9118800E+02  0.7816164E-02  0.1184000E+00
        -11   -1    0    0    0    0  0.00000000000E+00  0.00000000000E+00  0.45593999997E+02  0.45594000000E+02  0.51100000000E-03 0.  1.
         11   -1    0    0    0    0 -0.00000000000E+00 -0.00000000000E+00 -0.45593999997E+02  0.45594000000E+02  0.51100000000E-03 0. -1.
         23    2    1    2    0    0  0.00000000000E+00  0.00000000000E+00 -0.22204460493E-15  0.91188000000E+02  0.91188000000E+02 0.  0.
    9900012    2    3    3    0    0 -0.28513132442E+02  0.23267931931E+02  0.11766761016E+01  0.54367082784E+02  0.39999996823E+02 0.  0.
         12    1    3    3    0    0  0.28513132442E+02 -0.23267931931E+02 -0.11766761016E+01  0.36820917216E+02  0.00000000000E+00 0. -1.
         11    1    4    4    0    0 -0.16353811690E+02  0.16584432155E+02 -0.29774656022E+01  0.23480967790E+02  0.51100000000E-03 0. -1.
        -11    1    4    4    0    0  0.46289782504E+01  0.11315318908E+02  0.55264209801E+01  0.13416602056E+02  0.51100000000E-03 0.  1.
         12    1    4    4    0    0 -0.16788299002E+02 -0.46318191318E+01 -0.13722792763E+01  0.17469512937E+02  0.00000000000E+00 0. -1.
</event>
<event>
 8    1  0.1271559E-006  0.9118800E+02  0.7816164E-02  0.1184000E+00
        -11   -1    0    0    0    0  0.00000000000E+00  0.00000000000E+00  0.45593999997E+02  0.45594000000E+02  0.51100000000E-03 0. -1.
         11   -1    0    0    0    0 -0.00000000000E+00 -0.00000000000E+00 -0.45593999997E+02  0.45594000000E+02  0.51100000000E-03 0.  1.
         23    2    1    2    0    0  0.00000000000E+00  0.00000000000E+00  0.35527136788E-14  0.91188000000E+02  0.91188000000E+02 0.  0.
    9900012    2    3    3    0    0  0.16453152180E+02 -0.85297940847E+01 -0.31816920988E+02  0.54367081150E+02  0.39999993099E+02 0.  0.
         12    1    3    3    0    0 -0.16453152180E+02  0.85297940847E+01  0.31816920988E+02  0.36820918850E+02  0.00000000000E+00 0. -1.
         11    1    4    4    0    0  0.18040348670E+02 -0.12739675104E+02 -0.13141803957E+02  0.25699426325E+02  0.51100000000E-03 0. -1.
        -11    1    4    4    0    0  0.68481080337E+01 -0.14254719412E+01 -0.17003826640E+02  0.18386371979E+02  0.51100000000E-03 0.  1.
         12    1    4    4    0    0 -0.84353045239E+01  0.56353529606E+01 -0.16712903905E+01  0.10281282847E+02  0.00000000000E+00 0. -1.
</event>
<event>
 8    1  0.1271559E-006  0.9118800E+02  0.7816164E-02  0.1184000E+00
        -11   -1    0    0    0    0  0.00000000000E+00  0.00000000000E+00  0.45593999997E+02  0.45594000000E+02  0.51100000000E-03 0.  1.
         11   -1    0    0    0    0 -0.00000000000E+00 -0.00000000000E+00 -0.45593999997E+02  0.45594000000E+02  0.51100000000E-03 0. -1.
         23    2    1    2    0    0 -0.44408920985E-15  0.00000000000E+00  0.00000000000E+00  0.91188000000E+02  0.91188000000E+02 0.  0.
    9900012    2    3    3    0    0 -0.29923865580E+01 -0.34648582614E+02 -0.12095554798E+02  0.54367067090E+02  0.39999961045E+02 0.  0.
        -12    1    3    3    0    0  0.29923865580E+01  0.34648582614E+02  0.12095554798E+02  0.36820932910E+02  0.00000000000E+00 0.  1.
         11    1    4    4    0    0  0.12687589348E+01  0.50212085340E+01 -0.59032630981E+01  0.78530758206E+01  0.51100000000E-03 0. -1.
        -11    1    4    4    0    0  0.86281896821E+01 -0.25163265766E+02 -0.50370764851E+01  0.27074115701E+02  0.51100000000E-03 0.  1.
        -12    1    4    4    0    0 -0.12889335175E+02 -0.14506525382E+02 -0.11552152148E+01  0.19439875568E+02  0.00000000000E+00 0.  1.
</event>
<event>
 8    1  0.1271559E-006  0.9118800E+02  0.7816164E-02  0.1184000E+00
        -11   -1    0    0    0    0  0.00000000000E+00  0.00000000000E+00  0.45593999997E+02  0.45594000000E+02  0.51100000000E-03 0.  1.
         11   -1    0    0    0    0 -0.00000000000E+00 -0.00000000000E+00 -0.45593999997E+02  0.45594000000E+02  0.51100000000E-03 0. -1.
         23    2    1    2    0    0  0.00000000000E+00  0.00000000000E+00  0.35527136788E-14  0.91188000000E+02  0.91188000000E+02 0.  0.
    9900012    2    3    3    0    0  0.17660779961E+02  0.21995420176E+02  0.23666012393E+02  0.54367057588E+02  0.39999939383E+02 0.  0.
         12    1    3    3    0    0 -0.17660779961E+02 -0.21995420176E+02 -0.23666012393E+02  0.36820942412E+02  0.00000000000E+00 0. -1.
         11    1    4    4    0    0  0.39555802002E+01  0.37766723566E+01 -0.20249280874E+01  0.58318267147E+01  0.51100000000E-03 0. -1.
        -11    1    4    4    0    0  0.12923744120E+02  0.19282432491E+02  0.40652322173E+00  0.23216387019E+02  0.51100000000E-03 0.  1.
        -12    1    4    4    0    0  0.78145564128E+00 -0.10636846713E+01  0.25284417258E+02  0.25318843854E+02  0.00000000000E+00 0.  1.
</event>
<event>
 8    1  0.1271559E-006  0.9118800E+02  0.7816164E-02  0.1184000E+00
        -11   -1    0    0    0    0  0.00000000000E+00  0.00000000000E+00  0.45593999997E+02  0.45594000000E+02  0.51100000000E-03 0.  1.
         11   -1    0    0    0    0 -0.00000000000E+00 -0.00000000000E+00 -0.45593999997E+02  0.45594000000E+02  0.51100000000E-03 0. -1.
         23    2    1    2    0    0  0.44408920985E-15 -0.88817841970E-15  0.71054273576E-14  0.91188000000E+02  0.91188000000E+02 0.  0.
    9900012    2    3    3    0    0  0.41318085634E+00  0.60224357242E+01  0.36322704954E+02  0.54367090918E+02  0.40000015365E+02 0.  0.
         12    1    3    3    0    0 -0.41318085634E+00 -0.60224357242E+01 -0.36322704954E+02  0.36820909082E+02  0.00000000000E+00 0. -1.
         11    1    4    4    0    0  0.55488989534E+00  0.38276331496E+01  0.41528365938E-01  0.38678680420E+01  0.51100000000E-03 0. -1.
        -11    1    4    4    0    0 -0.60457532391E+01 -0.51286959507E+01 -0.41774774479E+01  0.89613599678E+01  0.51100000000E-03 0.  1.
        -12    1    4    4    0    0  0.59040442001E+01  0.73234985253E+01  0.40458654036E+02  0.41537862908E+02  0.00000000000E+00 0.  1.
</event>
<event>
 8    1  0.1271559E-006  0.9118800E+02  0.7816164E-02  0.1184000E+00
        -11   -1    0    0    0    0  0.00000000000E+00  0.00000000000E+00  0.45593999997E+02  0.45594000000E+02  0.51100000000E-03 0. -1.
         11   -1    0    0    0    0 -0.00000000000E+00 -0.00000000000E+00 -0.45593999997E+02  0.45594000000E+02  0.51100000000E-03 0.  1.
         23    2    1    2    0    0  0.00000000000E+00  0.17763568394E-14  0.00000000000E+00  0.91188000000E+02  0.91188000000E+02 0.  0.
    9900012    2    3    3    0    0  0.33906759511E+02 -0.86076130190E+01  0.11490127462E+02  0.54367049829E+02  0.39999921695E+02 0.  0.
         12    1    3    3    0    0 -0.33906759511E+02  0.86076130190E+01 -0.11490127462E+02  0.36820950171E+02  0.00000000000E+00 0. -1.
         11    1    4    4    0    0  0.11448541514E+02  0.27141908351E+01  0.19099794234E+02  0.22432968478E+02  0.51100000000E-03 0. -1.
        -11    1    4    4    0    0  0.98402275299E+01 -0.16767287549E+01 -0.11851627537E+02  0.15495243551E+02  0.51100000000E-03 0.  1.
         12    1    4    4    0    0  0.12617990467E+02 -0.96450750991E+01  0.42419607656E+01  0.16438837800E+02  0.00000000000E+00 0. -1.
</event>
<event>
 8    1  0.1271559E-006  0.9118800E+02  0.7816164E-02  0.1184000E+00
        -11   -1    0    0    0    0  0.00000000000E+00  0.00000000000E+00  0.45593999997E+02  0.45594000000E+02  0.51100000000E-03 0.  1.
         11   -1    0    0    0    0 -0.00000000000E+00 -0.00000000000E+00 -0.45593999997E+02  0.45594000000E+02  0.51100000000E-03 0. -1.
         23    2    1    2    0    0  0.00000000000E+00  0.35527136788E-14  0.35527136788E-14  0.91188000000E+02  0.91188000000E+02 0.  0.
    9900012    2    3    3    0    0  0.60983700216E+01 -0.27936316574E+02 -0.23198169127E+02  0.54367041953E+02  0.39999903740E+02 0.  0.
        -12    1    3    3    0    0 -0.60983700216E+01  0.27936316574E+02  0.23198169127E+02  0.36820958047E+02  0.00000000000E+00 0.  1.
         11    1    4    4    0    0  0.70627459870E+01 -0.17821317762E+02 -0.24257356807E+02  0.30917650415E+02  0.51100000000E-03 0. -1.
        -11    1    4    4    0    0 -0.62646256077E+01 -0.69663949200E+01 -0.81160173113E+01  0.12395399527E+02  0.51100000000E-03 0.  1.
        -12    1    4    4    0    0  0.53002496423E+01 -0.31486038923E+01  0.91752049915E+01  0.11053992011E+02  0.00000000000E+00 0.  1.
</event>
<event>
 8    1  0.1271559E-006  0.9118800E+02  0.7816164E-02  0.1184000E+00
        -11   -1    0    0    0    0  0.00000000000E+00  0.00000000000E+00  0.45593999997E+02  0.45594000000E+02  0.51100000000E-03 0.  1.
         11   -1    0    0    0    0 -0.00000000000E+00 -0.00000000000E+00 -0.45593999997E+02  0.45594000000E+02  0.51100000000E-03 0. -1.
         23    2    1    2    0    0  0.00000000000E+00  0.71054273576E-14  0.00000000000E+00  0.91188000000E+02  0.91188000000E+02 0.  0.
    9900012    2    3    3    0    0  0.74027984599E+01  0.32981622551E+02 -0.14601049228E+02  0.54367088961E+02  0.40000010905E+02 0.  0.
        -12    1    3    3    0    0 -0.74027984599E+01 -0.32981622551E+02  0.14601049228E+02  0.36820911039E+02  0.00000000000E+00 0.  1.
         11    1    4    4    0    0  0.16176158984E+01  0.13293599239E+02 -0.15720040545E+02  0.20650814437E+02  0.51100000000E-03 0. -1.
        -11    1    4    4    0    0  0.11155172840E+02  0.19419043901E+02 -0.74486444565E+01  0.23601259535E+02  0.51100000000E-03 0.  1.
        -12    1    4    4    0    0 -0.53699902780E+01  0.26897941134E+00  0.85676357727E+01  0.10115014990E+02  0.00000000000E+00 0.  1.
</event>
<event>
 8    1  0.1271559E-006  0.9118800E+02  0.7816164E-02  0.1184000E+00
        -11   -1    0    0    0    0  0.00000000000E+00  0.00000000000E+00  0.45593999997E+02  0.45594000000E+02  0.51100000000E-03 0. -1.
         11   -1    0    0    0    0 -0.00000000000E+00 -0.00000000000E+00 -0.45593999997E+02  0.45594000000E+02  0.51100000000E-03 0.  1.
         23    2    1    2    0    0  0.17763568394E-14  0.00000000000E+00  0.44408920985E-15  0.91188000000E+02  0.91188000000E+02 0.  0.
    9900012    2    3    3    0    0  0.12959345092E+02  0.34323695641E+02 -0.31175626704E+01  0.54367083327E+02  0.39999998061E+02 0.  0.
        -12    1    3    3    0    0 -0.12959345092E+02 -0.34323695641E+02  0.31175626704E+01  0.36820916673E+02  0.00000000000E+00 0.  1.
         11    1    4    4    0    0  0.21313170123E+02  0.10776824616E+02 -0.39508110900E+01  0.24207438486E+02  0.51100000000E-03 0. -1.
        -11    1    4    4    0    0 -0.85803603378E+01  0.12535680295E+02  0.78514756022E+01  0.17100044836E+02  0.51100000000E-03 0.  1.
         12    1    4    4    0    0  0.22653530635E+00  0.11011190729E+02 -0.70182271826E+01  0.13059600006E+02  0.00000000000E+00 0. -1.
</event>
<event>
 8    1  0.1271559E-006  0.9118800E+02  0.7816164E-02  0.1184000E+00
        -11   -1    0    0    0    0  0.00000000000E+00  0.00000000000E+00  0.45593999997E+02  0.45594000000E+02  0.51100000000E-03 0. -1.
         11   -1    0    0    0    0 -0.00000000000E+00 -0.00000000000E+00 -0.45593999997E+02  0.45594000000E+02  0.51100000000E-03 0.  1.
         23    2    1    2    0    0  0.00000000000E+00  0.00000000000E+00  0.00000000000E+00  0.91188000000E+02  0.91188000000E+02 0.  0.
    9900012    2    3    3    0    0  0.65890887215E+01 -0.12082544628E+02 -0.34152242780E+02  0.54367086625E+02  0.40000005580E+02 0.  0.
         12    1    3    3    0    0 -0.65890887215E+01  0.12082544628E+02  0.34152242780E+02  0.36820913375E+02  0.00000000000E+00 0. -1.
         11    1    4    4    0    0  0.89106587107E+01 -0.15262190589E+02 -0.19071140231E+02  0.26000820952E+02  0.51100000000E-03 0. -1.
        -11    1    4    4    0    0 -0.20947116626E+01 -0.96861404822E+01 -0.11136588135E+02  0.14907472286E+02  0.51100000000E-03 0.  1.
         12    1    4    4    0    0 -0.22685832657E+00  0.12865786443E+02 -0.39445144132E+01  0.13458793387E+02  0.00000000000E+00 0. -1.
</event>
<event>
 8    1  0.1271559E-006  0.9118800E+02  0.7816164E-02  0.1184000E+00
        -11   -1    0    0    0    0  0.00000000000E+00  0.00000000000E+00  0.45593999997E+02  0.45594000000E+02  0.51100000000E-03 0.  1.
         11   -1    0    0    0    0 -0.00000000000E+00 -0.00000000000E+00 -0.45593999997E+02  0.45594000000E+02  0.51100000000E-03 0. -1.
         23    2    1    2    0    0 -0.17763568394E-14  0.00000000000E+00 -0.35527136788E-14  0.91188000000E+02  0.91188000000E+02 0.  0.
    9900012    2    3    3    0    0 -0.13079540086E+02  0.15110588032E+02  0.30925313817E+02  0.54367091887E+02  0.40000017576E+02 0.  0.
         12    1    3    3    0    0  0.13079540086E+02 -0.15110588032E+02 -0.30925313817E+02  0.36820908113E+02  0.00000000000E+00 0. -1.
         11    1    4    4    0    0 -0.18340686684E+02 -0.77243390601E+01  0.94640915107E+01  0.22036679204E+02  0.51100000000E-03 0. -1.
        -11    1    4    4    0    0  0.53018725736E+00  0.67174462138E+01  0.97559682079E+01  0.11856816525E+02  0.51100000000E-03 0.  1.
         12    1    4    4    0    0  0.47309593411E+01  0.16117480878E+02  0.11705254099E+02  0.20473596159E+02  0.00000000000E+00 0. -1.
</event>
<event>
 8    1  0.1271559E-006  0.9118800E+02  0.7816164E-02  0.1184000E+00
        -11   -1    0    0    0    0  0.00000000000E+00  0.00000000000E+00  0.45593999997E+02  0.45594000000E+02  0.51100000000E-03 0.  1.
         11   -1    0    0    0    0 -0.00000000000E+00 -0.00000000000E+00 -0.45593999997E+02  0.45594000000E+02  0.51100000000E-03 0. -1.
         23    2    1    2    0    0 -0.35527136788E-14  0.35527136788E-14 -0.44408920985E-15  0.91188000000E+02  0.91188000000E+02 0.  0.
    9900012    2    3    3    0    0  0.23422242283E+02 -0.28290450650E+02 -0.26130683529E+01  0.54367093469E+02  0.40000021180E+02 0.  0.
        -12    1    3    3    0    0 -0.23422242283E+02  0.28290450650E+02  0.26130683529E+01  0.36820906531E+02  0.00000000000E+00 0.  1.
         11    1    4    4    0    0  0.17395393256E+02 -0.33394255985E+02 -0.40138827789E+01  0.37866704300E+02  0.51100000000E-03 0. -1.
        -11    1    4    4    0    0  0.29235958647E+01  0.95353882227E+01  0.36786706791E+01  0.10630317943E+02  0.51100000000E-03 0.  1.
        -12    1    4    4    0    0  0.31032531625E+01 -0.44315828878E+01 -0.22778562531E+01  0.58700712255E+01  0.00000000000E+00 0.  1.
</event>
<event>
 8    1  0.1271559E-006  0.9118800E+02  0.7816164E-02  0.1184000E+00
        -11   -1    0    0    0    0  0.00000000000E+00  0.00000000000E+00  0.45593999997E+02  0.45594000000E+02  0.51100000000E-03 0.  1.
         11   -1    0    0    0    0 -0.00000000000E+00 -0.00000000000E+00 -0.45593999997E+02  0.45594000000E+02  0.51100000000E-03 0. -1.
         23    2    1    2    0    0  0.00000000000E+00  0.35527136788E-14 -0.24980018054E-15  0.91188000000E+02  0.91188000000E+02 0.  0.
    9900012    2    3    3    0    0 -0.32215877600E+02  0.17829593299E+02  0.14908391233E+00  0.54367090278E+02  0.40000013907E+02 0.  0.
         12    1    3    3    0    0  0.32215877600E+02 -0.17829593299E+02 -0.14908391233E+00  0.36820909722E+02  0.00000000000E+00 0. -1.
         11    1    4    4    0    0 -0.16912034953E+02  0.18482306542E+02 -0.50564008809E+01  0.25557381937E+02  0.51100000000E-03 0. -1.
        -11    1    4    4    0    0 -0.16638310150E+02  0.13626069901E+01  0.12673891725E+02  0.20959904441E+02  0.51100000000E-03 0.  1.
        -12    1    4    4    0    0  0.13344675032E+01 -0.20153202330E+01 -0.74684069321E+01  0.78498038996E+01  0.00000000000E+00 0.  1.
</event>
<event>
 8    1  0.1271559E-006  0.9118800E+02  0.7816164E-02  0.1184000E+00
        -11   -1    0    0    0    0  0.00000000000E+00  0.00000000000E+00  0.45593999997E+02  0.45594000000E+02  0.51100000000E-03 0. -1.
         11   -1    0    0    0    0 -0.00000000000E+00 -0.00000000000E+00 -0.45593999997E+02  0.45594000000E+02  0.51100000000E-03 0.  1.
         23    2    1    2    0    0  0.00000000000E+00  0.00000000000E+00  0.44408920985E-15  0.91188000000E+02  0.91188000000E+02 0.  0.
    9900012    2    3    3    0    0  0.20790258384E+02 -0.30196686336E+02 -0.34211879552E+01  0.54367092402E+02  0.40000018749E+02 0.  0.
        -12    1    3    3    0    0 -0.20790258384E+02  0.30196686336E+02  0.34211879552E+01  0.36820907598E+02  0.00000000000E+00 0.  1.
         11    1    4    4    0    0  0.12569402343E+02  0.13657047753E+01  0.99786548908E+01  0.16106786721E+02  0.51100000000E-03 0. -1.
        -11    1    4    4    0    0  0.33036106165E+01 -0.20044324682E+02 -0.15511629406E+02  0.25559723045E+02  0.51100000000E-03 0.  1.
         12    1    4    4    0    0  0.49172454244E+01 -0.11518066428E+02  0.21117865597E+01  0.12700582636E+02  0.00000000000E+00 0. -1.
</event>
<event>
 8    1  0.1271559E-006  0.9118800E+02  0.7816164E-02  0.1184000E+00
        -11   -1    0    0    0    0  0.00000000000E+00  0.00000000000E+00  0.45593999997E+02  0.45594000000E+02  0.51100000000E-03 0.  1.
         11   -1    0    0    0    0 -0.00000000000E+00 -0.00000000000E+00 -0.45593999997E+02  0.45594000000E+02  0.51100000000E-03 0. -1.
         23    2    1    2    0    0  0.00000000000E+00  0.00000000000E+00  0.00000000000E+00  0.91188000000E+02  0.91188000000E+02 0.  0.
    9900012    2    3    3    0    0  0.31971236267E+02 -0.47290860208E+01  0.17642292072E+02  0.54367154374E+02  0.40000160027E+02 0.  0.
        -12    1    3    3    0    0 -0.31971236267E+02  0.47290860208E+01 -0.17642292072E+02  0.36820845626E+02  0.00000000000E+00 0.  1.
         11    1    4    4    0    0  0.20135004804E+02 -0.11235741516E+02 -0.18400630450E+01  0.23131064353E+02  0.51100000000E-03 0. -1.
        -11    1    4    4    0    0  0.21477367103E+01 -0.25406999588E+01 -0.34218038461E+01  0.47724910769E+01  0.51100000000E-03 0.  1.
        -12    1    4    4    0    0  0.96884947530E+01  0.90473554536E+01  0.22904158963E+02  0.26463598944E+02  0.00000000000E+00 0.  1.
</event>
<event>
 8    1  0.1271559E-006  0.9118800E+02  0.7816164E-02  0.1184000E+00
        -11   -1    0    0    0    0  0.00000000000E+00  0.00000000000E+00  0.45593999997E+02  0.45594000000E+02  0.51100000000E-03 0.  1.
         11   -1    0    0    0    0 -0.00000000000E+00 -0.00000000000E+00 -0.45593999997E+02  0.45594000000E+02  0.51100000000E-03 0. -1.
         23    2    1    2    0    0  0.17763568394E-14  0.00000000000E+00 -0.35527136788E-14  0.91188000000E+02  0.91188000000E+02 0.  0.
    9900012    2    3    3    0    0 -0.11605127958E+02  0.23185024362E+02  0.26144897676E+02  0.54367081705E+02  0.39999994364E+02 0.  0.
         12    1    3    3    0    0  0.11605127958E+02 -0.23185024362E+02 -0.26144897676E+02  0.36820918295E+02  0.00000000000E+00 0. -1.
         11    1    4    4    0    0 -0.17796949167E+02  0.14371747230E+02 -0.28938560897E+01  0.23057600080E+02  0.51100000000E-03 0. -1.
        -11    1    4    4    0    0  0.22316383334E+01  0.70063572116E+01  0.18288868843E+02  0.19711721762E+02  0.51100000000E-03 0.  1.
         12    1    4    4    0    0  0.39601828753E+01  0.18069199200E+01  0.10749884923E+02  0.11597759864E+02  0.00000000000E+00 0. -1.
</event>
<event>
 8    1  0.1271559E-006  0.9118800E+02  0.7816164E-02  0.1184000E+00
        -11   -1    0    0    0    0  0.00000000000E+00  0.00000000000E+00  0.45593999997E+02  0.45594000000E+02  0.51100000000E-03 0.  1.
         11   -1    0    0    0    0 -0.00000000000E+00 -0.00000000000E+00 -0.45593999997E+02  0.45594000000E+02  0.51100000000E-03 0. -1.
         23    2    1    2    0    0 -0.44408920985E-15  0.00000000000E+00  0.00000000000E+00  0.91188000000E+02  0.91188000000E+02 0.  0.
    9900012    2    3    3    0    0  0.33322183556E+01  0.96646011785E+01 -0.35373321395E+02  0.54367081195E+02  0.39999993201E+02 0.  0.
        -12    1    3    3    0    0 -0.33322183556E+01 -0.96646011785E+01  0.35373321395E+02  0.36820918805E+02  0.00000000000E+00 0.  1.
         11    1    4    4    0    0 -0.36232142632E+01 -0.79970618337E+01 -0.16449316930E+02  0.18645661890E+02  0.51100000000E-03 0.  1.
        -11    1    4    4    0    0  0.34817528563E+01  0.21877871266E+02 -0.20343729572E+02  0.30077087413E+02  0.51100000000E-03 0. -1.
        -12    1    4    4    0    0  0.34736797625E+01 -0.42162082536E+01  0.14197251079E+01  0.56443318925E+01  0.00000000000E+00 0.  1.
</event>
<event>
 8    1  0.1271559E-006  0.9118800E+02  0.7816164E-02  0.1184000E+00
        -11   -1    0    0    0    0  0.00000000000E+00  0.00000000000E+00  0.45593999997E+02  0.45594000000E+02  0.51100000000E-03 0. -1.
         11   -1    0    0    0    0 -0.00000000000E+00 -0.00000000000E+00 -0.45593999997E+02  0.45594000000E+02  0.51100000000E-03 0.  1.
         23    2    1    2    0    0  0.35527136788E-14  0.88817841970E-15  0.00000000000E+00  0.91188000000E+02  0.91188000000E+02 0.  0.
    9900012    2    3    3    0    0  0.21352238223E+02  0.49816615874E+01  0.29581144074E+02  0.54367094063E+02  0.40000022536E+02 0.  0.
        -12    1    3    3    0    0 -0.21352238223E+02 -0.49816615874E+01 -0.29581144074E+02  0.36820905937E+02  0.00000000000E+00 0.  1.
         11    1    4    4    0    0 -0.10195082369E+02 -0.12769841423E+01  0.11219405018E+02  0.15213331070E+02  0.51100000000E-03 0. -1.
        -11    1    4    4    0    0  0.10604072596E+02  0.61863055288E+01  0.17055373195E+01  0.12394579038E+02  0.51100000000E-03 0.  1.
         12    1    4    4    0    0  0.20943247996E+02  0.72340200988E-01  0.16656201736E+02  0.26759183956E+02  0.00000000000E+00 0. -1.
</event>
<event>
 8    1  0.1271559E-006  0.9118800E+02  0.7816164E-02  0.1184000E+00
        -11   -1    0    0    0    0  0.00000000000E+00  0.00000000000E+00  0.45593999997E+02  0.45594000000E+02  0.51100000000E-03 0. -1.
         11   -1    0    0    0    0 -0.00000000000E+00 -0.00000000000E+00 -0.45593999997E+02  0.45594000000E+02  0.51100000000E-03 0.  1.
         23    2    1    2    0    0  0.17763568394E-14  0.35527136788E-14  0.35527136788E-14  0.91188000000E+02  0.91188000000E+02 0.  0.
    9900012    2    3    3    0    0  0.95582946187E+01  0.25141648768E+02 -0.25145883710E+02  0.54367096068E+02  0.40000027107E+02 0.  0.
         12    1    3    3    0    0 -0.95582946187E+01 -0.25141648768E+02  0.25145883710E+02  0.36820903932E+02  0.00000000000E+00 0. -1.
         11    1    4    4    0    0  0.62248830451E+00  0.26852680016E+01 -0.12951919045E+02  0.13241992415E+02  0.51100000000E-03 0. -1.
        -11    1    4    4    0    0  0.17966341122E+02  0.19806775857E+02 -0.15784358072E+02  0.31052274364E+02  0.51100000000E-03 0.  1.
         12    1    4    4    0    0 -0.90305348074E+01  0.26496049091E+01  0.35903934063E+01  0.10072829289E+02  0.00000000000E+00 0. -1.
</event>
<event>
 8    1  0.1271559E-006  0.9118800E+02  0.7816164E-02  0.1184000E+00
        -11   -1    0    0    0    0  0.00000000000E+00  0.00000000000E+00  0.45593999997E+02  0.45594000000E+02  0.51100000000E-03 0.  1.
         11   -1    0    0    0    0 -0.00000000000E+00 -0.00000000000E+00 -0.45593999997E+02  0.45594000000E+02  0.51100000000E-03 0. -1.
         23    2    1    2    0    0 -0.10408340856E-15  0.00000000000E+00 -0.35527136788E-14  0.91188000000E+02  0.91188000000E+02 0.  0.
    9900012    2    3    3    0    0  0.97286814382E-02 -0.36334146953E+02 -0.59672326289E+01  0.54367106547E+02  0.40000050995E+02 0.  0.
        -12    1    3    3    0    0 -0.97286814382E-02  0.36334146953E+02  0.59672326289E+01  0.36820893453E+02  0.00000000000E+00 0.  1.
         11    1    4    4    0    0  0.53242633574E+00 -0.19723854132E+02 -0.21663829692E+02  0.29302481410E+02  0.51100000000E-03 0. -1.
        -11    1    4    4    0    0  0.84731982928E-01 -0.16635118705E+02  0.10155369283E+02  0.19490148264E+02  0.51100000000E-03 0.  1.
         12    1    4    4    0    0 -0.60742963723E+00  0.24825883455E-01  0.55412277805E+01  0.55744768727E+01  0.00000000000E+00 0. -1.
</event>
<event>
 8    1  0.1271559E-006  0.9118800E+02  0.7816164E-02  0.1184000E+00
        -11   -1    0    0    0    0  0.00000000000E+00  0.00000000000E+00  0.45593999997E+02  0.45594000000E+02  0.51100000000E-03 0.  1.
         11   -1    0    0    0    0 -0.00000000000E+00 -0.00000000000E+00 -0.45593999997E+02  0.45594000000E+02  0.51100000000E-03 0. -1.
         23    2    1    2    0    0  0.00000000000E+00 -0.22204460493E-15  0.00000000000E+00  0.91188000000E+02  0.91188000000E+02 0.  0.
    9900012    2    3    3    0    0 -0.12242594697E+02  0.18092189169E+01 -0.34678892862E+02  0.54367081922E+02  0.39999994857E+02 0.  0.
        -12    1    3    3    0    0  0.12242594697E+02 -0.18092189169E+01  0.34678892862E+02  0.36820918078E+02  0.00000000000E+00 0.  1.
         11    1    4    4    0    0 -0.19973508728E+02  0.52064347701E+01 -0.14967697168E+02  0.25496665913E+02  0.51100000000E-03 0. -1.
        -11    1    4    4    0    0  0.76967130838E+01  0.21084163132E+01 -0.21617923685E+02  0.23043858973E+02  0.51100000000E-03 0.  1.
         12    1    4    4    0    0  0.34200947528E-01 -0.55056321665E+01  0.19067279909E+01  0.58265570356E+01  0.00000000000E+00 0. -1.
</event>
<event>
 8    1  0.1271559E-006  0.9118800E+02  0.7816164E-02  0.1184000E+00
        -11   -1    0    0    0    0  0.00000000000E+00  0.00000000000E+00  0.45593999997E+02  0.45594000000E+02  0.51100000000E-03 0.  1.
         11   -1    0    0    0    0 -0.00000000000E+00 -0.00000000000E+00 -0.45593999997E+02  0.45594000000E+02  0.51100000000E-03 0. -1.
         23    2    1    2    0    0  0.10658141036E-13  0.00000000000E+00  0.35527136788E-14  0.91188000000E+02  0.91188000000E+02 0.  0.
    9900012    2    3    3    0    0  0.25387195974E+02  0.14177384250E+02  0.22589215135E+02  0.54367074101E+02  0.39999977028E+02 0.  0.
         12    1    3    3    0    0 -0.25387195974E+02 -0.14177384250E+02 -0.22589215135E+02  0.36820925899E+02  0.00000000000E+00 0. -1.
         11    1    4    4    0    0  0.21028296140E+02  0.30397938046E+01  0.74042210960E+01  0.22500046116E+02  0.51100000000E-03 0.  1.
        -11    1    4    4    0    0 -0.76091962122E+01 -0.29071625512E+01  0.28615354141E+00  0.81506653229E+01  0.51100000000E-03 0. -1.
        -12    1    4    4    0    0  0.11968096046E+02  0.14044752997E+02  0.14898840498E+02  0.23716362662E+02  0.00000000000E+00 0.  1.
</event>
<event>
 8    1  0.1271559E-006  0.9118800E+02  0.7816164E-02  0.1184000E+00
        -11   -1    0    0    0    0  0.00000000000E+00  0.00000000000E+00  0.45593999997E+02  0.45594000000E+02  0.51100000000E-03 0. -1.
         11   -1    0    0    0    0 -0.00000000000E+00 -0.00000000000E+00 -0.45593999997E+02  0.45594000000E+02  0.51100000000E-03 0.  1.
         23    2    1    2    0    0  0.17763568394E-14  0.00000000000E+00  0.00000000000E+00  0.91188000000E+02  0.91188000000E+02 0.  0.
    9900012    2    3    3    0    0  0.11142651934E+02 -0.34957677876E+02  0.30955297187E+01  0.54367078789E+02  0.39999987714E+02 0.  0.
        -12    1    3    3    0    0 -0.11142651934E+02  0.34957677876E+02 -0.30955297187E+01  0.36820921211E+02  0.00000000000E+00 0.  1.
         11    1    4    4    0    0  0.17271035351E+01 -0.58735359247E+01  0.57046560016E+01  0.83680589886E+01  0.51100000000E-03 0. -1.
        -11    1    4    4    0    0  0.14232656323E+02 -0.37071701313E+01  0.94611477917E+01  0.17487851045E+02  0.51100000000E-03 0.  1.
        -12    1    4    4    0    0 -0.48171079241E+01 -0.25376971820E+02 -0.12070274075E+02  0.28511168755E+02  0.00000000000E+00 0.  1.
</event>
<event>
 8    1  0.1271559E-006  0.9118800E+02  0.7816164E-02  0.1184000E+00
        -11   -1    0    0    0    0  0.00000000000E+00  0.00000000000E+00  0.45593999997E+02  0.45594000000E+02  0.51100000000E-03 0.  1.
         11   -1    0    0    0    0 -0.00000000000E+00 -0.00000000000E+00 -0.45593999997E+02  0.45594000000E+02  0.51100000000E-03 0. -1.
         23    2    1    2    0    0  0.00000000000E+00  0.00000000000E+00  0.00000000000E+00  0.91188000000E+02  0.91188000000E+02 0.  0.
    9900012    2    3    3    0    0 -0.16843270281E+02  0.24422266957E+02  0.21809031951E+02  0.54367126141E+02  0.40000095664E+02 0.  0.
        -12    1    3    3    0    0  0.16843270281E+02 -0.24422266957E+02 -0.21809031951E+02  0.36820873859E+02  0.00000000000E+00 0.  1.
         11    1    4    4    0    0 -0.19113046075E+01 -0.42802690558E+01  0.12538327305E+02  0.13385941893E+02  0.51100000000E-03 0. -1.
        -11    1    4    4    0    0 -0.11482446751E+02  0.18854198185E+02  0.17109761783E+02  0.27929756911E+02  0.51100000000E-03 0.  1.
         12    1    4    4    0    0 -0.34495189224E+01  0.98483378273E+01 -0.78390571361E+01  0.13051427337E+02  0.00000000000E+00 0. -1.
</event>
<event>
 8    1  0.1271559E-006  0.9118800E+02  0.7816164E-02  0.1184000E+00
        -11   -1    0    0    0    0  0.00000000000E+00  0.00000000000E+00  0.45593999997E+02  0.45594000000E+02  0.51100000000E-03 0.  1.
         11   -1    0    0    0    0 -0.00000000000E+00 -0.00000000000E+00 -0.45593999997E+02  0.45594000000E+02  0.51100000000E-03 0. -1.
         23    2    1    2    0    0  0.00000000000E+00  0.00000000000E+00 -0.35527136788E-14  0.91188000000E+02  0.91188000000E+02 0.  0.
    9900012    2    3    3    0    0 -0.33072610941E+02 -0.35548093239E+01 -0.15790687773E+02  0.54367080889E+02  0.39999992504E+02 0.  0.
        -12    1    3    3    0    0  0.33072610941E+02  0.35548093239E+01  0.15790687773E+02  0.36820919111E+02  0.00000000000E+00 0.  1.
         11    1    4    4    0    0 -0.71918696923E+01 -0.40084933123E+01 -0.57842478222E+01  0.10062232925E+02  0.51100000000E-03 0. -1.
        -11    1    4    4    0    0 -0.91646323150E+01  0.46491492473E+01  0.12356492234E+02  0.16071340168E+02  0.51100000000E-03 0.  1.
        -12    1    4    4    0    0 -0.16716108934E+02 -0.41954652588E+01 -0.22362932184E+02  0.28233507797E+02  0.00000000000E+00 0.  1.
</event>
<event>
 8    1  0.1271559E-006  0.9118800E+02  0.7816164E-02  0.1184000E+00
        -11   -1    0    0    0    0  0.00000000000E+00  0.00000000000E+00  0.45593999997E+02  0.45594000000E+02  0.51100000000E-03 0.  1.
         11   -1    0    0    0    0 -0.00000000000E+00 -0.00000000000E+00 -0.45593999997E+02  0.45594000000E+02  0.51100000000E-03 0. -1.
         23    2    1    2    0    0  0.66613381478E-15  0.00000000000E+00  0.00000000000E+00  0.91188000000E+02  0.91188000000E+02 0.  0.
    9900012    2    3    3    0    0  0.26306219039E+00 -0.24081228248E+02  0.27853266957E+02  0.54367092409E+02  0.40000018765E+02 0.  0.
         12    1    3    3    0    0 -0.26306219039E+00  0.24081228248E+02 -0.27853266957E+02  0.36820907591E+02  0.00000000000E+00 0. -1.
         11    1    4    4    0    0  0.23679972184E+01 -0.23807926267E+02  0.28844805096E+01  0.24098651250E+02  0.51100000000E-03 0. -1.
        -11    1    4    4    0    0 -0.95771399867E+01 -0.30594139453E+00  0.15225302359E+02  0.17989581503E+02  0.51100000000E-03 0.  1.
         12    1    4    4    0    0  0.74722049588E+01  0.32639414284E-01  0.97434840890E+01  0.12278859657E+02  0.00000000000E+00 0. -1.
</event>
<event>
 8    1  0.1271559E-006  0.9118800E+02  0.7816164E-02  0.1184000E+00
        -11   -1    0    0    0    0  0.00000000000E+00  0.00000000000E+00  0.45593999997E+02  0.45594000000E+02  0.51100000000E-03 0.  1.
         11   -1    0    0    0    0 -0.00000000000E+00 -0.00000000000E+00 -0.45593999997E+02  0.45594000000E+02  0.51100000000E-03 0. -1.
         23    2    1    2    0    0  0.35527136788E-14  0.35527136788E-14  0.00000000000E+00  0.91188000000E+02  0.91188000000E+02 0.  0.
    9900012    2    3    3    0    0  0.22533224590E+02  0.28787143127E+02 -0.43971202166E+01  0.54367075432E+02  0.39999980062E+02 0.  0.
         12    1    3    3    0    0 -0.22533224590E+02 -0.28787143127E+02  0.43971202166E+01  0.36820924568E+02  0.00000000000E+00 0. -1.
         11    1    4    4    0    0 -0.33812454440E+01 -0.50765469364E+01 -0.32355961494E+01  0.69045805269E+01  0.51100000000E-03 0. -1.
        -11    1    4    4    0    0 -0.11153049731E+01  0.95689122666E+01 -0.51102714688E+01  0.10905175922E+02  0.51100000000E-03 0.  1.
        -12    1    4    4    0    0  0.27029775007E+02  0.24294777797E+02  0.39487474015E+01  0.36557318983E+02  0.00000000000E+00 0.  1.
</event>
<event>
 8    1  0.1271559E-006  0.9118800E+02  0.7816164E-02  0.1184000E+00
        -11   -1    0    0    0    0  0.00000000000E+00  0.00000000000E+00  0.45593999997E+02  0.45594000000E+02  0.51100000000E-03 0. -1.
         11   -1    0    0    0    0 -0.00000000000E+00 -0.00000000000E+00 -0.45593999997E+02  0.45594000000E+02  0.51100000000E-03 0.  1.
         23    2    1    2    0    0 -0.35527136788E-14 -0.35527136788E-14 -0.17763568394E-14  0.91188000000E+02  0.91188000000E+02 0.  0.
    9900012    2    3    3    0    0 -0.27997840744E+02 -0.18630923673E+02 -0.14992936298E+02  0.54367101830E+02  0.40000040242E+02 0.  0.
         12    1    3    3    0    0  0.27997840744E+02  0.18630923673E+02  0.14992936298E+02  0.36820898170E+02  0.00000000000E+00 0. -1.
         11    1    4    4    0    0 -0.19486024712E+01 -0.19989041663E+02 -0.36019409164E+01  0.20404235267E+02  0.51100000000E-03 0. -1.
        -11    1    4    4    0    0 -0.12429594199E+02 -0.47537377002E+01 -0.13417648358E+02  0.18897780869E+02  0.51100000000E-03 0.  1.
         12    1    4    4    0    0 -0.13619644074E+02  0.61118556904E+01  0.20266529767E+01  0.15065085694E+02  0.00000000000E+00 0. -1.
</event>
<event>
 8    1  0.1271559E-006  0.9118800E+02  0.7816164E-02  0.1184000E+00
        -11   -1    0    0    0    0  0.00000000000E+00  0.00000000000E+00  0.45593999997E+02  0.45594000000E+02  0.51100000000E-03 0.  1.
         11   -1    0    0    0    0 -0.00000000000E+00 -0.00000000000E+00 -0.45593999997E+02  0.45594000000E+02  0.51100000000E-03 0. -1.
         23    2    1    2    0    0 -0.22204460493E-14  0.00000000000E+00  0.66613381478E-15  0.91188000000E+02  0.91188000000E+02 0.  0.
    9900012    2    3    3    0    0 -0.12716065005E+01 -0.36794845349E+02 -0.55624391797E+00  0.54366986507E+02  0.39999777340E+02 0.  0.
        -12    1    3    3    0    0  0.12716065005E+01  0.36794845349E+02  0.55624391797E+00  0.36821013493E+02  0.00000000000E+00 0.  1.
         11    1    4    4    0    0 -0.16677542627E+02 -0.15906080205E+02  0.38102650122E+01  0.23359407854E+02  0.51100000000E-03 0. -1.
        -11    1    4    4    0    0 -0.13588467852E+01 -0.10743098799E+02  0.41601429968E+00  0.10836683282E+02  0.51100000000E-03 0.  1.
         12    1    4    4    0    0  0.16764782911E+02 -0.10145666345E+02 -0.47825232298E+01  0.20170895372E+02  0.00000000000E+00 0. -1.
</event>
<event>
 8    1  0.1271559E-006  0.9118800E+02  0.7816164E-02  0.1184000E+00
        -11   -1    0    0    0    0  0.00000000000E+00  0.00000000000E+00  0.45593999997E+02  0.45594000000E+02  0.51100000000E-03 0. -1.
         11   -1    0    0    0    0 -0.00000000000E+00 -0.00000000000E+00 -0.45593999997E+02  0.45594000000E+02  0.51100000000E-03 0.  1.
         23    2    1    2    0    0 -0.17763568394E-14  0.17763568394E-14  0.00000000000E+00  0.91188000000E+02  0.91188000000E+02 0.  0.
    9900012    2    3    3    0    0 -0.10885295064E+02  0.82996986647E+01 -0.34181960768E+02  0.54367067251E+02  0.39999961413E+02 0.  0.
         12    1    3    3    0    0  0.10885295064E+02 -0.82996986647E+01  0.34181960768E+02  0.36820932749E+02  0.00000000000E+00 0. -1.
         11    1    4    4    0    0 -0.60162635215E+00 -0.62057253300E+01  0.14092794306E+01  0.63921084091E+01  0.51100000000E-03 0. -1.
        -11    1    4    4    0    0  0.23393310256E+01  0.13879664881E+02 -0.31806770047E+02  0.34782009545E+02  0.51100000000E-03 0.  1.
         12    1    4    4    0    0 -0.12622999737E+02  0.62575911339E+00 -0.37844701511E+01  0.13192949297E+02  0.00000000000E+00 0. -1.
</event>
<event>
 8    1  0.1271559E-006  0.9118800E+02  0.7816164E-02  0.1184000E+00
        -11   -1    0    0    0    0  0.00000000000E+00  0.00000000000E+00  0.45593999997E+02  0.45594000000E+02  0.51100000000E-03 0.  1.
         11   -1    0    0    0    0 -0.00000000000E+00 -0.00000000000E+00 -0.45593999997E+02  0.45594000000E+02  0.51100000000E-03 0. -1.
         23    2    1    2    0    0  0.35527136788E-14  0.17763568394E-14  0.00000000000E+00  0.91188000000E+02  0.91188000000E+02 0.  0.
    9900012    2    3    3    0    0 -0.23508996372E+02  0.11535527225E+02  0.25884968806E+02  0.54367178325E+02  0.40000214626E+02 0.  0.
         12    1    3    3    0    0  0.23508996372E+02 -0.11535527225E+02 -0.25884968806E+02  0.36820821675E+02  0.00000000000E+00 0. -1.
         11    1    4    4    0    0 -0.57267878094E+01  0.50639437579E+01 -0.36850539568E+01  0.84864154932E+01  0.51100000000E-03 0. -1.
        -11    1    4    4    0    0  0.31483537625E+01  0.10876539140E+02  0.18767135555E+02  0.21918408069E+02  0.51100000000E-03 0.  1.
         12    1    4    4    0    0 -0.20930562325E+02 -0.44049556731E+01  0.10802887207E+02  0.23962354762E+02  0.00000000000E+00 0. -1.
</event>
<event>
 8    1  0.1271559E-006  0.9118800E+02  0.7816164E-02  0.1184000E+00
        -11   -1    0    0    0    0  0.00000000000E+00  0.00000000000E+00  0.45593999997E+02  0.45594000000E+02  0.51100000000E-03 0. -1.
         11   -1    0    0    0    0 -0.00000000000E+00 -0.00000000000E+00 -0.45593999997E+02  0.45594000000E+02  0.51100000000E-03 0.  1.
         23    2    1    2    0    0  0.35527136788E-14  0.35527136788E-14  0.00000000000E+00  0.91188000000E+02  0.91188000000E+02 0.  0.
    9900012    2    3    3    0    0  0.22580544168E+02  0.27313704915E+02  0.99930122532E+01  0.54367085495E+02  0.40000003002E+02 0.  0.
        -12    1    3    3    0    0 -0.22580544168E+02 -0.27313704915E+02 -0.99930122532E+01  0.36820914505E+02  0.00000000000E+00 0.  1.
         11    1    4    4    0    0  0.27759024610E+02  0.11595727020E+02  0.76159583986E+01  0.31032678824E+02  0.51100000000E-03 0. -1.
        -11    1    4    4    0    0 -0.72742251392E+01  0.95231949801E+01  0.82466644074E+01  0.14546926415E+02  0.51100000000E-03 0.  1.
        -12    1    4    4    0    0  0.20957446970E+01  0.61947829151E+01 -0.58696105528E+01  0.87874802556E+01  0.00000000000E+00 0.  1.
</event>
<event>
 8    1  0.1271559E-006  0.9118800E+02  0.7816164E-02  0.1184000E+00
        -11   -1    0    0    0    0  0.00000000000E+00  0.00000000000E+00  0.45593999997E+02  0.45594000000E+02  0.51100000000E-03 0. -1.
         11   -1    0    0    0    0 -0.00000000000E+00 -0.00000000000E+00 -0.45593999997E+02  0.45594000000E+02  0.51100000000E-03 0.  1.
         23    2    1    2    0    0 -0.71054273576E-14  0.35527136788E-14 -0.53290705182E-14  0.91188000000E+02  0.91188000000E+02 0.  0.
    9900012    2    3    3    0    0 -0.30664476637E+02  0.17422782457E+02 -0.10578881806E+02  0.54367133413E+02  0.40000112241E+02 0.  0.
        -12    1    3    3    0    0  0.30664476637E+02 -0.17422782457E+02  0.10578881806E+02  0.36820866587E+02  0.00000000000E+00 0.  1.
         11    1    4    4    0    0 -0.86613361523E+00  0.32567770025E+00  0.38528243722E+01  0.39623868196E+01  0.51100000000E-03 0. -1.
        -11    1    4    4    0    0  0.27193595876E+01  0.15448296368E+02 -0.36309215124E+01  0.16100570441E+02  0.51100000000E-03 0.  1.
         12    1    4    4    0    0 -0.32517702609E+02  0.16488083891E+01 -0.10800784666E+02  0.34304176152E+02  0.00000000000E+00 0. -1.
</event>
<event>
 8    1  0.1271559E-006  0.9118800E+02  0.7816164E-02  0.1184000E+00
        -11   -1    0    0    0    0  0.00000000000E+00  0.00000000000E+00  0.45593999997E+02  0.45594000000E+02  0.51100000000E-03 0.  1.
         11   -1    0    0    0    0 -0.00000000000E+00 -0.00000000000E+00 -0.45593999997E+02  0.45594000000E+02  0.51100000000E-03 0. -1.
         23    2    1    2    0    0  0.00000000000E+00  0.00000000000E+00  0.00000000000E+00  0.91188000000E+02  0.91188000000E+02 0.  0.
    9900012    2    3    3    0    0 -0.18334535707E+02 -0.31576895862E+02  0.47459911069E+01  0.54367082256E+02  0.39999995620E+02 0.  0.
        -12    1    3    3    0    0  0.18334535707E+02  0.31576895862E+02 -0.47459911069E+01  0.36820917744E+02  0.00000000000E+00 0.  1.
         11    1    4    4    0    0 -0.79095493800E+01  0.41064109925E+01 -0.78303394703E+01  0.11863296301E+02  0.51100000000E-03 0. -1.
        -11    1    4    4    0    0 -0.47060074926E+01 -0.29435330889E+02  0.33784439821E+01  0.29999984918E+02  0.51100000000E-03 0.  1.
        -12    1    4    4    0    0 -0.57189788344E+01 -0.62479759657E+01  0.91978865951E+01  0.12503801038E+02  0.00000000000E+00 0.  1.
</event>
<event>
 8    1  0.1271559E-006  0.9118800E+02  0.7816164E-02  0.1184000E+00
        -11   -1    0    0    0    0  0.00000000000E+00  0.00000000000E+00  0.45593999997E+02  0.45594000000E+02  0.51100000000E-03 0.  1.
         11   -1    0    0    0    0 -0.00000000000E+00 -0.00000000000E+00 -0.45593999997E+02  0.45594000000E+02  0.51100000000E-03 0. -1.
         23    2    1    2    0    0  0.00000000000E+00  0.00000000000E+00 -0.88817841970E-15  0.91188000000E+02  0.91188000000E+02 0.  0.
    9900012    2    3    3    0    0  0.31274206114E+02 -0.18477526544E+02 -0.60235812840E+01  0.54367102581E+02  0.40000041955E+02 0.  0.
        -12    1    3    3    0    0 -0.31274206114E+02  0.18477526544E+02  0.60235812840E+01  0.36820897419E+02  0.00000000000E+00 0.  1.
         11    1    4    4    0    0  0.59570086765E+01 -0.22258056632E+02 -0.10102605476E+01  0.23063557055E+02  0.51100000000E-03 0.  1.
        -11    1    4    4    0    0  0.51064170309E+01 -0.12214986929E+01  0.58157164258E+01  0.78351842197E+01  0.51100000000E-03 0. -1.
         12    1    4    4    0    0  0.20210780406E+02  0.50020287807E+01 -0.10829037162E+02  0.23468361307E+02  0.00000000000E+00 0. -1.
</event>
<event>
 8    1  0.1271559E-006  0.9118800E+02  0.7816164E-02  0.1184000E+00
        -11   -1    0    0    0    0  0.00000000000E+00  0.00000000000E+00  0.45593999997E+02  0.45594000000E+02  0.51100000000E-03 0. -1.
         11   -1    0    0    0    0 -0.00000000000E+00 -0.00000000000E+00 -0.45593999997E+02  0.45594000000E+02  0.51100000000E-03 0.  1.
         23    2    1    2    0    0  0.35527136788E-14  0.71054273576E-14 -0.17763568394E-14  0.91188000000E+02  0.91188000000E+02 0.  0.
    9900012    2    3    3    0    0  0.17810038250E+02  0.30564698219E+02 -0.10216501212E+02  0.54367148072E+02  0.40000145660E+02 0.  0.
        -12    1    3    3    0    0 -0.17810038250E+02 -0.30564698219E+02  0.10216501212E+02  0.36820851928E+02  0.00000000000E+00 0.  1.
         11    1    4    4    0    0  0.63109401427E+01  0.31347889415E+02  0.67914099423E+01  0.32690080843E+02  0.51100000000E-03 0. -1.
        -11    1    4    4    0    0  0.83165302272E+01 -0.16217065924E+01 -0.65388257044E+01  0.10702843040E+02  0.51100000000E-03 0.  1.
        -12    1    4    4    0    0  0.31825678801E+01  0.83851539599E+00 -0.10469085450E+02  0.10974224189E+02  0.00000000000E+00 0.  1.
</event>
<event>
 8    1  0.1271559E-006  0.9118800E+02  0.7816164E-02  0.1184000E+00
        -11   -1    0    0    0    0  0.00000000000E+00  0.00000000000E+00  0.45593999997E+02  0.45594000000E+02  0.51100000000E-03 0. -1.
         11   -1    0    0    0    0 -0.00000000000E+00 -0.00000000000E+00 -0.45593999997E+02  0.45594000000E+02  0.51100000000E-03 0.  1.
         23    2    1    2    0    0 -0.44408920985E-15 -0.17763568394E-14  0.71054273576E-14  0.91188000000E+02  0.91188000000E+02 0.  0.
    9900012    2    3    3    0    0 -0.29932332787E+01 -0.13929662330E+02 -0.33952681879E+02  0.54367088213E+02  0.40000009198E+02 0.  0.
         12    1    3    3    0    0  0.29932332787E+01  0.13929662330E+02  0.33952681879E+02  0.36820911787E+02  0.00000000000E+00 0. -1.
         11    1    4    4    0    0  0.66808375539E+01 -0.53777000041E+01 -0.51454910427E+01  0.10001466197E+02  0.51100000000E-03 0. -1.
        -11    1    4    4    0    0  0.41810758452E+01  0.82007978501E+01 -0.12872016091E+01  0.92946957371E+01  0.51100000000E-03 0.  1.
        -12    1    4    4    0    0 -0.13855146678E+02 -0.16752760176E+02 -0.27519989227E+02  0.35070926279E+02  0.00000000000E+00 0.  1.
</event>
<event>
 8    1  0.1271559E-006  0.9118800E+02  0.7816164E-02  0.1184000E+00
        -11   -1    0    0    0    0  0.00000000000E+00  0.00000000000E+00  0.45593999997E+02  0.45594000000E+02  0.51100000000E-03 0.  1.
         11   -1    0    0    0    0 -0.00000000000E+00 -0.00000000000E+00 -0.45593999997E+02  0.45594000000E+02  0.51100000000E-03 0. -1.
         23    2    1    2    0    0  0.00000000000E+00  0.00000000000E+00  0.71054273576E-14  0.91188000000E+02  0.91188000000E+02 0.  0.
    9900012    2    3    3    0    0  0.10074720714E+02 -0.13614652728E+02  0.32694362220E+02  0.54367080846E+02  0.39999992404E+02 0.  0.
         12    1    3    3    0    0 -0.10074720714E+02  0.13614652728E+02 -0.32694362220E+02  0.36820919154E+02  0.00000000000E+00 0. -1.
         11    1    4    4    0    0 -0.23612942436E+01 -0.28693066681E+01 -0.94732981277E+00  0.38348487970E+01  0.51100000000E-03 0. -1.
        -11    1    4    4    0    0  0.23315211489E+00 -0.46582774919E+00 -0.69229166917E+01  0.69424873916E+01  0.51100000000E-03 0.  1.
        -12    1    4    4    0    0  0.12202862842E+02 -0.10279518311E+02  0.40564608725E+02  0.43589744657E+02  0.00000000000E+00 0.  1.
</event>
<event>
 8    1  0.1271559E-006  0.9118800E+02  0.7816164E-02  0.1184000E+00
        -11   -1    0    0    0    0  0.00000000000E+00  0.00000000000E+00  0.45593999997E+02  0.45594000000E+02  0.51100000000E-03 0.  1.
         11   -1    0    0    0    0 -0.00000000000E+00 -0.00000000000E+00 -0.45593999997E+02  0.45594000000E+02  0.51100000000E-03 0. -1.
         23    2    1    2    0    0  0.35527136788E-14  0.88817841970E-15 -0.71054273576E-14  0.91188000000E+02  0.91188000000E+02 0.  0.
    9900012    2    3    3    0    0 -0.30072466107E+02  0.54036593142E+01  0.20548424299E+02  0.54366939547E+02  0.39999670284E+02 0.  0.
         12    1    3    3    0    0  0.30072466107E+02 -0.54036593142E+01 -0.20548424299E+02  0.36821060453E+02  0.00000000000E+00 0. -1.
         11    1    4    4    0    0 -0.52430725668E+01 -0.12434007935E+02  0.15186989417E+02  0.20315979205E+02  0.51100000000E-03 0. -1.
        -11    1    4    4    0    0 -0.20680575068E+02  0.81005756843E+01  0.53729074605E-01  0.22210547013E+02  0.51100000000E-03 0.  1.
        -12    1    4    4    0    0 -0.41488184722E+01  0.97370915644E+01  0.53077058072E+01  0.11840413328E+02  0.00000000000E+00 0.  1.
</event>
<event>
 8    1  0.1271559E-006  0.9118800E+02  0.7816164E-02  0.1184000E+00
        -11   -1    0    0    0    0  0.00000000000E+00  0.00000000000E+00  0.45593999997E+02  0.45594000000E+02  0.51100000000E-03 0.  1.
         11   -1    0    0    0    0 -0.00000000000E+00 -0.00000000000E+00 -0.45593999997E+02  0.45594000000E+02  0.51100000000E-03 0. -1.
         23    2    1    2    0    0  0.88817841970E-15  0.17763568394E-14  0.71054273576E-14  0.91188000000E+02  0.91188000000E+02 0.  0.
    9900012    2    3    3    0    0  0.51552827989E+00  0.60517497583E+01  0.36316542020E+02  0.54367072950E+02  0.39999974404E+02 0.  0.
         12    1    3    3    0    0 -0.51552827989E+00 -0.60517497583E+01 -0.36316542020E+02  0.36820927050E+02  0.00000000000E+00 0. -1.
         11    1    4    4    0    0  0.66886929656E+00  0.95130157727E+01  0.39650669797E+01  0.10327952926E+02  0.51100000000E-03 0. -1.
        -11    1    4    4    0    0  0.12537313673E+02 -0.47289582231E+01  0.58348943891E+01  0.14614830578E+02  0.51100000000E-03 0.  1.
        -12    1    4    4    0    0 -0.12690654690E+02  0.12676922087E+01  0.26516580651E+02  0.29424289446E+02  0.00000000000E+00 0.  1.
</event>
<event>
 8    1  0.1271559E-006  0.9118800E+02  0.7816164E-02  0.1184000E+00
        -11   -1    0    0    0    0  0.00000000000E+00  0.00000000000E+00  0.45593999997E+02  0.45594000000E+02  0.51100000000E-03 0.  1.
         11   -1    0    0    0    0 -0.00000000000E+00 -0.00000000000E+00 -0.45593999997E+02  0.45594000000E+02  0.51100000000E-03 0. -1.
         23    2    1    2    0    0 -0.35527136788E-14 -0.35527136788E-14  0.00000000000E+00  0.91188000000E+02  0.91188000000E+02 0.  0.
    9900012    2    3    3    0    0 -0.20269968016E+02 -0.24417047427E+02 -0.18673928540E+02  0.54367089969E+02  0.40000013202E+02 0.  0.
        -12    1    3    3    0    0  0.20269968016E+02  0.24417047427E+02  0.18673928540E+02  0.36820910031E+02  0.00000000000E+00 0.  1.
         11    1    4    4    0    0 -0.83446954194E+01 -0.14394568726E+02 -0.13999358091E+02  0.21744414862E+02  0.51100000000E-03 0. -1.
        -11    1    4    4    0    0 -0.92044078275E+01 -0.38650361726E+01 -0.16343472065E+02  0.19151206423E+02  0.51100000000E-03 0.  1.
        -12    1    4    4    0    0 -0.27208647689E+01 -0.61574425286E+01  0.11668901616E+02  0.13471468684E+02  0.00000000000E+00 0.  1.
</event>
<event>
 8    1  0.1271559E-006  0.9118800E+02  0.7816164E-02  0.1184000E+00
        -11   -1    0    0    0    0  0.00000000000E+00  0.00000000000E+00  0.45593999997E+02  0.45594000000E+02  0.51100000000E-03 0. -1.
         11   -1    0    0    0    0 -0.00000000000E+00 -0.00000000000E+00 -0.45593999997E+02  0.45594000000E+02  0.51100000000E-03 0.  1.
         23    2    1    2    0    0  0.00000000000E+00 -0.66613381478E-15  0.00000000000E+00  0.91188000000E+02  0.91188000000E+02 0.  0.
    9900012    2    3    3    0    0 -0.32302907296E+02  0.10926736330E+01  0.17638288475E+02  0.54367068782E+02  0.39999964902E+02 0.  0.
         12    1    3    3    0    0  0.32302907296E+02 -0.10926736330E+01 -0.17638288475E+02  0.36820931218E+02  0.00000000000E+00 0. -1.
         11    1    4    4    0    0  0.42719638870E+01 -0.70145412700E+01 -0.24800775064E+01  0.85792918926E+01  0.51100000000E-03 0. -1.
        -11    1    4    4    0    0 -0.18153758300E+02  0.63139152143E+01  0.19335138234E+02  0.27263015910E+02  0.51100000000E-03 0.  1.
         12    1    4    4    0    0 -0.18421112883E+02  0.17932996887E+01  0.78322774824E+00  0.18524760979E+02  0.00000000000E+00 0. -1.
</event>
<event>
 8    1  0.1271559E-006  0.9118800E+02  0.7816164E-02  0.1184000E+00
        -11   -1    0    0    0    0  0.00000000000E+00  0.00000000000E+00  0.45593999997E+02  0.45594000000E+02  0.51100000000E-03 0. -1.
         11   -1    0    0    0    0 -0.00000000000E+00 -0.00000000000E+00 -0.45593999997E+02  0.45594000000E+02  0.51100000000E-03 0.  1.
         23    2    1    2    0    0  0.00000000000E+00  0.00000000000E+00  0.66613381478E-15  0.91188000000E+02  0.91188000000E+02 0.  0.
    9900012    2    3    3    0    0 -0.30614701996E+02  0.20428938923E+02  0.10856631116E+01  0.54367079476E+02  0.39999989282E+02 0.  0.
        -12    1    3    3    0    0  0.30614701996E+02 -0.20428938923E+02 -0.10856631116E+01  0.36820920524E+02  0.00000000000E+00 0.  1.
         11    1    4    4    0    0 -0.38968855270E+01  0.17262300117E+02 -0.67469638121E+01  0.18939224987E+02  0.51100000000E-03 0. -1.
        -11    1    4    4    0    0 -0.13632356694E+02 -0.66098014332E+00 -0.69516688242E+01  0.15316779801E+02  0.51100000000E-03 0.  1.
         12    1    4    4    0    0 -0.13085459775E+02  0.38276189489E+01  0.14784295748E+02  0.20111074688E+02  0.00000000000E+00 0. -1.
</event>
<event>
 8    1  0.1271559E-006  0.9118800E+02  0.7816164E-02  0.1184000E+00
        -11   -1    0    0    0    0  0.00000000000E+00  0.00000000000E+00  0.45593999997E+02  0.45594000000E+02  0.51100000000E-03 0.  1.
         11   -1    0    0    0    0 -0.00000000000E+00 -0.00000000000E+00 -0.45593999997E+02  0.45594000000E+02  0.51100000000E-03 0. -1.
         23    2    1    2    0    0  0.00000000000E+00 -0.88817841970E-15 -0.35527136788E-14  0.91188000000E+02  0.91188000000E+02 0.  0.
    9900012    2    3    3    0    0 -0.17380420107E+02  0.60186754394E+01  0.31897912277E+02  0.54367078437E+02  0.39999986913E+02 0.  0.
         12    1    3    3    0    0  0.17380420107E+02 -0.60186754394E+01 -0.31897912277E+02  0.36820921563E+02  0.00000000000E+00 0. -1.
         11    1    4    4    0    0  0.11069431752E+01  0.11658100117E+02  0.12847632499E+02  0.17383851203E+02  0.51100000000E-03 0. -1.
        -11    1    4    4    0    0 -0.10322092423E+02  0.96736085193E+01  0.10624476494E+02  0.17691913260E+02  0.51100000000E-03 0.  1.
         12    1    4    4    0    0 -0.81652708591E+01 -0.15313033197E+02  0.84258032838E+01  0.19291313975E+02  0.00000000000E+00 0. -1.
</event>
<event>
 8    1  0.1271559E-006  0.9118800E+02  0.7816164E-02  0.1184000E+00
        -11   -1    0    0    0    0  0.00000000000E+00  0.00000000000E+00  0.45593999997E+02  0.45594000000E+02  0.51100000000E-03 0.  1.
         11   -1    0    0    0    0 -0.00000000000E+00 -0.00000000000E+00 -0.45593999997E+02  0.45594000000E+02  0.51100000000E-03 0. -1.
         23    2    1    2    0    0  0.71054273576E-14  0.88817841970E-15 -0.35527136788E-14  0.91188000000E+02  0.91188000000E+02 0.  0.
    9900012    2    3    3    0    0 -0.26080366849E+02 -0.44615458489E+01  0.25606451321E+02  0.54367064711E+02  0.39999955621E+02 0.  0.
         12    1    3    3    0    0  0.26080366849E+02  0.44615458489E+01 -0.25606451321E+02  0.36820935289E+02  0.00000000000E+00 0. -1.
         11    1    4    4    0    0 -0.86560052912E+01 -0.95494395047E+01 -0.40066659762E+01  0.13497095797E+02  0.51100000000E-03 0. -1.
        -11    1    4    4    0    0 -0.38517088888E+01  0.95366859634E+01  0.30795368443E+01  0.10736274399E+02  0.51100000000E-03 0.  1.
         12    1    4    4    0    0 -0.13572652669E+02 -0.44487923075E+01  0.26533580453E+02  0.30133694515E+02  0.00000000000E+00 0. -1.
</event>
<event>
 8    1  0.1271559E-006  0.9118800E+02  0.7816164E-02  0.1184000E+00
        -11   -1    0    0    0    0  0.00000000000E+00  0.00000000000E+00  0.45593999997E+02  0.45594000000E+02  0.51100000000E-03 0.  1.
         11   -1    0    0    0    0 -0.00000000000E+00 -0.00000000000E+00 -0.45593999997E+02  0.45594000000E+02  0.51100000000E-03 0. -1.
         23    2    1    2    0    0  0.35527136788E-14 -0.17763568394E-14  0.00000000000E+00  0.91188000000E+02  0.91188000000E+02 0.  0.
    9900012    2    3    3    0    0  0.30196675932E+02 -0.40118266884E+01 -0.20684450485E+02  0.54367075479E+02  0.39999980169E+02 0.  0.
         12    1    3    3    0    0 -0.30196675932E+02  0.40118266884E+01  0.20684450485E+02  0.36820924521E+02  0.00000000000E+00 0. -1.
         11    1    4    4    0    0  0.18589609888E+02 -0.80028161370E+01 -0.14682718448E+01  0.20292227192E+02  0.51100000000E-03 0. -1.
        -11    1    4    4    0    0  0.12116719198E+02 -0.70242180343E+01 -0.27743325465E+01  0.14277655426E+02  0.51100000000E-03 0.  1.
         12    1    4    4    0    0 -0.50965315460E+00  0.11015207483E+02 -0.16441846093E+02  0.19797192861E+02  0.00000000000E+00 0. -1.
</event>
<event>
 8    1  0.1271559E-006  0.9118800E+02  0.7816164E-02  0.1184000E+00
        -11   -1    0    0    0    0  0.00000000000E+00  0.00000000000E+00  0.45593999997E+02  0.45594000000E+02  0.51100000000E-03 0.  1.
         11   -1    0    0    0    0 -0.00000000000E+00 -0.00000000000E+00 -0.45593999997E+02  0.45594000000E+02  0.51100000000E-03 0. -1.
         23    2    1    2    0    0  0.00000000000E+00  0.00000000000E+00  0.35527136788E-14  0.91188000000E+02  0.91188000000E+02 0.  0.
    9900012    2    3    3    0    0 -0.74815544094E+01  0.17455410234E+02 -0.31545502237E+02  0.54367031597E+02  0.39999880131E+02 0.  0.
        -12    1    3    3    0    0  0.74815544094E+01 -0.17455410234E+02  0.31545502237E+02  0.36820968403E+02  0.00000000000E+00 0.  1.
         11    1    4    4    0    0 -0.86087140433E+01  0.26216557883E+02 -0.32939720033E+02  0.42970257398E+02  0.51100000000E-03 0. -1.
        -11    1    4    4    0    0 -0.82084837567E+00 -0.54134875600E+01 -0.23968662062E+01  0.59770065659E+01  0.51100000000E-03 0.  1.
         12    1    4    4    0    0  0.19480080095E+01 -0.33476600897E+01  0.37910840025E+01  0.54197676330E+01  0.00000000000E+00 0. -1.
</event>
<event>
 8    1  0.1271559E-006  0.9118800E+02  0.7816164E-02  0.1184000E+00
        -11   -1    0    0    0    0  0.00000000000E+00  0.00000000000E+00  0.45593999997E+02  0.45594000000E+02  0.51100000000E-03 0.  1.
         11   -1    0    0    0    0 -0.00000000000E+00 -0.00000000000E+00 -0.45593999997E+02  0.45594000000E+02  0.51100000000E-03 0. -1.
         23    2    1    2    0    0  0.00000000000E+00  0.00000000000E+00  0.35527136788E-14  0.91188000000E+02  0.91188000000E+02 0.  0.
    9900012    2    3    3    0    0  0.31863715636E+02  0.92238076547E+01  0.15981450991E+02  0.54367057894E+02  0.39999940082E+02 0.  0.
        -12    1    3    3    0    0 -0.31863715636E+02 -0.92238076547E+01 -0.15981450991E+02  0.36820942106E+02  0.00000000000E+00 0.  1.
         11    1    4    4    0    0  0.41637524529E+01  0.74020575256E+01 -0.47469743952E+01  0.97293913618E+01  0.51100000000E-03 0. -1.
        -11    1    4    4    0    0 -0.10225700080E+01 -0.95463562158E+00 -0.54801321928E+01  0.56558666624E+01  0.51100000000E-03 0.  1.
        -12    1    4    4    0    0  0.28722533191E+02  0.27763857507E+01  0.26208557579E+02  0.38981799870E+02  0.00000000000E+00 0.  1.
</event>
<event>
 8    1  0.1271559E-006  0.9118800E+02  0.7816164E-02  0.1184000E+00
        -11   -1    0    0    0    0  0.00000000000E+00  0.00000000000E+00  0.45593999997E+02  0.45594000000E+02  0.51100000000E-03 0.  1.
         11   -1    0    0    0    0 -0.00000000000E+00 -0.00000000000E+00 -0.45593999997E+02  0.45594000000E+02  0.51100000000E-03 0. -1.
         23    2    1    2    0    0 -0.35527136788E-14  0.00000000000E+00  0.35527136788E-14  0.91188000000E+02  0.91188000000E+02 0.  0.
    9900012    2    3    3    0    0 -0.24193246247E+02 -0.17332601303E+02 -0.21680580001E+02  0.54367085005E+02  0.40000001886E+02 0.  0.
        -12    1    3    3    0    0  0.24193246247E+02  0.17332601303E+02  0.21680580001E+02  0.36820914995E+02  0.00000000000E+00 0.  1.
         11    1    4    4    0    0 -0.13602078137E+02 -0.59048051257E+00 -0.24545358030E+02  0.28068484070E+02  0.51100000000E-03 0. -1.
        -11    1    4    4    0    0 -0.11392218479E+02 -0.33429342437E+01 -0.19628988885E+01  0.12033736890E+02  0.51100000000E-03 0.  1.
        -12    1    4    4    0    0  0.80105036896E+00 -0.13399186547E+02  0.48276769175E+01  0.14264864045E+02  0.00000000000E+00 0.  1.
</event>
<event>
 8    1  0.1271559E-006  0.9118800E+02  0.7816164E-02  0.1184000E+00
        -11   -1    0    0    0    0  0.00000000000E+00  0.00000000000E+00  0.45593999997E+02  0.45594000000E+02  0.51100000000E-03 0.  1.
         11   -1    0    0    0    0 -0.00000000000E+00 -0.00000000000E+00 -0.45593999997E+02  0.45594000000E+02  0.51100000000E-03 0. -1.
         23    2    1    2    0    0 -0.35527136788E-14  0.00000000000E+00  0.35527136788E-14  0.91188000000E+02  0.91188000000E+02 0.  0.
    9900012    2    3    3    0    0 -0.31012846799E+02  0.43901335873E+01  0.19357461558E+02  0.54367064957E+02  0.39999956182E+02 0.  0.
         12    1    3    3    0    0  0.31012846799E+02 -0.43901335873E+01 -0.19357461558E+02  0.36820935043E+02  0.00000000000E+00 0. -1.
         11    1    4    4    0    0 -0.51361662441E+01 -0.30444862854E+01 -0.69021831880E+01  0.91262935221E+01  0.51100000000E-03 0. -1.
        -11    1    4    4    0    0 -0.36311971989E+01 -0.72888770294E+01  0.50249849902E+00  0.81587882954E+01  0.51100000000E-03 0.  1.
        -12    1    4    4    0    0 -0.22245483356E+02  0.14723496902E+02  0.25757146247E+02  0.37081983139E+02  0.00000000000E+00 0.  1.
</event>
<event>
 8    1  0.1271559E-006  0.9118800E+02  0.7816164E-02  0.1184000E+00
        -11   -1    0    0    0    0  0.00000000000E+00  0.00000000000E+00  0.45593999997E+02  0.45594000000E+02  0.51100000000E-03 0.  1.
         11   -1    0    0    0    0 -0.00000000000E+00 -0.00000000000E+00 -0.45593999997E+02  0.45594000000E+02  0.51100000000E-03 0. -1.
         23    2    1    2    0    0  0.35527136788E-14  0.00000000000E+00  0.00000000000E+00  0.91188000000E+02  0.91188000000E+02 0.  0.
    9900012    2    3    3    0    0  0.28855132144E+02 -0.20777812573E+02  0.95625881705E+01  0.54367092368E+02  0.40000018670E+02 0.  0.
         12    1    3    3    0    0 -0.28855132144E+02  0.20777812573E+02 -0.95625881705E+01  0.36820907632E+02  0.00000000000E+00 0. -1.
         11    1    4    4    0    0 -0.93731372186E+01 -0.68399476853E+01  0.64545109403E+00  0.11621410974E+02  0.51100000000E-03 0. -1.
        -11    1    4    4    0    0  0.25638851215E+02 -0.79018847829E+01  0.10250756607E+02  0.28720523777E+02  0.51100000000E-03 0.  1.
         12    1    4    4    0    0  0.12589418147E+02 -0.60359801049E+01 -0.13336195303E+01  0.14025157616E+02  0.00000000000E+00 0. -1.
</event>
<event>
 8    1  0.1271559E-006  0.9118800E+02  0.7816164E-02  0.1184000E+00
        -11   -1    0    0    0    0  0.00000000000E+00  0.00000000000E+00  0.45593999997E+02  0.45594000000E+02  0.51100000000E-03 0. -1.
         11   -1    0    0    0    0 -0.00000000000E+00 -0.00000000000E+00 -0.45593999997E+02  0.45594000000E+02  0.51100000000E-03 0.  1.
         23    2    1    2    0    0  0.71054273576E-14  0.88817841970E-15  0.17763568394E-14  0.91188000000E+02  0.91188000000E+02 0.  0.
    9900012    2    3    3    0    0  0.32798658985E+02 -0.54369186944E+01 -0.15826243891E+02  0.54367053355E+02  0.39999929734E+02 0.  0.
         12    1    3    3    0    0 -0.32798658985E+02  0.54369186944E+01  0.15826243891E+02  0.36820946645E+02  0.00000000000E+00 0. -1.
         11    1    4    4    0    0  0.73333066264E+01 -0.70186104553E+01  0.27775411106E+01  0.10523925773E+02  0.51100000000E-03 0. -1.
        -11    1    4    4    0    0 -0.20502794030E+01 -0.76540926662E+01 -0.11494040942E+02  0.13960721959E+02  0.51100000000E-03 0.  1.
         12    1    4    4    0    0  0.27515631762E+02  0.92357844270E+01 -0.71097440598E+01  0.29882405623E+02  0.00000000000E+00 0. -1.
</event>
<event>
 8    1  0.1271559E-006  0.9118800E+02  0.7816164E-02  0.1184000E+00
        -11   -1    0    0    0    0  0.00000000000E+00  0.00000000000E+00  0.45593999997E+02  0.45594000000E+02  0.51100000000E-03 0.  1.
         11   -1    0    0    0    0 -0.00000000000E+00 -0.00000000000E+00 -0.45593999997E+02  0.45594000000E+02  0.51100000000E-03 0. -1.
         23    2    1    2    0    0  0.17763568394E-14  0.00000000000E+00  0.35527136788E-14  0.91188000000E+02  0.91188000000E+02 0.  0.
    9900012    2    3    3    0    0  0.12862139517E+02 -0.27139755253E+02  0.21302187291E+02  0.54367025929E+02  0.39999867211E+02 0.  0.
         12    1    3    3    0    0 -0.12862139517E+02  0.27139755253E+02 -0.21302187291E+02  0.36820974071E+02  0.00000000000E+00 0. -1.
         11    1    4    4    0    0  0.73351461501E+01  0.69712541366E-01 -0.25961491113E+01  0.77813378895E+01  0.51100000000E-03 0. -1.
        -11    1    4    4    0    0 -0.61342627580E+01 -0.10112295686E+02  0.23009418686E+02  0.25871239865E+02  0.51100000000E-03 0.  1.
         12    1    4    4    0    0  0.11661256125E+02 -0.17097172108E+02  0.88891771630E+00  0.20714448175E+02  0.00000000000E+00 0. -1.
</event>
<event>
 8    1  0.1271559E-006  0.9118800E+02  0.7816164E-02  0.1184000E+00
        -11   -1    0    0    0    0  0.00000000000E+00  0.00000000000E+00  0.45593999997E+02  0.45594000000E+02  0.51100000000E-03 0.  1.
         11   -1    0    0    0    0 -0.00000000000E+00 -0.00000000000E+00 -0.45593999997E+02  0.45594000000E+02  0.51100000000E-03 0. -1.
         23    2    1    2    0    0  0.00000000000E+00 -0.35527136788E-14 -0.71054273576E-14  0.91188000000E+02  0.91188000000E+02 0.  0.
    9900012    2    3    3    0    0 -0.19527032984E+01 -0.19753233023E+02  0.31012513797E+02  0.54367091849E+02  0.40000017489E+02 0.  0.
         12    1    3    3    0    0  0.19527032984E+01  0.19753233023E+02 -0.31012513797E+02  0.36820908151E+02  0.00000000000E+00 0. -1.
         11    1    4    4    0    0  0.75990837056E+01 -0.27547309922E+01  0.14021553360E+02  0.16184516517E+02  0.51100000000E-03 0. -1.
        -11    1    4    4    0    0 -0.17018132343E+01  0.41889645690E+01 -0.49384043772E+01  0.66956277150E+01  0.51100000000E-03 0.  1.
        -12    1    4    4    0    0 -0.78499737698E+01 -0.21187466599E+02  0.21929364814E+02  0.31486947617E+02  0.00000000000E+00 0.  1.
</event>
<event>
 8    1  0.1271559E-006  0.9118800E+02  0.7816164E-02  0.1184000E+00
        -11   -1    0    0    0    0  0.00000000000E+00  0.00000000000E+00  0.45593999997E+02  0.45594000000E+02  0.51100000000E-03 0. -1.
         11   -1    0    0    0    0 -0.00000000000E+00 -0.00000000000E+00 -0.45593999997E+02  0.45594000000E+02  0.51100000000E-03 0.  1.
         23    2    1    2    0    0  0.35527136788E-14  0.13322676296E-14 -0.35527136788E-14  0.91188000000E+02  0.91188000000E+02 0.  0.
    9900012    2    3    3    0    0  0.24660506334E+02  0.31165483816E+01 -0.27164805298E+02  0.54367080764E+02  0.39999992219E+02 0.  0.
         12    1    3    3    0    0 -0.24660506334E+02 -0.31165483816E+01  0.27164805298E+02  0.36820919236E+02  0.00000000000E+00 0. -1.
         11    1    4    4    0    0  0.10603510707E+01  0.48287280533E+01  0.47668353528E+01  0.68675817103E+01  0.51100000000E-03 0. -1.
        -11    1    4    4    0    0  0.22392808547E+01  0.92212127546E+01 -0.16299600758E+02  0.18860597248E+02  0.51100000000E-03 0.  1.
         12    1    4    4    0    0  0.21360874408E+02 -0.10933392426E+02 -0.15632039893E+02  0.28638901806E+02  0.00000000000E+00 0. -1.
</event>
<event>
 8    1  0.1271559E-006  0.9118800E+02  0.7816164E-02  0.1184000E+00
        -11   -1    0    0    0    0  0.00000000000E+00  0.00000000000E+00  0.45593999997E+02  0.45594000000E+02  0.51100000000E-03 0.  1.
         11   -1    0    0    0    0 -0.00000000000E+00 -0.00000000000E+00 -0.45593999997E+02  0.45594000000E+02  0.51100000000E-03 0. -1.
         23    2    1    2    0    0  0.71054273576E-14  0.72164496601E-15 -0.35527136788E-14  0.91188000000E+02  0.91188000000E+02 0.  0.
    9900012    2    3    3    0    0  0.33376190825E+02  0.44095697847E+00 -0.15543980708E+02  0.54367083481E+02  0.39999998411E+02 0.  0.
        -12    1    3    3    0    0 -0.33376190825E+02 -0.44095697847E+00  0.15543980708E+02  0.36820916519E+02  0.00000000000E+00 0.  1.
         11    1    4    4    0    0  0.26847172434E+02  0.51055593918E+01 -0.16995232486E+02  0.32181910011E+02  0.51100000000E-03 0. -1.
        -11    1    4    4    0    0 -0.44517207791E+01  0.30872015731E+01  0.59160964628E+01  0.80217721899E+01  0.51100000000E-03 0.  1.
         12    1    4    4    0    0  0.10980739170E+02 -0.77518039864E+01 -0.44648446846E+01  0.14163401280E+02  0.00000000000E+00 0. -1.
</event>
<event>
 8    1  0.1271559E-006  0.9118800E+02  0.7816164E-02  0.1184000E+00
        -11   -1    0    0    0    0  0.00000000000E+00  0.00000000000E+00  0.45593999997E+02  0.45594000000E+02  0.51100000000E-03 0.  1.
         11   -1    0    0    0    0 -0.00000000000E+00 -0.00000000000E+00 -0.45593999997E+02  0.45594000000E+02  0.51100000000E-03 0. -1.
         23    2    1    2    0    0  0.00000000000E+00  0.00000000000E+00 -0.16653345369E-15  0.91188000000E+02  0.91188000000E+02 0.  0.
    9900012    2    3    3    0    0  0.23182222247E+02  0.28606251516E+02  0.21904535798E+00  0.54367067978E+02  0.39999963068E+02 0.  0.
        -12    1    3    3    0    0 -0.23182222247E+02 -0.28606251516E+02 -0.21904535798E+00  0.36820932022E+02  0.00000000000E+00 0.  1.
         11    1    4    4    0    0 -0.91491290011E+01  0.91466995171E+01  0.36621539047E+01  0.13445447000E+02  0.51100000000E-03 0. -1.
        -11    1    4    4    0    0  0.21148042802E+02  0.78331396125E+01  0.44107763348E+01  0.22979398135E+02  0.51100000000E-03 0.  1.
         12    1    4    4    0    0  0.11183308447E+02  0.11626412387E+02 -0.78538848815E+01  0.17942222843E+02  0.00000000000E+00 0. -1.
</event>
<event>
 8    1  0.1271559E-006  0.9118800E+02  0.7816164E-02  0.1184000E+00
        -11   -1    0    0    0    0  0.00000000000E+00  0.00000000000E+00  0.45593999997E+02  0.45594000000E+02  0.51100000000E-03 0.  1.
         11   -1    0    0    0    0 -0.00000000000E+00 -0.00000000000E+00 -0.45593999997E+02  0.45594000000E+02  0.51100000000E-03 0. -1.
         23    2    1    2    0    0  0.00000000000E+00  0.00000000000E+00  0.00000000000E+00  0.91188000000E+02  0.91188000000E+02 0.  0.
    9900012    2    3    3    0    0  0.47590274234E+01  0.35775371802E+02 -0.72974695158E+01  0.54367100624E+02  0.40000037492E+02 0.  0.
        -12    1    3    3    0    0 -0.47590274234E+01 -0.35775371802E+02  0.72974695158E+01  0.36820899376E+02  0.00000000000E+00 0.  1.
         11    1    4    4    0    0 -0.34574804364E+01 -0.30149380429E+00 -0.14154418826E+02  0.14573696925E+02  0.51100000000E-03 0. -1.
        -11    1    4    4    0    0 -0.24705973122E+01  0.81224517879E+01  0.48986202478E+01  0.98017628373E+01  0.51100000000E-03 0.  1.
        -12    1    4    4    0    0  0.10687105172E+02  0.27954413818E+02  0.19583290626E+01  0.29991640862E+02  0.00000000000E+00 0.  1.
</event>
<event>
 8    1  0.1271559E-006  0.9118800E+02  0.7816164E-02  0.1184000E+00
        -11   -1    0    0    0    0  0.00000000000E+00  0.00000000000E+00  0.45593999997E+02  0.45594000000E+02  0.51100000000E-03 0.  1.
         11   -1    0    0    0    0 -0.00000000000E+00 -0.00000000000E+00 -0.45593999997E+02  0.45594000000E+02  0.51100000000E-03 0. -1.
         23    2    1    2    0    0  0.00000000000E+00  0.35527136788E-14  0.00000000000E+00  0.91188000000E+02  0.91188000000E+02 0.  0.
    9900012    2    3    3    0    0 -0.25475937576E+02  0.25744505072E+02 -0.66315129243E+01  0.54367083383E+02  0.39999998189E+02 0.  0.
         12    1    3    3    0    0  0.25475937576E+02 -0.25744505072E+02  0.66315129243E+01  0.36820916617E+02  0.00000000000E+00 0. -1.
         11    1    4    4    0    0 -0.10233737759E+00  0.21672341118E+02 -0.16511889025E+01  0.21735392049E+02  0.51100000000E-03 0. -1.
        -11    1    4    4    0    0 -0.10720316184E+02 -0.74976493045E+01  0.74512355398E+00  0.13103248969E+02  0.51100000000E-03 0.  1.
        -12    1    4    4    0    0 -0.14653284015E+02  0.11569813259E+02 -0.57254475757E+01  0.19528442365E+02  0.00000000000E+00 0.  1.
</event>
<event>
 8    1  0.1271559E-006  0.9118800E+02  0.7816164E-02  0.1184000E+00
        -11   -1    0    0    0    0  0.00000000000E+00  0.00000000000E+00  0.45593999997E+02  0.45594000000E+02  0.51100000000E-03 0.  1.
         11   -1    0    0    0    0 -0.00000000000E+00 -0.00000000000E+00 -0.45593999997E+02  0.45594000000E+02  0.51100000000E-03 0. -1.
         23    2    1    2    0    0  0.00000000000E+00 -0.17763568394E-14  0.00000000000E+00  0.91188000000E+02  0.91188000000E+02 0.  0.
    9900012    2    3    3    0    0 -0.34438853487E+02  0.12782332081E+02 -0.25211764142E+01  0.54367095973E+02  0.40000026889E+02 0.  0.
        -12    1    3    3    0    0  0.34438853487E+02 -0.12782332081E+02  0.25211764142E+01  0.36820904027E+02  0.00000000000E+00 0.  1.
         11    1    4    4    0    0  0.48818972934E+01  0.54755398100E+01  0.99922756344E+01  0.12395968297E+02  0.51100000000E-03 0. -1.
        -11    1    4    4    0    0 -0.26630672755E+02  0.55305536261E+01 -0.75258569477E+01  0.28220883718E+02  0.51100000000E-03 0.  1.
         12    1    4    4    0    0 -0.12690078025E+02  0.17762386443E+01 -0.49875951009E+01  0.13750243958E+02  0.00000000000E+00 0. -1.
</event>
<event>
 8    1  0.1271559E-006  0.9118800E+02  0.7816164E-02  0.1184000E+00
        -11   -1    0    0    0    0  0.00000000000E+00  0.00000000000E+00  0.45593999997E+02  0.45594000000E+02  0.51100000000E-03 0.  1.
         11   -1    0    0    0    0 -0.00000000000E+00 -0.00000000000E+00 -0.45593999997E+02  0.45594000000E+02  0.51100000000E-03 0. -1.
         23    2    1    2    0    0  0.00000000000E+00  0.00000000000E+00  0.00000000000E+00  0.91188000000E+02  0.91188000000E+02 0.  0.
    9900012    2    3    3    0    0  0.86518161311E+01 -0.14010534503E+02  0.32933737497E+02  0.54367081150E+02  0.39999993098E+02 0.  0.
         12    1    3    3    0    0 -0.86518161311E+01  0.14010534503E+02 -0.32933737497E+02  0.36820918850E+02  0.00000000000E+00 0. -1.
         11    1    4    4    0    0  0.63485465407E-01 -0.54246108555E+01 -0.53159155604E+01  0.75953533061E+01  0.51100000000E-03 0.  1.
        -11    1    4    4    0    0  0.11122487315E+02  0.60860463959E+00  0.50519743144E+01  0.12231212876E+02  0.51100000000E-03 0. -1.
        -12    1    4    4    0    0 -0.25341566495E+01 -0.91945282872E+01  0.33197678743E+02  0.34540514968E+02  0.00000000000E+00 0.  1.
</event>
<event>
 8    1  0.1271559E-006  0.9118800E+02  0.7816164E-02  0.1184000E+00
        -11   -1    0    0    0    0  0.00000000000E+00  0.00000000000E+00  0.45593999997E+02  0.45594000000E+02  0.51100000000E-03 0. -1.
         11   -1    0    0    0    0 -0.00000000000E+00 -0.00000000000E+00 -0.45593999997E+02  0.45594000000E+02  0.51100000000E-03 0.  1.
         23    2    1    2    0    0 -0.35527136788E-14 -0.35527136788E-14  0.00000000000E+00  0.91188000000E+02  0.91188000000E+02 0.  0.
    9900012    2    3    3    0    0  0.30567151446E+02  0.18767874591E+02  0.83183770410E+01  0.54367092070E+02  0.40000017991E+02 0.  0.
         12    1    3    3    0    0 -0.30567151446E+02 -0.18767874591E+02 -0.83183770410E+01  0.36820907930E+02  0.00000000000E+00 0. -1.
         11    1    4    4    0    0  0.10630492123E+02 -0.71851991806E+01  0.88984760666E+01  0.15614651024E+02  0.51100000000E-03 0. -1.
        -11    1    4    4    0    0  0.13658712663E+02  0.28220992868E+02 -0.33386703815E+01  0.31529852366E+02  0.51100000000E-03 0.  1.
        -12    1    4    4    0    0  0.62779466604E+01 -0.22679190960E+01  0.27585713559E+01  0.72225886788E+01  0.00000000000E+00 0.  1.
</event>
<event>
 8    1  0.1271559E-006  0.9118800E+02  0.7816164E-02  0.1184000E+00
        -11   -1    0    0    0    0  0.00000000000E+00  0.00000000000E+00  0.45593999997E+02  0.45594000000E+02  0.51100000000E-03 0. -1.
         11   -1    0    0    0    0 -0.00000000000E+00 -0.00000000000E+00 -0.45593999997E+02  0.45594000000E+02  0.51100000000E-03 0.  1.
         23    2    1    2    0    0 -0.17763568394E-14  0.00000000000E+00 -0.71054273576E-14  0.91188000000E+02  0.91188000000E+02 0.  0.
    9900012    2    3    3    0    0 -0.88818917425E+01  0.23353791514E+01  0.35657053642E+02  0.54367252165E+02  0.40000382958E+02 0.  0.
        -12    1    3    3    0    0  0.88818917425E+01 -0.23353791514E+01 -0.35657053642E+02  0.36820747835E+02  0.00000000000E+00 0.  1.
         11    1    4    4    0    0 -0.12019602642E+02  0.48205088736E+01 -0.19024466023E+01  0.13089211466E+02  0.51100000000E-03 0. -1.
        -11    1    4    4    0    0  0.71581958788E+01 -0.36688005309E+00  0.58704378446E+01  0.92647941133E+01  0.51100000000E-03 0.  1.
         12    1    4    4    0    0 -0.40204849791E+01 -0.21182496691E+01  0.31689062400E+02  0.32013246585E+02  0.00000000000E+00 0. -1.
</event>
<event>
 8    1  0.1271559E-006  0.9118800E+02  0.7816164E-02  0.1184000E+00
        -11   -1    0    0    0    0  0.00000000000E+00  0.00000000000E+00  0.45593999997E+02  0.45594000000E+02  0.51100000000E-03 0. -1.
         11   -1    0    0    0    0 -0.00000000000E+00 -0.00000000000E+00 -0.45593999997E+02  0.45594000000E+02  0.51100000000E-03 0.  1.
         23    2    1    2    0    0 -0.71054273576E-14  0.17763568394E-14 -0.17763568394E-14  0.91188000000E+02  0.91188000000E+02 0.  0.
    9900012    2    3    3    0    0  0.32322115500E+02 -0.15205022442E+02  0.89368499683E+01  0.54367093640E+02  0.40000021571E+02 0.  0.
        -12    1    3    3    0    0 -0.32322115500E+02  0.15205022442E+02 -0.89368499683E+01  0.36820906360E+02  0.00000000000E+00 0.  1.
         11    1    4    4    0    0  0.25733921842E+02 -0.15905732850E+02  0.20987213310E+02  0.36819698446E+02  0.51100000000E-03 0. -1.
        -11    1    4    4    0    0 -0.26510245610E+01  0.20885236024E+01 -0.26192671243E+01  0.42720513328E+01  0.51100000000E-03 0.  1.
         12    1    4    4    0    0  0.92392182184E+01 -0.13878131944E+01 -0.94310962178E+01  0.13275343861E+02  0.00000000000E+00 0. -1.
</event>
<event>
 8    1  0.1271559E-006  0.9118800E+02  0.7816164E-02  0.1184000E+00
        -11   -1    0    0    0    0  0.00000000000E+00  0.00000000000E+00  0.45593999997E+02  0.45594000000E+02  0.51100000000E-03 0. -1.
         11   -1    0    0    0    0 -0.00000000000E+00 -0.00000000000E+00 -0.45593999997E+02  0.45594000000E+02  0.51100000000E-03 0.  1.
         23    2    1    2    0    0  0.71054273576E-14  0.16653345369E-15  0.00000000000E+00  0.91188000000E+02  0.91188000000E+02 0.  0.
    9900012    2    3    3    0    0  0.36000309096E+02 -0.18858351018E+00 -0.77281278023E+01  0.54367057887E+02  0.39999940065E+02 0.  0.
         12    1    3    3    0    0 -0.36000309096E+02  0.18858351018E+00  0.77281278023E+01  0.36820942113E+02  0.00000000000E+00 0. -1.
         11    1    4    4    0    0  0.22547208720E+02  0.22863121429E+01  0.13232304626E+02  0.26243051085E+02  0.51100000000E-03 0. -1.
        -11    1    4    4    0    0  0.11688613465E+02  0.18428259842E+00 -0.66233059877E+01  0.13435990000E+02  0.51100000000E-03 0.  1.
        -12    1    4    4    0    0  0.17644869121E+01 -0.26591782515E+01 -0.14337126440E+02  0.14688016803E+02  0.00000000000E+00 0.  1.
</event>
<event>
 8    1  0.1271559E-006  0.9118800E+02  0.7816164E-02  0.1184000E+00
        -11   -1    0    0    0    0  0.00000000000E+00  0.00000000000E+00  0.45593999997E+02  0.45594000000E+02  0.51100000000E-03 0.  1.
         11   -1    0    0    0    0 -0.00000000000E+00 -0.00000000000E+00 -0.45593999997E+02  0.45594000000E+02  0.51100000000E-03 0. -1.
         23    2    1    2    0    0  0.00000000000E+00  0.88817841970E-15  0.00000000000E+00  0.91188000000E+02  0.91188000000E+02 0.  0.
    9900012    2    3    3    0    0  0.35861111619E+02  0.57569086947E+01 -0.60513253362E+01  0.54367083898E+02  0.39999999362E+02 0.  0.
         12    1    3    3    0    0 -0.35861111619E+02 -0.57569086947E+01  0.60513253362E+01  0.36820916102E+02  0.00000000000E+00 0. -1.
         11    1    4    4    0    0  0.23772071225E+01  0.19524563184E+01  0.18482972538E+01  0.35887884276E+01  0.51100000000E-03 0.  1.
        -11    1    4    4    0    0 -0.44785602612E+00  0.14234641420E+02 -0.52587240859E+01  0.15181560218E+02  0.51100000000E-03 0. -1.
         12    1    4    4    0    0  0.33931760523E+02 -0.10430189044E+02 -0.26408985041E+01  0.35596735252E+02  0.00000000000E+00 0. -1.
</event>
<event>
 8    1  0.1271559E-006  0.9118800E+02  0.7816164E-02  0.1184000E+00
        -11   -1    0    0    0    0  0.00000000000E+00  0.00000000000E+00  0.45593999997E+02  0.45594000000E+02  0.51100000000E-03 0.  1.
         11   -1    0    0    0    0 -0.00000000000E+00 -0.00000000000E+00 -0.45593999997E+02  0.45594000000E+02  0.51100000000E-03 0. -1.
         23    2    1    2    0    0  0.35527136788E-14 -0.17763568394E-14  0.00000000000E+00  0.91188000000E+02  0.91188000000E+02 0.  0.
    9900012    2    3    3    0    0 -0.21994403273E+02 -0.14091856713E+02 -0.25950836374E+02  0.54367080546E+02  0.39999991720E+02 0.  0.
        -12    1    3    3    0    0  0.21994403273E+02  0.14091856713E+02  0.25950836374E+02  0.36820919454E+02  0.00000000000E+00 0.  1.
         11    1    4    4    0    0 -0.89291885919E+01 -0.13361009312E+02 -0.11216814400E+02  0.19597548425E+02  0.51100000000E-03 0. -1.
        -11    1    4    4    0    0 -0.82477868106E+01  0.27732575125E+01 -0.22994093491E+02  0.24585468884E+02  0.51100000000E-03 0.  1.
        -12    1    4    4    0    0 -0.48174278708E+01 -0.35041049138E+01  0.82600715170E+01  0.10184063236E+02  0.00000000000E+00 0.  1.
</event>
<event>
 8    1  0.1271559E-006  0.9118800E+02  0.7816164E-02  0.1184000E+00
        -11   -1    0    0    0    0  0.00000000000E+00  0.00000000000E+00  0.45593999997E+02  0.45594000000E+02  0.51100000000E-03 0. -1.
         11   -1    0    0    0    0 -0.00000000000E+00 -0.00000000000E+00 -0.45593999997E+02  0.45594000000E+02  0.51100000000E-03 0.  1.
         23    2    1    2    0    0 -0.35527136788E-14  0.35527136788E-14  0.17763568394E-14  0.91188000000E+02  0.91188000000E+02 0.  0.
    9900012    2    3    3    0    0  0.25596001886E+02  0.21880334925E+02 -0.14894862949E+02  0.54367335812E+02  0.40000573647E+02 0.  0.
        -12    1    3    3    0    0 -0.25596001886E+02 -0.21880334925E+02  0.14894862949E+02  0.36820664188E+02  0.00000000000E+00 0.  1.
         11    1    4    4    0    0 -0.25975637181E+00  0.59994177132E+01  0.77289492445E+01  0.97876014914E+01  0.51100000000E-03 0. -1.
        -11    1    4    4    0    0  0.10318521092E+01 -0.54070677013E+01 -0.17175253154E+01  0.57663674330E+01  0.51100000000E-03 0.  1.
         12    1    4    4    0    0  0.24823906149E+02  0.21287984913E+02 -0.20906286878E+02  0.38813366888E+02  0.00000000000E+00 0. -1.
</event>
<event>
 8    1  0.1271559E-006  0.9118800E+02  0.7816164E-02  0.1184000E+00
        -11   -1    0    0    0    0  0.00000000000E+00  0.00000000000E+00  0.45593999997E+02  0.45594000000E+02  0.51100000000E-03 0. -1.
         11   -1    0    0    0    0 -0.00000000000E+00 -0.00000000000E+00 -0.45593999997E+02  0.45594000000E+02  0.51100000000E-03 0.  1.
         23    2    1    2    0    0  0.88817841970E-15  0.71054273576E-14  0.00000000000E+00  0.91188000000E+02  0.91188000000E+02 0.  0.
    9900012    2    3    3    0    0 -0.72760458225E+01 -0.34925688747E+02  0.91123785501E+01  0.54367081759E+02  0.39999994485E+02 0.  0.
        -12    1    3    3    0    0  0.72760458225E+01  0.34925688747E+02 -0.91123785501E+01  0.36820918241E+02  0.00000000000E+00 0.  1.
         11    1    4    4    0    0 -0.12240189961E+02 -0.41120930282E+02  0.11033537591E+02  0.44300023810E+02  0.51100000000E-03 0. -1.
        -11    1    4    4    0    0  0.24637492242E+00  0.10521953054E+01 -0.28297087558E+01  0.30290373829E+01  0.51100000000E-03 0.  1.
         12    1    4    4    0    0  0.47177692161E+01  0.51430462294E+01  0.90854971453E+00  0.70380205653E+01  0.00000000000E+00 0. -1.
</event>
<event>
 8    1  0.1271559E-006  0.9118800E+02  0.7816164E-02  0.1184000E+00
        -11   -1    0    0    0    0  0.00000000000E+00  0.00000000000E+00  0.45593999997E+02  0.45594000000E+02  0.51100000000E-03 0.  1.
         11   -1    0    0    0    0 -0.00000000000E+00 -0.00000000000E+00 -0.45593999997E+02  0.45594000000E+02  0.51100000000E-03 0. -1.
         23    2    1    2    0    0  0.00000000000E+00  0.00000000000E+00  0.00000000000E+00  0.91188000000E+02  0.91188000000E+02 0.  0.
    9900012    2    3    3    0    0  0.25168320566E+02 -0.59214368892E+01  0.26215884277E+02  0.54367077097E+02  0.39999983859E+02 0.  0.
         12    1    3    3    0    0 -0.25168320566E+02  0.59214368892E+01 -0.26215884277E+02  0.36820922903E+02  0.00000000000E+00 0. -1.
         11    1    4    4    0    0  0.48831568391E+01  0.11834844960E+02  0.60586948996E+01  0.14163917540E+02  0.51100000000E-03 0. -1.
        -11    1    4    4    0    0  0.17022276093E+02 -0.39838477791E+01  0.19274748788E+02  0.26022007371E+02  0.51100000000E-03 0.  1.
         12    1    4    4    0    0  0.32628876341E+01 -0.13772434070E+02  0.88244058933E+00  0.14181152186E+02  0.00000000000E+00 0. -1.
</event>
<event>
 8    1  0.1271559E-006  0.9118800E+02  0.7816164E-02  0.1184000E+00
        -11   -1    0    0    0    0  0.00000000000E+00  0.00000000000E+00  0.45593999997E+02  0.45594000000E+02  0.51100000000E-03 0. -1.
         11   -1    0    0    0    0 -0.00000000000E+00 -0.00000000000E+00 -0.45593999997E+02  0.45594000000E+02  0.51100000000E-03 0.  1.
         23    2    1    2    0    0  0.88817841970E-15  0.71054273576E-14  0.55511151231E-15  0.91188000000E+02  0.91188000000E+02 0.  0.
    9900012    2    3    3    0    0 -0.42555223209E+01  0.36568274071E+02 -0.65679703261E+00  0.54367088535E+02  0.40000009934E+02 0.  0.
         12    1    3    3    0    0  0.42555223209E+01 -0.36568274071E+02  0.65679703261E+00  0.36820911465E+02  0.00000000000E+00 0. -1.
         11    1    4    4    0    0  0.35575965159E+01 -0.66319418500E+01 -0.22879792120E+01  0.78660024667E+01  0.51100000000E-03 0. -1.
        -11    1    4    4    0    0  0.32709924704E+01  0.12952838099E+02 -0.36679351877E+01  0.13853849839E+02  0.51100000000E-03 0.  1.
        -12    1    4    4    0    0 -0.11084111307E+02  0.30247377822E+02  0.52991173671E+01  0.32647236230E+02  0.00000000000E+00 0.  1.
</event>
<event>
 8    1  0.1271559E-006  0.9118800E+02  0.7816164E-02  0.1184000E+00
        -11   -1    0    0    0    0  0.00000000000E+00  0.00000000000E+00  0.45593999997E+02  0.45594000000E+02  0.51100000000E-03 0. -1.
         11   -1    0    0    0    0 -0.00000000000E+00 -0.00000000000E+00 -0.45593999997E+02  0.45594000000E+02  0.51100000000E-03 0.  1.
         23    2    1    2    0    0 -0.17763568394E-14  0.00000000000E+00  0.00000000000E+00  0.91188000000E+02  0.91188000000E+02 0.  0.
    9900012    2    3    3    0    0 -0.38546531012E+01  0.18171317099E+02 -0.31791827629E+02  0.54367144230E+02  0.40000136901E+02 0.  0.
         12    1    3    3    0    0  0.38546531012E+01 -0.18171317099E+02  0.31791827629E+02  0.36820855770E+02  0.00000000000E+00 0. -1.
         11    1    4    4    0    0 -0.90487604945E+01  0.61157229402E+01  0.48783916793E+01  0.11961640323E+02  0.51100000000E-03 0. -1.
        -11    1    4    4    0    0 -0.44297373468E+01  0.82809403069E+01 -0.25555498149E+02  0.27226458294E+02  0.51100000000E-03 0.  1.
         12    1    4    4    0    0  0.96238447401E+01  0.37746538521E+01 -0.11114721159E+02  0.15179045613E+02  0.00000000000E+00 0. -1.
</event>
<event>
 8    1  0.1271559E-006  0.9118800E+02  0.7816164E-02  0.1184000E+00
        -11   -1    0    0    0    0  0.00000000000E+00  0.00000000000E+00  0.45593999997E+02  0.45594000000E+02  0.51100000000E-03 0. -1.
         11   -1    0    0    0    0 -0.00000000000E+00 -0.00000000000E+00 -0.45593999997E+02  0.45594000000E+02  0.51100000000E-03 0.  1.
         23    2    1    2    0    0  0.00000000000E+00 -0.88817841970E-15 -0.35527136788E-14  0.91188000000E+02  0.91188000000E+02 0.  0.
    9900012    2    3    3    0    0 -0.27047971974E+02 -0.22270193174E+01 -0.24884275687E+02  0.54367087743E+02  0.40000008127E+02 0.  0.
         12    1    3    3    0    0  0.27047971974E+02  0.22270193174E+01  0.24884275687E+02  0.36820912257E+02  0.00000000000E+00 0. -1.
         11    1    4    4    0    0  0.53055569387E+01 -0.65723031223E+01 -0.13493674328E+02  0.15919276048E+02  0.51100000000E-03 0. -1.
        -11    1    4    4    0    0 -0.88508775145E+01  0.50949574662E+01 -0.10887769542E+02  0.14927831397E+02  0.51100000000E-03 0.  1.
        -12    1    4    4    0    0 -0.23502651399E+02 -0.74967366118E+00 -0.50283181721E+00  0.23519980298E+02  0.00000000000E+00 0.  1.
</event>
<event>
 8    1  0.1271559E-006  0.9118800E+02  0.7816164E-02  0.1184000E+00
        -11   -1    0    0    0    0  0.00000000000E+00  0.00000000000E+00  0.45593999997E+02  0.45594000000E+02  0.51100000000E-03 0.  1.
         11   -1    0    0    0    0 -0.00000000000E+00 -0.00000000000E+00 -0.45593999997E+02  0.45594000000E+02  0.51100000000E-03 0. -1.
         23    2    1    2    0    0  0.00000000000E+00 -0.71054273576E-14  0.00000000000E+00  0.91188000000E+02  0.91188000000E+02 0.  0.
    9900012    2    3    3    0    0  0.14147852282E+02  0.32516132182E+02 -0.99156929723E+01  0.54367061074E+02  0.39999947329E+02 0.  0.
        -12    1    3    3    0    0 -0.14147852282E+02 -0.32516132182E+02  0.99156929723E+01  0.36820938926E+02  0.00000000000E+00 0.  1.
         11    1    4    4    0    0  0.94623340770E+01  0.15961168558E+02 -0.11373221197E+00  0.18555527564E+02  0.51100000000E-03 0. -1.
        -11    1    4    4    0    0 -0.18056033293E+01 -0.40669745836E+01 -0.13197156942E+02  0.13927147492E+02  0.51100000000E-03 0.  1.
        -12    1    4    4    0    0  0.64911215345E+01  0.20621938208E+02  0.33951961818E+01  0.21884386017E+02  0.00000000000E+00 0.  1.
</event>
<event>
 8    1  0.1271559E-006  0.9118800E+02  0.7816164E-02  0.1184000E+00
        -11   -1    0    0    0    0  0.00000000000E+00  0.00000000000E+00  0.45593999997E+02  0.45594000000E+02  0.51100000000E-03 0.  1.
         11   -1    0    0    0    0 -0.00000000000E+00 -0.00000000000E+00 -0.45593999997E+02  0.45594000000E+02  0.51100000000E-03 0. -1.
         23    2    1    2    0    0  0.35527136788E-14  0.00000000000E+00  0.00000000000E+00  0.91188000000E+02  0.91188000000E+02 0.  0.
    9900012    2    3    3    0    0  0.27578364936E+02 -0.18101778958E+02 -0.16356617833E+02  0.54367087995E+02  0.40000008702E+02 0.  0.
        -12    1    3    3    0    0 -0.27578364936E+02  0.18101778958E+02  0.16356617833E+02  0.36820912005E+02  0.00000000000E+00 0.  1.
         11    1    4    4    0    0 -0.15724269359E+01  0.40344678409E+01 -0.14197218977E+02  0.14842859703E+02  0.51100000000E-03 0. -1.
        -11    1    4    4    0    0  0.18198451316E+02 -0.61246492606E+01 -0.51884447752E+01  0.19890070847E+02  0.51100000000E-03 0.  1.
         12    1    4    4    0    0  0.10952340556E+02 -0.16011597538E+02  0.30290459192E+01  0.19634157445E+02  0.00000000000E+00 0. -1.
</event>
<event>
 8    1  0.1271559E-006  0.9118800E+02  0.7816164E-02  0.1184000E+00
        -11   -1    0    0    0    0  0.00000000000E+00  0.00000000000E+00  0.45593999997E+02  0.45594000000E+02  0.51100000000E-03 0.  1.
         11   -1    0    0    0    0 -0.00000000000E+00 -0.00000000000E+00 -0.45593999997E+02  0.45594000000E+02  0.51100000000E-03 0. -1.
         23    2    1    2    0    0  0.00000000000E+00 -0.17763568394E-14 -0.35527136788E-14  0.91188000000E+02  0.91188000000E+02 0.  0.
    9900012    2    3    3    0    0 -0.12697963201E+02  0.15604713582E+02 -0.30838689512E+02  0.54367216111E+02  0.40000300766E+02 0.  0.
        -12    1    3    3    0    0  0.12697963201E+02 -0.15604713582E+02  0.30838689512E+02  0.36820783889E+02  0.00000000000E+00 0.  1.
         11    1    4    4    0    0 -0.39277008453E+01  0.10645073774E+01  0.19913752284E+00  0.40742687566E+01  0.51100000000E-03 0. -1.
        -11    1    4    4    0    0 -0.95612063504E+01  0.30952849808E+00  0.55273095028E+01  0.11048240827E+02  0.51100000000E-03 0.  1.
         12    1    4    4    0    0  0.79094399519E+00  0.14230677706E+02 -0.36565136538E+02  0.39244706527E+02  0.00000000000E+00 0. -1.
</event>
<event>
 8    1  0.1271559E-006  0.9118800E+02  0.7816164E-02  0.1184000E+00
        -11   -1    0    0    0    0  0.00000000000E+00  0.00000000000E+00  0.45593999997E+02  0.45594000000E+02  0.51100000000E-03 0. -1.
         11   -1    0    0    0    0 -0.00000000000E+00 -0.00000000000E+00 -0.45593999997E+02  0.45594000000E+02  0.51100000000E-03 0.  1.
         23    2    1    2    0    0  0.00000000000E+00  0.00000000000E+00  0.00000000000E+00  0.91188000000E+02  0.91188000000E+02 0.  0.
    9900012    2    3    3    0    0 -0.11754518557E+02 -0.47566379827E+01 -0.34568567985E+02  0.54367079263E+02  0.39999988795E+02 0.  0.
         12    1    3    3    0    0  0.11754518557E+02  0.47566379827E+01  0.34568567985E+02  0.36820920737E+02  0.00000000000E+00 0. -1.
         11    1    4    4    0    0 -0.13178342727E+02  0.59093590070E+01 -0.11383999165E+02  0.18389798208E+02  0.51100000000E-03 0. -1.
        -11    1    4    4    0    0 -0.11873367168E+02 -0.62158261330E+01 -0.99056197738E+01  0.16665372657E+02  0.51100000000E-03 0.  1.
         12    1    4    4    0    0  0.13297191339E+02 -0.44501708567E+01 -0.13278949047E+02  0.19311908397E+02  0.00000000000E+00 0. -1.
</event>
<event>
 8    1  0.1271559E-006  0.9118800E+02  0.7816164E-02  0.1184000E+00
        -11   -1    0    0    0    0  0.00000000000E+00  0.00000000000E+00  0.45593999997E+02  0.45594000000E+02  0.51100000000E-03 0.  1.
         11   -1    0    0    0    0 -0.00000000000E+00 -0.00000000000E+00 -0.45593999997E+02  0.45594000000E+02  0.51100000000E-03 0. -1.
         23    2    1    2    0    0  0.00000000000E+00 -0.22204460493E-15  0.35527136788E-14  0.91188000000E+02  0.91188000000E+02 0.  0.
    9900012    2    3    3    0    0  0.28586040546E+02  0.40127983488E+00  0.23204721231E+02  0.54367057222E+02  0.39999938550E+02 0.  0.
         12    1    3    3    0    0 -0.28586040546E+02 -0.40127983488E+00 -0.23204721231E+02  0.36820942778E+02  0.00000000000E+00 0. -1.
         11    1    4    4    0    0  0.77195306098E+01  0.76943592769E+01  0.94658022872E+01  0.14435918077E+02  0.51100000000E-03 0. -1.
        -11    1    4    4    0    0  0.15711592964E+02 -0.35061433919E+01 -0.74931224991E+01  0.17756522182E+02  0.51100000000E-03 0.  1.
        -12    1    4    4    0    0  0.51549169727E+01 -0.37869360502E+01  0.21232041443E+02  0.22174616964E+02  0.00000000000E+00 0.  1.
</event>
<event>
 8    1  0.1271559E-006  0.9118800E+02  0.7816164E-02  0.1184000E+00
        -11   -1    0    0    0    0  0.00000000000E+00  0.00000000000E+00  0.45593999997E+02  0.45594000000E+02  0.51100000000E-03 0.  1.
         11   -1    0    0    0    0 -0.00000000000E+00 -0.00000000000E+00 -0.45593999997E+02  0.45594000000E+02  0.51100000000E-03 0. -1.
         23    2    1    2    0    0  0.35527136788E-14  0.35527136788E-14  0.35527136788E-14  0.91188000000E+02  0.91188000000E+02 0.  0.
    9900012    2    3    3    0    0 -0.27881065380E+02 -0.12935462960E+02 -0.20275590565E+02  0.54367087716E+02  0.40000008065E+02 0.  0.
        -12    1    3    3    0    0  0.27881065380E+02  0.12935462960E+02  0.20275590565E+02  0.36820912284E+02  0.00000000000E+00 0.  1.
         11    1    4    4    0    0 -0.18458803112E+02  0.66945969664E+01 -0.55226958990E+01  0.20397186353E+02  0.51100000000E-03 0. -1.
        -11    1    4    4    0    0 -0.25771005597E+01  0.45532039009E+01 -0.10236232343E+01  0.53311272584E+01  0.51100000000E-03 0.  1.
        -12    1    4    4    0    0 -0.68451617083E+01 -0.24183263827E+02 -0.13729271431E+02  0.28638774104E+02  0.00000000000E+00 0.  1.
</event>
<event>
 8    1  0.1271559E-006  0.9118800E+02  0.7816164E-02  0.1184000E+00
        -11   -1    0    0    0    0  0.00000000000E+00  0.00000000000E+00  0.45593999997E+02  0.45594000000E+02  0.51100000000E-03 0.  1.
         11   -1    0    0    0    0 -0.00000000000E+00 -0.00000000000E+00 -0.45593999997E+02  0.45594000000E+02  0.51100000000E-03 0. -1.
         23    2    1    2    0    0  0.00000000000E+00 -0.35527136788E-14 -0.35527136788E-14  0.91188000000E+02  0.91188000000E+02 0.  0.
    9900012    2    3    3    0    0 -0.11324644013E+02  0.20809624258E+02  0.28186718527E+02  0.54367093913E+02  0.40000022193E+02 0.  0.
         12    1    3    3    0    0  0.11324644013E+02 -0.20809624258E+02 -0.28186718527E+02  0.36820906087E+02  0.00000000000E+00 0. -1.
         11    1    4    4    0    0 -0.13762124116E+02  0.17460215259E+02  0.28703032383E+01  0.22416373881E+02  0.51100000000E-03 0. -1.
        -11    1    4    4    0    0 -0.37143945241E+01 -0.64534820659E+01  0.13459067311E+02  0.15381503522E+02  0.51100000000E-03 0.  1.
         12    1    4    4    0    0  0.61518746268E+01  0.98028910651E+01  0.11857347978E+02  0.16569216509E+02  0.00000000000E+00 0. -1.
</event>
<event>
 8    1  0.1271559E-006  0.9118800E+02  0.7816164E-02  0.1184000E+00
        -11   -1    0    0    0    0  0.00000000000E+00  0.00000000000E+00  0.45593999997E+02  0.45594000000E+02  0.51100000000E-03 0.  1.
         11   -1    0    0    0    0 -0.00000000000E+00 -0.00000000000E+00 -0.45593999997E+02  0.45594000000E+02  0.51100000000E-03 0. -1.
         23    2    1    2    0    0 -0.35527136788E-14 -0.71054273576E-14  0.44408920985E-15  0.91188000000E+02  0.91188000000E+02 0.  0.
    9900012    2    3    3    0    0  0.20550657346E+02  0.30417702187E+02 -0.28656590845E+01  0.54367107484E+02  0.40000053131E+02 0.  0.
        -12    1    3    3    0    0 -0.20550657346E+02 -0.30417702187E+02  0.28656590845E+01  0.36820892516E+02  0.00000000000E+00 0.  1.
         11    1    4    4    0    0  0.24155187369E+01 -0.12677987609E+01 -0.10644373229E+02  0.10988390518E+02  0.51100000000E-03 0. -1.
        -11    1    4    4    0    0  0.18881820941E+02  0.31044316899E+02  0.81386354696E+00  0.36344671520E+02  0.51100000000E-03 0.  1.
        -12    1    4    4    0    0 -0.74668233152E+00  0.64118404914E+00  0.69648505977E+01  0.70340454461E+01  0.00000000000E+00 0.  1.
</event>
<event>
 8    1  0.1271559E-006  0.9118800E+02  0.7816164E-02  0.1184000E+00
        -11   -1    0    0    0    0  0.00000000000E+00  0.00000000000E+00  0.45593999997E+02  0.45594000000E+02  0.51100000000E-03 0.  1.
         11   -1    0    0    0    0 -0.00000000000E+00 -0.00000000000E+00 -0.45593999997E+02  0.45594000000E+02  0.51100000000E-03 0. -1.
         23    2    1    2    0    0 -0.35527136788E-14 -0.17763568394E-14  0.35527136788E-14  0.91188000000E+02  0.91188000000E+02 0.  0.
    9900012    2    3    3    0    0  0.24759261860E+02  0.74755907374E+01 -0.26208263737E+02  0.54367101140E+02  0.40000038669E+02 0.  0.
        -12    1    3    3    0    0 -0.24759261860E+02 -0.74755907374E+01  0.26208263737E+02  0.36820898860E+02  0.00000000000E+00 0.  1.
         11    1    4    4    0    0  0.15476300956E+02  0.17175465729E+02 -0.22349960178E+02  0.32156387150E+02  0.51100000000E-03 0.  1.
        -11    1    4    4    0    0  0.42719894749E+01  0.13190399696E+01 -0.82091621266E+01  0.93477325377E+01  0.51100000000E-03 0. -1.
         12    1    4    4    0    0  0.50109714285E+01 -0.11018914961E+02  0.43508585672E+01  0.12862981453E+02  0.00000000000E+00 0. -1.
</event>
<event>
 8    1  0.1271559E-006  0.9118800E+02  0.7816164E-02  0.1184000E+00
        -11   -1    0    0    0    0  0.00000000000E+00  0.00000000000E+00  0.45593999997E+02  0.45594000000E+02  0.51100000000E-03 0. -1.
         11   -1    0    0    0    0 -0.00000000000E+00 -0.00000000000E+00 -0.45593999997E+02  0.45594000000E+02  0.51100000000E-03 0.  1.
         23    2    1    2    0    0  0.00000000000E+00  0.00000000000E+00  0.00000000000E+00  0.91188000000E+02  0.91188000000E+02 0.  0.
    9900012    2    3    3    0    0 -0.40843183908E+01 -0.19901101289E+02  0.30709012262E+02  0.54367096653E+02  0.40000028439E+02 0.  0.
        -12    1    3    3    0    0  0.40843183908E+01  0.19901101289E+02 -0.30709012262E+02  0.36820903347E+02  0.00000000000E+00 0.  1.
         11    1    4    4    0    0 -0.91787726164E+01 -0.10343003468E+02  0.16549223811E+02  0.21566279152E+02  0.51100000000E-03 0. -1.
        -11    1    4    4    0    0 -0.81224548510E+01 -0.15328366356E+00  0.14449568596E+02  0.16576724693E+02  0.51100000000E-03 0.  1.
        -12    1    4    4    0    0  0.13216909077E+02 -0.94048141576E+01 -0.28978014490E+00  0.16224092807E+02  0.00000000000E+00 0.  1.
</event>
<event>
 8    1  0.1271559E-006  0.9118800E+02  0.7816164E-02  0.1184000E+00
        -11   -1    0    0    0    0  0.00000000000E+00  0.00000000000E+00  0.45593999997E+02  0.45594000000E+02  0.51100000000E-03 0.  1.
         11   -1    0    0    0    0 -0.00000000000E+00 -0.00000000000E+00 -0.45593999997E+02  0.45594000000E+02  0.51100000000E-03 0. -1.
         23    2    1    2    0    0 -0.35527136788E-14 -0.35527136788E-14 -0.35527136788E-14  0.91188000000E+02  0.91188000000E+02 0.  0.
    9900012    2    3    3    0    0 -0.16018779941E+02 -0.27574194967E+02 -0.18407652848E+02  0.54367092593E+02  0.40000019185E+02 0.  0.
        -12    1    3    3    0    0  0.16018779941E+02  0.27574194967E+02  0.18407652848E+02  0.36820907407E+02  0.00000000000E+00 0.  1.
         11    1    4    4    0    0  0.58024759261E+01 -0.11343905235E+02 -0.21855518090E+02  0.25298549051E+02  0.51100000000E-03 0. -1.
        -11    1    4    4    0    0 -0.16602750427E+01 -0.32125326973E+01 -0.24349157462E+01  0.43595520987E+01  0.51100000000E-03 0.  1.
        -12    1    4    4    0    0 -0.20160980824E+02 -0.13017757035E+02  0.58827809885E+01  0.24708991444E+02  0.00000000000E+00 0.  1.
</event>
<event>
 8    1  0.1271559E-006  0.9118800E+02  0.7816164E-02  0.1184000E+00
        -11   -1    0    0    0    0  0.00000000000E+00  0.00000000000E+00  0.45593999997E+02  0.45594000000E+02  0.51100000000E-03 0.  1.
         11   -1    0    0    0    0 -0.00000000000E+00 -0.00000000000E+00 -0.45593999997E+02  0.45594000000E+02  0.51100000000E-03 0. -1.
         23    2    1    2    0    0 -0.88817841970E-15 -0.35527136788E-14 -0.71054273576E-14  0.91188000000E+02  0.91188000000E+02 0.  0.
    9900012    2    3    3    0    0 -0.49150614119E+01 -0.14002235318E+02 -0.33698080621E+02  0.54367067636E+02  0.39999962290E+02 0.  0.
        -12    1    3    3    0    0  0.49150614119E+01  0.14002235318E+02  0.33698080621E+02  0.36820932364E+02  0.00000000000E+00 0.  1.
         11    1    4    4    0    0 -0.17766653360E+01  0.34291218943E+01  0.11734064764E+01  0.40363720966E+01  0.51100000000E-03 0. -1.
        -11    1    4    4    0    0  0.12923925581E+02 -0.51508190856E+00 -0.11446121740E+02  0.17271562319E+02  0.51100000000E-03 0.  1.
         12    1    4    4    0    0 -0.16062321657E+02 -0.16916275304E+02 -0.23425365358E+02  0.33059133221E+02  0.00000000000E+00 0. -1.
</event>
<event>
 8    1  0.1271559E-006  0.9118800E+02  0.7816164E-02  0.1184000E+00
        -11   -1    0    0    0    0  0.00000000000E+00  0.00000000000E+00  0.45593999997E+02  0.45594000000E+02  0.51100000000E-03 0. -1.
         11   -1    0    0    0    0 -0.00000000000E+00 -0.00000000000E+00 -0.45593999997E+02  0.45594000000E+02  0.51100000000E-03 0.  1.
         23    2    1    2    0    0 -0.17763568394E-14  0.00000000000E+00 -0.35527136788E-14  0.91188000000E+02  0.91188000000E+02 0.  0.
    9900012    2    3    3    0    0 -0.10718595881E+02  0.17305157485E+02 -0.30682620509E+02  0.54367082377E+02  0.39999995896E+02 0.  0.
         12    1    3    3    0    0  0.10718595881E+02 -0.17305157485E+02  0.30682620509E+02  0.36820917623E+02  0.00000000000E+00 0. -1.
         11    1    4    4    0    0 -0.98588784582E+01 -0.19825624173E+01  0.29192535659E+01  0.10471393405E+02  0.51100000000E-03 0. -1.
        -11    1    4    4    0    0  0.88417625037E+01  0.45961838937E+01 -0.77770070901E+01  0.12640550229E+02  0.51100000000E-03 0.  1.
        -12    1    4    4    0    0 -0.97014799268E+01  0.14691536009E+02 -0.25824866985E+02  0.31255138743E+02  0.00000000000E+00 0.  1.
</event>
<event>
 8    1  0.1271559E-006  0.9118800E+02  0.7816164E-02  0.1184000E+00
        -11   -1    0    0    0    0  0.00000000000E+00  0.00000000000E+00  0.45593999997E+02  0.45594000000E+02  0.51100000000E-03 0. -1.
         11   -1    0    0    0    0 -0.00000000000E+00 -0.00000000000E+00 -0.45593999997E+02  0.45594000000E+02  0.51100000000E-03 0.  1.
         23    2    1    2    0    0  0.00000000000E+00  0.00000000000E+00 -0.17763568394E-14  0.91188000000E+02  0.91188000000E+02 0.  0.
    9900012    2    3    3    0    0 -0.12047307204E+02 -0.32658366885E+02  0.12003047896E+02  0.54367086144E+02  0.40000004482E+02 0.  0.
         12    1    3    3    0    0  0.12047307204E+02  0.32658366885E+02 -0.12003047896E+02  0.36820913856E+02  0.00000000000E+00 0. -1.
         11    1    4    4    0    0 -0.29382732929E+01 -0.22009973943E+02 -0.21058231753E+01  0.22304862574E+02  0.51100000000E-03 0.  1.
        -11    1    4    4    0    0  0.95765638595E+00 -0.62403494743E+01  0.19008812809E+02  0.20029828556E+02  0.51100000000E-03 0. -1.
        -12    1    4    4    0    0 -0.10066690297E+02 -0.44080434669E+01 -0.48999417377E+01  0.12032395014E+02  0.00000000000E+00 0.  1.
</event>
<event>
 8    1  0.1271559E-006  0.9118800E+02  0.7816164E-02  0.1184000E+00
        -11   -1    0    0    0    0  0.00000000000E+00  0.00000000000E+00  0.45593999997E+02  0.45594000000E+02  0.51100000000E-03 0. -1.
         11   -1    0    0    0    0 -0.00000000000E+00 -0.00000000000E+00 -0.45593999997E+02  0.45594000000E+02  0.51100000000E-03 0.  1.
         23    2    1    2    0    0  0.17763568394E-14  0.71054273576E-14 -0.17763568394E-14  0.91188000000E+02  0.91188000000E+02 0.  0.
    9900012    2    3    3    0    0 -0.60998302460E+01 -0.32929544061E+02  0.15304053163E+02  0.54367124884E+02  0.40000092798E+02 0.  0.
        -12    1    3    3    0    0  0.60998302460E+01  0.32929544061E+02 -0.15304053163E+02  0.36820875116E+02  0.00000000000E+00 0.  1.
         11    1    4    4    0    0  0.14123740540E+02 -0.64869495144E+01 -0.18413447290E+01  0.15650914079E+02  0.51100000000E-03 0. -1.
        -11    1    4    4    0    0 -0.32576570334E+01 -0.53147190008E-01  0.24261491818E+01  0.40621858752E+01  0.51100000000E-03 0.  1.
         12    1    4    4    0    0 -0.16965913752E+02 -0.26389447356E+02  0.14719248711E+02  0.34654024930E+02  0.00000000000E+00 0. -1.
</event>
<event>
 8    1  0.1271559E-006  0.9118800E+02  0.7816164E-02  0.1184000E+00
        -11   -1    0    0    0    0  0.00000000000E+00  0.00000000000E+00  0.45593999997E+02  0.45594000000E+02  0.51100000000E-03 0. -1.
         11   -1    0    0    0    0 -0.00000000000E+00 -0.00000000000E+00 -0.45593999997E+02  0.45594000000E+02  0.51100000000E-03 0.  1.
         23    2    1    2    0    0  0.00000000000E+00 -0.22204460493E-15  0.00000000000E+00  0.91188000000E+02  0.91188000000E+02 0.  0.
    9900012    2    3    3    0    0 -0.10135279080E+02 -0.82041010643E+00 -0.35389001134E+02  0.54367104356E+02  0.40000046000E+02 0.  0.
         12    1    3    3    0    0  0.10135279080E+02  0.82041010643E+00  0.35389001134E+02  0.36820895644E+02  0.00000000000E+00 0. -1.
         11    1    4    4    0    0 -0.18046561305E+02  0.11919330271E+02 -0.18469479607E+02  0.28440648485E+02  0.51100000000E-03 0. -1.
        -11    1    4    4    0    0  0.58123736964E+01 -0.14549970854E+02 -0.17044824305E+02  0.23151919482E+02  0.51100000000E-03 0.  1.
        -12    1    4    4    0    0  0.20989085281E+01  0.18102304763E+01  0.12530277770E+00  0.27745363888E+01  0.00000000000E+00 0.  1.
</event>
<event>
 8    1  0.1271559E-006  0.9118800E+02  0.7816164E-02  0.1184000E+00
        -11   -1    0    0    0    0  0.00000000000E+00  0.00000000000E+00  0.45593999997E+02  0.45594000000E+02  0.51100000000E-03 0.  1.
         11   -1    0    0    0    0 -0.00000000000E+00 -0.00000000000E+00 -0.45593999997E+02  0.45594000000E+02  0.51100000000E-03 0. -1.
         23    2    1    2    0    0 -0.35527136788E-14  0.00000000000E+00  0.44408920985E-15  0.91188000000E+02  0.91188000000E+02 0.  0.
    9900012    2    3    3    0    0  0.26958435100E+02 -0.24970204053E+02  0.23481615108E+01  0.54367052485E+02  0.39999927749E+02 0.  0.
        -12    1    3    3    0    0 -0.26958435100E+02  0.24970204053E+02 -0.23481615108E+01  0.36820947515E+02  0.00000000000E+00 0.  1.
         11    1    4    4    0    0  0.14390286676E+02 -0.16703438500E+02 -0.10229949724E+02  0.24305083418E+02  0.51100000000E-03 0. -1.
        -11    1    4    4    0    0  0.15575781750E+01 -0.74669102928E+01  0.16635140038E+02  0.18300510469E+02  0.51100000000E-03 0.  1.
        -12    1    4    4    0    0  0.11010570249E+02 -0.79985526022E+00 -0.40570288034E+01  0.11761458598E+02  0.00000000000E+00 0.  1.
</event>
<event>
 8    1  0.1271559E-006  0.9118800E+02  0.7816164E-02  0.1184000E+00
        -11   -1    0    0    0    0  0.00000000000E+00  0.00000000000E+00  0.45593999997E+02  0.45594000000E+02  0.51100000000E-03 0. -1.
         11   -1    0    0    0    0 -0.00000000000E+00 -0.00000000000E+00 -0.45593999997E+02  0.45594000000E+02  0.51100000000E-03 0.  1.
         23    2    1    2    0    0 -0.88817841970E-15  0.00000000000E+00 -0.17763568394E-14  0.91188000000E+02  0.91188000000E+02 0.  0.
    9900012    2    3    3    0    0 -0.78645118992E+01  0.32343581665E+02 -0.15742382647E+02  0.54367076142E+02  0.39999981681E+02 0.  0.
         12    1    3    3    0    0  0.78645118992E+01 -0.32343581665E+02  0.15742382647E+02  0.36820923858E+02  0.00000000000E+00 0. -1.
         11    1    4    4    0    0  0.48302759420E+01 -0.30503514035E+01  0.71277999883E+01  0.91346451653E+01  0.51100000000E-03 0. -1.
        -11    1    4    4    0    0 -0.17342427354E+00  0.91991872007E+01 -0.96413953556E+01  0.13327101178E+02  0.51100000000E-03 0.  1.
         12    1    4    4    0    0 -0.12521363568E+02  0.26194745868E+02 -0.13228787280E+02  0.31905329799E+02  0.00000000000E+00 0. -1.
</event>
<event>
 8    1  0.1271559E-006  0.9118800E+02  0.7816164E-02  0.1184000E+00
        -11   -1    0    0    0    0  0.00000000000E+00  0.00000000000E+00  0.45593999997E+02  0.45594000000E+02  0.51100000000E-03 0. -1.
         11   -1    0    0    0    0 -0.00000000000E+00 -0.00000000000E+00 -0.45593999997E+02  0.45594000000E+02  0.51100000000E-03 0.  1.
         23    2    1    2    0    0  0.00000000000E+00  0.00000000000E+00  0.00000000000E+00  0.91188000000E+02  0.91188000000E+02 0.  0.
    9900012    2    3    3    0    0  0.15109232278E+02  0.25063219444E+02 -0.22345690333E+02  0.54367031173E+02  0.39999879164E+02 0.  0.
         12    1    3    3    0    0 -0.15109232278E+02 -0.25063219444E+02  0.22345690333E+02  0.36820968827E+02  0.00000000000E+00 0. -1.
         11    1    4    4    0    0  0.60622024912E+01  0.88335179558E+00  0.71720245639E+01  0.94323139285E+01  0.51100000000E-03 0. -1.
        -11    1    4    4    0    0 -0.34923307442E+00  0.20829608034E+02 -0.27914220921E+02  0.34830995743E+02  0.51100000000E-03 0.  1.
        -12    1    4    4    0    0  0.93962628609E+01  0.33502596147E+01 -0.16034939758E+01  0.10103721501E+02  0.00000000000E+00 0.  1.
</event>
<event>
 8    1  0.1271559E-006  0.9118800E+02  0.7816164E-02  0.1184000E+00
        -11   -1    0    0    0    0  0.00000000000E+00  0.00000000000E+00  0.45593999997E+02  0.45594000000E+02  0.51100000000E-03 0. -1.
         11   -1    0    0    0    0 -0.00000000000E+00 -0.00000000000E+00 -0.45593999997E+02  0.45594000000E+02  0.51100000000E-03 0.  1.
         23    2    1    2    0    0  0.00000000000E+00  0.35527136788E-14  0.00000000000E+00  0.91188000000E+02  0.91188000000E+02 0.  0.
    9900012    2    3    3    0    0 -0.27127120945E+02  0.17121632264E+02 -0.18076192920E+02  0.54367085663E+02  0.40000003386E+02 0.  0.
         12    1    3    3    0    0  0.27127120945E+02 -0.17121632264E+02  0.18076192920E+02  0.36820914337E+02  0.00000000000E+00 0. -1.
         11    1    4    4    0    0  0.33458068458E+01 -0.48810434174E+01 -0.23513755228E+01  0.63677292187E+01  0.51100000000E-03 0. -1.
        -11    1    4    4    0    0 -0.53615393095E+01 -0.44246756434E+01  0.23122327661E+01  0.73260002008E+01  0.51100000000E-03 0.  1.
        -12    1    4    4    0    0 -0.25111388481E+02  0.26427351325E+02 -0.18037050163E+02  0.40673356243E+02  0.00000000000E+00 0.  1.
</event>
<event>
 8    1  0.1271559E-006  0.9118800E+02  0.7816164E-02  0.1184000E+00
        -11   -1    0    0    0    0  0.00000000000E+00  0.00000000000E+00  0.45593999997E+02  0.45594000000E+02  0.51100000000E-03 0.  1.
         11   -1    0    0    0    0 -0.00000000000E+00 -0.00000000000E+00 -0.45593999997E+02  0.45594000000E+02  0.51100000000E-03 0. -1.
         23    2    1    2    0    0 -0.71054273576E-14  0.00000000000E+00 -0.88817841970E-15  0.91188000000E+02  0.91188000000E+02 0.  0.
    9900012    2    3    3    0    0 -0.34525177030E+02  0.10534628555E+02 -0.72673602547E+01  0.54367071538E+02  0.39999971185E+02 0.  0.
        -12    1    3    3    0    0  0.34525177030E+02 -0.10534628555E+02  0.72673602547E+01  0.36820928462E+02  0.00000000000E+00 0.  1.
         11    1    4    4    0    0 -0.78407961683E+01 -0.34458235270E+01 -0.32009580901E+01  0.91431896671E+01  0.51100000000E-03 0. -1.
        -11    1    4    4    0    0 -0.11725662728E+02 -0.80715247493E+01 -0.10647190614E+02  0.17776482960E+02  0.51100000000E-03 0.  1.
        -12    1    4    4    0    0 -0.14958718134E+02  0.22051976831E+02  0.65807884497E+01  0.27447398911E+02  0.00000000000E+00 0.  1.
</event>
<event>
 8    1  0.1271559E-006  0.9118800E+02  0.7816164E-02  0.1184000E+00
        -11   -1    0    0    0    0  0.00000000000E+00  0.00000000000E+00  0.45593999997E+02  0.45594000000E+02  0.51100000000E-03 0.  1.
         11   -1    0    0    0    0 -0.00000000000E+00 -0.00000000000E+00 -0.45593999997E+02  0.45594000000E+02  0.51100000000E-03 0. -1.
         23    2    1    2    0    0  0.00000000000E+00  0.00000000000E+00  0.00000000000E+00  0.91188000000E+02  0.91188000000E+02 0.  0.
    9900012    2    3    3    0    0 -0.16913492881E+02  0.24467297641E+02  0.21704014404E+02  0.54367093757E+02  0.40000021838E+02 0.  0.
         12    1    3    3    0    0  0.16913492881E+02 -0.24467297641E+02 -0.21704014404E+02  0.36820906243E+02  0.00000000000E+00 0. -1.
         11    1    4    4    0    0 -0.14735134444E+02 -0.14994525087E+01  0.40372807711E+01  0.15351618194E+02  0.51100000000E-03 0. -1.
        -11    1    4    4    0    0 -0.68832593131E+01  0.12153315755E+02  0.19838468766E+02  0.24262052383E+02  0.51100000000E-03 0.  1.
         12    1    4    4    0    0  0.47049008752E+01  0.13813434395E+02 -0.21717351329E+01  0.14753423179E+02  0.00000000000E+00 0. -1.
</event>
<event>
 8    1  0.1271559E-006  0.9118800E+02  0.7816164E-02  0.1184000E+00
        -11   -1    0    0    0    0  0.00000000000E+00  0.00000000000E+00  0.45593999997E+02  0.45594000000E+02  0.51100000000E-03 0.  1.
         11   -1    0    0    0    0 -0.00000000000E+00 -0.00000000000E+00 -0.45593999997E+02  0.45594000000E+02  0.51100000000E-03 0. -1.
         23    2    1    2    0    0 -0.71054273576E-14  0.00000000000E+00  0.35527136788E-14  0.91188000000E+02  0.91188000000E+02 0.  0.
    9900012    2    3    3    0    0  0.28501402604E+02  0.51512448772E+01 -0.22735767910E+02  0.54367076374E+02  0.39999982210E+02 0.  0.
        -12    1    3    3    0    0 -0.28501402604E+02 -0.51512448772E+01  0.22735767910E+02  0.36820923626E+02  0.00000000000E+00 0.  1.
         11    1    4    4    0    0  0.35842801313E+02  0.11432710877E+02 -0.14596804151E+02  0.40354429442E+02  0.51100000000E-03 0. -1.
        -11    1    4    4    0    0 -0.28251213966E+01 -0.11999035811E+00  0.30462799744E-01  0.28278325331E+01  0.51100000000E-03 0.  1.
        -12    1    4    4    0    0 -0.45162773115E+01 -0.61614756413E+01 -0.81694265592E+01  0.11184814399E+02  0.00000000000E+00 0.  1.
</event>
<event>
 8    1  0.1271559E-006  0.9118800E+02  0.7816164E-02  0.1184000E+00
        -11   -1    0    0    0    0  0.00000000000E+00  0.00000000000E+00  0.45593999997E+02  0.45594000000E+02  0.51100000000E-03 0. -1.
         11   -1    0    0    0    0 -0.00000000000E+00 -0.00000000000E+00 -0.45593999997E+02  0.45594000000E+02  0.51100000000E-03 0.  1.
         23    2    1    2    0    0  0.88817841970E-15  0.35527136788E-14 -0.35527136788E-14  0.91188000000E+02  0.91188000000E+02 0.  0.
    9900012    2    3    3    0    0  0.40195856562E+01 -0.29205002597E+02 -0.22061098585E+02  0.54367064157E+02  0.39999954360E+02 0.  0.
         12    1    3    3    0    0 -0.40195856562E+01  0.29205002597E+02  0.22061098585E+02  0.36820935843E+02  0.00000000000E+00 0. -1.
         11    1    4    4    0    0  0.97730158266E+01 -0.11026071630E+02  0.30039981622E+01  0.15036957776E+02  0.51100000000E-03 0. -1.
        -11    1    4    4    0    0 -0.49562973866E+00 -0.22194549119E+02 -0.13431897940E+02  0.25947245364E+02  0.51100000000E-03 0.  1.
         12    1    4    4    0    0 -0.52578004318E+01  0.40156181523E+01 -0.11633198807E+02  0.13382861018E+02  0.00000000000E+00 0. -1.
</event>
<event>
 8    1  0.1271559E-006  0.9118800E+02  0.7816164E-02  0.1184000E+00
        -11   -1    0    0    0    0  0.00000000000E+00  0.00000000000E+00  0.45593999997E+02  0.45594000000E+02  0.51100000000E-03 0. -1.
         11   -1    0    0    0    0 -0.00000000000E+00 -0.00000000000E+00 -0.45593999997E+02  0.45594000000E+02  0.51100000000E-03 0.  1.
         23    2    1    2    0    0  0.00000000000E+00  0.88817841970E-15  0.00000000000E+00  0.91188000000E+02  0.91188000000E+02 0.  0.
    9900012    2    3    3    0    0  0.19656949166E+02 -0.72486044636E+01  0.30279408588E+02  0.54367075221E+02  0.39999979581E+02 0.  0.
        -12    1    3    3    0    0 -0.19656949166E+02  0.72486044636E+01 -0.30279408588E+02  0.36820924779E+02  0.00000000000E+00 0.  1.
         11    1    4    4    0    0 -0.12201958255E+02 -0.28137750284E+01  0.86294499543E+01  0.15207646824E+02  0.51100000000E-03 0. -1.
        -11    1    4    4    0    0  0.13612877991E+02 -0.35027748014E+01  0.67950988230E+01  0.15612598975E+02  0.51100000000E-03 0.  1.
         12    1    4    4    0    0  0.18246029430E+02 -0.93205463384E+00  0.14854859811E+02  0.23546829421E+02  0.00000000000E+00 0. -1.
</event>
<event>
 8    1  0.1271559E-006  0.9118800E+02  0.7816164E-02  0.1184000E+00
        -11   -1    0    0    0    0  0.00000000000E+00  0.00000000000E+00  0.45593999997E+02  0.45594000000E+02  0.51100000000E-03 0.  1.
         11   -1    0    0    0    0 -0.00000000000E+00 -0.00000000000E+00 -0.45593999997E+02  0.45594000000E+02  0.51100000000E-03 0. -1.
         23    2    1    2    0    0 -0.71054273576E-14 -0.35527136788E-14  0.17763568394E-14  0.91188000000E+02  0.91188000000E+02 0.  0.
    9900012    2    3    3    0    0 -0.30313500178E+02 -0.16168440456E+02  0.13245840068E+02  0.54367095083E+02  0.40000024861E+02 0.  0.
         12    1    3    3    0    0  0.30313500178E+02  0.16168440456E+02 -0.13245840068E+02  0.36820904917E+02  0.00000000000E+00 0. -1.
         11    1    4    4    0    0 -0.24718944667E+02  0.71838125761E+01  0.66143812447E+01  0.26577874785E+02  0.51100000000E-03 0. -1.
        -11    1    4    4    0    0 -0.43813209403E+01 -0.13127120522E+01  0.28657900206E+01  0.53974011169E+01  0.51100000000E-03 0.  1.
        -12    1    4    4    0    0 -0.12132345709E+01 -0.22039540980E+02  0.37656688024E+01  0.22391819181E+02  0.00000000000E+00 0.  1.
</event>
<event>
 8    1  0.1271559E-006  0.9118800E+02  0.7816164E-02  0.1184000E+00
        -11   -1    0    0    0    0  0.00000000000E+00  0.00000000000E+00  0.45593999997E+02  0.45594000000E+02  0.51100000000E-03 0.  1.
         11   -1    0    0    0    0 -0.00000000000E+00 -0.00000000000E+00 -0.45593999997E+02  0.45594000000E+02  0.51100000000E-03 0. -1.
         23    2    1    2    0    0  0.66613381478E-15  0.00000000000E+00  0.00000000000E+00  0.91188000000E+02  0.91188000000E+02 0.  0.
    9900012    2    3    3    0    0 -0.35155431061E+00  0.12769334339E+02 -0.34534053452E+02  0.54367077446E+02  0.39999984654E+02 0.  0.
        -12    1    3    3    0    0  0.35155431061E+00 -0.12769334339E+02  0.34534053452E+02  0.36820922554E+02  0.00000000000E+00 0.  1.
         11    1    4    4    0    0 -0.13746931223E+02  0.91246691176E+00 -0.18455128530E+02  0.23030468585E+02  0.51100000000E-03 0. -1.
        -11    1    4    4    0    0 -0.14535761065E+01  0.11766261779E+02 -0.52933853981E+01  0.12983748649E+02  0.51100000000E-03 0.  1.
        -12    1    4    4    0    0  0.14848953019E+02  0.90605648266E-01 -0.10785539524E+02  0.18352860212E+02  0.00000000000E+00 0.  1.
</event>
<event>
 8    1  0.1271559E-006  0.9118800E+02  0.7816164E-02  0.1184000E+00
        -11   -1    0    0    0    0  0.00000000000E+00  0.00000000000E+00  0.45593999997E+02  0.45594000000E+02  0.51100000000E-03 0. -1.
         11   -1    0    0    0    0 -0.00000000000E+00 -0.00000000000E+00 -0.45593999997E+02  0.45594000000E+02  0.51100000000E-03 0.  1.
         23    2    1    2    0    0  0.00000000000E+00  0.00000000000E+00  0.17763568394E-14  0.91188000000E+02  0.91188000000E+02 0.  0.
    9900012    2    3    3    0    0 -0.42057982928E+01  0.35603436440E+02 -0.83955958266E+01  0.54367089434E+02  0.40000011984E+02 0.  0.
         12    1    3    3    0    0  0.42057982928E+01 -0.35603436440E+02  0.83955958266E+01  0.36820910566E+02  0.00000000000E+00 0. -1.
         11    1    4    4    0    0 -0.12316885300E+02  0.17251748251E+02 -0.70669751847E+01  0.22344364384E+02  0.51100000000E-03 0.  1.
        -11    1    4    4    0    0  0.28856854092E+01  0.15208135527E+02 -0.12098277524E+02  0.19646447154E+02  0.51100000000E-03 0. -1.
         12    1    4    4    0    0  0.52254015983E+01  0.31435526617E+01  0.10769656882E+02  0.12376277896E+02  0.00000000000E+00 0. -1.
</event>
<event>
 8    1  0.1271559E-006  0.9118800E+02  0.7816164E-02  0.1184000E+00
        -11   -1    0    0    0    0  0.00000000000E+00  0.00000000000E+00  0.45593999997E+02  0.45594000000E+02  0.51100000000E-03 0.  1.
         11   -1    0    0    0    0 -0.00000000000E+00 -0.00000000000E+00 -0.45593999997E+02  0.45594000000E+02  0.51100000000E-03 0. -1.
         23    2    1    2    0    0  0.17763568394E-14 -0.35527136788E-14 -0.35527136788E-14  0.91188000000E+02  0.91188000000E+02 0.  0.
    9900012    2    3    3    0    0  0.92005331527E+01 -0.18858022287E+02  0.30257325715E+02  0.54367074234E+02  0.39999977331E+02 0.  0.
         12    1    3    3    0    0 -0.92005331527E+01  0.18858022287E+02 -0.30257325715E+02  0.36820925766E+02  0.00000000000E+00 0. -1.
         11    1    4    4    0    0 -0.52145901145E+00  0.67100988113E+01  0.93305881307E+00  0.67946997408E+01  0.51100000000E-03 0. -1.
        -11    1    4    4    0    0  0.10681433827E+02 -0.27959514477E+02  0.15877587197E+02  0.33881045643E+02  0.51100000000E-03 0.  1.
        -12    1    4    4    0    0 -0.95944166326E+00  0.23913933788E+01  0.13446679705E+02  0.13691328850E+02  0.00000000000E+00 0.  1.
</event>
<event>
 8    1  0.1271559E-006  0.9118800E+02  0.7816164E-02  0.1184000E+00
        -11   -1    0    0    0    0  0.00000000000E+00  0.00000000000E+00  0.45593999997E+02  0.45594000000E+02  0.51100000000E-03 0.  1.
         11   -1    0    0    0    0 -0.00000000000E+00 -0.00000000000E+00 -0.45593999997E+02  0.45594000000E+02  0.51100000000E-03 0. -1.
         23    2    1    2    0    0 -0.17763568394E-14  0.00000000000E+00  0.00000000000E+00  0.91188000000E+02  0.91188000000E+02 0.  0.
    9900012    2    3    3    0    0 -0.61142705217E+01 -0.37253094978E+01 -0.36118100221E+02  0.54367090200E+02  0.40000013730E+02 0.  0.
        -12    1    3    3    0    0  0.61142705217E+01  0.37253094978E+01  0.36118100221E+02  0.36820909800E+02  0.00000000000E+00 0.  1.
         11    1    4    4    0    0 -0.28434516692E+00 -0.45516420784E+01 -0.16197131197E+02  0.16826923577E+02  0.51100000000E-03 0. -1.
        -11    1    4    4    0    0 -0.11396023746E+02  0.11894171720E+02 -0.18957242231E+02  0.25114093879E+02  0.51100000000E-03 0.  1.
         12    1    4    4    0    0  0.55660983915E+01 -0.11067839139E+02 -0.96372679368E+00  0.12426072744E+02  0.00000000000E+00 0. -1.
</event>
<event>
 8    1  0.1271559E-006  0.9118800E+02  0.7816164E-02  0.1184000E+00
        -11   -1    0    0    0    0  0.00000000000E+00  0.00000000000E+00  0.45593999997E+02  0.45594000000E+02  0.51100000000E-03 0.  1.
         11   -1    0    0    0    0 -0.00000000000E+00 -0.00000000000E+00 -0.45593999997E+02  0.45594000000E+02  0.51100000000E-03 0. -1.
         23    2    1    2    0    0  0.00000000000E+00  0.35527136788E-14 -0.35527136788E-14  0.91188000000E+02  0.91188000000E+02 0.  0.
    9900012    2    3    3    0    0  0.18200417573E+02  0.18533827260E+02  0.26096381546E+02  0.54367094491E+02  0.40000023512E+02 0.  0.
         12    1    3    3    0    0 -0.18200417573E+02 -0.18533827260E+02 -0.26096381546E+02  0.36820905509E+02  0.00000000000E+00 0. -1.
         11    1    4    4    0    0 -0.38701635773E+01 -0.49472395913E+01 -0.63026893988E+00  0.63127319670E+01  0.51100000000E-03 0. -1.
        -11    1    4    4    0    0  0.14412757725E+02  0.22237938566E+02  0.78385469623E+01  0.27635055919E+02  0.51100000000E-03 0.  1.
         12    1    4    4    0    0  0.76578234248E+01  0.12431282850E+01  0.18888103523E+02  0.20419306605E+02  0.00000000000E+00 0. -1.
</event>
<event>
 8    1  0.1271559E-006  0.9118800E+02  0.7816164E-02  0.1184000E+00
        -11   -1    0    0    0    0  0.00000000000E+00  0.00000000000E+00  0.45593999997E+02  0.45594000000E+02  0.51100000000E-03 0.  1.
         11   -1    0    0    0    0 -0.00000000000E+00 -0.00000000000E+00 -0.45593999997E+02  0.45594000000E+02  0.51100000000E-03 0. -1.
         23    2    1    2    0    0  0.00000000000E+00  0.17763568394E-14  0.00000000000E+00  0.91188000000E+02  0.91188000000E+02 0.  0.
    9900012    2    3    3    0    0  0.99301509479E+01  0.83203852612E+01 -0.34466555111E+02  0.54367080267E+02  0.39999991085E+02 0.  0.
        -12    1    3    3    0    0 -0.99301509479E+01 -0.83203852612E+01  0.34466555111E+02  0.36820919733E+02  0.00000000000E+00 0.  1.
         11    1    4    4    0    0  0.48026898068E+01  0.17659179810E+02 -0.19201393089E+02  0.26525571771E+02  0.51100000000E-03 0. -1.
        -11    1    4    4    0    0  0.38814844270E+01  0.51780239297E+01  0.35469265135E+00  0.64810230914E+01  0.51100000000E-03 0.  1.
         12    1    4    4    0    0  0.12459767141E+01 -0.14516818479E+02 -0.15619854673E+02  0.21360485405E+02  0.00000000000E+00 0. -1.
</event>
<event>
 8    1  0.1271559E-006  0.9118800E+02  0.7816164E-02  0.1184000E+00
        -11   -1    0    0    0    0  0.00000000000E+00  0.00000000000E+00  0.45593999997E+02  0.45594000000E+02  0.51100000000E-03 0.  1.
         11   -1    0    0    0    0 -0.00000000000E+00 -0.00000000000E+00 -0.45593999997E+02  0.45594000000E+02  0.51100000000E-03 0. -1.
         23    2    1    2    0    0  0.00000000000E+00  0.17763568394E-14 -0.17763568394E-14  0.91188000000E+02  0.91188000000E+02 0.  0.
    9900012    2    3    3    0    0 -0.33078856319E+02  0.15833227998E+02  0.32981188695E+01  0.54367089742E+02  0.40000012684E+02 0.  0.
        -12    1    3    3    0    0  0.33078856319E+02 -0.15833227998E+02 -0.32981188695E+01  0.36820910258E+02  0.00000000000E+00 0.  1.
         11    1    4    4    0    0 -0.26560222615E+01  0.41450535398E+01 -0.12260480965E+02  0.13211938422E+02  0.51100000000E-03 0. -1.
        -11    1    4    4    0    0 -0.12129655837E+02 -0.16708022758E+01  0.13779650979E+02  0.18433635353E+02  0.51100000000E-03 0.  1.
        -12    1    4    4    0    0 -0.18293178220E+02  0.13358976734E+02  0.17789488553E+01  0.22721515966E+02  0.00000000000E+00 0.  1.
</event>
<event>
 8    1  0.1271559E-006  0.9118800E+02  0.7816164E-02  0.1184000E+00
        -11   -1    0    0    0    0  0.00000000000E+00  0.00000000000E+00  0.45593999997E+02  0.45594000000E+02  0.51100000000E-03 0.  1.
         11   -1    0    0    0    0 -0.00000000000E+00 -0.00000000000E+00 -0.45593999997E+02  0.45594000000E+02  0.51100000000E-03 0. -1.
         23    2    1    2    0    0  0.00000000000E+00  0.88817841970E-15  0.00000000000E+00  0.91188000000E+02  0.91188000000E+02 0.  0.
    9900012    2    3    3    0    0  0.35197375447E+02 -0.43414720853E+01  0.99033483881E+01  0.54367083017E+02  0.39999997353E+02 0.  0.
        -12    1    3    3    0    0 -0.35197375447E+02  0.43414720853E+01 -0.99033483881E+01  0.36820916983E+02  0.00000000000E+00 0.  1.
         11    1    4    4    0    0  0.31035277380E+02  0.43475028760E+01 -0.41546376978E+01  0.31612501292E+02  0.51100000000E-03 0. -1.
        -11    1    4    4    0    0  0.36559073135E+01 -0.17485803931E+01 -0.25221523875E+01  0.47733054169E+01  0.51100000000E-03 0.  1.
         12    1    4    4    0    0  0.50619075350E+00 -0.69403945681E+01  0.16580138473E+02  0.17981276307E+02  0.00000000000E+00 0. -1.
</event>
<event>
 8    1  0.1271559E-006  0.9118800E+02  0.7816164E-02  0.1184000E+00
        -11   -1    0    0    0    0  0.00000000000E+00  0.00000000000E+00  0.45593999997E+02  0.45594000000E+02  0.51100000000E-03 0. -1.
         11   -1    0    0    0    0 -0.00000000000E+00 -0.00000000000E+00 -0.45593999997E+02  0.45594000000E+02  0.51100000000E-03 0.  1.
         23    2    1    2    0    0 -0.17763568394E-14  0.00000000000E+00  0.35527136788E-14  0.91188000000E+02  0.91188000000E+02 0.  0.
    9900012    2    3    3    0    0 -0.10430475093E+02  0.29352710700E+02 -0.19631687448E+02  0.54367087624E+02  0.40000007857E+02 0.  0.
         12    1    3    3    0    0  0.10430475093E+02 -0.29352710700E+02  0.19631687448E+02  0.36820912376E+02  0.00000000000E+00 0. -1.
         11    1    4    4    0    0 -0.55052890235E+01  0.84260351815E+00 -0.50660809598E+01  0.75288355324E+01  0.51100000000E-03 0. -1.
        -11    1    4    4    0    0 -0.12533567709E+02  0.20835233512E+02  0.46848493817E+01  0.24761766678E+02  0.51100000000E-03 0.  1.
         12    1    4    4    0    0  0.76083816394E+01  0.76748736699E+01 -0.19250455870E+02  0.22076485414E+02  0.00000000000E+00 0. -1.
</event>
<event>
 8    1  0.1271559E-006  0.9118800E+02  0.7816164E-02  0.1184000E+00
        -11   -1    0    0    0    0  0.00000000000E+00  0.00000000000E+00  0.45593999997E+02  0.45594000000E+02  0.51100000000E-03 0. -1.
         11   -1    0    0    0    0 -0.00000000000E+00 -0.00000000000E+00 -0.45593999997E+02  0.45594000000E+02  0.51100000000E-03 0.  1.
         23    2    1    2    0    0  0.35527136788E-14  0.88817841970E-15  0.00000000000E+00  0.91188000000E+02  0.91188000000E+02 0.  0.
    9900012    2    3    3    0    0 -0.15551169227E+02 -0.43850978979E+01 -0.33086427626E+02  0.54367086908E+02  0.40000006224E+02 0.  0.
         12    1    3    3    0    0  0.15551169227E+02  0.43850978979E+01  0.33086427626E+02  0.36820913092E+02  0.00000000000E+00 0. -1.
         11    1    4    4    0    0 -0.40647562095E+00  0.66317116129E+01 -0.50975133933E+01  0.83743336692E+01  0.51100000000E-03 0. -1.
        -11    1    4    4    0    0 -0.14639877021E+02 -0.18049825436E+02 -0.30642480552E+02  0.38458858695E+02  0.51100000000E-03 0.  1.
         12    1    4    4    0    0 -0.50481658551E+00  0.70330159251E+01  0.26535663197E+01  0.75338945441E+01  0.00000000000E+00 0. -1.
</event>
<event>
 8    1  0.1271559E-006  0.9118800E+02  0.7816164E-02  0.1184000E+00
        -11   -1    0    0    0    0  0.00000000000E+00  0.00000000000E+00  0.45593999997E+02  0.45594000000E+02  0.51100000000E-03 0.  1.
         11   -1    0    0    0    0 -0.00000000000E+00 -0.00000000000E+00 -0.45593999997E+02  0.45594000000E+02  0.51100000000E-03 0. -1.
         23    2    1    2    0    0  0.00000000000E+00 -0.88817841970E-15  0.00000000000E+00  0.91188000000E+02  0.91188000000E+02 0.  0.
    9900012    2    3    3    0    0 -0.32551544862E+02  0.42659368461E+01  0.16672792997E+02  0.54367036998E+02  0.39999892445E+02 0.  0.
        -12    1    3    3    0    0  0.32551544862E+02 -0.42659368461E+01 -0.16672792997E+02  0.36820963002E+02  0.00000000000E+00 0.  1.
         11    1    4    4    0    0 -0.12964959779E+02  0.16742601427E+02 -0.53982385506E+01  0.21852822800E+02  0.51100000000E-03 0. -1.
        -11    1    4    4    0    0 -0.15043610555E+02 -0.65524434543E+01  0.15327399090E+02  0.22453816978E+02  0.51100000000E-03 0.  1.
         12    1    4    4    0    0 -0.45429745274E+01 -0.59242211262E+01  0.67436324575E+01  0.10060397220E+02  0.00000000000E+00 0. -1.
</event>
<event>
 8    1  0.1271559E-006  0.9118800E+02  0.7816164E-02  0.1184000E+00
        -11   -1    0    0    0    0  0.00000000000E+00  0.00000000000E+00  0.45593999997E+02  0.45594000000E+02  0.51100000000E-03 0.  1.
         11   -1    0    0    0    0 -0.00000000000E+00 -0.00000000000E+00 -0.45593999997E+02  0.45594000000E+02  0.51100000000E-03 0. -1.
         23    2    1    2    0    0  0.44408920985E-15  0.88817841970E-15 -0.71054273576E-14  0.91188000000E+02  0.91188000000E+02 0.  0.
    9900012    2    3    3    0    0 -0.18601843864E+01  0.28915341707E+01  0.36660044083E+02  0.54367080838E+02  0.39999992386E+02 0.  0.
         12    1    3    3    0    0  0.18601843864E+01 -0.28915341707E+01 -0.36660044083E+02  0.36820919162E+02  0.00000000000E+00 0. -1.
         11    1    4    4    0    0  0.41793814790E+01  0.43906614186E+01 -0.12165053848E+01  0.61826388259E+01  0.51100000000E-03 0. -1.
        -11    1    4    4    0    0 -0.85041294130E+00  0.10763133646E+02  0.31734893492E+02  0.33521212885E+02  0.51100000000E-03 0.  1.
         12    1    4    4    0    0 -0.51891529241E+01 -0.12262260894E+02  0.61416559752E+01  0.14663229127E+02  0.00000000000E+00 0. -1.
</event>
<event>
 8    1  0.1271559E-006  0.9118800E+02  0.7816164E-02  0.1184000E+00
        -11   -1    0    0    0    0  0.00000000000E+00  0.00000000000E+00  0.45593999997E+02  0.45594000000E+02  0.51100000000E-03 0. -1.
         11   -1    0    0    0    0 -0.00000000000E+00 -0.00000000000E+00 -0.45593999997E+02  0.45594000000E+02  0.51100000000E-03 0.  1.
         23    2    1    2    0    0  0.00000000000E+00  0.35527136788E-14  0.00000000000E+00  0.91188000000E+02  0.91188000000E+02 0.  0.
    9900012    2    3    3    0    0 -0.13270079105E+02 -0.22990956810E+02  0.25516681904E+02  0.54367079997E+02  0.39999990468E+02 0.  0.
        -12    1    3    3    0    0  0.13270079105E+02  0.22990956810E+02 -0.25516681904E+02  0.36820920003E+02  0.00000000000E+00 0.  1.
         11    1    4    4    0    0 -0.11345963113E+02  0.18959501755E+01  0.29179729997E+01  0.11867606023E+02  0.51100000000E-03 0. -1.
        -11    1    4    4    0    0 -0.42003090765E+01 -0.83729536219E+01 -0.47252930256E+01  0.10491775023E+02  0.51100000000E-03 0.  1.
        -12    1    4    4    0    0  0.22761930840E+01 -0.16513953363E+02  0.27324001930E+02  0.32007698951E+02  0.00000000000E+00 0.  1.
</event>
<event>
 8    1  0.1271559E-006  0.9118800E+02  0.7816164E-02  0.1184000E+00
        -11   -1    0    0    0    0  0.00000000000E+00  0.00000000000E+00  0.45593999997E+02  0.45594000000E+02  0.51100000000E-03 0.  1.
         11   -1    0    0    0    0 -0.00000000000E+00 -0.00000000000E+00 -0.45593999997E+02  0.45594000000E+02  0.51100000000E-03 0. -1.
         23    2    1    2    0    0  0.00000000000E+00 -0.35527136788E-14  0.35527136788E-14  0.91188000000E+02  0.91188000000E+02 0.  0.
    9900012    2    3    3    0    0 -0.55792261243E+01  0.20699522280E+02  0.29936322131E+02  0.54367063435E+02  0.39999952713E+02 0.  0.
         12    1    3    3    0    0  0.55792261243E+01 -0.20699522280E+02 -0.29936322131E+02  0.36820936565E+02  0.00000000000E+00 0. -1.
         11    1    4    4    0    0 -0.18403775902E+01  0.46067024362E+01  0.83936408974E+01  0.97499694762E+01  0.51100000000E-03 0. -1.
        -11    1    4    4    0    0 -0.25951458477E+01 -0.35833149857E+01  0.24314532700E+02  0.24713790258E+02  0.51100000000E-03 0.  1.
         12    1    4    4    0    0 -0.11437026864E+01  0.19676134830E+02 -0.27718514658E+01  0.19903303701E+02  0.00000000000E+00 0. -1.
</event>
<event>
 8    1  0.1271559E-006  0.9118800E+02  0.7816164E-02  0.1184000E+00
        -11   -1    0    0    0    0  0.00000000000E+00  0.00000000000E+00  0.45593999997E+02  0.45594000000E+02  0.51100000000E-03 0. -1.
         11   -1    0    0    0    0 -0.00000000000E+00 -0.00000000000E+00 -0.45593999997E+02  0.45594000000E+02  0.51100000000E-03 0.  1.
         23    2    1    2    0    0  0.00000000000E+00  0.00000000000E+00  0.00000000000E+00  0.91188000000E+02  0.91188000000E+02 0.  0.
    9900012    2    3    3    0    0 -0.13299082495E+02 -0.74757980400E+01 -0.33511587731E+02  0.54367086597E+02  0.40000005516E+02 0.  0.
         12    1    3    3    0    0  0.13299082495E+02  0.74757980400E+01  0.33511587731E+02  0.36820913403E+02  0.00000000000E+00 0. -1.
         11    1    4    4    0    0  0.13495695645E+02 -0.64056215107E+00 -0.13070988146E+02  0.18798799221E+02  0.51100000000E-03 0. -1.
        -11    1    4    4    0    0 -0.11476147812E+02 -0.46708661530E+01 -0.14305907849E+02  0.18925590053E+02  0.51100000000E-03 0.  1.
         12    1    4    4    0    0 -0.15318630328E+02 -0.21643697360E+01 -0.61346917371E+01  0.16642697323E+02  0.00000000000E+00 0. -1.
</event>
<event>
 8    1  0.1271559E-006  0.9118800E+02  0.7816164E-02  0.1184000E+00
        -11   -1    0    0    0    0  0.00000000000E+00  0.00000000000E+00  0.45593999997E+02  0.45594000000E+02  0.51100000000E-03 0. -1.
         11   -1    0    0    0    0 -0.00000000000E+00 -0.00000000000E+00 -0.45593999997E+02  0.45594000000E+02  0.51100000000E-03 0.  1.
         23    2    1    2    0    0  0.00000000000E+00 -0.17763568394E-14  0.00000000000E+00  0.91188000000E+02  0.91188000000E+02 0.  0.
    9900012    2    3    3    0    0 -0.27567181731E+02 -0.12732111727E+02  0.20826135274E+02  0.54367026519E+02  0.39999868556E+02 0.  0.
        -12    1    3    3    0    0  0.27567181731E+02  0.12732111727E+02 -0.20826135274E+02  0.36820973481E+02  0.00000000000E+00 0.  1.
         11    1    4    4    0    0 -0.36224843781E+01  0.87240505887E+01  0.97420206582E+01  0.13569761181E+02  0.51100000000E-03 0. -1.
        -11    1    4    4    0    0 -0.10736835038E+02 -0.10380083422E+01 -0.47420329867E+01  0.11783206909E+02  0.51100000000E-03 0.  1.
         12    1    4    4    0    0 -0.13207862315E+02 -0.20418153974E+02  0.15826147603E+02  0.29014058430E+02  0.00000000000E+00 0. -1.
</event>
<event>
 8    1  0.1271559E-006  0.9118800E+02  0.7816164E-02  0.1184000E+00
        -11   -1    0    0    0    0  0.00000000000E+00  0.00000000000E+00  0.45593999997E+02  0.45594000000E+02  0.51100000000E-03 0. -1.
         11   -1    0    0    0    0 -0.00000000000E+00 -0.00000000000E+00 -0.45593999997E+02  0.45594000000E+02  0.51100000000E-03 0.  1.
         23    2    1    2    0    0 -0.17763568394E-14  0.00000000000E+00  0.35527136788E-14  0.91188000000E+02  0.91188000000E+02 0.  0.
    9900012    2    3    3    0    0 -0.15889842523E+02 -0.23588345286E+02  0.23385528734E+02  0.54367080906E+02  0.39999992542E+02 0.  0.
        -12    1    3    3    0    0  0.15889842523E+02  0.23588345286E+02 -0.23385528734E+02  0.36820919094E+02  0.00000000000E+00 0.  1.
         11    1    4    4    0    0 -0.70590279566E+01 -0.27551038473E+01  0.84186346708E+01  0.11326688964E+02  0.51100000000E-03 0. -1.
        -11    1    4    4    0    0 -0.22606549415E+01 -0.21119439330E+02  0.23882868563E+02  0.31961425022E+02  0.51100000000E-03 0.  1.
        -12    1    4    4    0    0 -0.65701596254E+01  0.28619789117E+00 -0.89159745002E+01  0.11078966920E+02  0.00000000000E+00 0.  1.
</event>
<event>
 8    1  0.1271559E-006  0.9118800E+02  0.7816164E-02  0.1184000E+00
        -11   -1    0    0    0    0  0.00000000000E+00  0.00000000000E+00  0.45593999997E+02  0.45594000000E+02  0.51100000000E-03 0. -1.
         11   -1    0    0    0    0 -0.00000000000E+00 -0.00000000000E+00 -0.45593999997E+02  0.45594000000E+02  0.51100000000E-03 0.  1.
         23    2    1    2    0    0  0.00000000000E+00  0.00000000000E+00  0.00000000000E+00  0.91188000000E+02  0.91188000000E+02 0.  0.
    9900012    2    3    3    0    0  0.27596405389E+02  0.22354086189E+02  0.97218165452E+01  0.54367075559E+02  0.39999980353E+02 0.  0.
        -12    1    3    3    0    0 -0.27596405389E+02 -0.22354086189E+02 -0.97218165452E+01  0.36820924441E+02  0.00000000000E+00 0.  1.
         11    1    4    4    0    0 -0.91806735582E+01  0.59079963747E+01  0.36161866173E+01  0.11500695373E+02  0.51100000000E-03 0. -1.
        -11    1    4    4    0    0  0.20469683129E+02  0.13693166821E+02 -0.14793484643E+01  0.24671830437E+02  0.51100000000E-03 0.  1.
         12    1    4    4    0    0  0.16307395818E+02  0.27529229932E+01  0.75849783921E+01  0.18194549749E+02  0.00000000000E+00 0. -1.
</event>
<event>
 8    1  0.1271559E-006  0.9118800E+02  0.7816164E-02  0.1184000E+00
        -11   -1    0    0    0    0  0.00000000000E+00  0.00000000000E+00  0.45593999997E+02  0.45594000000E+02  0.51100000000E-03 0.  1.
         11   -1    0    0    0    0 -0.00000000000E+00 -0.00000000000E+00 -0.45593999997E+02  0.45594000000E+02  0.51100000000E-03 0. -1.
         23    2    1    2    0    0  0.35527136788E-14  0.00000000000E+00  0.35527136788E-14  0.91188000000E+02  0.91188000000E+02 0.  0.
    9900012    2    3    3    0    0  0.26344659043E+02  0.18346948096E+02  0.18031315586E+02  0.54367083304E+02  0.39999998009E+02 0.  0.
         12    1    3    3    0    0 -0.26344659043E+02 -0.18346948096E+02 -0.18031315586E+02  0.36820916696E+02  0.00000000000E+00 0. -1.
         11    1    4    4    0    0  0.19869731527E+01 -0.33907313376E+01 -0.56355828282E+00  0.39702291512E+01  0.51100000000E-03 0. -1.
        -11    1    4    4    0    0  0.35466596605E+01  0.18514169777E+02  0.22100373725E+02  0.29047887984E+02  0.51100000000E-03 0.  1.
        -12    1    4    4    0    0  0.20811026230E+02  0.32235096568E+01 -0.35054998562E+01  0.21348966169E+02  0.00000000000E+00 0.  1.
</event>
<event>
 8    1  0.1271559E-006  0.9118800E+02  0.7816164E-02  0.1184000E+00
        -11   -1    0    0    0    0  0.00000000000E+00  0.00000000000E+00  0.45593999997E+02  0.45594000000E+02  0.51100000000E-03 0.  1.
         11   -1    0    0    0    0 -0.00000000000E+00 -0.00000000000E+00 -0.45593999997E+02  0.45594000000E+02  0.51100000000E-03 0. -1.
         23    2    1    2    0    0 -0.35527136788E-14  0.00000000000E+00  0.00000000000E+00  0.91188000000E+02  0.91188000000E+02 0.  0.
    9900012    2    3    3    0    0 -0.24485109437E+02  0.10855982105E+02 -0.25266717619E+02  0.54367082699E+02  0.39999996629E+02 0.  0.
        -12    1    3    3    0    0  0.24485109437E+02 -0.10855982105E+02  0.25266717619E+02  0.36820917301E+02  0.00000000000E+00 0.  1.
         11    1    4    4    0    0 -0.12299241596E+02  0.16627132180E+02 -0.14825651199E+02  0.25446665835E+02  0.51100000000E-03 0. -1.
        -11    1    4    4    0    0 -0.77424331842E+01  0.69453293475E+01 -0.11380217651E+02  0.15417270361E+02  0.51100000000E-03 0.  1.
        -12    1    4    4    0    0 -0.44434346575E+01 -0.12716479422E+02  0.93915123060E+00  0.13503146503E+02  0.00000000000E+00 0.  1.
</event>
<event>
 8    1  0.1271559E-006  0.9118800E+02  0.7816164E-02  0.1184000E+00
        -11   -1    0    0    0    0  0.00000000000E+00  0.00000000000E+00  0.45593999997E+02  0.45594000000E+02  0.51100000000E-03 0.  1.
         11   -1    0    0    0    0 -0.00000000000E+00 -0.00000000000E+00 -0.45593999997E+02  0.45594000000E+02  0.51100000000E-03 0. -1.
         23    2    1    2    0    0  0.35527136788E-14  0.88817841970E-15  0.35527136788E-14  0.91188000000E+02  0.91188000000E+02 0.  0.
    9900012    2    3    3    0    0 -0.18048514116E+02 -0.43908980230E+01  0.31792234448E+02  0.54367149677E+02  0.40000149319E+02 0.  0.
         12    1    3    3    0    0  0.18048514116E+02  0.43908980230E+01 -0.31792234448E+02  0.36820850323E+02  0.00000000000E+00 0. -1.
         11    1    4    4    0    0  0.60507455437E+01  0.72191677779E+01  0.22546096965E+02  0.24434696512E+02  0.51100000000E-03 0. -1.
        -11    1    4    4    0    0 -0.22171953734E+02 -0.79147229662E+01  0.51709737208E+01  0.24103471565E+02  0.51100000000E-03 0.  1.
        -12    1    4    4    0    0 -0.19273059257E+01 -0.36953428347E+01  0.40751637632E+01  0.58289816001E+01  0.00000000000E+00 0.  1.
</event>
<event>
 8    1  0.1271559E-006  0.9118800E+02  0.7816164E-02  0.1184000E+00
        -11   -1    0    0    0    0  0.00000000000E+00  0.00000000000E+00  0.45593999997E+02  0.45594000000E+02  0.51100000000E-03 0.  1.
         11   -1    0    0    0    0 -0.00000000000E+00 -0.00000000000E+00 -0.45593999997E+02  0.45594000000E+02  0.51100000000E-03 0. -1.
         23    2    1    2    0    0  0.00000000000E+00  0.00000000000E+00  0.88817841970E-15  0.91188000000E+02  0.91188000000E+02 0.  0.
    9900012    2    3    3    0    0  0.85451004315E+01  0.34970629190E+02  0.77344493665E+01  0.54367009324E+02  0.39999829356E+02 0.  0.
         12    1    3    3    0    0 -0.85451004315E+01 -0.34970629190E+02 -0.77344493665E+01  0.36820990676E+02  0.00000000000E+00 0. -1.
         11    1    4    4    0    0  0.13319781297E+02  0.64303091282E+01 -0.93896984270E+01  0.17519471627E+02  0.51100000000E-03 0. -1.
        -11    1    4    4    0    0  0.27606952497E+01  0.16558758255E+02  0.15043024400E+02  0.22541217726E+02  0.51100000000E-03 0.  1.
         12    1    4    4    0    0 -0.75353761154E+01  0.11981561807E+02  0.20811233935E+01  0.14306319971E+02  0.00000000000E+00 0. -1.
</event>
<event>
 8    1  0.1271559E-006  0.9118800E+02  0.7816164E-02  0.1184000E+00
        -11   -1    0    0    0    0  0.00000000000E+00  0.00000000000E+00  0.45593999997E+02  0.45594000000E+02  0.51100000000E-03 0.  1.
         11   -1    0    0    0    0 -0.00000000000E+00 -0.00000000000E+00 -0.45593999997E+02  0.45594000000E+02  0.51100000000E-03 0. -1.
         23    2    1    2    0    0  0.71054273576E-14  0.00000000000E+00 -0.44408920985E-15  0.91188000000E+02  0.91188000000E+02 0.  0.
    9900012    2    3    3    0    0 -0.33629492460E+02 -0.14975072310E+02 -0.76415197014E+00  0.54367089065E+02  0.40000011143E+02 0.  0.
        -12    1    3    3    0    0  0.33629492460E+02  0.14975072310E+02  0.76415197014E+00  0.36820910935E+02  0.00000000000E+00 0.  1.
         11    1    4    4    0    0 -0.12221072388E+02  0.61038917356E+01 -0.10477105007E+02  0.17215743790E+02  0.51100000000E-03 0. -1.
        -11    1    4    4    0    0 -0.33818938341E+00 -0.33908589711E+01 -0.49249931412E+01  0.59889777360E+01  0.51100000000E-03 0.  1.
        -12    1    4    4    0    0 -0.21070230688E+02 -0.17688105075E+02  0.14637946178E+02  0.31162367540E+02  0.00000000000E+00 0.  1.
</event>
<event>
 8    1  0.1271559E-006  0.9118800E+02  0.7816164E-02  0.1184000E+00
        -11   -1    0    0    0    0  0.00000000000E+00  0.00000000000E+00  0.45593999997E+02  0.45594000000E+02  0.51100000000E-03 0.  1.
         11   -1    0    0    0    0 -0.00000000000E+00 -0.00000000000E+00 -0.45593999997E+02  0.45594000000E+02  0.51100000000E-03 0. -1.
         23    2    1    2    0    0 -0.35527136788E-14  0.35527136788E-14  0.88817841970E-15  0.91188000000E+02  0.91188000000E+02 0.  0.
    9900012    2    3    3    0    0 -0.28081717777E+02  0.22642051630E+02  0.73847324521E+01  0.54367086803E+02  0.40000005984E+02 0.  0.
         12    1    3    3    0    0  0.28081717777E+02 -0.22642051630E+02 -0.73847324521E+01  0.36820913197E+02  0.00000000000E+00 0. -1.
         11    1    4    4    0    0 -0.20827689968E+01  0.93011836310E+01  0.72102762027E+01  0.11951486385E+02  0.51100000000E-03 0. -1.
        -11    1    4    4    0    0 -0.22906897672E+01  0.12423467570E+02 -0.10473419175E+02  0.16409823751E+02  0.51100000000E-03 0.  1.
        -12    1    4    4    0    0 -0.23708259013E+02  0.91740042867E+00  0.10647875424E+02  0.26005776666E+02  0.00000000000E+00 0.  1.
</event>
<event>
 8    1  0.1271559E-006  0.9118800E+02  0.7816164E-02  0.1184000E+00
        -11   -1    0    0    0    0  0.00000000000E+00  0.00000000000E+00  0.45593999997E+02  0.45594000000E+02  0.51100000000E-03 0. -1.
         11   -1    0    0    0    0 -0.00000000000E+00 -0.00000000000E+00 -0.45593999997E+02  0.45594000000E+02  0.51100000000E-03 0.  1.
         23    2    1    2    0    0  0.71054273576E-14  0.00000000000E+00 -0.17763568394E-14  0.91188000000E+02  0.91188000000E+02 0.  0.
    9900012    2    3    3    0    0 -0.21842863803E+02  0.25084529114E+02  0.15793541695E+02  0.54367078512E+02  0.39999987083E+02 0.  0.
        -12    1    3    3    0    0  0.21842863803E+02 -0.25084529114E+02 -0.15793541695E+02  0.36820921488E+02  0.00000000000E+00 0.  1.
         11    1    4    4    0    0  0.89804948080E+01  0.62971471625E+01 -0.31112299790E-01  0.10968332490E+02  0.51100000000E-03 0. -1.
        -11    1    4    4    0    0 -0.63042667029E+01 -0.33567456127E+01  0.46453633231E+01  0.85200305419E+01  0.51100000000E-03 0.  1.
         12    1    4    4    0    0 -0.24519091908E+02  0.22144127565E+02  0.11179290671E+02  0.34878715479E+02  0.00000000000E+00 0. -1.
</event>
<event>
 8    1  0.1271559E-006  0.9118800E+02  0.7816164E-02  0.1184000E+00
        -11   -1    0    0    0    0  0.00000000000E+00  0.00000000000E+00  0.45593999997E+02  0.45594000000E+02  0.51100000000E-03 0. -1.
         11   -1    0    0    0    0 -0.00000000000E+00 -0.00000000000E+00 -0.45593999997E+02  0.45594000000E+02  0.51100000000E-03 0.  1.
         23    2    1    2    0    0  0.88817841970E-15 -0.35527136788E-14  0.00000000000E+00  0.91188000000E+02  0.91188000000E+02 0.  0.
    9900012    2    3    3    0    0  0.74068773703E+01 -0.17951271763E+02  0.31283711348E+02  0.54367074074E+02  0.39999976967E+02 0.  0.
        -12    1    3    3    0    0 -0.74068773703E+01  0.17951271763E+02 -0.31283711348E+02  0.36820925926E+02  0.00000000000E+00 0.  1.
         11    1    4    4    0    0  0.12343750307E+02 -0.16641935175E+02  0.45469264087E+01  0.21213126079E+02  0.51100000000E-03 0. -1.
        -11    1    4    4    0    0 -0.71019713707E+01 -0.16619443451E+01  0.10445684904E+01  0.73682548781E+01  0.51100000000E-03 0.  1.
         12    1    4    4    0    0  0.21650984338E+01  0.35260775709E+00  0.25692216449E+02  0.25785693117E+02  0.00000000000E+00 0. -1.
</event>
<event>
 8    1  0.1271559E-006  0.9118800E+02  0.7816164E-02  0.1184000E+00
        -11   -1    0    0    0    0  0.00000000000E+00  0.00000000000E+00  0.45593999997E+02  0.45594000000E+02  0.51100000000E-03 0.  1.
         11   -1    0    0    0    0 -0.00000000000E+00 -0.00000000000E+00 -0.45593999997E+02  0.45594000000E+02  0.51100000000E-03 0. -1.
         23    2    1    2    0    0  0.00000000000E+00  0.00000000000E+00  0.17763568394E-14  0.91188000000E+02  0.91188000000E+02 0.  0.
    9900012    2    3    3    0    0  0.19123751326E+02 -0.29448081930E+02  0.11084755033E+02  0.54367093055E+02  0.40000020236E+02 0.  0.
        -12    1    3    3    0    0 -0.19123751326E+02  0.29448081930E+02 -0.11084755033E+02  0.36820906945E+02  0.00000000000E+00 0.  1.
         11    1    4    4    0    0 -0.26617748989E+01 -0.39093623464E+01 -0.63085346514E+01  0.78845272069E+01  0.51100000000E-03 0. -1.
        -11    1    4    4    0    0  0.12309063398E+02 -0.28238242539E+02  0.19430727663E+02  0.36420661186E+02  0.51100000000E-03 0.  1.
        -12    1    4    4    0    0  0.94764628272E+01  0.26995229556E+01 -0.20374379788E+01  0.10061904662E+02  0.00000000000E+00 0.  1.
</event>
<event>
 8    1  0.1271559E-006  0.9118800E+02  0.7816164E-02  0.1184000E+00
        -11   -1    0    0    0    0  0.00000000000E+00  0.00000000000E+00  0.45593999997E+02  0.45594000000E+02  0.51100000000E-03 0. -1.
         11   -1    0    0    0    0 -0.00000000000E+00 -0.00000000000E+00 -0.45593999997E+02  0.45594000000E+02  0.51100000000E-03 0.  1.
         23    2    1    2    0    0  0.00000000000E+00 -0.17763568394E-14  0.00000000000E+00  0.91188000000E+02  0.91188000000E+02 0.  0.
    9900012    2    3    3    0    0 -0.17948080420E+02  0.10875924220E+02 -0.30255075095E+02  0.54366961348E+02  0.39999719985E+02 0.  0.
         12    1    3    3    0    0  0.17948080420E+02 -0.10875924220E+02  0.30255075095E+02  0.36821038652E+02  0.00000000000E+00 0. -1.
         11    1    4    4    0    0 -0.95187425265E+01  0.19915097468E+02 -0.93190686475E+01  0.23959603652E+02  0.51100000000E-03 0. -1.
        -11    1    4    4    0    0 -0.57219173618E+01 -0.18970634605E+01 -0.21894671596E+02  0.22709377636E+02  0.51100000000E-03 0.  1.
        -12    1    4    4    0    0 -0.27074205314E+01 -0.71421097870E+01  0.95866514821E+00  0.76979800604E+01  0.00000000000E+00 0.  1.
</event>
<event>
 8    1  0.1271559E-006  0.9118800E+02  0.7816164E-02  0.1184000E+00
        -11   -1    0    0    0    0  0.00000000000E+00  0.00000000000E+00  0.45593999997E+02  0.45594000000E+02  0.51100000000E-03 0.  1.
         11   -1    0    0    0    0 -0.00000000000E+00 -0.00000000000E+00 -0.45593999997E+02  0.45594000000E+02  0.51100000000E-03 0. -1.
         23    2    1    2    0    0  0.00000000000E+00  0.17763568394E-14  0.00000000000E+00  0.91188000000E+02  0.91188000000E+02 0.  0.
    9900012    2    3    3    0    0 -0.77533239799E+01  0.10035499871E+02  0.34568101401E+02  0.54367096632E+02  0.40000028391E+02 0.  0.
         12    1    3    3    0    0  0.77533239799E+01 -0.10035499871E+02 -0.34568101401E+02  0.36820903368E+02  0.00000000000E+00 0. -1.
         11    1    4    4    0    0 -0.14930150946E+02 -0.48463311073E+01 -0.29101145418E+00  0.15699714023E+02  0.51100000000E-03 0. -1.
        -11    1    4    4    0    0  0.48507567435E+01  0.93736807168E+01  0.25004078559E+02  0.27140369858E+02  0.51100000000E-03 0.  1.
         12    1    4    4    0    0  0.23260702226E+01  0.55081502612E+01  0.98550342965E+01  0.11527012751E+02  0.00000000000E+00 0. -1.
</event>
<event>
 8    1  0.1271559E-006  0.9118800E+02  0.7816164E-02  0.1184000E+00
        -11   -1    0    0    0    0  0.00000000000E+00  0.00000000000E+00  0.45593999997E+02  0.45594000000E+02  0.51100000000E-03 0.  1.
         11   -1    0    0    0    0 -0.00000000000E+00 -0.00000000000E+00 -0.45593999997E+02  0.45594000000E+02  0.51100000000E-03 0. -1.
         23    2    1    2    0    0  0.00000000000E+00 -0.99920072216E-15  0.00000000000E+00  0.91188000000E+02  0.91188000000E+02 0.  0.
    9900012    2    3    3    0    0  0.29350314751E+02  0.34698551261E+00 -0.22231020706E+02  0.54367086695E+02  0.40000005740E+02 0.  0.
        -12    1    3    3    0    0 -0.29350314751E+02 -0.34698551261E+00  0.22231020706E+02  0.36820913305E+02  0.00000000000E+00 0.  1.
         11    1    4    4    0    0  0.18309950761E+02  0.10409904495E+02 -0.27224821239E+02  0.34421088016E+02  0.51100000000E-03 0. -1.
        -11    1    4    4    0    0  0.60900531142E+01 -0.41091722583E+01  0.86788850853E+01  0.11370887835E+02  0.51100000000E-03 0.  1.
        -12    1    4    4    0    0  0.49503108756E+01 -0.59537467242E+01 -0.36850845528E+01  0.85751108438E+01  0.00000000000E+00 0.  1.
</event>
<event>
 8    1  0.1271559E-006  0.9118800E+02  0.7816164E-02  0.1184000E+00
        -11   -1    0    0    0    0  0.00000000000E+00  0.00000000000E+00  0.45593999997E+02  0.45594000000E+02  0.51100000000E-03 0.  1.
         11   -1    0    0    0    0 -0.00000000000E+00 -0.00000000000E+00 -0.45593999997E+02  0.45594000000E+02  0.51100000000E-03 0. -1.
         23    2    1    2    0    0  0.00000000000E+00 -0.35527136788E-14 -0.35527136788E-14  0.91188000000E+02  0.91188000000E+02 0.  0.
    9900012    2    3    3    0    0  0.16332289892E+02 -0.24946904122E+02 -0.21602976220E+02  0.54367077959E+02  0.39999985824E+02 0.  0.
        -12    1    3    3    0    0 -0.16332289892E+02  0.24946904122E+02  0.21602976220E+02  0.36820922041E+02  0.00000000000E+00 0.  1.
         11    1    4    4    0    0  0.16806015693E+02 -0.14721467658E+02 -0.20063733868E+02  0.30028606203E+02  0.51100000000E-03 0. -1.
        -11    1    4    4    0    0  0.61200698478E+01 -0.11285620493E+02 -0.79340867235E+01  0.15092058085E+02  0.51100000000E-03 0.  1.
        -12    1    4    4    0    0 -0.65937956494E+01  0.10601840292E+01  0.63948443717E+01  0.92464136713E+01  0.00000000000E+00 0.  1.
</event>
<event>
 8    1  0.1271559E-006  0.9118800E+02  0.7816164E-02  0.1184000E+00
        -11   -1    0    0    0    0  0.00000000000E+00  0.00000000000E+00  0.45593999997E+02  0.45594000000E+02  0.51100000000E-03 0.  1.
         11   -1    0    0    0    0 -0.00000000000E+00 -0.00000000000E+00 -0.45593999997E+02  0.45594000000E+02  0.51100000000E-03 0. -1.
         23    2    1    2    0    0  0.00000000000E+00  0.00000000000E+00  0.00000000000E+00  0.91188000000E+02  0.91188000000E+02 0.  0.
    9900012    2    3    3    0    0  0.10723816021E+02  0.30335351291E+02  0.17903838314E+02  0.54367065814E+02  0.39999958136E+02 0.  0.
         12    1    3    3    0    0 -0.10723816021E+02 -0.30335351291E+02 -0.17903838314E+02  0.36820934186E+02  0.00000000000E+00 0. -1.
         11    1    4    4    0    0  0.66484142884E+01  0.80578616491E+01  0.22102618973E+02  0.24447010300E+02  0.51100000000E-03 0. -1.
        -11    1    4    4    0    0  0.55261710177E+01  0.26569383041E+01  0.52706635572E+01  0.80856528408E+01  0.51100000000E-03 0.  1.
         12    1    4    4    0    0 -0.14507692850E+01  0.19620551337E+02 -0.94694442161E+01  0.21834402672E+02  0.00000000000E+00 0. -1.
</event>
<event>
 8    1  0.1271559E-006  0.9118800E+02  0.7816164E-02  0.1184000E+00
        -11   -1    0    0    0    0  0.00000000000E+00  0.00000000000E+00  0.45593999997E+02  0.45594000000E+02  0.51100000000E-03 0. -1.
         11   -1    0    0    0    0 -0.00000000000E+00 -0.00000000000E+00 -0.45593999997E+02  0.45594000000E+02  0.51100000000E-03 0.  1.
         23    2    1    2    0    0 -0.44408920985E-15  0.00000000000E+00  0.71054273576E-14  0.91188000000E+02  0.91188000000E+02 0.  0.
    9900012    2    3    3    0    0 -0.36137563974E+01 -0.12327204640E+02  0.34507438876E+02  0.54367047441E+02  0.39999916252E+02 0.  0.
        -12    1    3    3    0    0  0.36137563974E+01  0.12327204640E+02 -0.34507438876E+02  0.36820952559E+02  0.00000000000E+00 0.  1.
         11    1    4    4    0    0 -0.22361058619E+01  0.35745428935E+00 -0.44026962168E+01  0.49509269065E+01  0.51100000000E-03 0. -1.
        -11    1    4    4    0    0  0.10711409169E+02  0.22377583853E+01  0.17643569035E+02  0.20761439679E+02  0.51100000000E-03 0.  1.
         12    1    4    4    0    0 -0.12089059705E+02 -0.14922417315E+02  0.21266566058E+02  0.28654680856E+02  0.00000000000E+00 0. -1.
</event>
<event>
 8    1  0.1271559E-006  0.9118800E+02  0.7816164E-02  0.1184000E+00
        -11   -1    0    0    0    0  0.00000000000E+00  0.00000000000E+00  0.45593999997E+02  0.45594000000E+02  0.51100000000E-03 0. -1.
         11   -1    0    0    0    0 -0.00000000000E+00 -0.00000000000E+00 -0.45593999997E+02  0.45594000000E+02  0.51100000000E-03 0.  1.
         23    2    1    2    0    0  0.88817841970E-15  0.00000000000E+00 -0.35527136788E-14  0.91188000000E+02  0.91188000000E+02 0.  0.
    9900012    2    3    3    0    0  0.44530622247E+01  0.22008728431E+02 -0.29181596408E+02  0.54367089375E+02  0.40000011848E+02 0.  0.
         12    1    3    3    0    0 -0.44530622247E+01 -0.22008728431E+02  0.29181596408E+02  0.36820910625E+02  0.00000000000E+00 0. -1.
         11    1    4    4    0    0 -0.16473337092E+02  0.16773661972E+02 -0.16756989493E+02  0.28870803037E+02  0.51100000000E-03 0. -1.
        -11    1    4    4    0    0  0.25594943731E+01  0.23476504026E+01 -0.32779969756E+01  0.47757447892E+01  0.51100000000E-03 0.  1.
         12    1    4    4    0    0  0.18366904943E+02  0.28874160574E+01 -0.91466099393E+01  0.20720541549E+02  0.00000000000E+00 0. -1.
</event>
<event>
 8    1  0.1271559E-006  0.9118800E+02  0.7816164E-02  0.1184000E+00
        -11   -1    0    0    0    0  0.00000000000E+00  0.00000000000E+00  0.45593999997E+02  0.45594000000E+02  0.51100000000E-03 0.  1.
         11   -1    0    0    0    0 -0.00000000000E+00 -0.00000000000E+00 -0.45593999997E+02  0.45594000000E+02  0.51100000000E-03 0. -1.
         23    2    1    2    0    0  0.00000000000E+00 -0.26645352591E-14  0.35527136788E-14  0.91188000000E+02  0.91188000000E+02 0.  0.
    9900012    2    3    3    0    0 -0.17875540471E+02 -0.48477249660E+01  0.31823686006E+02  0.54367049774E+02  0.39999921571E+02 0.  0.
         12    1    3    3    0    0  0.17875540471E+02  0.48477249660E+01 -0.31823686006E+02  0.36820950226E+02  0.00000000000E+00 0. -1.
         11    1    4    4    0    0 -0.73527286892E+01  0.12046932606E+02  0.13556341650E+02  0.19569506983E+02  0.51100000000E-03 0. -1.
        -11    1    4    4    0    0 -0.11747571672E+02 -0.42536013145E+01 -0.66948823002E-01  0.12494120487E+02  0.51100000000E-03 0.  1.
         12    1    4    4    0    0  0.12247598902E+01 -0.12641056257E+02  0.18334293180E+02  0.22303422304E+02  0.00000000000E+00 0. -1.
</event>
<event>
 8    1  0.1271559E-006  0.9118800E+02  0.7816164E-02  0.1184000E+00
        -11   -1    0    0    0    0  0.00000000000E+00  0.00000000000E+00  0.45593999997E+02  0.45594000000E+02  0.51100000000E-03 0. -1.
         11   -1    0    0    0    0 -0.00000000000E+00 -0.00000000000E+00 -0.45593999997E+02  0.45594000000E+02  0.51100000000E-03 0.  1.
         23    2    1    2    0    0 -0.71054273576E-14  0.00000000000E+00  0.35527136788E-14  0.91188000000E+02  0.91188000000E+02 0.  0.
    9900012    2    3    3    0    0  0.34831812441E+02  0.13660598477E+01 -0.11859852284E+02  0.54367117696E+02  0.40000076411E+02 0.  0.
         12    1    3    3    0    0 -0.34831812441E+02 -0.13660598477E+01  0.11859852284E+02  0.36820882304E+02  0.00000000000E+00 0. -1.
         11    1    4    4    0    0  0.19643568794E+02  0.44948303949E+01  0.83911851413E+01  0.21828542865E+02  0.51100000000E-03 0. -1.
        -11    1    4    4    0    0  0.15001934657E+02 -0.82192049539E+01 -0.21319621700E+02  0.27333855257E+02  0.51100000000E-03 0.  1.
         12    1    4    4    0    0  0.18630898974E+00  0.50904344067E+01  0.10685842748E+01  0.52047195737E+01  0.00000000000E+00 0. -1.
</event>
<event>
 8    1  0.1271559E-006  0.9118800E+02  0.7816164E-02  0.1184000E+00
        -11   -1    0    0    0    0  0.00000000000E+00  0.00000000000E+00  0.45593999997E+02  0.45594000000E+02  0.51100000000E-03 0. -1.
         11   -1    0    0    0    0 -0.00000000000E+00 -0.00000000000E+00 -0.45593999997E+02  0.45594000000E+02  0.51100000000E-03 0.  1.
         23    2    1    2    0    0  0.71054273576E-14 -0.88817841970E-15  0.26645352591E-14  0.91188000000E+02  0.91188000000E+02 0.  0.
    9900012    2    3    3    0    0 -0.36228245731E+02  0.52824921653E+01 -0.39231166058E+01  0.54367063617E+02  0.39999953128E+02 0.  0.
        -12    1    3    3    0    0  0.36228245731E+02 -0.52824921653E+01  0.39231166058E+01  0.36820936383E+02  0.00000000000E+00 0.  1.
         11    1    4    4    0    0 -0.16196971627E+01  0.21984342972E+01  0.41753736734E+01  0.49890157177E+01  0.51100000000E-03 0. -1.
        -11    1    4    4    0    0  0.27262163252E+01  0.23878097035E+01  0.79477899992E+01  0.87350590590E+01  0.51100000000E-03 0.  1.
         12    1    4    4    0    0 -0.37334764893E+02  0.69624816459E+00 -0.16046280278E+02  0.40642988841E+02  0.00000000000E+00 0. -1.
</event>
<event>
 8    1  0.1271559E-006  0.9118800E+02  0.7816164E-02  0.1184000E+00
        -11   -1    0    0    0    0  0.00000000000E+00  0.00000000000E+00  0.45593999997E+02  0.45594000000E+02  0.51100000000E-03 0.  1.
         11   -1    0    0    0    0 -0.00000000000E+00 -0.00000000000E+00 -0.45593999997E+02  0.45594000000E+02  0.51100000000E-03 0. -1.
         23    2    1    2    0    0  0.13322676296E-14  0.17763568394E-14  0.71054273576E-14  0.91188000000E+02  0.91188000000E+02 0.  0.
    9900012    2    3    3    0    0  0.33974883738E+01  0.99527751321E+01 -0.35287090472E+02  0.54367089989E+02  0.40000013247E+02 0.  0.
        -12    1    3    3    0    0 -0.33974883738E+01 -0.99527751321E+01  0.35287090472E+02  0.36820910011E+02  0.00000000000E+00 0.  1.
         11    1    4    4    0    0 -0.10006635443E+02 -0.67744161160E+01 -0.84254365473E+01  0.14731376306E+02  0.51100000000E-03 0. -1.
        -11    1    4    4    0    0  0.18474176062E+02  0.11023337607E+02 -0.19706449211E+02  0.29174531597E+02  0.51100000000E-03 0.  1.
         12    1    4    4    0    0 -0.50700522451E+01  0.57038536414E+01 -0.71552047134E+01  0.10461182085E+02  0.00000000000E+00 0. -1.
</event>
<event>
 8    1  0.1271559E-006  0.9118800E+02  0.7816164E-02  0.1184000E+00
        -11   -1    0    0    0    0  0.00000000000E+00  0.00000000000E+00  0.45593999997E+02  0.45594000000E+02  0.51100000000E-03 0. -1.
         11   -1    0    0    0    0 -0.00000000000E+00 -0.00000000000E+00 -0.45593999997E+02  0.45594000000E+02  0.51100000000E-03 0.  1.
         23    2    1    2    0    0  0.71054273576E-14  0.00000000000E+00  0.00000000000E+00  0.91188000000E+02  0.91188000000E+02 0.  0.
    9900012    2    3    3    0    0 -0.24700810151E+02 -0.21509650869E+02 -0.16822122180E+02  0.54367097007E+02  0.40000029246E+02 0.  0.
         12    1    3    3    0    0  0.24700810151E+02  0.21509650869E+02  0.16822122180E+02  0.36820902993E+02  0.00000000000E+00 0. -1.
         11    1    4    4    0    0 -0.18631573227E+02 -0.18399506810E+01  0.15939457219E+01  0.18789933545E+02  0.51100000000E-03 0. -1.
        -11    1    4    4    0    0 -0.98357523178E+01 -0.53271018562E+01 -0.17436441012E+02  0.20715924147E+02  0.51100000000E-03 0.  1.
        -12    1    4    4    0    0  0.37665153936E+01 -0.14342598331E+02 -0.97962688974E+00  0.14861239314E+02  0.00000000000E+00 0.  1.
</event>
<event>
 8    1  0.1271559E-006  0.9118800E+02  0.7816164E-02  0.1184000E+00
        -11   -1    0    0    0    0  0.00000000000E+00  0.00000000000E+00  0.45593999997E+02  0.45594000000E+02  0.51100000000E-03 0.  1.
         11   -1    0    0    0    0 -0.00000000000E+00 -0.00000000000E+00 -0.45593999997E+02  0.45594000000E+02  0.51100000000E-03 0. -1.
         23    2    1    2    0    0  0.00000000000E+00  0.00000000000E+00  0.00000000000E+00  0.91188000000E+02  0.91188000000E+02 0.  0.
    9900012    2    3    3    0    0  0.23400515202E+02  0.27957829769E+02 -0.51532236544E+01  0.54367081066E+02  0.39999992906E+02 0.  0.
        -12    1    3    3    0    0 -0.23400515202E+02 -0.27957829769E+02  0.51532236544E+01  0.36820918934E+02  0.00000000000E+00 0.  1.
         11    1    4    4    0    0  0.30254717871E+02  0.27765671482E+02  0.13707052429E+01  0.41087215766E+02  0.51100000000E-03 0. -1.
        -11    1    4    4    0    0 -0.41498609804E+01 -0.14113127980E+01 -0.85019806887E+01  0.95653973186E+01  0.51100000000E-03 0.  1.
         12    1    4    4    0    0 -0.27043416887E+01  0.16034710852E+01  0.19780517914E+01  0.37144679808E+01  0.00000000000E+00 0. -1.
</event>
<event>
 8    1  0.1271559E-006  0.9118800E+02  0.7816164E-02  0.1184000E+00
        -11   -1    0    0    0    0  0.00000000000E+00  0.00000000000E+00  0.45593999997E+02  0.45594000000E+02  0.51100000000E-03 0. -1.
         11   -1    0    0    0    0 -0.00000000000E+00 -0.00000000000E+00 -0.45593999997E+02  0.45594000000E+02  0.51100000000E-03 0.  1.
         23    2    1    2    0    0  0.35527136788E-14  0.88817841970E-15  0.00000000000E+00  0.91188000000E+02  0.91188000000E+02 0.  0.
    9900012    2    3    3    0    0 -0.22926557172E+02 -0.49613626339E+01  0.28382056282E+02  0.54367037740E+02  0.39999894136E+02 0.  0.
        -12    1    3    3    0    0  0.22926557172E+02  0.49613626339E+01 -0.28382056282E+02  0.36820962260E+02  0.00000000000E+00 0.  1.
         11    1    4    4    0    0 -0.82611598273E+00  0.30418198963E+01  0.28038432983E+02  0.28215046700E+02  0.51100000000E-03 0. -1.
        -11    1    4    4    0    0 -0.18809313219E+02 -0.60202527657E+01  0.47430980417E+01  0.20310851445E+02  0.51100000000E-03 0.  1.
         12    1    4    4    0    0 -0.32911279704E+01 -0.19829297646E+01 -0.43994747421E+01  0.58411395956E+01  0.00000000000E+00 0. -1.
</event>
<event>
 8    1  0.1271559E-006  0.9118800E+02  0.7816164E-02  0.1184000E+00
        -11   -1    0    0    0    0  0.00000000000E+00  0.00000000000E+00  0.45593999997E+02  0.45594000000E+02  0.51100000000E-03 0.  1.
         11   -1    0    0    0    0 -0.00000000000E+00 -0.00000000000E+00 -0.45593999997E+02  0.45594000000E+02  0.51100000000E-03 0. -1.
         23    2    1    2    0    0 -0.88817841970E-15 -0.71054273576E-14  0.00000000000E+00  0.91188000000E+02  0.91188000000E+02 0.  0.
    9900012    2    3    3    0    0 -0.76502965508E+01  0.34046138652E+02 -0.11752158779E+02  0.54367084335E+02  0.40000000358E+02 0.  0.
        -12    1    3    3    0    0  0.76502965508E+01 -0.34046138652E+02  0.11752158779E+02  0.36820915665E+02  0.00000000000E+00 0.  1.
         11    1    4    4    0    0 -0.31044579200E+01  0.97953434426E+01  0.46649801083E+01  0.11284877129E+02  0.51100000000E-03 0. -1.
        -11    1    4    4    0    0 -0.83834952881E+00 -0.76571014648E+01 -0.34758206095E+01  0.84507610276E+01  0.51100000000E-03 0.  1.
        -12    1    4    4    0    0 -0.37074891019E+01  0.31907896675E+02 -0.12941318278E+02  0.34631446179E+02  0.00000000000E+00 0.  1.
</event>
<event>
 8    1  0.1271559E-006  0.9118800E+02  0.7816164E-02  0.1184000E+00
        -11   -1    0    0    0    0  0.00000000000E+00  0.00000000000E+00  0.45593999997E+02  0.45594000000E+02  0.51100000000E-03 0. -1.
         11   -1    0    0    0    0 -0.00000000000E+00 -0.00000000000E+00 -0.45593999997E+02  0.45594000000E+02  0.51100000000E-03 0.  1.
         23    2    1    2    0    0  0.00000000000E+00  0.00000000000E+00  0.00000000000E+00  0.91188000000E+02  0.91188000000E+02 0.  0.
    9900012    2    3    3    0    0  0.22808801612E+02 -0.26170095268E+02 -0.12274568716E+02  0.54367077219E+02  0.39999984136E+02 0.  0.
         12    1    3    3    0    0 -0.22808801612E+02  0.26170095268E+02  0.12274568716E+02  0.36820922781E+02  0.00000000000E+00 0. -1.
         11    1    4    4    0    0  0.27572228612E+02 -0.12250767217E+02 -0.26592090423E+01  0.30288289503E+02  0.51100000000E-03 0. -1.
        -11    1    4    4    0    0  0.61443901873E+01 -0.60403134270E+01 -0.39656080802E+01  0.94849862824E+01  0.51100000000E-03 0.  1.
        -12    1    4    4    0    0 -0.10907817187E+02 -0.78790146239E+01 -0.56497515934E+01  0.14593801434E+02  0.00000000000E+00 0.  1.
</event>
<event>
 8    1  0.1271559E-006  0.9118800E+02  0.7816164E-02  0.1184000E+00
        -11   -1    0    0    0    0  0.00000000000E+00  0.00000000000E+00  0.45593999997E+02  0.45594000000E+02  0.51100000000E-03 0. -1.
         11   -1    0    0    0    0 -0.00000000000E+00 -0.00000000000E+00 -0.45593999997E+02  0.45594000000E+02  0.51100000000E-03 0.  1.
         23    2    1    2    0    0  0.17763568394E-14  0.35527136788E-14  0.00000000000E+00  0.91188000000E+02  0.91188000000E+02 0.  0.
    9900012    2    3    3    0    0 -0.10989447568E+02 -0.31447304421E+02  0.15686911500E+02  0.54367080598E+02  0.39999991840E+02 0.  0.
        -12    1    3    3    0    0  0.10989447568E+02  0.31447304421E+02 -0.15686911500E+02  0.36820919402E+02  0.00000000000E+00 0.  1.
         11    1    4    4    0    0  0.13340263670E+02 -0.13343150624E+02  0.82350134316E+01  0.20586834381E+02  0.51100000000E-03 0.  1.
        -11    1    4    4    0    0 -0.12439472550E+02 -0.15127678959E+01  0.31171945836E+01  0.12913010740E+02  0.51100000000E-03 0. -1.
         12    1    4    4    0    0 -0.11890238688E+02 -0.16591385901E+02  0.43347034846E+01  0.20867235478E+02  0.00000000000E+00 0. -1.
</event>
<event>
 8    1  0.1271559E-006  0.9118800E+02  0.7816164E-02  0.1184000E+00
        -11   -1    0    0    0    0  0.00000000000E+00  0.00000000000E+00  0.45593999997E+02  0.45594000000E+02  0.51100000000E-03 0.  1.
         11   -1    0    0    0    0 -0.00000000000E+00 -0.00000000000E+00 -0.45593999997E+02  0.45594000000E+02  0.51100000000E-03 0. -1.
         23    2    1    2    0    0  0.00000000000E+00  0.00000000000E+00  0.71054273576E-14  0.91188000000E+02  0.91188000000E+02 0.  0.
    9900012    2    3    3    0    0 -0.59311744135E+01 -0.14397878942E+02  0.33366226686E+02  0.54367043586E+02  0.39999907463E+02 0.  0.
         12    1    3    3    0    0  0.59311744135E+01  0.14397878942E+02 -0.33366226686E+02  0.36820956414E+02  0.00000000000E+00 0. -1.
         11    1    4    4    0    0 -0.75121334185E+01 -0.10297997707E+02  0.32105160253E+02  0.34543048800E+02  0.51100000000E-03 0. -1.
        -11    1    4    4    0    0 -0.35187913664E+01  0.91734666264E+00  0.87449043077E+01  0.94708378295E+01  0.51100000000E-03 0.  1.
         12    1    4    4    0    0  0.50997503714E+01 -0.50172278984E+01 -0.74838378745E+01  0.10353156957E+02  0.00000000000E+00 0. -1.
</event>
<event>
 8    1  0.1271559E-006  0.9118800E+02  0.7816164E-02  0.1184000E+00
        -11   -1    0    0    0    0  0.00000000000E+00  0.00000000000E+00  0.45593999997E+02  0.45594000000E+02  0.51100000000E-03 0.  1.
         11   -1    0    0    0    0 -0.00000000000E+00 -0.00000000000E+00 -0.45593999997E+02  0.45594000000E+02  0.51100000000E-03 0. -1.
         23    2    1    2    0    0  0.88817841970E-15 -0.17763568394E-14  0.00000000000E+00  0.91188000000E+02  0.91188000000E+02 0.  0.
    9900012    2    3    3    0    0 -0.62494884576E+01 -0.10490326420E+02 -0.34737258205E+02  0.54367079833E+02  0.39999990094E+02 0.  0.
        -12    1    3    3    0    0  0.62494884576E+01  0.10490326420E+02  0.34737258205E+02  0.36820920167E+02  0.00000000000E+00 0.  1.
         11    1    4    4    0    0  0.78133394467E+01 -0.76795316123E+01 -0.14534100450E+02  0.18200647111E+02  0.51100000000E-03 0. -1.
        -11    1    4    4    0    0 -0.60156426872E+01  0.54157550846E+01  0.42488631974E+01  0.91417284366E+01  0.51100000000E-03 0.  1.
        -12    1    4    4    0    0 -0.80471852171E+01 -0.82265498928E+01 -0.24452020952E+02  0.27024704285E+02  0.00000000000E+00 0.  1.
</event>
<event>
 8    1  0.1271559E-006  0.9118800E+02  0.7816164E-02  0.1184000E+00
        -11   -1    0    0    0    0  0.00000000000E+00  0.00000000000E+00  0.45593999997E+02  0.45594000000E+02  0.51100000000E-03 0. -1.
         11   -1    0    0    0    0 -0.00000000000E+00 -0.00000000000E+00 -0.45593999997E+02  0.45594000000E+02  0.51100000000E-03 0.  1.
         23    2    1    2    0    0  0.44408920985E-15  0.00000000000E+00  0.35527136788E-14  0.91188000000E+02  0.91188000000E+02 0.  0.
    9900012    2    3    3    0    0  0.33438467595E+01 -0.28763863706E+02  0.22742992376E+02  0.54367015919E+02  0.39999844391E+02 0.  0.
        -12    1    3    3    0    0 -0.33438467595E+01  0.28763863706E+02 -0.22742992376E+02  0.36820984081E+02  0.00000000000E+00 0.  1.
         11    1    4    4    0    0  0.54428417520E+01 -0.16906887006E+01  0.18070270732E+02  0.18947760796E+02  0.51100000000E-03 0. -1.
        -11    1    4    4    0    0 -0.16423474857E+01  0.27275678336E+01  0.46250426923E+01  0.56149756649E+01  0.51100000000E-03 0.  1.
        -12    1    4    4    0    0 -0.45664750673E+00 -0.29800742839E+02  0.47678951725E-01  0.29804279458E+02  0.00000000000E+00 0.  1.
</event>
<event>
 8    1  0.1271559E-006  0.9118800E+02  0.7816164E-02  0.1184000E+00
        -11   -1    0    0    0    0  0.00000000000E+00  0.00000000000E+00  0.45593999997E+02  0.45594000000E+02  0.51100000000E-03 0.  1.
         11   -1    0    0    0    0 -0.00000000000E+00 -0.00000000000E+00 -0.45593999997E+02  0.45594000000E+02  0.51100000000E-03 0. -1.
         23    2    1    2    0    0  0.00000000000E+00  0.00000000000E+00 -0.26645352591E-14  0.91188000000E+02  0.91188000000E+02 0.  0.
    9900012    2    3    3    0    0 -0.35267348115E+02 -0.73826406150E+01  0.75823021585E+01  0.54367074814E+02  0.39999978654E+02 0.  0.
         12    1    3    3    0    0  0.35267348115E+02  0.73826406150E+01 -0.75823021585E+01  0.36820925186E+02  0.00000000000E+00 0. -1.
         11    1    4    4    0    0  0.16003640043E+01  0.48911093568E+01 -0.67694591722E+01  0.85035106533E+01  0.51100000000E-03 0. -1.
        -11    1    4    4    0    0 -0.20180971411E+02 -0.89841425902E+01 -0.21135787455E+01  0.22191296505E+02  0.51100000000E-03 0.  1.
         12    1    4    4    0    0 -0.16686740708E+02 -0.32896073816E+01  0.16465340076E+02  0.23672267656E+02  0.00000000000E+00 0. -1.
</event>
<event>
 8    1  0.1271559E-006  0.9118800E+02  0.7816164E-02  0.1184000E+00
        -11   -1    0    0    0    0  0.00000000000E+00  0.00000000000E+00  0.45593999997E+02  0.45594000000E+02  0.51100000000E-03 0.  1.
         11   -1    0    0    0    0 -0.00000000000E+00 -0.00000000000E+00 -0.45593999997E+02  0.45594000000E+02  0.51100000000E-03 0. -1.
         23    2    1    2    0    0 -0.88817841970E-15  0.00000000000E+00  0.00000000000E+00  0.91188000000E+02  0.91188000000E+02 0.  0.
    9900012    2    3    3    0    0 -0.47152558809E+01  0.71012605336E+01 -0.35820637226E+02  0.54367087593E+02  0.40000007787E+02 0.  0.
        -12    1    3    3    0    0  0.47152558809E+01 -0.71012605336E+01  0.35820637226E+02  0.36820912407E+02  0.00000000000E+00 0.  1.
         11    1    4    4    0    0 -0.11851091423E+02 -0.18474159508E+01 -0.37176126184E+02  0.39063098596E+02  0.51100000000E-03 0. -1.
        -11    1    4    4    0    0 -0.64911784677E+00  0.71054639579E+01  0.15498772302E+01  0.73014444958E+01  0.51100000000E-03 0.  1.
         12    1    4    4    0    0  0.77849533894E+01  0.18432125265E+01 -0.19438827177E+00  0.80025445011E+01  0.00000000000E+00 0. -1.
</event>
<event>
 8    1  0.1271559E-006  0.9118800E+02  0.7816164E-02  0.1184000E+00
        -11   -1    0    0    0    0  0.00000000000E+00  0.00000000000E+00  0.45593999997E+02  0.45594000000E+02  0.51100000000E-03 0.  1.
         11   -1    0    0    0    0 -0.00000000000E+00 -0.00000000000E+00 -0.45593999997E+02  0.45594000000E+02  0.51100000000E-03 0. -1.
         23    2    1    2    0    0  0.00000000000E+00 -0.35527136788E-14  0.00000000000E+00  0.91188000000E+02  0.91188000000E+02 0.  0.
    9900012    2    3    3    0    0 -0.23920971173E+02  0.21535163522E+02 -0.17883057278E+02  0.54367083834E+02  0.39999999215E+02 0.  0.
        -12    1    3    3    0    0  0.23920971173E+02 -0.21535163522E+02  0.17883057278E+02  0.36820916166E+02  0.00000000000E+00 0.  1.
         11    1    4    4    0    0 -0.10551170236E+02  0.11451106082E+02 -0.16241536138E+02  0.22499833782E+02  0.51100000000E-03 0. -1.
        -11    1    4    4    0    0 -0.58580439736E+01 -0.80824633142E+01 -0.61151744787E+01  0.11706333824E+02  0.51100000000E-03 0.  1.
         12    1    4    4    0    0 -0.75117569626E+01  0.18166520753E+02  0.44736533386E+01  0.20160916228E+02  0.00000000000E+00 0. -1.
</event>
<event>
 8    1  0.1271559E-006  0.9118800E+02  0.7816164E-02  0.1184000E+00
        -11   -1    0    0    0    0  0.00000000000E+00  0.00000000000E+00  0.45593999997E+02  0.45594000000E+02  0.51100000000E-03 0. -1.
         11   -1    0    0    0    0 -0.00000000000E+00 -0.00000000000E+00 -0.45593999997E+02  0.45594000000E+02  0.51100000000E-03 0.  1.
         23    2    1    2    0    0  0.00000000000E+00 -0.35527136788E-14  0.00000000000E+00  0.91188000000E+02  0.91188000000E+02 0.  0.
    9900012    2    3    3    0    0 -0.15000349605E+02  0.24609762132E+02  0.22915673884E+02  0.54367095747E+02  0.40000026374E+02 0.  0.
        -12    1    3    3    0    0  0.15000349605E+02 -0.24609762132E+02 -0.22915673884E+02  0.36820904253E+02  0.00000000000E+00 0.  1.
         11    1    4    4    0    0  0.69242419997E+00  0.14600440911E+02 -0.67861727942E+01  0.16115348818E+02  0.51100000000E-03 0. -1.
        -11    1    4    4    0    0 -0.74359675096E+01 -0.34970500797E+01  0.89309086545E+01  0.12136066155E+02  0.51100000000E-03 0.  1.
         12    1    4    4    0    0 -0.82568062956E+01  0.13506371300E+02  0.20770938024E+02  0.26115680774E+02  0.00000000000E+00 0. -1.
</event>
<event>
 8    1  0.1271559E-006  0.9118800E+02  0.7816164E-02  0.1184000E+00
        -11   -1    0    0    0    0  0.00000000000E+00  0.00000000000E+00  0.45593999997E+02  0.45594000000E+02  0.51100000000E-03 0.  1.
         11   -1    0    0    0    0 -0.00000000000E+00 -0.00000000000E+00 -0.45593999997E+02  0.45594000000E+02  0.51100000000E-03 0. -1.
         23    2    1    2    0    0  0.00000000000E+00  0.00000000000E+00 -0.35527136788E-14  0.91188000000E+02  0.91188000000E+02 0.  0.
    9900012    2    3    3    0    0  0.25426987169E+02  0.84610990883E+01 -0.25251876755E+02  0.54367093521E+02  0.40000021299E+02 0.  0.
        -12    1    3    3    0    0 -0.25426987169E+02 -0.84610990883E+01  0.25251876755E+02  0.36820906479E+02  0.00000000000E+00 0.  1.
         11    1    4    4    0    0  0.16504438718E+00  0.55549156736E+01 -0.53092820110E+01  0.76858833926E+01  0.51100000000E-03 0. -1.
        -11    1    4    4    0    0  0.72634542151E+01  0.44526782433E+01 -0.26210139254E+02  0.27560034664E+02  0.51100000000E-03 0.  1.
         12    1    4    4    0    0  0.17998488567E+02 -0.15464948286E+01  0.62675445099E+01  0.19121175464E+02  0.00000000000E+00 0. -1.
</event>
<event>
 8    1  0.1271559E-006  0.9118800E+02  0.7816164E-02  0.1184000E+00
        -11   -1    0    0    0    0  0.00000000000E+00  0.00000000000E+00  0.45593999997E+02  0.45594000000E+02  0.51100000000E-03 0. -1.
         11   -1    0    0    0    0 -0.00000000000E+00 -0.00000000000E+00 -0.45593999997E+02  0.45594000000E+02  0.51100000000E-03 0.  1.
         23    2    1    2    0    0 -0.17763568394E-14  0.00000000000E+00 -0.71054273576E-14  0.91188000000E+02  0.91188000000E+02 0.  0.
    9900012    2    3    3    0    0 -0.13120383295E+02  0.18104190548E+02 -0.29255294752E+02  0.54367103158E+02  0.40000043269E+02 0.  0.
         12    1    3    3    0    0  0.13120383295E+02 -0.18104190548E+02  0.29255294752E+02  0.36820896842E+02  0.00000000000E+00 0. -1.
         11    1    4    4    0    0 -0.12118627075E+02  0.48965393179E+01 -0.38589589992E+01  0.13628234820E+02  0.51100000000E-03 0. -1.
        -11    1    4    4    0    0 -0.86295905169E+01  0.53134448065E+01 -0.27723361446E+02  0.29517576091E+02  0.51100000000E-03 0.  1.
         12    1    4    4    0    0  0.76278342968E+01  0.78942064236E+01  0.23270256925E+01  0.11221292247E+02  0.00000000000E+00 0. -1.
</event>
<event>
 8    1  0.1271559E-006  0.9118800E+02  0.7816164E-02  0.1184000E+00
        -11   -1    0    0    0    0  0.00000000000E+00  0.00000000000E+00  0.45593999997E+02  0.45594000000E+02  0.51100000000E-03 0. -1.
         11   -1    0    0    0    0 -0.00000000000E+00 -0.00000000000E+00 -0.45593999997E+02  0.45594000000E+02  0.51100000000E-03 0.  1.
         23    2    1    2    0    0  0.35527136788E-14 -0.13322676296E-14  0.00000000000E+00  0.91188000000E+02  0.91188000000E+02 0.  0.
    9900012    2    3    3    0    0 -0.20162525957E+02  0.19292997279E+01 -0.30749475491E+02  0.54367083480E+02  0.39999998409E+02 0.  0.
         12    1    3    3    0    0  0.20162525957E+02 -0.19292997279E+01  0.30749475491E+02  0.36820916520E+02  0.00000000000E+00 0. -1.
         11    1    4    4    0    0 -0.31208974345E+01 -0.45046083370E+01 -0.23075948721E+02  0.23717734013E+02  0.51100000000E-03 0. -1.
        -11    1    4    4    0    0 -0.16048161318E+02  0.99025369616E+01 -0.13917979435E+02  0.23437445932E+02  0.51100000000E-03 0.  1.
         12    1    4    4    0    0 -0.99346720383E+00 -0.34686288966E+01  0.62444526656E+01  0.72119035351E+01  0.00000000000E+00 0. -1.
</event>
<event>
 8    1  0.1271559E-006  0.9118800E+02  0.7816164E-02  0.1184000E+00
        -11   -1    0    0    0    0  0.00000000000E+00  0.00000000000E+00  0.45593999997E+02  0.45594000000E+02  0.51100000000E-03 0.  1.
         11   -1    0    0    0    0 -0.00000000000E+00 -0.00000000000E+00 -0.45593999997E+02  0.45594000000E+02  0.51100000000E-03 0. -1.
         23    2    1    2    0    0  0.00000000000E+00  0.17763568394E-14 -0.88817841970E-15  0.91188000000E+02  0.91188000000E+02 0.  0.
    9900012    2    3    3    0    0  0.35680684232E+02  0.57698000935E+01 -0.70269707558E+01  0.54367080152E+02  0.39999990824E+02 0.  0.
        -12    1    3    3    0    0 -0.35680684232E+02 -0.57698000935E+01  0.70269707558E+01  0.36820919848E+02  0.00000000000E+00 0.  1.
         11    1    4    4    0    0  0.48751811105E+01  0.28753887379E+01 -0.33470927275E+01  0.65755821980E+01  0.51100000000E-03 0. -1.
        -11    1    4    4    0    0  0.31019408607E+02  0.11454557143E+02  0.73044466947E+01  0.33863926699E+02  0.51100000000E-03 0.  1.
        -12    1    4    4    0    0 -0.21390548522E+00 -0.85601457877E+01 -0.10984324723E+02  0.13927571256E+02  0.00000000000E+00 0.  1.
</event>
<event>
 8    1  0.1271559E-006  0.9118800E+02  0.7816164E-02  0.1184000E+00
        -11   -1    0    0    0    0  0.00000000000E+00  0.00000000000E+00  0.45593999997E+02  0.45594000000E+02  0.51100000000E-03 0.  1.
         11   -1    0    0    0    0 -0.00000000000E+00 -0.00000000000E+00 -0.45593999997E+02  0.45594000000E+02  0.51100000000E-03 0. -1.
         23    2    1    2    0    0 -0.35527136788E-14  0.00000000000E+00  0.35527136788E-14  0.91188000000E+02  0.91188000000E+02 0.  0.
    9900012    2    3    3    0    0  0.23394982154E+02  0.21301175983E+02 -0.18833971177E+02  0.54367030994E+02  0.39999878757E+02 0.  0.
        -12    1    3    3    0    0 -0.23394982154E+02 -0.21301175983E+02  0.18833971177E+02  0.36820969006E+02  0.00000000000E+00 0.  1.
         11    1    4    4    0    0  0.10258969781E+02  0.31643170787E+02 -0.88614332432E+01  0.34424725385E+02  0.51100000000E-03 0. -1.
        -11    1    4    4    0    0  0.77187446010E+01 -0.55247706345E+01 -0.31875203405E+01  0.10013111153E+02  0.51100000000E-03 0.  1.
         12    1    4    4    0    0  0.54172677713E+01 -0.48172241694E+01 -0.67850175936E+01  0.99291944563E+01  0.00000000000E+00 0. -1.
</event>
<event>
 8    1  0.1271559E-006  0.9118800E+02  0.7816164E-02  0.1184000E+00
        -11   -1    0    0    0    0  0.00000000000E+00  0.00000000000E+00  0.45593999997E+02  0.45594000000E+02  0.51100000000E-03 0. -1.
         11   -1    0    0    0    0 -0.00000000000E+00 -0.00000000000E+00 -0.45593999997E+02  0.45594000000E+02  0.51100000000E-03 0.  1.
         23    2    1    2    0    0  0.00000000000E+00  0.17763568394E-14  0.71054273576E-14  0.91188000000E+02  0.91188000000E+02 0.  0.
    9900012    2    3    3    0    0  0.31731018137E+01  0.15328981218E+02  0.33327674473E+02  0.54367080320E+02  0.39999991206E+02 0.  0.
        -12    1    3    3    0    0 -0.31731018137E+01 -0.15328981218E+02 -0.33327674473E+02  0.36820919680E+02  0.00000000000E+00 0.  1.
         11    1    4    4    0    0 -0.65843527105E+01 -0.39773317407E+00  0.14536852088E+02  0.15963457056E+02  0.51100000000E-03 0. -1.
        -11    1    4    4    0    0 -0.34056438637E+01  0.10995328108E+02  0.21282447472E+02  0.24195830653E+02  0.51100000000E-03 0.  1.
        -12    1    4    4    0    0  0.13163098388E+02  0.47313862836E+01 -0.24916250864E+01  0.14207792612E+02  0.00000000000E+00 0.  1.
</event>
<event>
 8    1  0.1271559E-006  0.9118800E+02  0.7816164E-02  0.1184000E+00
        -11   -1    0    0    0    0  0.00000000000E+00  0.00000000000E+00  0.45593999997E+02  0.45594000000E+02  0.51100000000E-03 0.  1.
         11   -1    0    0    0    0 -0.00000000000E+00 -0.00000000000E+00 -0.45593999997E+02  0.45594000000E+02  0.51100000000E-03 0. -1.
         23    2    1    2    0    0  0.35527136788E-14 -0.44408920985E-15  0.00000000000E+00  0.91188000000E+02  0.91188000000E+02 0.  0.
    9900012    2    3    3    0    0 -0.27441722771E+02  0.33920725758E+01  0.24315102094E+02  0.54367102470E+02  0.40000041702E+02 0.  0.
         12    1    3    3    0    0  0.27441722771E+02 -0.33920725758E+01 -0.24315102094E+02  0.36820897530E+02  0.00000000000E+00 0. -1.
         11    1    4    4    0    0  0.28547200735E+01 -0.10638655763E+02  0.96822859260E+01  0.14665506611E+02  0.51100000000E-03 0. -1.
        -11    1    4    4    0    0 -0.20458446742E+02  0.14753102221E+01  0.51621748982E+01  0.21151185151E+02  0.51100000000E-03 0.  1.
         12    1    4    4    0    0 -0.98379961033E+01  0.12555418116E+02  0.94706412702E+01  0.18550410709E+02  0.00000000000E+00 0. -1.
</event>
<event>
 8    1  0.1271559E-006  0.9118800E+02  0.7816164E-02  0.1184000E+00
        -11   -1    0    0    0    0  0.00000000000E+00  0.00000000000E+00  0.45593999997E+02  0.45594000000E+02  0.51100000000E-03 0.  1.
         11   -1    0    0    0    0 -0.00000000000E+00 -0.00000000000E+00 -0.45593999997E+02  0.45594000000E+02  0.51100000000E-03 0. -1.
         23    2    1    2    0    0  0.00000000000E+00  0.17763568394E-14  0.71054273576E-14  0.91188000000E+02  0.91188000000E+02 0.  0.
    9900012    2    3    3    0    0  0.10332228927E+02 -0.11686539399E+02 -0.33353313953E+02  0.54367167454E+02  0.40000189845E+02 0.  0.
        -12    1    3    3    0    0 -0.10332228927E+02  0.11686539399E+02  0.33353313953E+02  0.36820832546E+02  0.00000000000E+00 0.  1.
         11    1    4    4    0    0 -0.63573347335E+01 -0.46249978449E+01 -0.16009620571E+02  0.17835757934E+02  0.51100000000E-03 0. -1.
        -11    1    4    4    0    0  0.11688663180E+02 -0.36670581490E+01  0.51137117047E+01  0.13274871377E+02  0.51100000000E-03 0.  1.
        -12    1    4    4    0    0  0.50009004806E+01 -0.33944834048E+01 -0.22457405087E+02  0.23256538144E+02  0.00000000000E+00 0.  1.
</event>
<event>
 8    1  0.1271559E-006  0.9118800E+02  0.7816164E-02  0.1184000E+00
        -11   -1    0    0    0    0  0.00000000000E+00  0.00000000000E+00  0.45593999997E+02  0.45594000000E+02  0.51100000000E-03 0. -1.
         11   -1    0    0    0    0 -0.00000000000E+00 -0.00000000000E+00 -0.45593999997E+02  0.45594000000E+02  0.51100000000E-03 0.  1.
         23    2    1    2    0    0 -0.77715611724E-15  0.35527136788E-14  0.00000000000E+00  0.91188000000E+02  0.91188000000E+02 0.  0.
    9900012    2    3    3    0    0  0.12559266410E+00 -0.16950258125E+02  0.32687213909E+02  0.54367068762E+02  0.39999964858E+02 0.  0.
        -12    1    3    3    0    0 -0.12559266410E+00  0.16950258125E+02 -0.32687213909E+02  0.36820931238E+02  0.00000000000E+00 0.  1.
         11    1    4    4    0    0 -0.89865570818E+01 -0.45005259716E+01  0.11961894985E+02  0.15623695917E+02  0.51100000000E-03 0. -1.
        -11    1    4    4    0    0  0.28180855302E+01 -0.95562739958E+01  0.27380710110E+02  0.29137042834E+02  0.51100000000E-03 0.  1.
        -12    1    4    4    0    0  0.62940642157E+01 -0.28934581579E+01 -0.66553911853E+01  0.96063300116E+01  0.00000000000E+00 0.  1.
</event>
<event>
 8    1  0.1271559E-006  0.9118800E+02  0.7816164E-02  0.1184000E+00
        -11   -1    0    0    0    0  0.00000000000E+00  0.00000000000E+00  0.45593999997E+02  0.45594000000E+02  0.51100000000E-03 0. -1.
         11   -1    0    0    0    0 -0.00000000000E+00 -0.00000000000E+00 -0.45593999997E+02  0.45594000000E+02  0.51100000000E-03 0.  1.
         23    2    1    2    0    0 -0.17763568394E-14 -0.14210854715E-13 -0.53290705182E-14  0.91188000000E+02  0.91188000000E+02 0.  0.
    9900012    2    3    3    0    0  0.90473350996E+01  0.32804645928E+02  0.14063512326E+02  0.54367062399E+02  0.39999950352E+02 0.  0.
        -12    1    3    3    0    0 -0.90473350996E+01 -0.32804645928E+02 -0.14063512326E+02  0.36820937601E+02  0.00000000000E+00 0.  1.
         11    1    4    4    0    0  0.68838633544E+01  0.65100008116E+01  0.56455293521E+01  0.11029038361E+02  0.51100000000E-03 0.  1.
        -11    1    4    4    0    0 -0.78143843690E+01  0.74229566803E+01 -0.10328566911E+02  0.14927966494E+02  0.51100000000E-03 0. -1.
         12    1    4    4    0    0  0.99778561142E+01  0.18871688436E+02  0.18746549885E+02  0.28410057544E+02  0.00000000000E+00 0. -1.
</event>
<event>
 8    1  0.1271559E-006  0.9118800E+02  0.7816164E-02  0.1184000E+00
        -11   -1    0    0    0    0  0.00000000000E+00  0.00000000000E+00  0.45593999997E+02  0.45594000000E+02  0.51100000000E-03 0. -1.
         11   -1    0    0    0    0 -0.00000000000E+00 -0.00000000000E+00 -0.45593999997E+02  0.45594000000E+02  0.51100000000E-03 0.  1.
         23    2    1    2    0    0 -0.88817841970E-15  0.00000000000E+00  0.17763568394E-14  0.91188000000E+02  0.91188000000E+02 0.  0.
    9900012    2    3    3    0    0 -0.76319501197E+01  0.33725119677E+02  0.12654998173E+02  0.54367091013E+02  0.40000015583E+02 0.  0.
        -12    1    3    3    0    0  0.76319501197E+01 -0.33725119677E+02 -0.12654998173E+02  0.36820908987E+02  0.00000000000E+00 0.  1.
         11    1    4    4    0    0 -0.12452876415E+02  0.23665489714E+02  0.59537251289E+01  0.27396649021E+02  0.51100000000E-03 0. -1.
        -11    1    4    4    0    0 -0.18669575694E+01  0.87940807255E+01 -0.71831649542E+01  0.11507356143E+02  0.51100000000E-03 0.  1.
         12    1    4    4    0    0  0.66878838649E+01  0.12655492375E+01  0.13884437998E+02  0.15463085850E+02  0.00000000000E+00 0. -1.
</event>
<event>
 8    1  0.1271559E-006  0.9118800E+02  0.7816164E-02  0.1184000E+00
        -11   -1    0    0    0    0  0.00000000000E+00  0.00000000000E+00  0.45593999997E+02  0.45594000000E+02  0.51100000000E-03 0.  1.
         11   -1    0    0    0    0 -0.00000000000E+00 -0.00000000000E+00 -0.45593999997E+02  0.45594000000E+02  0.51100000000E-03 0. -1.
         23    2    1    2    0    0  0.00000000000E+00  0.00000000000E+00  0.00000000000E+00  0.91188000000E+02  0.91188000000E+02 0.  0.
    9900012    2    3    3    0    0 -0.17547697652E+02 -0.27446196012E+02  0.17162858131E+02  0.54367094693E+02  0.40000023972E+02 0.  0.
         12    1    3    3    0    0  0.17547697652E+02  0.27446196012E+02 -0.17162858131E+02  0.36820905307E+02  0.00000000000E+00 0. -1.
         11    1    4    4    0    0 -0.20146363713E+02 -0.20006665572E+02  0.12594153645E+02  0.31060511014E+02  0.51100000000E-03 0. -1.
        -11    1    4    4    0    0 -0.57767153792E+01 -0.93442466037E+01  0.84710583207E+01  0.13872426410E+02  0.51100000000E-03 0.  1.
         12    1    4    4    0    0  0.83753814401E+01  0.19047161644E+01 -0.39023538341E+01  0.94341572693E+01  0.00000000000E+00 0. -1.
</event>
<event>
 8    1  0.1271559E-006  0.9118800E+02  0.7816164E-02  0.1184000E+00
        -11   -1    0    0    0    0  0.00000000000E+00  0.00000000000E+00  0.45593999997E+02  0.45594000000E+02  0.51100000000E-03 0. -1.
         11   -1    0    0    0    0 -0.00000000000E+00 -0.00000000000E+00 -0.45593999997E+02  0.45594000000E+02  0.51100000000E-03 0.  1.
         23    2    1    2    0    0  0.17763568394E-14  0.00000000000E+00  0.00000000000E+00  0.91188000000E+02  0.91188000000E+02 0.  0.
    9900012    2    3    3    0    0  0.13269549107E+02 -0.16630517886E+02 -0.30052062762E+02  0.54367061189E+02  0.39999947593E+02 0.  0.
         12    1    3    3    0    0 -0.13269549107E+02  0.16630517886E+02  0.30052062762E+02  0.36820938811E+02  0.00000000000E+00 0. -1.
         11    1    4    4    0    0  0.20463980703E+02 -0.92173572355E+00 -0.12355422209E+02  0.23922386194E+02  0.51100000000E-03 0. -1.
        -11    1    4    4    0    0 -0.90788342924E+01 -0.37366090531E+00 -0.86233057855E+01  0.12527021095E+02  0.51100000000E-03 0.  1.
         12    1    4    4    0    0  0.18844026963E+01 -0.15335121257E+02 -0.90733347675E+01  0.17917653901E+02  0.00000000000E+00 0. -1.
</event>
<event>
 8    1  0.1271559E-006  0.9118800E+02  0.7816164E-02  0.1184000E+00
        -11   -1    0    0    0    0  0.00000000000E+00  0.00000000000E+00  0.45593999997E+02  0.45594000000E+02  0.51100000000E-03 0.  1.
         11   -1    0    0    0    0 -0.00000000000E+00 -0.00000000000E+00 -0.45593999997E+02  0.45594000000E+02  0.51100000000E-03 0. -1.
         23    2    1    2    0    0  0.00000000000E+00  0.35527136788E-14  0.00000000000E+00  0.91188000000E+02  0.91188000000E+02 0.  0.
    9900012    2    3    3    0    0  0.16919733868E+02 -0.16322101219E+02 -0.28338862406E+02  0.54367088756E+02  0.40000010436E+02 0.  0.
        -12    1    3    3    0    0 -0.16919733868E+02  0.16322101219E+02  0.28338862406E+02  0.36820911244E+02  0.00000000000E+00 0.  1.
         11    1    4    4    0    0  0.15265289417E+02 -0.49692610029E+01 -0.14691013524E+01  0.16120821162E+02  0.51100000000E-03 0. -1.
        -11    1    4    4    0    0  0.25381918627E+01 -0.12576767657E+02 -0.15980113525E+01  0.12929468016E+02  0.51100000000E-03 0.  1.
         12    1    4    4    0    0 -0.88374741185E+00  0.12239274409E+01 -0.25271749702E+02  0.25316799577E+02  0.00000000000E+00 0. -1.
</event>
<event>
 8    1  0.1271559E-006  0.9118800E+02  0.7816164E-02  0.1184000E+00
        -11   -1    0    0    0    0  0.00000000000E+00  0.00000000000E+00  0.45593999997E+02  0.45594000000E+02  0.51100000000E-03 0. -1.
         11   -1    0    0    0    0 -0.00000000000E+00 -0.00000000000E+00 -0.45593999997E+02  0.45594000000E+02  0.51100000000E-03 0.  1.
         23    2    1    2    0    0  0.17763568394E-14  0.35527136788E-14  0.00000000000E+00  0.91188000000E+02  0.91188000000E+02 0.  0.
    9900012    2    3    3    0    0  0.10693922491E+02  0.26889736078E+02  0.22767483967E+02  0.54367133487E+02  0.40000112410E+02 0.  0.
        -12    1    3    3    0    0 -0.10693922491E+02 -0.26889736078E+02 -0.22767483967E+02  0.36820866513E+02  0.00000000000E+00 0.  1.
         11    1    4    4    0    0 -0.33078565611E+01 -0.10591912072E+01 -0.34164782499E+01  0.48719734128E+01  0.51100000000E-03 0. -1.
        -11    1    4    4    0    0 -0.73689314134E+01  0.11572240269E+01  0.26253286965E+01  0.79077600274E+01  0.51100000000E-03 0.  1.
         12    1    4    4    0    0  0.21370710466E+02  0.26791703258E+02  0.23558633521E+02  0.41587400047E+02  0.00000000000E+00 0. -1.
</event>
<event>
 8    1  0.1271559E-006  0.9118800E+02  0.7816164E-02  0.1184000E+00
        -11   -1    0    0    0    0  0.00000000000E+00  0.00000000000E+00  0.45593999997E+02  0.45594000000E+02  0.51100000000E-03 0. -1.
         11   -1    0    0    0    0 -0.00000000000E+00 -0.00000000000E+00 -0.45593999997E+02  0.45594000000E+02  0.51100000000E-03 0.  1.
         23    2    1    2    0    0  0.35527136788E-14 -0.17763568394E-14  0.00000000000E+00  0.91188000000E+02  0.91188000000E+02 0.  0.
    9900012    2    3    3    0    0 -0.30461752965E+02  0.12331874218E+02  0.16606820665E+02  0.54367081923E+02  0.39999994859E+02 0.  0.
        -12    1    3    3    0    0  0.30461752965E+02 -0.12331874218E+02 -0.16606820665E+02  0.36820918077E+02  0.00000000000E+00 0.  1.
         11    1    4    4    0    0 -0.19063310291E+02 -0.18698592276E+01 -0.12708506032E+01  0.19196906894E+02  0.51100000000E-03 0. -1.
        -11    1    4    4    0    0 -0.81075185656E+01  0.18464989248E+02  0.43785523739E+01  0.20636361268E+02  0.51100000000E-03 0.  1.
        -12    1    4    4    0    0 -0.32909241090E+01 -0.42632558023E+01  0.13499118894E+02  0.14533813761E+02  0.00000000000E+00 0.  1.
</event>
<event>
 8    1  0.1271559E-006  0.9118800E+02  0.7816164E-02  0.1184000E+00
        -11   -1    0    0    0    0  0.00000000000E+00  0.00000000000E+00  0.45593999997E+02  0.45594000000E+02  0.51100000000E-03 0. -1.
         11   -1    0    0    0    0 -0.00000000000E+00 -0.00000000000E+00 -0.45593999997E+02  0.45594000000E+02  0.51100000000E-03 0.  1.
         23    2    1    2    0    0  0.00000000000E+00  0.00000000000E+00  0.35527136788E-14  0.91188000000E+02  0.91188000000E+02 0.  0.
    9900012    2    3    3    0    0  0.11260377356E+02  0.28662009947E+02  0.20186020661E+02  0.54367050222E+02  0.39999922592E+02 0.  0.
        -12    1    3    3    0    0 -0.11260377356E+02 -0.28662009947E+02 -0.20186020661E+02  0.36820949778E+02  0.00000000000E+00 0.  1.
         11    1    4    4    0    0 -0.65283517899E+00  0.16974712742E+01  0.56555854485E+01  0.59408121939E+01  0.51100000000E-03 0. -1.
        -11    1    4    4    0    0  0.19461153245E+02  0.28445699544E+02  0.30410152227E+01  0.34599741069E+02  0.51100000000E-03 0.  1.
        -12    1    4    4    0    0 -0.75479407094E+01 -0.14811608714E+01  0.11489419990E+02  0.13826496960E+02  0.00000000000E+00 0.  1.
</event>
<event>
 8    1  0.1271559E-006  0.9118800E+02  0.7816164E-02  0.1184000E+00
        -11   -1    0    0    0    0  0.00000000000E+00  0.00000000000E+00  0.45593999997E+02  0.45594000000E+02  0.51100000000E-03 0. -1.
         11   -1    0    0    0    0 -0.00000000000E+00 -0.00000000000E+00 -0.45593999997E+02  0.45594000000E+02  0.51100000000E-03 0.  1.
         23    2    1    2    0    0  0.00000000000E+00 -0.35527136788E-14  0.00000000000E+00  0.91188000000E+02  0.91188000000E+02 0.  0.
    9900012    2    3    3    0    0  0.23996130246E+02 -0.22998412911E+02  0.15844211221E+02  0.54367078061E+02  0.39999986055E+02 0.  0.
        -12    1    3    3    0    0 -0.23996130246E+02  0.22998412911E+02 -0.15844211221E+02  0.36820921939E+02  0.00000000000E+00 0.  1.
         11    1    4    4    0    0 -0.56520928319E+00  0.22957018929E+00  0.73486250825E+01  0.73739036385E+01  0.51100000000E-03 0. -1.
        -11    1    4    4    0    0  0.49612106346E+01  0.54017258535E+01 -0.59160705409E+01  0.94229583499E+01  0.51100000000E-03 0.  1.
         12    1    4    4    0    0  0.19600128895E+02 -0.28629708954E+02  0.14411656680E+02  0.37570216072E+02  0.00000000000E+00 0. -1.
</event>
<event>
 8    1  0.1271559E-006  0.9118800E+02  0.7816164E-02  0.1184000E+00
        -11   -1    0    0    0    0  0.00000000000E+00  0.00000000000E+00  0.45593999997E+02  0.45594000000E+02  0.51100000000E-03 0.  1.
         11   -1    0    0    0    0 -0.00000000000E+00 -0.00000000000E+00 -0.45593999997E+02  0.45594000000E+02  0.51100000000E-03 0. -1.
         23    2    1    2    0    0  0.44408920985E-15  0.00000000000E+00  0.00000000000E+00  0.91188000000E+02  0.91188000000E+02 0.  0.
    9900012    2    3    3    0    0 -0.65111687508E+00 -0.33589291057E+02  0.15070333911E+02  0.54367090301E+02  0.40000013960E+02 0.  0.
         12    1    3    3    0    0  0.65111687508E+00  0.33589291057E+02 -0.15070333911E+02  0.36820909699E+02  0.00000000000E+00 0. -1.
         11    1    4    4    0    0 -0.57419074429E+01  0.15488334366E+01  0.12260123889E+01  0.60721901104E+01  0.51100000000E-03 0. -1.
        -11    1    4    4    0    0 -0.51977209890E+00 -0.38940046913E+02  0.14339072291E+02  0.41499474829E+02  0.51100000000E-03 0.  1.
        -12    1    4    4    0    0  0.56105626668E+01  0.38019224203E+01 -0.49475076905E+00  0.67954253620E+01  0.00000000000E+00 0.  1.
</event>
<event>
 8    1  0.1271559E-006  0.9118800E+02  0.7816164E-02  0.1184000E+00
        -11   -1    0    0    0    0  0.00000000000E+00  0.00000000000E+00  0.45593999997E+02  0.45594000000E+02  0.51100000000E-03 0.  1.
         11   -1    0    0    0    0 -0.00000000000E+00 -0.00000000000E+00 -0.45593999997E+02  0.45594000000E+02  0.51100000000E-03 0. -1.
         23    2    1    2    0    0 -0.88817841970E-15  0.35527136788E-14  0.00000000000E+00  0.91188000000E+02  0.91188000000E+02 0.  0.
    9900012    2    3    3    0    0  0.61620646507E+01  0.31137667095E+02 -0.18661682076E+02  0.54367031371E+02  0.39999879616E+02 0.  0.
        -12    1    3    3    0    0 -0.61620646507E+01 -0.31137667095E+02  0.18661682076E+02  0.36820968629E+02  0.00000000000E+00 0.  1.
         11    1    4    4    0    0  0.62623858048E+01  0.36790885142E+01 -0.82546920764E+01  0.10995140281E+02  0.51100000000E-03 0. -1.
        -11    1    4    4    0    0  0.14437483361E+02  0.63905426188E+01 -0.78931505333E+01  0.17651679421E+02  0.51100000000E-03 0.  1.
         12    1    4    4    0    0 -0.14537804515E+02  0.21068035962E+02 -0.25138394660E+01  0.25720211669E+02  0.00000000000E+00 0. -1.
</event>
<event>
 8    1  0.1271559E-006  0.9118800E+02  0.7816164E-02  0.1184000E+00
        -11   -1    0    0    0    0  0.00000000000E+00  0.00000000000E+00  0.45593999997E+02  0.45594000000E+02  0.51100000000E-03 0.  1.
         11   -1    0    0    0    0 -0.00000000000E+00 -0.00000000000E+00 -0.45593999997E+02  0.45594000000E+02  0.51100000000E-03 0. -1.
         23    2    1    2    0    0 -0.17763568394E-14  0.00000000000E+00  0.00000000000E+00  0.91188000000E+02  0.91188000000E+02 0.  0.
    9900012    2    3    3    0    0  0.12173343864E+02  0.33352736984E+02  0.97561087800E+01  0.54367122448E+02  0.40000087245E+02 0.  0.
         12    1    3    3    0    0 -0.12173343864E+02 -0.33352736984E+02 -0.97561087800E+01  0.36820877552E+02  0.00000000000E+00 0. -1.
         11    1    4    4    0    0  0.74481974317E+01 -0.48589501694E+01  0.88170668214E+01  0.12523007200E+02  0.51100000000E-03 0. -1.
        -11    1    4    4    0    0  0.37556388483E+01  0.36630788920E+02  0.52084343104E+01  0.37189344015E+02  0.51100000000E-03 0.  1.
        -12    1    4    4    0    0  0.96950758354E+00  0.15808982344E+01 -0.42693923518E+01  0.46547712334E+01  0.00000000000E+00 0.  1.
</event>
<event>
 8    1  0.1271559E-006  0.9118800E+02  0.7816164E-02  0.1184000E+00
        -11   -1    0    0    0    0  0.00000000000E+00  0.00000000000E+00  0.45593999997E+02  0.45594000000E+02  0.51100000000E-03 0.  1.
         11   -1    0    0    0    0 -0.00000000000E+00 -0.00000000000E+00 -0.45593999997E+02  0.45594000000E+02  0.51100000000E-03 0. -1.
         23    2    1    2    0    0 -0.35527136788E-14  0.00000000000E+00  0.00000000000E+00  0.91188000000E+02  0.91188000000E+02 0.  0.
    9900012    2    3    3    0    0 -0.28720634832E+02  0.17360221872E+02  0.15150143674E+02  0.54367095314E+02  0.40000025387E+02 0.  0.
         12    1    3    3    0    0  0.28720634832E+02 -0.17360221872E+02 -0.15150143674E+02  0.36820904686E+02  0.00000000000E+00 0. -1.
         11    1    4    4    0    0  0.49301846511E+00 -0.37022190108E+00  0.14591452237E+02  0.14604472264E+02  0.51100000000E-03 0. -1.
        -11    1    4    4    0    0 -0.32058591118E+02  0.15095049023E+02 -0.13079025975E+01  0.35458770127E+02  0.51100000000E-03 0.  1.
        -12    1    4    4    0    0  0.28449378208E+01  0.26353947500E+01  0.18665940345E+01  0.43038529229E+01  0.00000000000E+00 0.  1.
</event>
<event>
 8    1  0.1271559E-006  0.9118800E+02  0.7816164E-02  0.1184000E+00
        -11   -1    0    0    0    0  0.00000000000E+00  0.00000000000E+00  0.45593999997E+02  0.45594000000E+02  0.51100000000E-03 0.  1.
         11   -1    0    0    0    0 -0.00000000000E+00 -0.00000000000E+00 -0.45593999997E+02  0.45594000000E+02  0.51100000000E-03 0. -1.
         23    2    1    2    0    0 -0.44408920985E-15  0.35527136788E-14  0.35527136788E-14  0.91188000000E+02  0.91188000000E+02 0.  0.
    9900012    2    3    3    0    0  0.38802257322E+01  0.23983193188E+02  0.27668218804E+02  0.54367081503E+02  0.39999993902E+02 0.  0.
         12    1    3    3    0    0 -0.38802257322E+01 -0.23983193188E+02 -0.27668218804E+02  0.36820918497E+02  0.00000000000E+00 0. -1.
         11    1    4    4    0    0  0.12193474595E+02  0.16561651273E+02  0.18541993052E+02  0.27690695589E+02  0.51100000000E-03 0. -1.
        -11    1    4    4    0    0  0.69508594579E+01 -0.15535697172E+01  0.99524948611E+00  0.71915608786E+01  0.51100000000E-03 0.  1.
        -12    1    4    4    0    0 -0.15264108321E+02  0.89751116321E+01  0.81309762653E+01  0.19484825035E+02  0.00000000000E+00 0.  1.
</event>
<event>
 8    1  0.1271559E-006  0.9118800E+02  0.7816164E-02  0.1184000E+00
        -11   -1    0    0    0    0  0.00000000000E+00  0.00000000000E+00  0.45593999997E+02  0.45594000000E+02  0.51100000000E-03 0.  1.
         11   -1    0    0    0    0 -0.00000000000E+00 -0.00000000000E+00 -0.45593999997E+02  0.45594000000E+02  0.51100000000E-03 0. -1.
         23    2    1    2    0    0  0.00000000000E+00  0.00000000000E+00 -0.88817841970E-15  0.91188000000E+02  0.91188000000E+02 0.  0.
    9900012    2    3    3    0    0 -0.31512777150E+02 -0.17872793415E+02 -0.65793465745E+01  0.54367086520E+02  0.40000005339E+02 0.  0.
         12    1    3    3    0    0  0.31512777150E+02  0.17872793415E+02  0.65793465745E+01  0.36820913480E+02  0.00000000000E+00 0. -1.
         11    1    4    4    0    0  0.21234023453E+01 -0.12682423023E+02  0.70182604408E+01  0.14649528017E+02  0.51100000000E-03 0. -1.
        -11    1    4    4    0    0 -0.10632051139E+02 -0.41065250878E+01 -0.12124959940E+02  0.16640874783E+02  0.51100000000E-03 0.  1.
        -12    1    4    4    0    0 -0.23004128357E+02 -0.10838453044E+01 -0.14726470752E+01  0.23076683720E+02  0.00000000000E+00 0.  1.
</event>
<event>
 8    1  0.1271559E-006  0.9118800E+02  0.7816164E-02  0.1184000E+00
        -11   -1    0    0    0    0  0.00000000000E+00  0.00000000000E+00  0.45593999997E+02  0.45594000000E+02  0.51100000000E-03 0. -1.
         11   -1    0    0    0    0 -0.00000000000E+00 -0.00000000000E+00 -0.45593999997E+02  0.45594000000E+02  0.51100000000E-03 0.  1.
         23    2    1    2    0    0  0.00000000000E+00  0.00000000000E+00  0.00000000000E+00  0.91188000000E+02  0.91188000000E+02 0.  0.
    9900012    2    3    3    0    0  0.82101700252E+01  0.26787212444E+02  0.23891820081E+02  0.54367072403E+02  0.39999973157E+02 0.  0.
        -12    1    3    3    0    0 -0.82101700252E+01 -0.26787212444E+02 -0.23891820081E+02  0.36820927597E+02  0.00000000000E+00 0.  1.
         11    1    4    4    0    0  0.98007989328E+01 -0.14422041540E+01  0.21989962017E+01  0.10147472449E+02  0.51100000000E-03 0. -1.
        -11    1    4    4    0    0 -0.43800684585E+01 -0.36640212162E+01  0.30730291388E+00  0.57187836570E+01  0.51100000000E-03 0.  1.
         12    1    4    4    0    0  0.27894395510E+01  0.31893437814E+02  0.21385520965E+02  0.38500816297E+02  0.00000000000E+00 0. -1.
</event>
<event>
 8    1  0.1271559E-006  0.9118800E+02  0.7816164E-02  0.1184000E+00
        -11   -1    0    0    0    0  0.00000000000E+00  0.00000000000E+00  0.45593999997E+02  0.45594000000E+02  0.51100000000E-03 0.  1.
         11   -1    0    0    0    0 -0.00000000000E+00 -0.00000000000E+00 -0.45593999997E+02  0.45594000000E+02  0.51100000000E-03 0. -1.
         23    2    1    2    0    0  0.00000000000E+00  0.00000000000E+00  0.35527136788E-14  0.91188000000E+02  0.91188000000E+02 0.  0.
    9900012    2    3    3    0    0  0.30987552886E+01  0.20420286917E+02  0.30482620453E+02  0.54367074539E+02  0.39999978027E+02 0.  0.
         12    1    3    3    0    0 -0.30987552886E+01 -0.20420286917E+02 -0.30482620453E+02  0.36820925461E+02  0.00000000000E+00 0. -1.
         11    1    4    4    0    0 -0.55617684473E+01  0.70536269559E+01 -0.69172423180E+01  0.11337334918E+02  0.51100000000E-03 0. -1.
        -11    1    4    4    0    0 -0.14161114574E+01  0.14607074013E+00  0.15350597060E+02  0.15416469722E+02  0.51100000000E-03 0.  1.
         12    1    4    4    0    0  0.10076635193E+02  0.13220589221E+02  0.22049265711E+02  0.27613269900E+02  0.00000000000E+00 0. -1.
</event>
<event>
 8    1  0.1271559E-006  0.9118800E+02  0.7816164E-02  0.1184000E+00
        -11   -1    0    0    0    0  0.00000000000E+00  0.00000000000E+00  0.45593999997E+02  0.45594000000E+02  0.51100000000E-03 0.  1.
         11   -1    0    0    0    0 -0.00000000000E+00 -0.00000000000E+00 -0.45593999997E+02  0.45594000000E+02  0.51100000000E-03 0. -1.
         23    2    1    2    0    0  0.35527136788E-14  0.00000000000E+00  0.35527136788E-14  0.91188000000E+02  0.91188000000E+02 0.  0.
    9900012    2    3    3    0    0 -0.87411799911E+01 -0.27036314726E+02  0.23418135924E+02  0.54367087033E+02  0.40000006508E+02 0.  0.
         12    1    3    3    0    0  0.87411799911E+01  0.27036314726E+02 -0.23418135924E+02  0.36820912967E+02  0.00000000000E+00 0. -1.
         11    1    4    4    0    0 -0.44916954213E+00  0.19913198169E+01  0.82807889212E+01  0.85286911838E+01  0.51100000000E-03 0. -1.
        -11    1    4    4    0    0  0.11285744087E+02 -0.57476421121E+01  0.25512181046E+01  0.12919447493E+02  0.51100000000E-03 0.  1.
        -12    1    4    4    0    0 -0.19577754536E+02 -0.23279992431E+02  0.12586128898E+02  0.32918948356E+02  0.00000000000E+00 0.  1.
</event>
<event>
 8    1  0.1271559E-006  0.9118800E+02  0.7816164E-02  0.1184000E+00
        -11   -1    0    0    0    0  0.00000000000E+00  0.00000000000E+00  0.45593999997E+02  0.45594000000E+02  0.51100000000E-03 0. -1.
         11   -1    0    0    0    0 -0.00000000000E+00 -0.00000000000E+00 -0.45593999997E+02  0.45594000000E+02  0.51100000000E-03 0.  1.
         23    2    1    2    0    0 -0.35527136788E-14  0.17763568394E-14 -0.10658141036E-13  0.91188000000E+02  0.91188000000E+02 0.  0.
    9900012    2    3    3    0    0 -0.16342369751E+02  0.86850181104E+01  0.31832019374E+02  0.54367081406E+02  0.39999993681E+02 0.  0.
        -12    1    3    3    0    0  0.16342369751E+02 -0.86850181104E+01 -0.31832019374E+02  0.36820918594E+02  0.00000000000E+00 0.  1.
         11    1    4    4    0    0 -0.57284131707E+00 -0.66118721975E+01  0.80920408997E+01  0.10465473105E+02  0.51100000000E-03 0. -1.
        -11    1    4    4    0    0 -0.92073103486E+01 -0.57699345420E+01 -0.80620207784E+00  0.10895717990E+02  0.51100000000E-03 0.  1.
        -12    1    4    4    0    0 -0.65622180854E+01  0.21066824850E+02  0.24546180553E+02  0.33005890310E+02  0.00000000000E+00 0.  1.
</event>
<event>
 8    1  0.1271559E-006  0.9118800E+02  0.7816164E-02  0.1184000E+00
        -11   -1    0    0    0    0  0.00000000000E+00  0.00000000000E+00  0.45593999997E+02  0.45594000000E+02  0.51100000000E-03 0.  1.
         11   -1    0    0    0    0 -0.00000000000E+00 -0.00000000000E+00 -0.45593999997E+02  0.45594000000E+02  0.51100000000E-03 0. -1.
         23    2    1    2    0    0  0.35527136788E-14 -0.35527136788E-14  0.00000000000E+00  0.91188000000E+02  0.91188000000E+02 0.  0.
    9900012    2    3    3    0    0  0.28408510771E+02  0.22997394198E+02 -0.44563074607E+01  0.54367050796E+02  0.39999923899E+02 0.  0.
         12    1    3    3    0    0 -0.28408510771E+02 -0.22997394198E+02  0.44563074607E+01  0.36820949204E+02  0.00000000000E+00 0. -1.
         11    1    4    4    0    0  0.53643298220E+01  0.89603041245E+00 -0.11415368907E+02  0.12644744066E+02  0.51100000000E-03 0. -1.
        -11    1    4    4    0    0  0.11841130973E+02  0.22846277416E+02 -0.39895356574E+01  0.26039991734E+02  0.51100000000E-03 0.  1.
        -12    1    4    4    0    0  0.11203049976E+02 -0.74491363079E+00  0.10948597104E+02  0.15682314996E+02  0.00000000000E+00 0.  1.
</event>
<event>
 8    1  0.1271559E-006  0.9118800E+02  0.7816164E-02  0.1184000E+00
        -11   -1    0    0    0    0  0.00000000000E+00  0.00000000000E+00  0.45593999997E+02  0.45594000000E+02  0.51100000000E-03 0.  1.
         11   -1    0    0    0    0 -0.00000000000E+00 -0.00000000000E+00 -0.45593999997E+02  0.45594000000E+02  0.51100000000E-03 0. -1.
         23    2    1    2    0    0 -0.35527136788E-14  0.53290705182E-14  0.00000000000E+00  0.91188000000E+02  0.91188000000E+02 0.  0.
    9900012    2    3    3    0    0  0.28795339022E+02 -0.95874870504E+01 -0.20849160923E+02  0.54367096039E+02  0.40000027040E+02 0.  0.
        -12    1    3    3    0    0 -0.28795339022E+02  0.95874870504E+01  0.20849160923E+02  0.36820903961E+02  0.00000000000E+00 0.  1.
         11    1    4    4    0    0  0.25889526809E+01  0.66031349191E+01 -0.26170608425E+01  0.75599652419E+01  0.51100000000E-03 0.  1.
        -11    1    4    4    0    0  0.15940414586E+02  0.68584641080E+01 -0.38899388322E+01  0.17783896408E+02  0.51100000000E-03 0. -1.
        -12    1    4    4    0    0  0.10265971755E+02 -0.23049086078E+02 -0.14342161249E+02  0.29023234389E+02  0.00000000000E+00 0.  1.
</event>
<event>
 8    1  0.1271559E-006  0.9118800E+02  0.7816164E-02  0.1184000E+00
        -11   -1    0    0    0    0  0.00000000000E+00  0.00000000000E+00  0.45593999997E+02  0.45594000000E+02  0.51100000000E-03 0.  1.
         11   -1    0    0    0    0 -0.00000000000E+00 -0.00000000000E+00 -0.45593999997E+02  0.45594000000E+02  0.51100000000E-03 0. -1.
         23    2    1    2    0    0  0.00000000000E+00  0.00000000000E+00  0.66613381478E-15  0.91188000000E+02  0.91188000000E+02 0.  0.
    9900012    2    3    3    0    0 -0.15440060428E+02  0.33400838726E+02 -0.13299069840E+01  0.54367080047E+02  0.39999990583E+02 0.  0.
        -12    1    3    3    0    0  0.15440060428E+02 -0.33400838726E+02  0.13299069840E+01  0.36820919953E+02  0.00000000000E+00 0.  1.
         11    1    4    4    0    0 -0.28836736150E+01  0.15682445793E+02 -0.14983964676E+02  0.21880902112E+02  0.51100000000E-03 0. -1.
        -11    1    4    4    0    0 -0.40803902001E+00  0.15601688611E+02  0.12693842142E+02  0.20117475287E+02  0.51100000000E-03 0.  1.
        -12    1    4    4    0    0 -0.12148347793E+02  0.21167043215E+01  0.96021555006E+00  0.12368702647E+02  0.00000000000E+00 0.  1.
</event>
<event>
 8    1  0.1271559E-006  0.9118800E+02  0.7816164E-02  0.1184000E+00
        -11   -1    0    0    0    0  0.00000000000E+00  0.00000000000E+00  0.45593999997E+02  0.45594000000E+02  0.51100000000E-03 0.  1.
         11   -1    0    0    0    0 -0.00000000000E+00 -0.00000000000E+00 -0.45593999997E+02  0.45594000000E+02  0.51100000000E-03 0. -1.
         23    2    1    2    0    0  0.00000000000E+00  0.71054273576E-14  0.00000000000E+00  0.91188000000E+02  0.91188000000E+02 0.  0.
    9900012    2    3    3    0    0 -0.57521890265E+01  0.32499633535E+02 -0.16323814397E+02  0.54367071509E+02  0.39999971119E+02 0.  0.
        -12    1    3    3    0    0  0.57521890265E+01 -0.32499633535E+02  0.16323814397E+02  0.36820928491E+02  0.00000000000E+00 0.  1.
         11    1    4    4    0    0 -0.68076780877E+01  0.33497443154E+02 -0.59551982521E+01  0.34697082951E+02  0.51100000000E-03 0. -1.
        -11    1    4    4    0    0  0.12940089510E+01 -0.12083045134E+01  0.44804263987E+01  0.48175387843E+01  0.51100000000E-03 0.  1.
        -12    1    4    4    0    0 -0.23851988978E+00  0.21049489432E+00 -0.14849042543E+02  0.14852449774E+02  0.00000000000E+00 0.  1.
</event>
<event>
 8    1  0.1271559E-006  0.9118800E+02  0.7816164E-02  0.1184000E+00
        -11   -1    0    0    0    0  0.00000000000E+00  0.00000000000E+00  0.45593999997E+02  0.45594000000E+02  0.51100000000E-03 0.  1.
         11   -1    0    0    0    0 -0.00000000000E+00 -0.00000000000E+00 -0.45593999997E+02  0.45594000000E+02  0.51100000000E-03 0. -1.
         23    2    1    2    0    0  0.71054273576E-14  0.00000000000E+00  0.00000000000E+00  0.91188000000E+02  0.91188000000E+02 0.  0.
    9900012    2    3    3    0    0 -0.34193838303E+02  0.12718230923E+02 -0.49808693396E+01  0.54367067977E+02  0.39999963067E+02 0.  0.
        -12    1    3    3    0    0  0.34193838303E+02 -0.12718230923E+02  0.49808693396E+01  0.36820932023E+02  0.00000000000E+00 0.  1.
         11    1    4    4    0    0 -0.83203356731E+01 -0.45731202601E+01 -0.11255600140E+01  0.95607688097E+01  0.51100000000E-03 0. -1.
        -11    1    4    4    0    0 -0.15821279215E+02  0.18899941912E+02  0.10842444914E+02  0.26927296415E+02  0.51100000000E-03 0.  1.
        -12    1    4    4    0    0 -0.10052223415E+02 -0.16085907295E+01 -0.14697754239E+02  0.17879002752E+02  0.00000000000E+00 0.  1.
</event>
<event>
 8    1  0.1271559E-006  0.9118800E+02  0.7816164E-02  0.1184000E+00
        -11   -1    0    0    0    0  0.00000000000E+00  0.00000000000E+00  0.45593999997E+02  0.45594000000E+02  0.51100000000E-03 0.  1.
         11   -1    0    0    0    0 -0.00000000000E+00 -0.00000000000E+00 -0.45593999997E+02  0.45594000000E+02  0.51100000000E-03 0. -1.
         23    2    1    2    0    0 -0.71054273576E-14  0.44408920985E-15  0.00000000000E+00  0.91188000000E+02  0.91188000000E+02 0.  0.
    9900012    2    3    3    0    0 -0.35781430641E+02 -0.20489464123E+01 -0.84422013763E+01  0.54367085778E+02  0.40000003647E+02 0.  0.
         12    1    3    3    0    0  0.35781430641E+02  0.20489464123E+01  0.84422013763E+01  0.36820914222E+02  0.00000000000E+00 0. -1.
         11    1    4    4    0    0 -0.82424706265E+01  0.25200491189E+01 -0.11496455834E+02  0.14368627861E+02  0.51100000000E-03 0. -1.
        -11    1    4    4    0    0  0.56735353968E+01 -0.19972006810E+01 -0.19274880228E+01  0.63160925261E+01  0.51100000000E-03 0.  1.
        -12    1    4    4    0    0 -0.33212495411E+02 -0.25717948502E+01  0.49817424808E+01  0.33682365391E+02  0.00000000000E+00 0.  1.
</event>
<event>
 8    1  0.1271559E-006  0.9118800E+02  0.7816164E-02  0.1184000E+00
        -11   -1    0    0    0    0  0.00000000000E+00  0.00000000000E+00  0.45593999997E+02  0.45594000000E+02  0.51100000000E-03 0.  1.
         11   -1    0    0    0    0 -0.00000000000E+00 -0.00000000000E+00 -0.45593999997E+02  0.45594000000E+02  0.51100000000E-03 0. -1.
         23    2    1    2    0    0  0.35527136788E-14 -0.35527136788E-14  0.00000000000E+00  0.91188000000E+02  0.91188000000E+02 0.  0.
    9900012    2    3    3    0    0 -0.27936066055E+02  0.16718714699E+02 -0.17200318395E+02  0.54366944058E+02  0.39999680568E+02 0.  0.
        -12    1    3    3    0    0  0.27936066055E+02 -0.16718714699E+02  0.17200318395E+02  0.36821055942E+02  0.00000000000E+00 0.  1.
         11    1    4    4    0    0 -0.76522959042E+01  0.41796656439E+01 -0.24697270048E+02  0.26191265445E+02  0.51100000000E-03 0. -1.
        -11    1    4    4    0    0 -0.19496251029E+02  0.11922991053E+02  0.23967339924E+01  0.22978377965E+02  0.51100000000E-03 0.  1.
         12    1    4    4    0    0 -0.78751912197E+00  0.61605800245E+00  0.51002176615E+01  0.51973006479E+01  0.00000000000E+00 0. -1.
</event>
<event>
 8    1  0.1271559E-006  0.9118800E+02  0.7816164E-02  0.1184000E+00
        -11   -1    0    0    0    0  0.00000000000E+00  0.00000000000E+00  0.45593999997E+02  0.45594000000E+02  0.51100000000E-03 0. -1.
         11   -1    0    0    0    0 -0.00000000000E+00 -0.00000000000E+00 -0.45593999997E+02  0.45594000000E+02  0.51100000000E-03 0.  1.
         23    2    1    2    0    0  0.17763568394E-14  0.17763568394E-14  0.71054273576E-14  0.91188000000E+02  0.91188000000E+02 0.  0.
    9900012    2    3    3    0    0  0.13707420127E+02  0.15125866234E+02  0.30644650177E+02  0.54367085015E+02  0.40000001909E+02 0.  0.
        -12    1    3    3    0    0 -0.13707420127E+02 -0.15125866234E+02 -0.30644650177E+02  0.36820914985E+02  0.00000000000E+00 0.  1.
         11    1    4    4    0    0 -0.35111676074E+01 -0.41742853994E+01 -0.13871448953E+01  0.56282437567E+01  0.51100000000E-03 0. -1.
        -11    1    4    4    0    0 -0.13919489527E+01 -0.46880267142E+01  0.10299400559E+02  0.11401437124E+02  0.51100000000E-03 0.  1.
         12    1    4    4    0    0  0.18610536687E+02  0.23988178348E+02  0.21732394513E+02  0.37337404134E+02  0.00000000000E+00 0. -1.
</event>
<event>
 8    1  0.1271559E-006  0.9118800E+02  0.7816164E-02  0.1184000E+00
        -11   -1    0    0    0    0  0.00000000000E+00  0.00000000000E+00  0.45593999997E+02  0.45594000000E+02  0.51100000000E-03 0. -1.
         11   -1    0    0    0    0 -0.00000000000E+00 -0.00000000000E+00 -0.45593999997E+02  0.45594000000E+02  0.51100000000E-03 0.  1.
         23    2    1    2    0    0  0.71054273576E-14  0.00000000000E+00  0.17763568394E-14  0.91188000000E+02  0.91188000000E+02 0.  0.
    9900012    2    3    3    0    0  0.34843830385E+02  0.32190584257E+01  0.11459710131E+02  0.54367084621E+02  0.40000001011E+02 0.  0.
        -12    1    3    3    0    0 -0.34843830385E+02 -0.32190584257E+01 -0.11459710131E+02  0.36820915379E+02  0.00000000000E+00 0.  1.
         11    1    4    4    0    0  0.23053445784E+02 -0.51722495068E+00  0.12465349608E+02  0.26212856106E+02  0.51100000000E-03 0. -1.
        -11    1    4    4    0    0 -0.52266485043E+01  0.21769166125E+01  0.72314263069E+01  0.91842445099E+01  0.51100000000E-03 0.  1.
        -12    1    4    4    0    0  0.17017033106E+02  0.15593667639E+01 -0.82370657841E+01  0.18969984005E+02  0.00000000000E+00 0.  1.
</event>
<event>
 8    1  0.1271559E-006  0.9118800E+02  0.7816164E-02  0.1184000E+00
        -11   -1    0    0    0    0  0.00000000000E+00  0.00000000000E+00  0.45593999997E+02  0.45594000000E+02  0.51100000000E-03 0.  1.
         11   -1    0    0    0    0 -0.00000000000E+00 -0.00000000000E+00 -0.45593999997E+02  0.45594000000E+02  0.51100000000E-03 0. -1.
         23    2    1    2    0    0  0.35527136788E-14  0.00000000000E+00  0.13322676296E-14  0.91188000000E+02  0.91188000000E+02 0.  0.
    9900012    2    3    3    0    0  0.30757422777E+02 -0.20122021256E+02 -0.22055874849E+01  0.54367090024E+02  0.40000013327E+02 0.  0.
        -12    1    3    3    0    0 -0.30757422777E+02  0.20122021256E+02  0.22055874849E+01  0.36820909976E+02  0.00000000000E+00 0.  1.
         11    1    4    4    0    0  0.16739106449E+02 -0.22197122457E+02  0.97678674192E+01  0.29467289733E+02  0.51100000000E-03 0. -1.
        -11    1    4    4    0    0  0.23924451221E+00 -0.58013350682E+01 -0.45575781236E+01  0.73813443982E+01  0.51100000000E-03 0.  1.
        -12    1    4    4    0    0  0.13779071817E+02  0.78764362690E+01 -0.74158767805E+01  0.17518455892E+02  0.00000000000E+00 0.  1.
</event>
<event>
 8    1  0.1271559E-006  0.9118800E+02  0.7816164E-02  0.1184000E+00
        -11   -1    0    0    0    0  0.00000000000E+00  0.00000000000E+00  0.45593999997E+02  0.45594000000E+02  0.51100000000E-03 0.  1.
         11   -1    0    0    0    0 -0.00000000000E+00 -0.00000000000E+00 -0.45593999997E+02  0.45594000000E+02  0.51100000000E-03 0. -1.
         23    2    1    2    0    0  0.00000000000E+00  0.00000000000E+00  0.00000000000E+00  0.91188000000E+02  0.91188000000E+02 0.  0.
    9900012    2    3    3    0    0 -0.10477357664E+02  0.28345188087E+02 -0.21037024402E+02  0.54367067000E+02  0.39999960840E+02 0.  0.
        -12    1    3    3    0    0  0.10477357664E+02 -0.28345188087E+02  0.21037024402E+02  0.36820933000E+02  0.00000000000E+00 0.  1.
         11    1    4    4    0    0 -0.71390065918E+01  0.20218407526E+02 -0.20769405663E+02  0.29851593423E+02  0.51100000000E-03 0. -1.
        -11    1    4    4    0    0  0.67947495089E+01  0.88932498437E+01 -0.61534257669E+01  0.12771967844E+02  0.51100000000E-03 0.  1.
         12    1    4    4    0    0 -0.10133100581E+02 -0.76646928359E+00  0.58858070278E+01  0.11743505734E+02  0.00000000000E+00 0. -1.
</event>
<event>
 8    1  0.1271559E-006  0.9118800E+02  0.7816164E-02  0.1184000E+00
        -11   -1    0    0    0    0  0.00000000000E+00  0.00000000000E+00  0.45593999997E+02  0.45594000000E+02  0.51100000000E-03 0.  1.
         11   -1    0    0    0    0 -0.00000000000E+00 -0.00000000000E+00 -0.45593999997E+02  0.45594000000E+02  0.51100000000E-03 0. -1.
         23    2    1    2    0    0 -0.17763568394E-14 -0.35527136788E-14  0.00000000000E+00  0.91188000000E+02  0.91188000000E+02 0.  0.
    9900012    2    3    3    0    0  0.12574343267E+02  0.20719270326E+02  0.27719614742E+02  0.54367091363E+02  0.40000016380E+02 0.  0.
         12    1    3    3    0    0 -0.12574343267E+02 -0.20719270326E+02 -0.27719614742E+02  0.36820908637E+02  0.00000000000E+00 0. -1.
         11    1    4    4    0    0  0.54923455820E+01 -0.65914464098E+01  0.28591797595E+01  0.90436682228E+01  0.51100000000E-03 0. -1.
        -11    1    4    4    0    0 -0.64318808101E+00  0.22265429669E+01  0.18062506775E+02  0.18210583070E+02  0.51100000000E-03 0.  1.
        -12    1    4    4    0    0  0.77251857656E+01  0.25084173769E+02  0.67979282078E+01  0.27112840071E+02  0.00000000000E+00 0.  1.
</event>
<event>
 8    1  0.1271559E-006  0.9118800E+02  0.7816164E-02  0.1184000E+00
        -11   -1    0    0    0    0  0.00000000000E+00  0.00000000000E+00  0.45593999997E+02  0.45594000000E+02  0.51100000000E-03 0.  1.
         11   -1    0    0    0    0 -0.00000000000E+00 -0.00000000000E+00 -0.45593999997E+02  0.45594000000E+02  0.51100000000E-03 0. -1.
         23    2    1    2    0    0 -0.17763568394E-14 -0.44408920985E-15  0.00000000000E+00  0.91188000000E+02  0.91188000000E+02 0.  0.
    9900012    2    3    3    0    0 -0.10489408773E+02 -0.38275177329E+01 -0.35087052605E+02  0.54367097664E+02  0.40000030744E+02 0.  0.
        -12    1    3    3    0    0  0.10489408773E+02  0.38275177329E+01  0.35087052605E+02  0.36820902336E+02  0.00000000000E+00 0.  1.
         11    1    4    4    0    0 -0.42945398250E+01 -0.76831944802E+01 -0.16048772213E+02  0.18304033423E+02  0.51100000000E-03 0. -1.
        -11    1    4    4    0    0  0.12054805102E+02  0.26199581068E+01 -0.75632630530E+01  0.14470157387E+02  0.51100000000E-03 0.  1.
         12    1    4    4    0    0 -0.18249674050E+02  0.12357186405E+01 -0.11475017339E+02  0.21592906854E+02  0.00000000000E+00 0. -1.
</event>
<event>
 8    1  0.1271559E-006  0.9118800E+02  0.7816164E-02  0.1184000E+00
        -11   -1    0    0    0    0  0.00000000000E+00  0.00000000000E+00  0.45593999997E+02  0.45594000000E+02  0.51100000000E-03 0.  1.
         11   -1    0    0    0    0 -0.00000000000E+00 -0.00000000000E+00 -0.45593999997E+02  0.45594000000E+02  0.51100000000E-03 0. -1.
         23    2    1    2    0    0  0.00000000000E+00  0.66613381478E-15  0.00000000000E+00  0.91188000000E+02  0.91188000000E+02 0.  0.
    9900012    2    3    3    0    0 -0.32636954459E+02  0.18949492506E+01  0.16941637238E+02  0.54367072509E+02  0.39999973398E+02 0.  0.
         12    1    3    3    0    0  0.32636954459E+02 -0.18949492506E+01 -0.16941637238E+02  0.36820927491E+02  0.00000000000E+00 0. -1.
         11    1    4    4    0    0 -0.41610916397E+01 -0.15017721410E+01 -0.81784575202E+01  0.92982348254E+01  0.51100000000E-03 0. -1.
        -11    1    4    4    0    0 -0.45739228569E+01 -0.40844105833E+01 -0.34814437994E+01  0.70514985147E+01  0.51100000000E-03 0.  1.
        -12    1    4    4    0    0 -0.23901939962E+02  0.74811319749E+01  0.28601538558E+02  0.38017339169E+02  0.00000000000E+00 0.  1.
</event>
<event>
 8    1  0.1271559E-006  0.9118800E+02  0.7816164E-02  0.1184000E+00
        -11   -1    0    0    0    0  0.00000000000E+00  0.00000000000E+00  0.45593999997E+02  0.45594000000E+02  0.51100000000E-03 0. -1.
         11   -1    0    0    0    0 -0.00000000000E+00 -0.00000000000E+00 -0.45593999997E+02  0.45594000000E+02  0.51100000000E-03 0.  1.
         23    2    1    2    0    0  0.17763568394E-14 -0.17763568394E-14  0.00000000000E+00  0.91188000000E+02  0.91188000000E+02 0.  0.
    9900012    2    3    3    0    0  0.38239148558E+01 -0.61709949900E+01  0.36098152680E+02  0.54367080254E+02  0.39999991055E+02 0.  0.
        -12    1    3    3    0    0 -0.38239148558E+01  0.61709949900E+01 -0.36098152680E+02  0.36820919746E+02  0.00000000000E+00 0.  1.
         11    1    4    4    0    0  0.78830293877E+00 -0.14371016331E+01  0.70674723045E+00  0.17849858644E+01  0.51100000000E-03 0. -1.
        -11    1    4    4    0    0  0.14131154033E+02 -0.17117293528E+02  0.21728439248E+02  0.31061492630E+02  0.51100000000E-03 0.  1.
         12    1    4    4    0    0 -0.11095542116E+02  0.12383400171E+02  0.13662966202E+02  0.21520601760E+02  0.00000000000E+00 0. -1.
</event>
<event>
 8    1  0.1271559E-006  0.9118800E+02  0.7816164E-02  0.1184000E+00
        -11   -1    0    0    0    0  0.00000000000E+00  0.00000000000E+00  0.45593999997E+02  0.45594000000E+02  0.51100000000E-03 0.  1.
         11   -1    0    0    0    0 -0.00000000000E+00 -0.00000000000E+00 -0.45593999997E+02  0.45594000000E+02  0.51100000000E-03 0. -1.
         23    2    1    2    0    0 -0.35527136788E-14  0.00000000000E+00 -0.35527136788E-14  0.91188000000E+02  0.91188000000E+02 0.  0.
    9900012    2    3    3    0    0  0.29289721226E+02  0.10336208221E+02 -0.19775116163E+02  0.54367079464E+02  0.39999989254E+02 0.  0.
        -12    1    3    3    0    0 -0.29289721226E+02 -0.10336208221E+02  0.19775116163E+02  0.36820920536E+02  0.00000000000E+00 0.  1.
         11    1    4    4    0    0  0.18749404178E+02 -0.14004120171E+00 -0.95216986672E+01  0.21029087339E+02  0.51100000000E-03 0. -1.
        -11    1    4    4    0    0 -0.59528866172E+01  0.45361254527E+01 -0.13569711625E+02  0.15496785701E+02  0.51100000000E-03 0.  1.
        -12    1    4    4    0    0  0.16493203665E+02  0.59401239696E+01  0.33162941289E+01  0.17841206424E+02  0.00000000000E+00 0.  1.
</event>
<event>
 8    1  0.1271559E-006  0.9118800E+02  0.7816164E-02  0.1184000E+00
        -11   -1    0    0    0    0  0.00000000000E+00  0.00000000000E+00  0.45593999997E+02  0.45594000000E+02  0.51100000000E-03 0. -1.
         11   -1    0    0    0    0 -0.00000000000E+00 -0.00000000000E+00 -0.45593999997E+02  0.45594000000E+02  0.51100000000E-03 0.  1.
         23    2    1    2    0    0  0.35527136788E-14  0.00000000000E+00 -0.35527136788E-14  0.91188000000E+02  0.91188000000E+02 0.  0.
    9900012    2    3    3    0    0 -0.26743983104E+02 -0.53599436295E+01  0.24734770915E+02  0.54367102127E+02  0.40000040918E+02 0.  0.
        -12    1    3    3    0    0  0.26743983104E+02  0.53599436295E+01 -0.24734770915E+02  0.36820897873E+02  0.00000000000E+00 0.  1.
         11    1    4    4    0    0 -0.22188531911E+01 -0.10646932333E+01  0.28593901978E+02  0.28699618669E+02  0.51100000000E-03 0. -1.
        -11    1    4    4    0    0 -0.20370093913E+02 -0.18922668894E+01 -0.40877051524E+01  0.20862184298E+02  0.51100000000E-03 0.  1.
         12    1    4    4    0    0 -0.41550360000E+01 -0.24029835068E+01  0.22857408900E+00  0.48052991592E+01  0.00000000000E+00 0. -1.
</event>
<event>
 8    1  0.1271559E-006  0.9118800E+02  0.7816164E-02  0.1184000E+00
        -11   -1    0    0    0    0  0.00000000000E+00  0.00000000000E+00  0.45593999997E+02  0.45594000000E+02  0.51100000000E-03 0.  1.
         11   -1    0    0    0    0 -0.00000000000E+00 -0.00000000000E+00 -0.45593999997E+02  0.45594000000E+02  0.51100000000E-03 0. -1.
         23    2    1    2    0    0 -0.35527136788E-14 -0.22204460493E-15  0.00000000000E+00  0.91188000000E+02  0.91188000000E+02 0.  0.
    9900012    2    3    3    0    0  0.27130050760E+02 -0.11576012175E+01  0.24867663059E+02  0.54367077132E+02  0.39999983938E+02 0.  0.
         12    1    3    3    0    0 -0.27130050760E+02  0.11576012175E+01 -0.24867663059E+02  0.36820922868E+02  0.00000000000E+00 0. -1.
         11    1    4    4    0    0 -0.20344882999E+01 -0.33774300053E+00  0.86774375821E+01  0.89191443665E+01  0.51100000000E-03 0. -1.
        -11    1    4    4    0    0  0.16494920253E+02  0.13120874438E+02  0.74901452222E+00  0.21090300216E+02  0.51100000000E-03 0.  1.
         12    1    4    4    0    0  0.12669618806E+02 -0.13940732655E+02  0.15441210955E+02  0.24357632550E+02  0.00000000000E+00 0. -1.
</event>
<event>
 8    1  0.1271559E-006  0.9118800E+02  0.7816164E-02  0.1184000E+00
        -11   -1    0    0    0    0  0.00000000000E+00  0.00000000000E+00  0.45593999997E+02  0.45594000000E+02  0.51100000000E-03 0. -1.
         11   -1    0    0    0    0 -0.00000000000E+00 -0.00000000000E+00 -0.45593999997E+02  0.45594000000E+02  0.51100000000E-03 0.  1.
         23    2    1    2    0    0  0.35527136788E-14  0.00000000000E+00 -0.71054273576E-14  0.91188000000E+02  0.91188000000E+02 0.  0.
    9900012    2    3    3    0    0 -0.12543840606E+02  0.12843439476E+02  0.32147830311E+02  0.54367015922E+02  0.39999844398E+02 0.  0.
        -12    1    3    3    0    0  0.12543840606E+02 -0.12843439476E+02 -0.32147830311E+02  0.36820984078E+02  0.00000000000E+00 0.  1.
         11    1    4    4    0    0 -0.48270041651E+01  0.67065381909E+01  0.17945044556E+02  0.19756068639E+02  0.51100000000E-03 0. -1.
        -11    1    4    4    0    0 -0.13760700594E+01  0.59657748452E+01  0.22980018123E+02  0.23781616251E+02  0.51100000000E-03 0.  1.
        -12    1    4    4    0    0 -0.63407663813E+01  0.17112643961E+00 -0.87772323677E+01  0.10829331032E+02  0.00000000000E+00 0.  1.
</event>
<event>
 8    1  0.1271559E-006  0.9118800E+02  0.7816164E-02  0.1184000E+00
        -11   -1    0    0    0    0  0.00000000000E+00  0.00000000000E+00  0.45593999997E+02  0.45594000000E+02  0.51100000000E-03 0.  1.
         11   -1    0    0    0    0 -0.00000000000E+00 -0.00000000000E+00 -0.45593999997E+02  0.45594000000E+02  0.51100000000E-03 0. -1.
         23    2    1    2    0    0  0.00000000000E+00  0.00000000000E+00 -0.10658141036E-13  0.91188000000E+02  0.91188000000E+02 0.  0.
    9900012    2    3    3    0    0 -0.23322154856E+02 -0.54021654145E+01  0.27976293818E+02  0.54367091347E+02  0.40000016343E+02 0.  0.
         12    1    3    3    0    0  0.23322154856E+02  0.54021654145E+01 -0.27976293818E+02  0.36820908653E+02  0.00000000000E+00 0. -1.
         11    1    4    4    0    0 -0.64761314756E+00 -0.52621896478E+01 -0.65295880493E+01  0.84110381662E+01  0.51100000000E-03 0. -1.
        -11    1    4    4    0    0 -0.20355211714E+01 -0.46583490634E+01 -0.45815859315E+00  0.51042601808E+01  0.51100000000E-03 0.  1.
        -12    1    4    4    0    0 -0.20639020537E+02  0.45183732967E+01  0.34964040460E+02  0.40851793000E+02  0.00000000000E+00 0.  1.
</event>
<event>
 8    1  0.1271559E-006  0.9118800E+02  0.7816164E-02  0.1184000E+00
        -11   -1    0    0    0    0  0.00000000000E+00  0.00000000000E+00  0.45593999997E+02  0.45594000000E+02  0.51100000000E-03 0. -1.
         11   -1    0    0    0    0 -0.00000000000E+00 -0.00000000000E+00 -0.45593999997E+02  0.45594000000E+02  0.51100000000E-03 0.  1.
         23    2    1    2    0    0  0.00000000000E+00 -0.26645352591E-14  0.00000000000E+00  0.91188000000E+02  0.91188000000E+02 0.  0.
    9900012    2    3    3    0    0 -0.10505864285E+02  0.39798053494E+01  0.35065215926E+02  0.54367062981E+02  0.39999951678E+02 0.  0.
        -12    1    3    3    0    0  0.10505864285E+02 -0.39798053494E+01 -0.35065215926E+02  0.36820937019E+02  0.00000000000E+00 0.  1.
         11    1    4    4    0    0  0.33137680489E+01  0.90633547425E+01  0.15412853606E+02  0.18184650517E+02  0.51100000000E-03 0. -1.
        -11    1    4    4    0    0 -0.16503903575E+02 -0.10880234996E+02  0.21814317420E+02  0.29438457696E+02  0.51100000000E-03 0.  1.
        -12    1    4    4    0    0  0.26842712409E+01  0.57966856026E+01 -0.21619550993E+01  0.67439547686E+01  0.00000000000E+00 0.  1.
</event>
<event>
 8    1  0.1271559E-006  0.9118800E+02  0.7816164E-02  0.1184000E+00
        -11   -1    0    0    0    0  0.00000000000E+00  0.00000000000E+00  0.45593999997E+02  0.45594000000E+02  0.51100000000E-03 0. -1.
         11   -1    0    0    0    0 -0.00000000000E+00 -0.00000000000E+00 -0.45593999997E+02  0.45594000000E+02  0.51100000000E-03 0.  1.
         23    2    1    2    0    0  0.35527136788E-14  0.00000000000E+00 -0.35527136788E-14  0.91188000000E+02  0.91188000000E+02 0.  0.
    9900012    2    3    3    0    0 -0.16355262963E+02  0.10562116589E+02 -0.31252629167E+02  0.54367085247E+02  0.40000002437E+02 0.  0.
         12    1    3    3    0    0  0.16355262963E+02 -0.10562116589E+02  0.31252629167E+02  0.36820914753E+02  0.00000000000E+00 0. -1.
         11    1    4    4    0    0 -0.16439877176E+02 -0.41853621737E+01 -0.12408907733E+01  0.17009604001E+02  0.51100000000E-03 0. -1.
        -11    1    4    4    0    0 -0.61691008856E+01  0.31287380383E+01 -0.35192415552E+01  0.77609193292E+01  0.51100000000E-03 0.  1.
        -12    1    4    4    0    0  0.62537150988E+01  0.11618740725E+02 -0.26492496838E+02  0.29596561917E+02  0.00000000000E+00 0.  1.
</event>
<event>
 8    1  0.1271559E-006  0.9118800E+02  0.7816164E-02  0.1184000E+00
        -11   -1    0    0    0    0  0.00000000000E+00  0.00000000000E+00  0.45593999997E+02  0.45594000000E+02  0.51100000000E-03 0.  1.
         11   -1    0    0    0    0 -0.00000000000E+00 -0.00000000000E+00 -0.45593999997E+02  0.45594000000E+02  0.51100000000E-03 0. -1.
         23    2    1    2    0    0  0.35527136788E-14 -0.17763568394E-14  0.00000000000E+00  0.91188000000E+02  0.91188000000E+02 0.  0.
    9900012    2    3    3    0    0 -0.22969849770E+02 -0.93353507280E+01  0.27221715321E+02  0.54367020156E+02  0.39999854049E+02 0.  0.
         12    1    3    3    0    0  0.22969849770E+02  0.93353507280E+01 -0.27221715321E+02  0.36820979844E+02  0.00000000000E+00 0. -1.
         11    1    4    4    0    0 -0.99564587535E+01 -0.31822665007E+01  0.15184835373E+02  0.18434671588E+02  0.51100000000E-03 0.  1.
        -11    1    4    4    0    0 -0.18342480716E+02  0.35432601832E+01  0.15568299497E+02  0.24318166893E+02  0.51100000000E-03 0. -1.
        -12    1    4    4    0    0  0.53290896998E+01 -0.96963444105E+01 -0.35314195485E+01  0.11614181675E+02  0.00000000000E+00 0.  1.
</event>
<event>
 8    1  0.1271559E-006  0.9118800E+02  0.7816164E-02  0.1184000E+00
        -11   -1    0    0    0    0  0.00000000000E+00  0.00000000000E+00  0.45593999997E+02  0.45594000000E+02  0.51100000000E-03 0.  1.
         11   -1    0    0    0    0 -0.00000000000E+00 -0.00000000000E+00 -0.45593999997E+02  0.45594000000E+02  0.51100000000E-03 0. -1.
         23    2    1    2    0    0  0.00000000000E+00  0.13322676296E-14  0.00000000000E+00  0.91188000000E+02  0.91188000000E+02 0.  0.
    9900012    2    3    3    0    0  0.17545155473E+02 -0.25823228083E+01 -0.32268858376E+02  0.54367080775E+02  0.39999992243E+02 0.  0.
        -12    1    3    3    0    0 -0.17545155473E+02  0.25823228083E+01  0.32268858376E+02  0.36820919225E+02  0.00000000000E+00 0.  1.
         11    1    4    4    0    0  0.70441124516E+01 -0.10810694291E+02 -0.14163806500E+02  0.19159959449E+02  0.51100000000E-03 0. -1.
        -11    1    4    4    0    0 -0.22534388056E+01  0.14342373008E+02 -0.14695762214E+02  0.20657857519E+02  0.51100000000E-03 0.  1.
        -12    1    4    4    0    0  0.12754481827E+02 -0.61140015255E+01 -0.34092896626E+01  0.14549263807E+02  0.00000000000E+00 0.  1.
</event>
<event>
 8    1  0.1271559E-006  0.9118800E+02  0.7816164E-02  0.1184000E+00
        -11   -1    0    0    0    0  0.00000000000E+00  0.00000000000E+00  0.45593999997E+02  0.45594000000E+02  0.51100000000E-03 0.  1.
         11   -1    0    0    0    0 -0.00000000000E+00 -0.00000000000E+00 -0.45593999997E+02  0.45594000000E+02  0.51100000000E-03 0. -1.
         23    2    1    2    0    0  0.35527136788E-14  0.35527136788E-14  0.00000000000E+00  0.91188000000E+02  0.91188000000E+02 0.  0.
    9900012    2    3    3    0    0  0.22696367852E+02 -0.24097623124E+02  0.16123311735E+02  0.54367058469E+02  0.39999941392E+02 0.  0.
        -12    1    3    3    0    0 -0.22696367852E+02  0.24097623124E+02 -0.16123311735E+02  0.36820941531E+02  0.00000000000E+00 0.  1.
         11    1    4    4    0    0 -0.52393223050E+01 -0.21498799272E+02  0.25743746313E+01  0.22277259108E+02  0.51100000000E-03 0. -1.
        -11    1    4    4    0    0  0.53895887693E+01  0.39088879025E+00  0.61189565995E+01  0.81634607414E+01  0.51100000000E-03 0.  1.
         12    1    4    4    0    0  0.22546101388E+02 -0.29897126427E+01  0.74299805045E+01  0.23926338620E+02  0.00000000000E+00 0. -1.
</event>
<event>
 8    1  0.1271559E-006  0.9118800E+02  0.7816164E-02  0.1184000E+00
        -11   -1    0    0    0    0  0.00000000000E+00  0.00000000000E+00  0.45593999997E+02  0.45594000000E+02  0.51100000000E-03 0.  1.
         11   -1    0    0    0    0 -0.00000000000E+00 -0.00000000000E+00 -0.45593999997E+02  0.45594000000E+02  0.51100000000E-03 0. -1.
         23    2    1    2    0    0  0.00000000000E+00 -0.17763568394E-14  0.35527136788E-14  0.91188000000E+02  0.91188000000E+02 0.  0.
    9900012    2    3    3    0    0  0.23575409258E+02 -0.65882189031E+01  0.27505917398E+02  0.54367081463E+02  0.39999993811E+02 0.  0.
         12    1    3    3    0    0 -0.23575409258E+02  0.65882189031E+01 -0.27505917398E+02  0.36820918537E+02  0.00000000000E+00 0. -1.
         11    1    4    4    0    0  0.62001004933E+00  0.45362885817E+01 -0.77802288397E+01  0.90274186575E+01  0.51100000000E-03 0. -1.
        -11    1    4    4    0    0  0.10775360294E+02 -0.46006137096E+01  0.64748174985E+01  0.13386459497E+02  0.51100000000E-03 0.  1.
         12    1    4    4    0    0  0.12180038915E+02 -0.65238937753E+01  0.28811328739E+02  0.31953203309E+02  0.00000000000E+00 0. -1.
</event>
<event>
 8    1  0.1271559E-006  0.9118800E+02  0.7816164E-02  0.1184000E+00
        -11   -1    0    0    0    0  0.00000000000E+00  0.00000000000E+00  0.45593999997E+02  0.45594000000E+02  0.51100000000E-03 0. -1.
         11   -1    0    0    0    0 -0.00000000000E+00 -0.00000000000E+00 -0.45593999997E+02  0.45594000000E+02  0.51100000000E-03 0.  1.
         23    2    1    2    0    0  0.00000000000E+00  0.00000000000E+00  0.00000000000E+00  0.91188000000E+02  0.91188000000E+02 0.  0.
    9900012    2    3    3    0    0 -0.59394504054E+01  0.31741788482E+02 -0.17690737000E+02  0.54367076834E+02  0.39999983258E+02 0.  0.
         12    1    3    3    0    0  0.59394504054E+01 -0.31741788482E+02  0.17690737000E+02  0.36820923166E+02  0.00000000000E+00 0. -1.
         11    1    4    4    0    0  0.62098394787E+01  0.65142705544E+01 -0.70413745875E+00  0.90273826233E+01  0.51100000000E-03 0. -1.
        -11    1    4    4    0    0 -0.30180387804E+01  0.78503398668E+01 -0.23258024447E+02  0.24732005489E+02  0.51100000000E-03 0.  1.
        -12    1    4    4    0    0 -0.91312511037E+01  0.17377178061E+02  0.62714249050E+01  0.20607688721E+02  0.00000000000E+00 0.  1.
</event>
<event>
 8    1  0.1271559E-006  0.9118800E+02  0.7816164E-02  0.1184000E+00
        -11   -1    0    0    0    0  0.00000000000E+00  0.00000000000E+00  0.45593999997E+02  0.45594000000E+02  0.51100000000E-03 0.  1.
         11   -1    0    0    0    0 -0.00000000000E+00 -0.00000000000E+00 -0.45593999997E+02  0.45594000000E+02  0.51100000000E-03 0. -1.
         23    2    1    2    0    0  0.00000000000E+00 -0.88817841970E-15 -0.35527136788E-14  0.91188000000E+02  0.91188000000E+02 0.  0.
    9900012    2    3    3    0    0  0.18988439175E+02 -0.50755529584E+01 -0.31136124155E+02  0.54367078127E+02  0.39999986207E+02 0.  0.
        -12    1    3    3    0    0 -0.18988439175E+02  0.50755529584E+01  0.31136124155E+02  0.36820921873E+02  0.00000000000E+00 0.  1.
         11    1    4    4    0    0 -0.89679651122E+01  0.87609531404E+01 -0.11752293732E+02  0.17184152770E+02  0.51100000000E-03 0.  1.
        -11    1    4    4    0    0  0.21637733338E+01 -0.25512423444E+01 -0.35689227956E+01  0.48916216863E+01  0.51100000000E-03 0. -1.
        -12    1    4    4    0    0  0.25792630954E+02 -0.11285263754E+02 -0.15814907628E+02  0.32291303671E+02  0.00000000000E+00 0.  1.
</event>
<event>
 8    1  0.1271559E-006  0.9118800E+02  0.7816164E-02  0.1184000E+00
        -11   -1    0    0    0    0  0.00000000000E+00  0.00000000000E+00  0.45593999997E+02  0.45594000000E+02  0.51100000000E-03 0.  1.
         11   -1    0    0    0    0 -0.00000000000E+00 -0.00000000000E+00 -0.45593999997E+02  0.45594000000E+02  0.51100000000E-03 0. -1.
         23    2    1    2    0    0  0.71054273576E-14 -0.17763568394E-14  0.00000000000E+00  0.91188000000E+02  0.91188000000E+02 0.  0.
    9900012    2    3    3    0    0 -0.33218312950E+02 -0.12287457960E+02 -0.10066878233E+02  0.54367082361E+02  0.39999995859E+02 0.  0.
        -12    1    3    3    0    0  0.33218312950E+02  0.12287457960E+02  0.10066878233E+02  0.36820917639E+02  0.00000000000E+00 0.  1.
         11    1    4    4    0    0 -0.25425543257E+01 -0.30364085337E+01 -0.56082329426E+01  0.68656125933E+01  0.51100000000E-03 0. -1.
        -11    1    4    4    0    0 -0.12340522415E+02 -0.17725093788E+02 -0.13394717835E+02  0.25414285538E+02  0.51100000000E-03 0.  1.
        -12    1    4    4    0    0 -0.18335236209E+02  0.84740443617E+01  0.89360725440E+01  0.22087184230E+02  0.00000000000E+00 0.  1.
</event>
<event>
 8    1  0.1271559E-006  0.9118800E+02  0.7816164E-02  0.1184000E+00
        -11   -1    0    0    0    0  0.00000000000E+00  0.00000000000E+00  0.45593999997E+02  0.45594000000E+02  0.51100000000E-03 0.  1.
         11   -1    0    0    0    0 -0.00000000000E+00 -0.00000000000E+00 -0.45593999997E+02  0.45594000000E+02  0.51100000000E-03 0. -1.
         23    2    1    2    0    0  0.35527136788E-14  0.88817841970E-15  0.00000000000E+00  0.91188000000E+02  0.91188000000E+02 0.  0.
    9900012    2    3    3    0    0 -0.29926527885E+02 -0.46205689983E+01 -0.20948246909E+02  0.54367139368E+02  0.40000125818E+02 0.  0.
        -12    1    3    3    0    0  0.29926527885E+02  0.46205689983E+01  0.20948246909E+02  0.36820860632E+02  0.00000000000E+00 0.  1.
         11    1    4    4    0    0 -0.79028553769E+01  0.13133071241E+02 -0.75686753882E+01  0.17094371317E+02  0.51100000000E-03 0. -1.
        -11    1    4    4    0    0  0.13340326240E+01 -0.31469194552E+01 -0.86763564487E+01  0.93253368081E+01  0.51100000000E-03 0.  1.
        -12    1    4    4    0    0 -0.23357705132E+02 -0.14606720784E+02 -0.47032150721E+01  0.27947431243E+02  0.00000000000E+00 0.  1.
</event>
<event>
 8    1  0.1271559E-006  0.9118800E+02  0.7816164E-02  0.1184000E+00
        -11   -1    0    0    0    0  0.00000000000E+00  0.00000000000E+00  0.45593999997E+02  0.45594000000E+02  0.51100000000E-03 0. -1.
         11   -1    0    0    0    0 -0.00000000000E+00 -0.00000000000E+00 -0.45593999997E+02  0.45594000000E+02  0.51100000000E-03 0.  1.
         23    2    1    2    0    0  0.00000000000E+00  0.17763568394E-14  0.17763568394E-14  0.91188000000E+02  0.91188000000E+02 0.  0.
    9900012    2    3    3    0    0 -0.33960363401E+02 -0.74410002665E+01 -0.12128676919E+02  0.54367087857E+02  0.40000008387E+02 0.  0.
         12    1    3    3    0    0  0.33960363401E+02  0.74410002665E+01  0.12128676919E+02  0.36820912143E+02  0.00000000000E+00 0. -1.
         11    1    4    4    0    0 -0.27858695429E+01 -0.93206889212E+01 -0.14853430865E+02  0.17755582778E+02  0.51100000000E-03 0.  1.
        -11    1    4    4    0    0 -0.23450103552E+02  0.77521932375E+01  0.74795007214E+01  0.25805944817E+02  0.51100000000E-03 0. -1.
        -12    1    4    4    0    0 -0.77243903054E+01 -0.58725045828E+01 -0.47547467750E+01  0.10805560261E+02  0.00000000000E+00 0.  1.
</event>
<event>
 8    1  0.1271559E-006  0.9118800E+02  0.7816164E-02  0.1184000E+00
        -11   -1    0    0    0    0  0.00000000000E+00  0.00000000000E+00  0.45593999997E+02  0.45594000000E+02  0.51100000000E-03 0.  1.
         11   -1    0    0    0    0 -0.00000000000E+00 -0.00000000000E+00 -0.45593999997E+02  0.45594000000E+02  0.51100000000E-03 0. -1.
         23    2    1    2    0    0 -0.17763568394E-14  0.35527136788E-14  0.71054273576E-14  0.91188000000E+02  0.91188000000E+02 0.  0.
    9900012    2    3    3    0    0  0.10185256324E+02  0.19799065621E+02  0.29326401810E+02  0.54367078108E+02  0.39999986162E+02 0.  0.
         12    1    3    3    0    0 -0.10185256324E+02 -0.19799065621E+02 -0.29326401810E+02  0.36820921892E+02  0.00000000000E+00 0. -1.
         11    1    4    4    0    0 -0.33409912221E+01 -0.59092738818E+01 -0.32356920034E+01  0.75200693586E+01  0.51100000000E-03 0. -1.
        -11    1    4    4    0    0 -0.35152199593E+01  0.11566333415E+01  0.25631508087E+01  0.45015902055E+01  0.51100000000E-03 0.  1.
        -12    1    4    4    0    0  0.17041467506E+02  0.24551706162E+02  0.29998943005E+02  0.42345418543E+02  0.00000000000E+00 0.  1.
</event>
<event>
 8    1  0.1271559E-006  0.9118800E+02  0.7816164E-02  0.1184000E+00
        -11   -1    0    0    0    0  0.00000000000E+00  0.00000000000E+00  0.45593999997E+02  0.45594000000E+02  0.51100000000E-03 0.  1.
         11   -1    0    0    0    0 -0.00000000000E+00 -0.00000000000E+00 -0.45593999997E+02  0.45594000000E+02  0.51100000000E-03 0. -1.
         23    2    1    2    0    0  0.00000000000E+00  0.00000000000E+00  0.00000000000E+00  0.91188000000E+02  0.91188000000E+02 0.  0.
    9900012    2    3    3    0    0 -0.76162423910E+01  0.36664963487E+01 -0.35837545836E+02  0.54367081554E+02  0.39999994020E+02 0.  0.
        -12    1    3    3    0    0  0.76162423910E+01 -0.36664963487E+01  0.35837545836E+02  0.36820918446E+02  0.00000000000E+00 0.  1.
         11    1    4    4    0    0 -0.14352126178E+02  0.81490189282E+00 -0.32023039519E+02  0.35101604681E+02  0.51100000000E-03 0. -1.
        -11    1    4    4    0    0  0.53658027559E+01  0.94752717193E+01  0.10417243897E+01  0.10938820930E+02  0.51100000000E-03 0.  1.
         12    1    4    4    0    0  0.13700810308E+01 -0.66236772634E+01 -0.48562307066E+01  0.83266559432E+01  0.00000000000E+00 0. -1.
</event>
<event>
 8    1  0.1271559E-006  0.9118800E+02  0.7816164E-02  0.1184000E+00
        -11   -1    0    0    0    0  0.00000000000E+00  0.00000000000E+00  0.45593999997E+02  0.45594000000E+02  0.51100000000E-03 0.  1.
         11   -1    0    0    0    0 -0.00000000000E+00 -0.00000000000E+00 -0.45593999997E+02  0.45594000000E+02  0.51100000000E-03 0. -1.
         23    2    1    2    0    0  0.35527136788E-14  0.00000000000E+00  0.00000000000E+00  0.91188000000E+02  0.91188000000E+02 0.  0.
    9900012    2    3    3    0    0  0.10143490321E+02 -0.34304154583E+02 -0.87242381799E+01  0.54367112594E+02  0.40000064779E+02 0.  0.
        -12    1    3    3    0    0 -0.10143490321E+02  0.34304154583E+02  0.87242381799E+01  0.36820887406E+02  0.00000000000E+00 0.  1.
         11    1    4    4    0    0 -0.10939194275E+02 -0.60181164660E+01 -0.77064623447E+01  0.14672193405E+02  0.51100000000E-03 0.  1.
        -11    1    4    4    0    0 -0.23050307717E+01  0.72590910725E+00 -0.96529198018E-01  0.24185592897E+01  0.51100000000E-03 0. -1.
         12    1    4    4    0    0  0.23387715368E+02 -0.29011947225E+02 -0.92124663714E+00  0.37276359898E+02  0.00000000000E+00 0. -1.
</event>
<event>
 8    1  0.1271559E-006  0.9118800E+02  0.7816164E-02  0.1184000E+00
        -11   -1    0    0    0    0  0.00000000000E+00  0.00000000000E+00  0.45593999997E+02  0.45594000000E+02  0.51100000000E-03 0. -1.
         11   -1    0    0    0    0 -0.00000000000E+00 -0.00000000000E+00 -0.45593999997E+02  0.45594000000E+02  0.51100000000E-03 0.  1.
         23    2    1    2    0    0  0.88817841970E-15  0.35527136788E-14  0.00000000000E+00  0.91188000000E+02  0.91188000000E+02 0.  0.
    9900012    2    3    3    0    0 -0.11799928970E+01 -0.29277019921E+02  0.22298963224E+02  0.54367081495E+02  0.39999993884E+02 0.  0.
        -12    1    3    3    0    0  0.11799928970E+01  0.29277019921E+02 -0.22298963224E+02  0.36820918505E+02  0.00000000000E+00 0.  1.
         11    1    4    4    0    0  0.48856163051E+01 -0.17444652195E+02  0.17553389205E+01  0.18200723938E+02  0.51100000000E-03 0. -1.
        -11    1    4    4    0    0  0.19058502789E+01 -0.20361238864E+01 -0.60854192944E+01  0.66940566188E+01  0.51100000000E-03 0.  1.
         12    1    4    4    0    0 -0.79714594810E+01 -0.97962438399E+01  0.26629043598E+02  0.29472300938E+02  0.00000000000E+00 0. -1.
</event>
<event>
 8    1  0.1271559E-006  0.9118800E+02  0.7816164E-02  0.1184000E+00
        -11   -1    0    0    0    0  0.00000000000E+00  0.00000000000E+00  0.45593999997E+02  0.45594000000E+02  0.51100000000E-03 0.  1.
         11   -1    0    0    0    0 -0.00000000000E+00 -0.00000000000E+00 -0.45593999997E+02  0.45594000000E+02  0.51100000000E-03 0. -1.
         23    2    1    2    0    0 -0.88817841970E-15 -0.35527136788E-14  0.00000000000E+00  0.91188000000E+02  0.91188000000E+02 0.  0.
    9900012    2    3    3    0    0  0.66267271051E+01 -0.31869743468E+02  0.17210004993E+02  0.54367104673E+02  0.40000046722E+02 0.  0.
         12    1    3    3    0    0 -0.66267271051E+01  0.31869743468E+02 -0.17210004993E+02  0.36820895327E+02  0.00000000000E+00 0. -1.
         11    1    4    4    0    0  0.55392350659E+00 -0.16772622621E+01 -0.72425835517E+01  0.74548679875E+01  0.51100000000E-03 0. -1.
        -11    1    4    4    0    0  0.86705266212E+00 -0.33631432132E+02  0.19066141758E+02  0.38669662131E+02  0.51100000000E-03 0.  1.
         12    1    4    4    0    0  0.52057509364E+01  0.34389509261E+01  0.53864467869E+01  0.82425745537E+01  0.00000000000E+00 0. -1.
</event>
<event>
 8    1  0.1271559E-006  0.9118800E+02  0.7816164E-02  0.1184000E+00
        -11   -1    0    0    0    0  0.00000000000E+00  0.00000000000E+00  0.45593999997E+02  0.45594000000E+02  0.51100000000E-03 0. -1.
         11   -1    0    0    0    0 -0.00000000000E+00 -0.00000000000E+00 -0.45593999997E+02  0.45594000000E+02  0.51100000000E-03 0.  1.
         23    2    1    2    0    0 -0.71054273576E-14 -0.88817841970E-15 -0.35527136788E-14  0.91188000000E+02  0.91188000000E+02 0.  0.
    9900012    2    3    3    0    0 -0.32208453780E+02 -0.25971961771E+01 -0.17653577013E+02  0.54367099628E+02  0.40000035221E+02 0.  0.
         12    1    3    3    0    0  0.32208453780E+02  0.25971961771E+01  0.17653577013E+02  0.36820900372E+02  0.00000000000E+00 0. -1.
         11    1    4    4    0    0 -0.66183071558E+00 -0.41756855213E+00 -0.71468976346E+01  0.71896126080E+01  0.51100000000E-03 0.  1.
        -11    1    4    4    0    0 -0.24368726169E+02 -0.16213212510E+02 -0.11347904532E+02  0.31392324102E+02  0.51100000000E-03 0. -1.
         12    1    4    4    0    0 -0.71778968952E+01  0.14033584885E+02  0.84122515389E+00  0.15785162917E+02  0.00000000000E+00 0. -1.
</event>
<event>
 8    1  0.1271559E-006  0.9118800E+02  0.7816164E-02  0.1184000E+00
        -11   -1    0    0    0    0  0.00000000000E+00  0.00000000000E+00  0.45593999997E+02  0.45594000000E+02  0.51100000000E-03 0.  1.
         11   -1    0    0    0    0 -0.00000000000E+00 -0.00000000000E+00 -0.45593999997E+02  0.45594000000E+02  0.51100000000E-03 0. -1.
         23    2    1    2    0    0 -0.44408920985E-15  0.00000000000E+00  0.00000000000E+00  0.91188000000E+02  0.91188000000E+02 0.  0.
    9900012    2    3    3    0    0 -0.15696216295E+01 -0.27682838329E+02  0.24227592296E+02  0.54367089114E+02  0.40000011254E+02 0.  0.
         12    1    3    3    0    0  0.15696216295E+01  0.27682838329E+02 -0.24227592296E+02  0.36820910886E+02  0.00000000000E+00 0. -1.
         11    1    4    4    0    0 -0.35135224344E+01 -0.26135457092E+01  0.99245674408E+01  0.10847695618E+02  0.51100000000E-03 0. -1.
        -11    1    4    4    0    0 -0.53304965528E+01 -0.20273015129E+02  0.23061639819E+02  0.31164861098E+02  0.51100000000E-03 0.  1.
         12    1    4    4    0    0  0.72743973577E+01 -0.47962774911E+01 -0.87586149638E+01  0.12354532398E+02  0.00000000000E+00 0. -1.
</event>
<event>
 8    1  0.1271559E-006  0.9118800E+02  0.7816164E-02  0.1184000E+00
        -11   -1    0    0    0    0  0.00000000000E+00  0.00000000000E+00  0.45593999997E+02  0.45594000000E+02  0.51100000000E-03 0. -1.
         11   -1    0    0    0    0 -0.00000000000E+00 -0.00000000000E+00 -0.45593999997E+02  0.45594000000E+02  0.51100000000E-03 0.  1.
         23    2    1    2    0    0 -0.71054273576E-14 -0.17763568394E-14  0.53290705182E-14  0.91188000000E+02  0.91188000000E+02 0.  0.
    9900012    2    3    3    0    0  0.32620162996E+02  0.75476899571E+01 -0.15321156355E+02  0.54367075383E+02  0.39999979951E+02 0.  0.
         12    1    3    3    0    0 -0.32620162996E+02 -0.75476899571E+01  0.15321156355E+02  0.36820924617E+02  0.00000000000E+00 0. -1.
         11    1    4    4    0    0  0.36129188483E+02  0.10489853779E+02 -0.29980377072E+01  0.37740475925E+02  0.51100000000E-03 0. -1.
        -11    1    4    4    0    0  0.36397275881E+00 -0.12073708069E+01  0.16194292614E+01  0.20525037950E+01  0.51100000000E-03 0.  1.
        -12    1    4    4    0    0 -0.38729982453E+01 -0.17347930145E+01 -0.13942547909E+02  0.14574095663E+02  0.00000000000E+00 0.  1.
</event>
<event>
 8    1  0.1271559E-006  0.9118800E+02  0.7816164E-02  0.1184000E+00
        -11   -1    0    0    0    0  0.00000000000E+00  0.00000000000E+00  0.45593999997E+02  0.45594000000E+02  0.51100000000E-03 0.  1.
         11   -1    0    0    0    0 -0.00000000000E+00 -0.00000000000E+00 -0.45593999997E+02  0.45594000000E+02  0.51100000000E-03 0. -1.
         23    2    1    2    0    0 -0.35527136788E-14  0.00000000000E+00  0.66613381478E-15  0.91188000000E+02  0.91188000000E+02 0.  0.
    9900012    2    3    3    0    0  0.26345356986E+02 -0.25708468317E+02 -0.88128151819E+00  0.54367084272E+02  0.40000000215E+02 0.  0.
        -12    1    3    3    0    0 -0.26345356986E+02  0.25708468317E+02  0.88128151819E+00  0.36820915728E+02  0.00000000000E+00 0.  1.
         11    1    4    4    0    0  0.78232984956E+01 -0.30901272492E+02  0.62582514694E+01  0.32484740305E+02  0.51100000000E-03 0. -1.
        -11    1    4    4    0    0  0.63446787991E+01  0.14411807474E+01 -0.63879768563E+01  0.91180151123E+01  0.51100000000E-03 0.  1.
        -12    1    4    4    0    0  0.12177379691E+02  0.37516234276E+01 -0.75155613125E+00  0.12764328855E+02  0.00000000000E+00 0.  1.
</event>
<event>
 8    1  0.1271559E-006  0.9118800E+02  0.7816164E-02  0.1184000E+00
        -11   -1    0    0    0    0  0.00000000000E+00  0.00000000000E+00  0.45593999997E+02  0.45594000000E+02  0.51100000000E-03 0.  1.
         11   -1    0    0    0    0 -0.00000000000E+00 -0.00000000000E+00 -0.45593999997E+02  0.45594000000E+02  0.51100000000E-03 0. -1.
         23    2    1    2    0    0  0.00000000000E+00  0.35527136788E-14  0.00000000000E+00  0.91188000000E+02  0.91188000000E+02 0.  0.
    9900012    2    3    3    0    0  0.30860879285E+02  0.19269746135E+02 -0.56624153121E+01  0.54367082935E+02  0.39999997168E+02 0.  0.
         12    1    3    3    0    0 -0.30860879285E+02 -0.19269746135E+02  0.56624153121E+01  0.36820917065E+02  0.00000000000E+00 0. -1.
         11    1    4    4    0    0  0.27639571099E+01 -0.14657567916E+01 -0.84082098778E+01  0.89713931743E+01  0.51100000000E-03 0. -1.
        -11    1    4    4    0    0 -0.83423715000E+00  0.15310050745E+02 -0.23826744741E+01  0.15516789079E+02  0.51100000000E-03 0.  1.
         12    1    4    4    0    0  0.28931159325E+02  0.54254521818E+01  0.51284690397E+01  0.29878900682E+02  0.00000000000E+00 0. -1.
</event>
<event>
 8    1  0.1271559E-006  0.9118800E+02  0.7816164E-02  0.1184000E+00
        -11   -1    0    0    0    0  0.00000000000E+00  0.00000000000E+00  0.45593999997E+02  0.45594000000E+02  0.51100000000E-03 0.  1.
         11   -1    0    0    0    0 -0.00000000000E+00 -0.00000000000E+00 -0.45593999997E+02  0.45594000000E+02  0.51100000000E-03 0. -1.
         23    2    1    2    0    0  0.35527136788E-14  0.00000000000E+00 -0.17763568394E-14  0.91188000000E+02  0.91188000000E+02 0.  0.
    9900012    2    3    3    0    0 -0.14974773856E+02 -0.32094479479E+02 -0.10073782581E+02  0.54367074420E+02  0.39999977754E+02 0.  0.
        -12    1    3    3    0    0  0.14974773856E+02  0.32094479479E+02  0.10073782581E+02  0.36820925580E+02  0.00000000000E+00 0.  1.
         11    1    4    4    0    0 -0.57662331193E+01 -0.88329202885E+01 -0.30012752774E+01  0.10967113511E+02  0.51100000000E-03 0. -1.
        -11    1    4    4    0    0 -0.40471681713E+01  0.85661088097E+00  0.11696422203E+02  0.12406435630E+02  0.51100000000E-03 0.  1.
        -12    1    4    4    0    0 -0.51613725656E+01 -0.24118170072E+02 -0.18768929507E+02  0.30993525279E+02  0.00000000000E+00 0.  1.
</event>
<event>
 8    1  0.1271559E-006  0.9118800E+02  0.7816164E-02  0.1184000E+00
        -11   -1    0    0    0    0  0.00000000000E+00  0.00000000000E+00  0.45593999997E+02  0.45594000000E+02  0.51100000000E-03 0. -1.
         11   -1    0    0    0    0 -0.00000000000E+00 -0.00000000000E+00 -0.45593999997E+02  0.45594000000E+02  0.51100000000E-03 0.  1.
         23    2    1    2    0    0  0.00000000000E+00  0.00000000000E+00 -0.88817841970E-15  0.91188000000E+02  0.91188000000E+02 0.  0.
    9900012    2    3    3    0    0  0.36301754636E+02 -0.42323571018E+01  0.44776861942E+01  0.54367083255E+02  0.39999997895E+02 0.  0.
        -12    1    3    3    0    0 -0.36301754636E+02  0.42323571018E+01 -0.44776861942E+01  0.36820916745E+02  0.00000000000E+00 0.  1.
         11    1    4    4    0    0  0.32361281765E+02  0.69498362082E+01  0.32110633606E+01  0.33254529150E+02  0.51100000000E-03 0. -1.
        -11    1    4    4    0    0  0.18147083779E+01 -0.98854628273E+01 -0.71505784563E+01  0.12334760408E+02  0.51100000000E-03 0.  1.
         12    1    4    4    0    0  0.21257644936E+01 -0.12967304827E+01  0.84172012900E+01  0.87777936968E+01  0.00000000000E+00 0. -1.
</event>
<event>
 8    1  0.1271559E-006  0.9118800E+02  0.7816164E-02  0.1184000E+00
        -11   -1    0    0    0    0  0.00000000000E+00  0.00000000000E+00  0.45593999997E+02  0.45594000000E+02  0.51100000000E-03 0.  1.
         11   -1    0    0    0    0 -0.00000000000E+00 -0.00000000000E+00 -0.45593999997E+02  0.45594000000E+02  0.51100000000E-03 0. -1.
         23    2    1    2    0    0 -0.88817841970E-15  0.71054273576E-14  0.00000000000E+00  0.91188000000E+02  0.91188000000E+02 0.  0.
    9900012    2    3    3    0    0  0.78682784704E+01  0.35572512173E+02 -0.53354119970E+01  0.54367081359E+02  0.39999993575E+02 0.  0.
         12    1    3    3    0    0 -0.78682784704E+01 -0.35572512173E+02  0.53354119970E+01  0.36820918641E+02  0.00000000000E+00 0. -1.
         11    1    4    4    0    0  0.32223772241E+00  0.14086113460E+01 -0.42750214916E+01  0.45126302849E+01  0.51100000000E-03 0. -1.
        -11    1    4    4    0    0 -0.34627775871E+01 -0.66111208624E+01  0.12001918131E+01  0.75589819636E+01  0.51100000000E-03 0.  1.
        -12    1    4    4    0    0  0.11008818335E+02  0.40775021689E+02 -0.22605823185E+01  0.42295469111E+02  0.00000000000E+00 0.  1.
</event>
<event>
 8    1  0.1271559E-006  0.9118800E+02  0.7816164E-02  0.1184000E+00
        -11   -1    0    0    0    0  0.00000000000E+00  0.00000000000E+00  0.45593999997E+02  0.45594000000E+02  0.51100000000E-03 0. -1.
         11   -1    0    0    0    0 -0.00000000000E+00 -0.00000000000E+00 -0.45593999997E+02  0.45594000000E+02  0.51100000000E-03 0.  1.
         23    2    1    2    0    0  0.88817841970E-15 -0.14432899320E-14  0.00000000000E+00  0.91188000000E+02  0.91188000000E+02 0.  0.
    9900012    2    3    3    0    0 -0.29924990885E+01  0.76016648579E+00 -0.36691238601E+02  0.54367083472E+02  0.39999998390E+02 0.  0.
         12    1    3    3    0    0  0.29924990885E+01 -0.76016648579E+00  0.36691238601E+02  0.36820916528E+02  0.00000000000E+00 0. -1.
         11    1    4    4    0    0  0.18193411037E+00  0.19886134436E+00  0.41773035491E+01  0.41859898540E+01  0.51100000000E-03 0. -1.
        -11    1    4    4    0    0  0.26870081470E+01  0.12602843258E+02 -0.30920542838E+02  0.33498233395E+02  0.51100000000E-03 0.  1.
        -12    1    4    4    0    0 -0.58614413459E+01 -0.12041538117E+02 -0.99479993128E+01  0.16682860222E+02  0.00000000000E+00 0.  1.
</event>
<event>
 8    1  0.1271559E-006  0.9118800E+02  0.7816164E-02  0.1184000E+00
        -11   -1    0    0    0    0  0.00000000000E+00  0.00000000000E+00  0.45593999997E+02  0.45594000000E+02  0.51100000000E-03 0.  1.
         11   -1    0    0    0    0 -0.00000000000E+00 -0.00000000000E+00 -0.45593999997E+02  0.45594000000E+02  0.51100000000E-03 0. -1.
         23    2    1    2    0    0  0.00000000000E+00  0.00000000000E+00  0.00000000000E+00  0.91188000000E+02  0.91188000000E+02 0.  0.
    9900012    2    3    3    0    0 -0.19682713896E+02 -0.84613319321E+01 -0.29946193379E+02  0.54367111061E+02  0.40000061286E+02 0.  0.
        -12    1    3    3    0    0  0.19682713896E+02  0.84613319321E+01  0.29946193379E+02  0.36820888939E+02  0.00000000000E+00 0.  1.
         11    1    4    4    0    0 -0.11876385318E+02 -0.12882072428E+02 -0.20595921143E+02  0.27040493454E+02  0.51100000000E-03 0. -1.
        -11    1    4    4    0    0 -0.94680550208E-01 -0.76955512649E+01  0.31215004656E+01  0.83050730940E+01  0.51100000000E-03 0.  1.
        -12    1    4    4    0    0 -0.77116480269E+01  0.12116291761E+02 -0.12471772702E+02  0.19021544513E+02  0.00000000000E+00 0.  1.
</event>
<event>
 8    1  0.1271559E-006  0.9118800E+02  0.7816164E-02  0.1184000E+00
        -11   -1    0    0    0    0  0.00000000000E+00  0.00000000000E+00  0.45593999997E+02  0.45594000000E+02  0.51100000000E-03 0. -1.
         11   -1    0    0    0    0 -0.00000000000E+00 -0.00000000000E+00 -0.45593999997E+02  0.45594000000E+02  0.51100000000E-03 0.  1.
         23    2    1    2    0    0  0.00000000000E+00  0.00000000000E+00  0.88817841970E-15  0.91188000000E+02  0.91188000000E+02 0.  0.
    9900012    2    3    3    0    0 -0.28596988188E+02  0.22528237781E+02  0.55199700027E+01  0.54367091541E+02  0.40000016785E+02 0.  0.
        -12    1    3    3    0    0  0.28596988188E+02 -0.22528237781E+02 -0.55199700027E+01  0.36820908459E+02  0.00000000000E+00 0.  1.
         11    1    4    4    0    0 -0.91008434578E+01  0.72339594886E+01  0.91587844387E+00  0.11661661765E+02  0.51100000000E-03 0. -1.
        -11    1    4    4    0    0 -0.23482352833E+02 -0.27607167416E+01  0.51873781078E+01  0.24206431860E+02  0.51100000000E-03 0.  1.
        -12    1    4    4    0    0  0.39862081022E+01  0.18054995034E+02 -0.58328654895E+00  0.18498997916E+02  0.00000000000E+00 0.  1.
</event>
<event>
 8    1  0.1271559E-006  0.9118800E+02  0.7816164E-02  0.1184000E+00
        -11   -1    0    0    0    0  0.00000000000E+00  0.00000000000E+00  0.45593999997E+02  0.45594000000E+02  0.51100000000E-03 0. -1.
         11   -1    0    0    0    0 -0.00000000000E+00 -0.00000000000E+00 -0.45593999997E+02  0.45594000000E+02  0.51100000000E-03 0.  1.
         23    2    1    2    0    0  0.00000000000E+00  0.00000000000E+00  0.00000000000E+00  0.91188000000E+02  0.91188000000E+02 0.  0.
    9900012    2    3    3    0    0 -0.29597477519E+02  0.49889203956E+01  0.21328019198E+02  0.54367022214E+02  0.39999858741E+02 0.  0.
        -12    1    3    3    0    0  0.29597477519E+02 -0.49889203956E+01 -0.21328019198E+02  0.36820977786E+02  0.00000000000E+00 0.  1.
         11    1    4    4    0    0 -0.65057497254E+01  0.14712599292E+02  0.27975377282E+01  0.16328244701E+02  0.51100000000E-03 0.  1.
        -11    1    4    4    0    0 -0.17412270476E+00 -0.70756360433E+01  0.12219099275E+02  0.14120953632E+02  0.51100000000E-03 0. -1.
        -12    1    4    4    0    0 -0.22917605089E+02 -0.26480428531E+01  0.63113821948E+01  0.23917823881E+02  0.00000000000E+00 0.  1.
</event>
<event>
 8    1  0.1271559E-006  0.9118800E+02  0.7816164E-02  0.1184000E+00
        -11   -1    0    0    0    0  0.00000000000E+00  0.00000000000E+00  0.45593999997E+02  0.45594000000E+02  0.51100000000E-03 0. -1.
         11   -1    0    0    0    0 -0.00000000000E+00 -0.00000000000E+00 -0.45593999997E+02  0.45594000000E+02  0.51100000000E-03 0.  1.
         23    2    1    2    0    0 -0.35527136788E-14  0.00000000000E+00 -0.88817841970E-15  0.91188000000E+02  0.91188000000E+02 0.  0.
    9900012    2    3    3    0    0  0.24407749667E+02 -0.26607669021E+02 -0.72161712303E+01  0.54367089884E+02  0.40000013009E+02 0.  0.
         12    1    3    3    0    0 -0.24407749667E+02  0.26607669021E+02  0.72161712303E+01  0.36820910116E+02  0.00000000000E+00 0. -1.
         11    1    4    4    0    0  0.34797900464E+01 -0.16149329431E+02  0.53839022350E+01  0.17375159952E+02  0.51100000000E-03 0. -1.
        -11    1    4    4    0    0  0.13957892200E+01 -0.12035338657E+02  0.23533449909E+01  0.12342440482E+02  0.51100000000E-03 0.  1.
         12    1    4    4    0    0  0.19532170401E+02  0.15769990672E+01 -0.14953418456E+02  0.24649489450E+02  0.00000000000E+00 0. -1.
</event>
<event>
 8    1  0.1271559E-006  0.9118800E+02  0.7816164E-02  0.1184000E+00
        -11   -1    0    0    0    0  0.00000000000E+00  0.00000000000E+00  0.45593999997E+02  0.45594000000E+02  0.51100000000E-03 0.  1.
         11   -1    0    0    0    0 -0.00000000000E+00 -0.00000000000E+00 -0.45593999997E+02  0.45594000000E+02  0.51100000000E-03 0. -1.
         23    2    1    2    0    0  0.00000000000E+00 -0.17763568394E-14 -0.35527136788E-14  0.91188000000E+02  0.91188000000E+02 0.  0.
    9900012    2    3    3    0    0 -0.16156326202E+02 -0.12385892473E+02  0.30681294533E+02  0.54367095028E+02  0.40000024735E+02 0.  0.
         12    1    3    3    0    0  0.16156326202E+02  0.12385892473E+02 -0.30681294533E+02  0.36820904972E+02  0.00000000000E+00 0. -1.
         11    1    4    4    0    0 -0.10049818273E+02 -0.60274713831E+01  0.13514463728E+02  0.17887704959E+02  0.51100000000E-03 0. -1.
        -11    1    4    4    0    0  0.36710082747E+00 -0.17759998713E+02  0.14875126036E+02  0.23169412857E+02  0.51100000000E-03 0.  1.
         12    1    4    4    0    0 -0.64736087566E+01  0.11401577623E+02  0.22917047692E+01  0.13309977211E+02  0.00000000000E+00 0. -1.
</event>
<event>
 8    1  0.1271559E-006  0.9118800E+02  0.7816164E-02  0.1184000E+00
        -11   -1    0    0    0    0  0.00000000000E+00  0.00000000000E+00  0.45593999997E+02  0.45594000000E+02  0.51100000000E-03 0. -1.
         11   -1    0    0    0    0 -0.00000000000E+00 -0.00000000000E+00 -0.45593999997E+02  0.45594000000E+02  0.51100000000E-03 0.  1.
         23    2    1    2    0    0  0.00000000000E+00 -0.17763568394E-14  0.00000000000E+00  0.91188000000E+02  0.91188000000E+02 0.  0.
    9900012    2    3    3    0    0 -0.35017148530E+02  0.11271190054E+02  0.15937408926E+01  0.54367076241E+02  0.39999981907E+02 0.  0.
         12    1    3    3    0    0  0.35017148530E+02 -0.11271190054E+02 -0.15937408926E+01  0.36820923759E+02  0.00000000000E+00 0. -1.
         11    1    4    4    0    0  0.20908657098E+01 -0.12344460934E+00  0.14217778711E+01  0.25314838660E+01  0.51100000000E-03 0. -1.
        -11    1    4    4    0    0 -0.14377691756E+02  0.22248730905E+02 -0.19228466216E+01  0.26559770076E+02  0.51100000000E-03 0.  1.
         12    1    4    4    0    0 -0.22730322484E+02 -0.10854096241E+02  0.20948096431E+01  0.25275822299E+02  0.00000000000E+00 0. -1.
</event>
<event>
 8    1  0.1271559E-006  0.9118800E+02  0.7816164E-02  0.1184000E+00
        -11   -1    0    0    0    0  0.00000000000E+00  0.00000000000E+00  0.45593999997E+02  0.45594000000E+02  0.51100000000E-03 0.  1.
         11   -1    0    0    0    0 -0.00000000000E+00 -0.00000000000E+00 -0.45593999997E+02  0.45594000000E+02  0.51100000000E-03 0. -1.
         23    2    1    2    0    0  0.00000000000E+00  0.17763568394E-14 -0.35527136788E-14  0.91188000000E+02  0.91188000000E+02 0.  0.
    9900012    2    3    3    0    0  0.24271836636E+02 -0.42191580953E+01  0.27365237557E+02  0.54367087800E+02  0.40000008257E+02 0.  0.
         12    1    3    3    0    0 -0.24271836636E+02  0.42191580953E+01 -0.27365237557E+02  0.36820912200E+02  0.00000000000E+00 0. -1.
         11    1    4    4    0    0  0.84887731822E-01 -0.37129648757E+01  0.88344537179E+01  0.95833651110E+01  0.51100000000E-03 0. -1.
        -11    1    4    4    0    0  0.17132977621E+02  0.11055086266E+02  0.22796142793E+02  0.30584603659E+02  0.51100000000E-03 0.  1.
        -12    1    4    4    0    0  0.70539712833E+01 -0.11561279486E+02 -0.42653589538E+01  0.14199119030E+02  0.00000000000E+00 0.  1.
</event>
<event>
 8    1  0.1271559E-006  0.9118800E+02  0.7816164E-02  0.1184000E+00
        -11   -1    0    0    0    0  0.00000000000E+00  0.00000000000E+00  0.45593999997E+02  0.45594000000E+02  0.51100000000E-03 0. -1.
         11   -1    0    0    0    0 -0.00000000000E+00 -0.00000000000E+00 -0.45593999997E+02  0.45594000000E+02  0.51100000000E-03 0.  1.
         23    2    1    2    0    0  0.35527136788E-14 -0.88817841970E-15 -0.35527136788E-14  0.91188000000E+02  0.91188000000E+02 0.  0.
    9900012    2    3    3    0    0 -0.19273162992E+02 -0.68714008502E+01  0.30612225600E+02  0.54367091299E+02  0.40000016235E+02 0.  0.
        -12    1    3    3    0    0  0.19273162992E+02  0.68714008502E+01 -0.30612225600E+02  0.36820908701E+02  0.00000000000E+00 0.  1.
         11    1    4    4    0    0 -0.10764401647E+02  0.45782923062E+01  0.14648882967E+02  0.18746276316E+02  0.51100000000E-03 0. -1.
        -11    1    4    4    0    0  0.85013323002E+00 -0.14247715339E+02  0.20395841799E+02  0.24893984853E+02  0.51100000000E-03 0.  1.
        -12    1    4    4    0    0 -0.93588945747E+01  0.27980221830E+01 -0.44324991660E+01  0.10726830131E+02  0.00000000000E+00 0.  1.
</event>
<event>
 8    1  0.1271559E-006  0.9118800E+02  0.7816164E-02  0.1184000E+00
        -11   -1    0    0    0    0  0.00000000000E+00  0.00000000000E+00  0.45593999997E+02  0.45594000000E+02  0.51100000000E-03 0. -1.
         11   -1    0    0    0    0 -0.00000000000E+00 -0.00000000000E+00 -0.45593999997E+02  0.45594000000E+02  0.51100000000E-03 0.  1.
         23    2    1    2    0    0  0.00000000000E+00 -0.17763568394E-14  0.00000000000E+00  0.91188000000E+02  0.91188000000E+02 0.  0.
    9900012    2    3    3    0    0  0.20765133477E+02  0.64301601527E+01  0.29719351687E+02  0.54367114723E+02  0.40000069634E+02 0.  0.
        -12    1    3    3    0    0 -0.20765133477E+02 -0.64301601527E+01 -0.29719351687E+02  0.36820885277E+02  0.00000000000E+00 0.  1.
         11    1    4    4    0    0  0.14220256292E+02  0.19722630107E+02  0.26939095587E+02  0.36289291790E+02  0.51100000000E-03 0. -1.
        -11    1    4    4    0    0 -0.92068212657E-01  0.13937866737E+01  0.12752595538E+01  0.18914029286E+01  0.51100000000E-03 0.  1.
         12    1    4    4    0    0  0.66369453979E+01 -0.14686256628E+02  0.15049965464E+01  0.16186420004E+02  0.00000000000E+00 0. -1.
</event>
<event>
 8    1  0.1271559E-006  0.9118800E+02  0.7816164E-02  0.1184000E+00
        -11   -1    0    0    0    0  0.00000000000E+00  0.00000000000E+00  0.45593999997E+02  0.45594000000E+02  0.51100000000E-03 0.  1.
         11   -1    0    0    0    0 -0.00000000000E+00 -0.00000000000E+00 -0.45593999997E+02  0.45594000000E+02  0.51100000000E-03 0. -1.
         23    2    1    2    0    0  0.00000000000E+00  0.35527136788E-14  0.00000000000E+00  0.91188000000E+02  0.91188000000E+02 0.  0.
    9900012    2    3    3    0    0  0.42464982720E+01 -0.16635726081E+02  0.32572987150E+02  0.54367087169E+02  0.40000006820E+02 0.  0.
         12    1    3    3    0    0 -0.42464982720E+01  0.16635726081E+02 -0.32572987150E+02  0.36820912831E+02  0.00000000000E+00 0. -1.
         11    1    4    4    0    0 -0.64672329238E+01 -0.27632392289E+01  0.25122593004E+02  0.26088412605E+02  0.51100000000E-03 0. -1.
        -11    1    4    4    0    0  0.69595797320E+01 -0.78102008789E+01  0.14744271473E+02  0.18078399524E+02  0.51100000000E-03 0.  1.
         12    1    4    4    0    0  0.37541514638E+01 -0.60622859733E+01 -0.72938773272E+01  0.10200275040E+02  0.00000000000E+00 0. -1.
</event>
<event>
 8    1  0.1271559E-006  0.9118800E+02  0.7816164E-02  0.1184000E+00
        -11   -1    0    0    0    0  0.00000000000E+00  0.00000000000E+00  0.45593999997E+02  0.45594000000E+02  0.51100000000E-03 0.  1.
         11   -1    0    0    0    0 -0.00000000000E+00 -0.00000000000E+00 -0.45593999997E+02  0.45594000000E+02  0.51100000000E-03 0. -1.
         23    2    1    2    0    0  0.00000000000E+00  0.00000000000E+00  0.00000000000E+00  0.91188000000E+02  0.91188000000E+02 0.  0.
    9900012    2    3    3    0    0 -0.22141775449E+02 -0.16668882408E+02  0.24241909498E+02  0.54367081531E+02  0.39999993966E+02 0.  0.
         12    1    3    3    0    0  0.22141775449E+02  0.16668882408E+02 -0.24241909498E+02  0.36820918469E+02  0.00000000000E+00 0. -1.
         11    1    4    4    0    0  0.18504274432E+01  0.17096448379E+01 -0.17200346441E+01  0.30504895726E+01  0.51100000000E-03 0. -1.
        -11    1    4    4    0    0 -0.19360444979E+02 -0.21467730839E+02  0.31986049007E+02  0.43113775392E+02  0.51100000000E-03 0.  1.
        -12    1    4    4    0    0 -0.46317579132E+01  0.30892035934E+01 -0.60241048647E+01  0.82028165669E+01  0.00000000000E+00 0.  1.
</event>
<event>
 8    1  0.1271559E-006  0.9118800E+02  0.7816164E-02  0.1184000E+00
        -11   -1    0    0    0    0  0.00000000000E+00  0.00000000000E+00  0.45593999997E+02  0.45594000000E+02  0.51100000000E-03 0. -1.
         11   -1    0    0    0    0 -0.00000000000E+00 -0.00000000000E+00 -0.45593999997E+02  0.45594000000E+02  0.51100000000E-03 0.  1.
         23    2    1    2    0    0 -0.88817841970E-15  0.00000000000E+00  0.35527136788E-14  0.91188000000E+02  0.91188000000E+02 0.  0.
    9900012    2    3    3    0    0  0.43529642519E+01  0.30808738130E+02 -0.19688903927E+02  0.54367087725E+02  0.40000008086E+02 0.  0.
         12    1    3    3    0    0 -0.43529642519E+01 -0.30808738130E+02  0.19688903927E+02  0.36820912275E+02  0.00000000000E+00 0. -1.
         11    1    4    4    0    0  0.35121649306E+01 -0.82237988477E+01 -0.54857781030E+01  0.10490945222E+02  0.51100000000E-03 0. -1.
        -11    1    4    4    0    0  0.19627071205E+01  0.18365942054E+02 -0.14002368725E+02  0.23178144382E+02  0.51100000000E-03 0.  1.
         12    1    4    4    0    0 -0.11219077992E+01  0.20666594923E+02 -0.20075709892E+00  0.20697998122E+02  0.00000000000E+00 0. -1.
</event>
<event>
 8    1  0.1271559E-006  0.9118800E+02  0.7816164E-02  0.1184000E+00
        -11   -1    0    0    0    0  0.00000000000E+00  0.00000000000E+00  0.45593999997E+02  0.45594000000E+02  0.51100000000E-03 0. -1.
         11   -1    0    0    0    0 -0.00000000000E+00 -0.00000000000E+00 -0.45593999997E+02  0.45594000000E+02  0.51100000000E-03 0.  1.
         23    2    1    2    0    0  0.00000000000E+00  0.00000000000E+00  0.00000000000E+00  0.91188000000E+02  0.91188000000E+02 0.  0.
    9900012    2    3    3    0    0  0.14684054614E+02  0.92816905832E+01 -0.32465503480E+02  0.54367079911E+02  0.39999990273E+02 0.  0.
         12    1    3    3    0    0 -0.14684054614E+02 -0.92816905832E+01  0.32465503480E+02  0.36820920089E+02  0.00000000000E+00 0. -1.
         11    1    4    4    0    0  0.86362510488E+01  0.19218189103E+02 -0.22103289958E+02  0.30536519969E+02  0.51100000000E-03 0. -1.
        -11    1    4    4    0    0  0.86209341244E+01 -0.48430764685E+01 -0.13943209781E+02  0.17093536618E+02  0.51100000000E-03 0.  1.
         12    1    4    4    0    0 -0.25731305594E+01 -0.50934220515E+01  0.35809962582E+01  0.67370233243E+01  0.00000000000E+00 0. -1.
</event>
<event>
 8    1  0.1271559E-006  0.9118800E+02  0.7816164E-02  0.1184000E+00
        -11   -1    0    0    0    0  0.00000000000E+00  0.00000000000E+00  0.45593999997E+02  0.45594000000E+02  0.51100000000E-03 0.  1.
         11   -1    0    0    0    0 -0.00000000000E+00 -0.00000000000E+00 -0.45593999997E+02  0.45594000000E+02  0.51100000000E-03 0. -1.
         23    2    1    2    0    0  0.00000000000E+00 -0.17763568394E-14 -0.35527136788E-14  0.91188000000E+02  0.91188000000E+02 0.  0.
    9900012    2    3    3    0    0  0.17581730980E+02  0.10086062578E+02  0.30739787732E+02  0.54367075618E+02  0.39999980486E+02 0.  0.
         12    1    3    3    0    0 -0.17581730980E+02 -0.10086062578E+02 -0.30739787732E+02  0.36820924382E+02  0.00000000000E+00 0. -1.
         11    1    4    4    0    0  0.34055849595E+00  0.94126145633E+01  0.73557547229E+00  0.94474528071E+01  0.51100000000E-03 0. -1.
        -11    1    4    4    0    0 -0.52168384515E+01  0.80448442266E+01  0.10985354727E+02  0.14581253060E+02  0.51100000000E-03 0.  1.
        -12    1    4    4    0    0  0.22458010936E+02 -0.73713962120E+01  0.19018857532E+02  0.30338369750E+02  0.00000000000E+00 0.  1.
</event>
<event>
 8    1  0.1271559E-006  0.9118800E+02  0.7816164E-02  0.1184000E+00
        -11   -1    0    0    0    0  0.00000000000E+00  0.00000000000E+00  0.45593999997E+02  0.45594000000E+02  0.51100000000E-03 0.  1.
         11   -1    0    0    0    0 -0.00000000000E+00 -0.00000000000E+00 -0.45593999997E+02  0.45594000000E+02  0.51100000000E-03 0. -1.
         23    2    1    2    0    0 -0.35527136788E-14  0.00000000000E+00  0.35527136788E-14  0.91188000000E+02  0.91188000000E+02 0.  0.
    9900012    2    3    3    0    0  0.23718443184E+02 -0.14471467137E+02  0.24161829295E+02  0.54367056190E+02  0.39999936196E+02 0.  0.
         12    1    3    3    0    0 -0.23718443184E+02  0.14471467137E+02 -0.24161829295E+02  0.36820943810E+02  0.00000000000E+00 0. -1.
         11    1    4    4    0    0 -0.32637768119E+01 -0.13140156946E+01  0.10654514103E+01  0.36761478877E+01  0.51100000000E-03 0. -1.
        -11    1    4    4    0    0  0.15431521652E+01 -0.27782190282E+01  0.22997197677E+02  0.23215747260E+02  0.51100000000E-03 0.  1.
        -12    1    4    4    0    0  0.25439067830E+02 -0.10379232415E+02  0.99180207926E-01  0.27475161042E+02  0.00000000000E+00 0.  1.
</event>
<event>
 8    1  0.1271559E-006  0.9118800E+02  0.7816164E-02  0.1184000E+00
        -11   -1    0    0    0    0  0.00000000000E+00  0.00000000000E+00  0.45593999997E+02  0.45594000000E+02  0.51100000000E-03 0.  1.
         11   -1    0    0    0    0 -0.00000000000E+00 -0.00000000000E+00 -0.45593999997E+02  0.45594000000E+02  0.51100000000E-03 0. -1.
         23    2    1    2    0    0  0.00000000000E+00  0.00000000000E+00  0.71054273576E-14  0.91188000000E+02  0.91188000000E+02 0.  0.
    9900012    2    3    3    0    0 -0.10757063031E+02  0.94729964570E+01 -0.33916476757E+02  0.54367089331E+02  0.40000011748E+02 0.  0.
        -12    1    3    3    0    0  0.10757063031E+02 -0.94729964570E+01  0.33916476757E+02  0.36820910669E+02  0.00000000000E+00 0.  1.
         11    1    4    4    0    0 -0.64775998666E+01  0.48299774776E+01 -0.30349327435E+02  0.31406522547E+02  0.51100000000E-03 0. -1.
        -11    1    4    4    0    0  0.51222076520E+01  0.92173299653E+01  0.25476099779E+01  0.10848340877E+02  0.51100000000E-03 0.  1.
        -12    1    4    4    0    0 -0.94016708164E+01 -0.45743109860E+01 -0.61147592995E+01  0.12112225907E+02  0.00000000000E+00 0.  1.
</event>
<event>
 8    1  0.1271559E-006  0.9118800E+02  0.7816164E-02  0.1184000E+00
        -11   -1    0    0    0    0  0.00000000000E+00  0.00000000000E+00  0.45593999997E+02  0.45594000000E+02  0.51100000000E-03 0. -1.
         11   -1    0    0    0    0 -0.00000000000E+00 -0.00000000000E+00 -0.45593999997E+02  0.45594000000E+02  0.51100000000E-03 0.  1.
         23    2    1    2    0    0  0.00000000000E+00  0.00000000000E+00  0.00000000000E+00  0.91188000000E+02  0.91188000000E+02 0.  0.
    9900012    2    3    3    0    0 -0.14593704319E+02 -0.95817308305E+01  0.32419107711E+02  0.54367023421E+02  0.39999861492E+02 0.  0.
        -12    1    3    3    0    0  0.14593704319E+02  0.95817308305E+01 -0.32419107711E+02  0.36820976579E+02  0.00000000000E+00 0.  1.
         11    1    4    4    0    0 -0.47766823283E+01  0.58482577114E+01  0.69519112845E+01  0.10263911686E+02  0.51100000000E-03 0. -1.
        -11    1    4    4    0    0 -0.82192677521E+00  0.16432519270E+01  0.24722719924E+02  0.24790899968E+02  0.51100000000E-03 0.  1.
         12    1    4    4    0    0 -0.89950952156E+01 -0.17073240469E+02  0.74447650235E+00  0.19312211766E+02  0.00000000000E+00 0. -1.
</event>
<event>
 8    1  0.1271559E-006  0.9118800E+02  0.7816164E-02  0.1184000E+00
        -11   -1    0    0    0    0  0.00000000000E+00  0.00000000000E+00  0.45593999997E+02  0.45594000000E+02  0.51100000000E-03 0. -1.
         11   -1    0    0    0    0 -0.00000000000E+00 -0.00000000000E+00 -0.45593999997E+02  0.45594000000E+02  0.51100000000E-03 0.  1.
         23    2    1    2    0    0 -0.88817841970E-15  0.71054273576E-14  0.00000000000E+00  0.91188000000E+02  0.91188000000E+02 0.  0.
    9900012    2    3    3    0    0  0.43437878473E+01  0.31829667310E+02 -0.17993999340E+02  0.54367078960E+02  0.39999988106E+02 0.  0.
         12    1    3    3    0    0 -0.43437878473E+01 -0.31829667310E+02  0.17993999340E+02  0.36820921040E+02  0.00000000000E+00 0. -1.
         11    1    4    4    0    0  0.30955993616E+01  0.17507043857E+02  0.52600161366E+01  0.18540417742E+02  0.51100000000E-03 0. -1.
        -11    1    4    4    0    0  0.10771027272E+02  0.90146463479E+01 -0.56905182608E+01  0.15154566164E+02  0.51100000000E-03 0.  1.
        -12    1    4    4    0    0 -0.95228387862E+01  0.53079771050E+01 -0.17563497216E+02  0.20672095055E+02  0.00000000000E+00 0.  1.
</event>
<event>
 8    1  0.1271559E-006  0.9118800E+02  0.7816164E-02  0.1184000E+00
        -11   -1    0    0    0    0  0.00000000000E+00  0.00000000000E+00  0.45593999997E+02  0.45594000000E+02  0.51100000000E-03 0.  1.
         11   -1    0    0    0    0 -0.00000000000E+00 -0.00000000000E+00 -0.45593999997E+02  0.45594000000E+02  0.51100000000E-03 0. -1.
         23    2    1    2    0    0  0.00000000000E+00  0.00000000000E+00  0.00000000000E+00  0.91188000000E+02  0.91188000000E+02 0.  0.
    9900012    2    3    3    0    0  0.10850792108E+02 -0.34595921339E+02  0.64158536672E+01  0.54367073328E+02  0.39999975267E+02 0.  0.
         12    1    3    3    0    0 -0.10850792108E+02  0.34595921339E+02 -0.64158536672E+01  0.36820926672E+02  0.00000000000E+00 0. -1.
         11    1    4    4    0    0 -0.18541757228E+01  0.12590895484E+00 -0.12673413438E+01  0.22494388231E+01  0.51100000000E-03 0. -1.
        -11    1    4    4    0    0  0.51300715212E+01  0.61695345018E+01 -0.39370548840E+01  0.89376278285E+01  0.51100000000E-03 0.  1.
        -12    1    4    4    0    0  0.75748963092E+01 -0.40891364796E+02  0.11620249895E+02  0.43180006677E+02  0.00000000000E+00 0.  1.
</event>
<event>
 8    1  0.1271559E-006  0.9118800E+02  0.7816164E-02  0.1184000E+00
        -11   -1    0    0    0    0  0.00000000000E+00  0.00000000000E+00  0.45593999997E+02  0.45594000000E+02  0.51100000000E-03 0.  1.
         11   -1    0    0    0    0 -0.00000000000E+00 -0.00000000000E+00 -0.45593999997E+02  0.45594000000E+02  0.51100000000E-03 0. -1.
         23    2    1    2    0    0 -0.88817841970E-15  0.00000000000E+00  0.00000000000E+00  0.91188000000E+02  0.91188000000E+02 0.  0.
    9900012    2    3    3    0    0 -0.22255303152E+01  0.31438850979E+02  0.19037497011E+02  0.54367073497E+02  0.39999975651E+02 0.  0.
         12    1    3    3    0    0  0.22255303152E+01 -0.31438850979E+02 -0.19037497011E+02  0.36820926503E+02  0.00000000000E+00 0. -1.
         11    1    4    4    0    0  0.89590648433E+01 -0.74024148901E+00  0.12394908305E+01  0.90746425885E+01  0.51100000000E-03 0.  1.
        -11    1    4    4    0    0 -0.21627371221E+01  0.24249647322E+01 -0.55356124554E+01  0.64187920459E+01  0.51100000000E-03 0. -1.
        -12    1    4    4    0    0 -0.90218580364E+01  0.29754127736E+02  0.23333618636E+02  0.38873638863E+02  0.00000000000E+00 0.  1.
</event>
<event>
 8    1  0.1271559E-006  0.9118800E+02  0.7816164E-02  0.1184000E+00
        -11   -1    0    0    0    0  0.00000000000E+00  0.00000000000E+00  0.45593999997E+02  0.45594000000E+02  0.51100000000E-03 0.  1.
         11   -1    0    0    0    0 -0.00000000000E+00 -0.00000000000E+00 -0.45593999997E+02  0.45594000000E+02  0.51100000000E-03 0. -1.
         23    2    1    2    0    0  0.00000000000E+00  0.00000000000E+00  0.00000000000E+00  0.91188000000E+02  0.91188000000E+02 0.  0.
    9900012    2    3    3    0    0 -0.21706434888E+02  0.15968875261E+02  0.25091945037E+02  0.54367082054E+02  0.39999995159E+02 0.  0.
         12    1    3    3    0    0  0.21706434888E+02 -0.15968875261E+02 -0.25091945037E+02  0.36820917946E+02  0.00000000000E+00 0. -1.
         11    1    4    4    0    0  0.36423658397E+01  0.28219247966E+01  0.11661595649E+02  0.12538855682E+02  0.51100000000E-03 0. -1.
        -11    1    4    4    0    0 -0.13035917993E+02  0.13341939771E+02  0.20429125738E+02  0.27663905969E+02  0.51100000000E-03 0.  1.
        -12    1    4    4    0    0 -0.12312882735E+02 -0.19498930715E+00 -0.69987763505E+01  0.14164320403E+02  0.00000000000E+00 0.  1.
</event>
<event>
 8    1  0.1271559E-006  0.9118800E+02  0.7816164E-02  0.1184000E+00
        -11   -1    0    0    0    0  0.00000000000E+00  0.00000000000E+00  0.45593999997E+02  0.45594000000E+02  0.51100000000E-03 0.  1.
         11   -1    0    0    0    0 -0.00000000000E+00 -0.00000000000E+00 -0.45593999997E+02  0.45594000000E+02  0.51100000000E-03 0. -1.
         23    2    1    2    0    0 -0.71054273576E-14  0.00000000000E+00 -0.14432899320E-14  0.91188000000E+02  0.91188000000E+02 0.  0.
    9900012    2    3    3    0    0  0.36343816670E+02 -0.58651824455E+01 -0.72301090053E+00  0.54366863135E+02  0.39999496086E+02 0.  0.
         12    1    3    3    0    0 -0.36343816670E+02  0.58651824455E+01  0.72301090053E+00  0.36821136865E+02  0.00000000000E+00 0. -1.
         11    1    4    4    0    0  0.13179371958E+02  0.10112239229E+02  0.84109283186E+01  0.18619799754E+02  0.51100000000E-03 0. -1.
        -11    1    4    4    0    0  0.68875860405E+01 -0.10746267247E+02  0.48553247945E+01  0.13656327484E+02  0.51100000000E-03 0.  1.
        -12    1    4    4    0    0  0.16276858672E+02 -0.52311544272E+01 -0.13989264014E+02  0.22090735898E+02  0.00000000000E+00 0.  1.
</event>
<event>
 8    1  0.1271559E-006  0.9118800E+02  0.7816164E-02  0.1184000E+00
        -11   -1    0    0    0    0  0.00000000000E+00  0.00000000000E+00  0.45593999997E+02  0.45594000000E+02  0.51100000000E-03 0. -1.
         11   -1    0    0    0    0 -0.00000000000E+00 -0.00000000000E+00 -0.45593999997E+02  0.45594000000E+02  0.51100000000E-03 0.  1.
         23    2    1    2    0    0  0.71054273576E-14 -0.17763568394E-14 -0.88817841970E-15  0.91188000000E+02  0.91188000000E+02 0.  0.
    9900012    2    3    3    0    0 -0.35889850291E+02  0.78735031525E+01  0.23889657495E+01  0.54367074385E+02  0.39999977675E+02 0.  0.
         12    1    3    3    0    0  0.35889850291E+02 -0.78735031525E+01 -0.23889657495E+01  0.36820925615E+02  0.00000000000E+00 0. -1.
         11    1    4    4    0    0  0.33628878033E+01  0.26369301802E+01 -0.10111323643E+01  0.43914466947E+01  0.51100000000E-03 0. -1.
        -11    1    4    4    0    0 -0.19761031971E+02  0.13061765792E+02  0.12844616167E+02  0.26946099438E+02  0.51100000000E-03 0.  1.
         12    1    4    4    0    0 -0.19491706123E+02 -0.78251928202E+01 -0.94445180531E+01  0.23029528252E+02  0.00000000000E+00 0. -1.
</event>
<event>
 8    1  0.1271559E-006  0.9118800E+02  0.7816164E-02  0.1184000E+00
        -11   -1    0    0    0    0  0.00000000000E+00  0.00000000000E+00  0.45593999997E+02  0.45594000000E+02  0.51100000000E-03 0.  1.
         11   -1    0    0    0    0 -0.00000000000E+00 -0.00000000000E+00 -0.45593999997E+02  0.45594000000E+02  0.51100000000E-03 0. -1.
         23    2    1    2    0    0 -0.35527136788E-14  0.00000000000E+00  0.35527136788E-14  0.91188000000E+02  0.91188000000E+02 0.  0.
    9900012    2    3    3    0    0 -0.26685845128E+02 -0.89051897841E+01  0.23755924154E+02  0.54367072966E+02  0.39999974440E+02 0.  0.
         12    1    3    3    0    0  0.26685845128E+02  0.89051897841E+01 -0.23755924154E+02  0.36820927034E+02  0.00000000000E+00 0. -1.
         11    1    4    4    0    0 -0.12697168185E+02  0.86125200024E+01 -0.31852817169E+01  0.15669703270E+02  0.51100000000E-03 0. -1.
        -11    1    4    4    0    0 -0.76661216974E+01 -0.78859248873E+01  0.24591308479E+02  0.26938628142E+02  0.51100000000E-03 0.  1.
        -12    1    4    4    0    0 -0.63225552456E+01 -0.96317848992E+01  0.23498973922E+01  0.11758741554E+02  0.00000000000E+00 0.  1.
</event>
<event>
 8    1  0.1271559E-006  0.9118800E+02  0.7816164E-02  0.1184000E+00
        -11   -1    0    0    0    0  0.00000000000E+00  0.00000000000E+00  0.45593999997E+02  0.45594000000E+02  0.51100000000E-03 0. -1.
         11   -1    0    0    0    0 -0.00000000000E+00 -0.00000000000E+00 -0.45593999997E+02  0.45594000000E+02  0.51100000000E-03 0.  1.
         23    2    1    2    0    0  0.00000000000E+00  0.35527136788E-14  0.00000000000E+00  0.91188000000E+02  0.91188000000E+02 0.  0.
    9900012    2    3    3    0    0  0.24713601856E+02 -0.22018260558E+02  0.16131102732E+02  0.54367103894E+02  0.40000044948E+02 0.  0.
         12    1    3    3    0    0 -0.24713601856E+02  0.22018260558E+02 -0.16131102732E+02  0.36820896106E+02  0.00000000000E+00 0. -1.
         11    1    4    4    0    0 -0.32622555032E+01 -0.40394160710E+00  0.11408003736E+02  0.11872153524E+02  0.51100000000E-03 0. -1.
        -11    1    4    4    0    0  0.12917355267E+02 -0.13209595165E+02 -0.89098621404E+01  0.20511877416E+02  0.51100000000E-03 0.  1.
        -12    1    4    4    0    0  0.15058502092E+02 -0.84047237862E+01  0.13632961136E+02  0.21983072955E+02  0.00000000000E+00 0.  1.
</event>
<event>
 8    1  0.1271559E-006  0.9118800E+02  0.7816164E-02  0.1184000E+00
        -11   -1    0    0    0    0  0.00000000000E+00  0.00000000000E+00  0.45593999997E+02  0.45594000000E+02  0.51100000000E-03 0.  1.
         11   -1    0    0    0    0 -0.00000000000E+00 -0.00000000000E+00 -0.45593999997E+02  0.45594000000E+02  0.51100000000E-03 0. -1.
         23    2    1    2    0    0  0.00000000000E+00  0.00000000000E+00  0.10658141036E-13  0.91188000000E+02  0.91188000000E+02 0.  0.
    9900012    2    3    3    0    0  0.25450882199E+02  0.85416341465E+01  0.25200645138E+02  0.54367089719E+02  0.40000012632E+02 0.  0.
         12    1    3    3    0    0 -0.25450882199E+02 -0.85416341465E+01 -0.25200645138E+02  0.36820910281E+02  0.00000000000E+00 0. -1.
         11    1    4    4    0    0 -0.31023430616E+00 -0.44144262607E+01 -0.86284515128E+01  0.96970913322E+01  0.51100000000E-03 0. -1.
        -11    1    4    4    0    0  0.87344899386E+01  0.39233452271E+01  0.82294006267E+01  0.12625647991E+02  0.51100000000E-03 0.  1.
         12    1    4    4    0    0  0.17026626566E+02  0.90327151801E+01  0.25599696024E+02  0.32044350395E+02  0.00000000000E+00 0. -1.
</event>
<event>
 8    1  0.1271559E-006  0.9118800E+02  0.7816164E-02  0.1184000E+00
        -11   -1    0    0    0    0  0.00000000000E+00  0.00000000000E+00  0.45593999997E+02  0.45594000000E+02  0.51100000000E-03 0.  1.
         11   -1    0    0    0    0 -0.00000000000E+00 -0.00000000000E+00 -0.45593999997E+02  0.45594000000E+02  0.51100000000E-03 0. -1.
         23    2    1    2    0    0  0.00000000000E+00  0.00000000000E+00  0.00000000000E+00  0.91188000000E+02  0.91188000000E+02 0.  0.
    9900012    2    3    3    0    0  0.29093896230E+02  0.20215482786E+02  0.10032930284E+02  0.54367078879E+02  0.39999987921E+02 0.  0.
         12    1    3    3    0    0 -0.29093896230E+02 -0.20215482786E+02 -0.10032930284E+02  0.36820921121E+02  0.00000000000E+00 0. -1.
         11    1    4    4    0    0  0.39450590820E+01  0.12904635025E+02  0.12170750509E+02  0.18171963694E+02  0.51100000000E-03 0. -1.
        -11    1    4    4    0    0  0.20085540879E+02  0.13965404921E+02  0.52691198773E+01  0.25024490236E+02  0.51100000000E-03 0.  1.
         12    1    4    4    0    0  0.50632962686E+01 -0.66545571599E+01 -0.74069401017E+01  0.11170624950E+02  0.00000000000E+00 0. -1.
</event>
<event>
 8    1  0.1271559E-006  0.9118800E+02  0.7816164E-02  0.1184000E+00
        -11   -1    0    0    0    0  0.00000000000E+00  0.00000000000E+00  0.45593999997E+02  0.45594000000E+02  0.51100000000E-03 0. -1.
         11   -1    0    0    0    0 -0.00000000000E+00 -0.00000000000E+00 -0.45593999997E+02  0.45594000000E+02  0.51100000000E-03 0.  1.
         23    2    1    2    0    0 -0.35527136788E-14  0.35527136788E-14  0.35527136788E-14  0.91188000000E+02  0.91188000000E+02 0.  0.
    9900012    2    3    3    0    0 -0.27398968653E+02  0.20953205282E+02  0.12885654723E+02  0.54367076702E+02  0.39999982959E+02 0.  0.
        -12    1    3    3    0    0  0.27398968653E+02 -0.20953205282E+02 -0.12885654723E+02  0.36820923298E+02  0.00000000000E+00 0.  1.
         11    1    4    4    0    0 -0.14950579637E+02  0.85946239873E+01  0.22896612692E+02  0.28664302991E+02  0.51100000000E-03 0. -1.
        -11    1    4    4    0    0 -0.49966128485E+01  0.95127274909E+00  0.37638323236E+01  0.63275187729E+01  0.51100000000E-03 0.  1.
        -12    1    4    4    0    0 -0.74517761675E+01  0.11407308546E+02 -0.13774790293E+02  0.19375254938E+02  0.00000000000E+00 0.  1.
</event>
<event>
 8    1  0.1271559E-006  0.9118800E+02  0.7816164E-02  0.1184000E+00
        -11   -1    0    0    0    0  0.00000000000E+00  0.00000000000E+00  0.45593999997E+02  0.45594000000E+02  0.51100000000E-03 0. -1.
         11   -1    0    0    0    0 -0.00000000000E+00 -0.00000000000E+00 -0.45593999997E+02  0.45594000000E+02  0.51100000000E-03 0.  1.
         23    2    1    2    0    0  0.00000000000E+00  0.17763568394E-14  0.88817841970E-15  0.91188000000E+02  0.91188000000E+02 0.  0.
    9900012    2    3    3    0    0  0.34729475847E+02 -0.97946859590E+01  0.73285296455E+01  0.54367085937E+02  0.40000004011E+02 0.  0.
        -12    1    3    3    0    0 -0.34729475847E+02  0.97946859590E+01 -0.73285296455E+01  0.36820914063E+02  0.00000000000E+00 0.  1.
         11    1    4    4    0    0  0.22235522359E+02  0.23482923944E+01  0.13708841480E+02  0.26227185643E+02  0.51100000000E-03 0. -1.
        -11    1    4    4    0    0  0.13375564656E+02 -0.11926407388E+02  0.34653323058E+01  0.18252491647E+02  0.51100000000E-03 0.  1.
        -12    1    4    4    0    0 -0.88161116789E+00 -0.21657096503E+00 -0.98456441400E+01  0.98874086477E+01  0.00000000000E+00 0.  1.
</event>
<event>
 8    1  0.1271559E-006  0.9118800E+02  0.7816164E-02  0.1184000E+00
        -11   -1    0    0    0    0  0.00000000000E+00  0.00000000000E+00  0.45593999997E+02  0.45594000000E+02  0.51100000000E-03 0.  1.
         11   -1    0    0    0    0 -0.00000000000E+00 -0.00000000000E+00 -0.45593999997E+02  0.45594000000E+02  0.51100000000E-03 0. -1.
         23    2    1    2    0    0  0.00000000000E+00  0.00000000000E+00 -0.71054273576E-14  0.91188000000E+02  0.91188000000E+02 0.  0.
    9900012    2    3    3    0    0  0.62746031662E+01  0.17085009249E+02 -0.32007992752E+02  0.54367084939E+02  0.40000001735E+02 0.  0.
        -12    1    3    3    0    0 -0.62746031662E+01 -0.17085009249E+02  0.32007992752E+02  0.36820915061E+02  0.00000000000E+00 0.  1.
         11    1    4    4    0    0  0.86769851832E+01 -0.85262249839E+01 -0.11701963801E+02  0.16879648735E+02  0.51100000000E-03 0.  1.
        -11    1    4    4    0    0 -0.38023599657E+01  0.12339023410E+02  0.32546600039E+00  0.12915702396E+02  0.51100000000E-03 0. -1.
         12    1    4    4    0    0  0.13999779487E+01  0.13272210823E+02 -0.20631494951E+02  0.24571733808E+02  0.00000000000E+00 0. -1.
</event>
<event>
 8    1  0.1271559E-006  0.9118800E+02  0.7816164E-02  0.1184000E+00
        -11   -1    0    0    0    0  0.00000000000E+00  0.00000000000E+00  0.45593999997E+02  0.45594000000E+02  0.51100000000E-03 0.  1.
         11   -1    0    0    0    0 -0.00000000000E+00 -0.00000000000E+00 -0.45593999997E+02  0.45594000000E+02  0.51100000000E-03 0. -1.
         23    2    1    2    0    0 -0.17763568394E-14  0.35527136788E-14  0.00000000000E+00  0.91188000000E+02  0.91188000000E+02 0.  0.
    9900012    2    3    3    0    0  0.96480937981E+01 -0.23618729762E+02 -0.26549031272E+02  0.54367066131E+02  0.39999958859E+02 0.  0.
        -12    1    3    3    0    0 -0.96480937981E+01  0.23618729762E+02  0.26549031272E+02  0.36820933869E+02  0.00000000000E+00 0.  1.
         11    1    4    4    0    0 -0.81208842246E+01  0.42791675341E+01  0.68730719750E+00  0.92050218261E+01  0.51100000000E-03 0. -1.
        -11    1    4    4    0    0 -0.19887754146E-01 -0.92336146454E+01 -0.28264978923E+01  0.96565586799E+01  0.51100000000E-03 0.  1.
        -12    1    4    4    0    0  0.17788865777E+02 -0.18664282651E+02 -0.24409840577E+02  0.35505485625E+02  0.00000000000E+00 0.  1.
</event>
<event>
 8    1  0.1271559E-006  0.9118800E+02  0.7816164E-02  0.1184000E+00
        -11   -1    0    0    0    0  0.00000000000E+00  0.00000000000E+00  0.45593999997E+02  0.45594000000E+02  0.51100000000E-03 0.  1.
         11   -1    0    0    0    0 -0.00000000000E+00 -0.00000000000E+00 -0.45593999997E+02  0.45594000000E+02  0.51100000000E-03 0. -1.
         23    2    1    2    0    0  0.00000000000E+00  0.35527136788E-14 -0.35527136788E-14  0.91188000000E+02  0.91188000000E+02 0.  0.
    9900012    2    3    3    0    0 -0.21872486785E+02 -0.21048498991E+02 -0.20840689173E+02  0.54367091359E+02  0.40000016371E+02 0.  0.
        -12    1    3    3    0    0  0.21872486785E+02  0.21048498991E+02  0.20840689173E+02  0.36820908641E+02  0.00000000000E+00 0.  1.
         11    1    4    4    0    0 -0.56454155601E+01  0.72249336154E+01 -0.56860341070E-01  0.91691665898E+01  0.51100000000E-03 0.  1.
        -11    1    4    4    0    0 -0.40172497785E+01 -0.12220867416E+02 -0.21457537830E+02  0.25018269847E+02  0.51100000000E-03 0. -1.
         12    1    4    4    0    0 -0.12209821447E+02 -0.16052565190E+02  0.67370899740E+00  0.20179654922E+02  0.00000000000E+00 0. -1.
</event>
<event>
 8    1  0.1271559E-006  0.9118800E+02  0.7816164E-02  0.1184000E+00
        -11   -1    0    0    0    0  0.00000000000E+00  0.00000000000E+00  0.45593999997E+02  0.45594000000E+02  0.51100000000E-03 0. -1.
         11   -1    0    0    0    0 -0.00000000000E+00 -0.00000000000E+00 -0.45593999997E+02  0.45594000000E+02  0.51100000000E-03 0.  1.
         23    2    1    2    0    0  0.00000000000E+00 -0.35527136788E-14  0.35527136788E-14  0.91188000000E+02  0.91188000000E+02 0.  0.
    9900012    2    3    3    0    0 -0.32627825361E+01 -0.26740564190E+02 -0.25101286250E+02  0.54367107907E+02  0.40000054096E+02 0.  0.
         12    1    3    3    0    0  0.32627825361E+01  0.26740564190E+02  0.25101286250E+02  0.36820892093E+02  0.00000000000E+00 0. -1.
         11    1    4    4    0    0  0.36539299777E+01 -0.27616045644E+01  0.68497057615E+01  0.82399110027E+01  0.51100000000E-03 0. -1.
        -11    1    4    4    0    0 -0.88541606483E+01 -0.27696200241E+02 -0.28007072791E+02  0.40371670701E+02  0.51100000000E-03 0.  1.
        -12    1    4    4    0    0  0.19374481345E+01  0.37172406152E+01 -0.39439192206E+01  0.57555262039E+01  0.00000000000E+00 0.  1.
</event>
<event>
 8    1  0.1271559E-006  0.9118800E+02  0.7816164E-02  0.1184000E+00
        -11   -1    0    0    0    0  0.00000000000E+00  0.00000000000E+00  0.45593999997E+02  0.45594000000E+02  0.51100000000E-03 0.  1.
         11   -1    0    0    0    0 -0.00000000000E+00 -0.00000000000E+00 -0.45593999997E+02  0.45594000000E+02  0.51100000000E-03 0. -1.
         23    2    1    2    0    0  0.00000000000E+00  0.88817841970E-15  0.00000000000E+00  0.91188000000E+02  0.91188000000E+02 0.  0.
    9900012    2    3    3    0    0  0.12124300348E+02 -0.47140032193E+01 -0.34446470360E+02  0.54367084673E+02  0.40000001129E+02 0.  0.
        -12    1    3    3    0    0 -0.12124300348E+02  0.47140032193E+01  0.34446470360E+02  0.36820915327E+02  0.00000000000E+00 0.  1.
         11    1    4    4    0    0  0.26165108113E+01  0.73789189687E+01 -0.13597938590E+02  0.15690714073E+02  0.51100000000E-03 0. -1.
        -11    1    4    4    0    0 -0.10357044268E+02 -0.36030231283E+01 -0.66369185555E+01  0.12817910509E+02  0.51100000000E-03 0.  1.
         12    1    4    4    0    0  0.19864833805E+02 -0.84898990597E+01 -0.14211613215E+02  0.25858460091E+02  0.00000000000E+00 0. -1.
</event>
<event>
 8    1  0.1271559E-006  0.9118800E+02  0.7816164E-02  0.1184000E+00
        -11   -1    0    0    0    0  0.00000000000E+00  0.00000000000E+00  0.45593999997E+02  0.45594000000E+02  0.51100000000E-03 0. -1.
         11   -1    0    0    0    0 -0.00000000000E+00 -0.00000000000E+00 -0.45593999997E+02  0.45594000000E+02  0.51100000000E-03 0.  1.
         23    2    1    2    0    0  0.13322676296E-14  0.17763568394E-14  0.00000000000E+00  0.91188000000E+02  0.91188000000E+02 0.  0.
    9900012    2    3    3    0    0 -0.34453494234E+01 -0.15037183088E+02 -0.33433260233E+02  0.54367215141E+02  0.40000298555E+02 0.  0.
         12    1    3    3    0    0  0.34453494234E+01  0.15037183088E+02  0.33433260233E+02  0.36820784859E+02  0.00000000000E+00 0. -1.
         11    1    4    4    0    0  0.55300852140E+01 -0.38414814954E+01 -0.11424056819E+02  0.13260765325E+02  0.51100000000E-03 0. -1.
        -11    1    4    4    0    0  0.69674698461E+01 -0.14854714401E+02 -0.17815874742E+02  0.24220106711E+02  0.51100000000E-03 0.  1.
         12    1    4    4    0    0 -0.15942904483E+02  0.36590128085E+01 -0.41933286719E+01  0.16886343105E+02  0.00000000000E+00 0. -1.
</event>
<event>
 8    1  0.1271559E-006  0.9118800E+02  0.7816164E-02  0.1184000E+00
        -11   -1    0    0    0    0  0.00000000000E+00  0.00000000000E+00  0.45593999997E+02  0.45594000000E+02  0.51100000000E-03 0.  1.
         11   -1    0    0    0    0 -0.00000000000E+00 -0.00000000000E+00 -0.45593999997E+02  0.45594000000E+02  0.51100000000E-03 0. -1.
         23    2    1    2    0    0  0.00000000000E+00  0.00000000000E+00 -0.44408920985E-15  0.91188000000E+02  0.91188000000E+02 0.  0.
    9900012    2    3    3    0    0  0.31896469920E+02  0.18368141816E+02  0.10037233414E+01  0.54367069978E+02  0.39999967630E+02 0.  0.
         12    1    3    3    0    0 -0.31896469920E+02 -0.18368141816E+02 -0.10037233414E+01  0.36820930022E+02  0.00000000000E+00 0. -1.
         11    1    4    4    0    0  0.53457265257E+01  0.15966178976E+02  0.24392327187E+01  0.17013098475E+02  0.51100000000E-03 0. -1.
        -11    1    4    4    0    0  0.17068485431E+02  0.11842413018E+02  0.65368156903E+01  0.21778565164E+02  0.51100000000E-03 0.  1.
         12    1    4    4    0    0  0.94822579632E+01 -0.94404501784E+01 -0.79723250676E+01  0.15575406339E+02  0.00000000000E+00 0. -1.
</event>
<event>
 8    1  0.1271559E-006  0.9118800E+02  0.7816164E-02  0.1184000E+00
        -11   -1    0    0    0    0  0.00000000000E+00  0.00000000000E+00  0.45593999997E+02  0.45594000000E+02  0.51100000000E-03 0.  1.
         11   -1    0    0    0    0 -0.00000000000E+00 -0.00000000000E+00 -0.45593999997E+02  0.45594000000E+02  0.51100000000E-03 0. -1.
         23    2    1    2    0    0  0.88817841970E-15  0.88817841970E-15  0.00000000000E+00  0.91188000000E+02  0.91188000000E+02 0.  0.
    9900012    2    3    3    0    0 -0.74489031331E+01  0.38117582601E+01 -0.35857531624E+02  0.54367106025E+02  0.40000049806E+02 0.  0.
        -12    1    3    3    0    0  0.74489031331E+01 -0.38117582601E+01  0.35857531624E+02  0.36820893975E+02  0.00000000000E+00 0.  1.
         11    1    4    4    0    0 -0.20295847856E+00  0.70379404922E+01 -0.28667810046E+02  0.29519775263E+02  0.51100000000E-03 0. -1.
        -11    1    4    4    0    0 -0.39332692757E+01 -0.15502746735E+01 -0.15329019267E+02  0.15901345563E+02  0.51100000000E-03 0.  1.
        -12    1    4    4    0    0 -0.33126753789E+01 -0.16759075586E+01  0.81392976891E+01  0.89459851991E+01  0.00000000000E+00 0.  1.
</event>
<event>
 8    1  0.1271559E-006  0.9118800E+02  0.7816164E-02  0.1184000E+00
        -11   -1    0    0    0    0  0.00000000000E+00  0.00000000000E+00  0.45593999997E+02  0.45594000000E+02  0.51100000000E-03 0.  1.
         11   -1    0    0    0    0 -0.00000000000E+00 -0.00000000000E+00 -0.45593999997E+02  0.45594000000E+02  0.51100000000E-03 0. -1.
         23    2    1    2    0    0  0.71054273576E-14  0.17763568394E-14  0.35527136788E-14  0.91188000000E+02  0.91188000000E+02 0.  0.
    9900012    2    3    3    0    0  0.33247315318E+02 -0.19728699791E+01  0.15700321247E+02  0.54367132560E+02  0.40000110297E+02 0.  0.
         12    1    3    3    0    0 -0.33247315318E+02  0.19728699791E+01 -0.15700321247E+02  0.36820867440E+02  0.00000000000E+00 0. -1.
         11    1    4    4    0    0  0.10494887183E+02 -0.12089960161E+02  0.19973998007E+01  0.16133796822E+02  0.51100000000E-03 0. -1.
        -11    1    4    4    0    0  0.22524901753E+02 -0.81393917458E+00  0.26641810603E+01  0.22696509796E+02  0.51100000000E-03 0.  1.
         12    1    4    4    0    0  0.22752638210E+00  0.10931029356E+02  0.11038740386E+02  0.15536825942E+02  0.00000000000E+00 0. -1.
</event>
<event>
 8    1  0.1271559E-006  0.9118800E+02  0.7816164E-02  0.1184000E+00
        -11   -1    0    0    0    0  0.00000000000E+00  0.00000000000E+00  0.45593999997E+02  0.45594000000E+02  0.51100000000E-03 0. -1.
         11   -1    0    0    0    0 -0.00000000000E+00 -0.00000000000E+00 -0.45593999997E+02  0.45594000000E+02  0.51100000000E-03 0.  1.
         23    2    1    2    0    0 -0.88817841970E-15  0.00000000000E+00  0.71054273576E-14  0.91188000000E+02  0.91188000000E+02 0.  0.
    9900012    2    3    3    0    0 -0.71998847101E+01 -0.75798143873E+01  0.35305631951E+02  0.54367087824E+02  0.40000008312E+02 0.  0.
        -12    1    3    3    0    0  0.71998847101E+01  0.75798143873E+01 -0.35305631951E+02  0.36820912176E+02  0.00000000000E+00 0.  1.
         11    1    4    4    0    0 -0.15246272887E+02 -0.12583995809E+02  0.72744005123E+01  0.21064726216E+02  0.51100000000E-03 0. -1.
        -11    1    4    4    0    0  0.87642336982E+01  0.57164076777E+01  0.78128388195E+01  0.13058696709E+02  0.51100000000E-03 0.  1.
         12    1    4    4    0    0 -0.71784552107E+00 -0.71222625586E+00  0.20218392620E+02  0.20243664899E+02  0.00000000000E+00 0. -1.
</event>
<event>
 8    1  0.1271559E-006  0.9118800E+02  0.7816164E-02  0.1184000E+00
        -11   -1    0    0    0    0  0.00000000000E+00  0.00000000000E+00  0.45593999997E+02  0.45594000000E+02  0.51100000000E-03 0. -1.
         11   -1    0    0    0    0 -0.00000000000E+00 -0.00000000000E+00 -0.45593999997E+02  0.45594000000E+02  0.51100000000E-03 0.  1.
         23    2    1    2    0    0  0.00000000000E+00  0.00000000000E+00  0.00000000000E+00  0.91188000000E+02  0.91188000000E+02 0.  0.
    9900012    2    3    3    0    0 -0.11085963311E+02  0.19587340023E+02  0.29141337613E+02  0.54367081630E+02  0.39999994192E+02 0.  0.
        -12    1    3    3    0    0  0.11085963311E+02 -0.19587340023E+02 -0.29141337613E+02  0.36820918370E+02  0.00000000000E+00 0.  1.
         11    1    4    4    0    0  0.52194881426E+01  0.15590987302E+02  0.11307158302E+02  0.19954292036E+02  0.51100000000E-03 0. -1.
        -11    1    4    4    0    0 -0.89046115213E+01  0.12890322244E+02  0.16520602857E+02  0.22768022157E+02  0.51100000000E-03 0.  1.
        -12    1    4    4    0    0 -0.74008399321E+01 -0.88939695229E+01  0.13135764536E+01  0.11644767438E+02  0.00000000000E+00 0.  1.
</event>
<event>
 8    1  0.1271559E-006  0.9118800E+02  0.7816164E-02  0.1184000E+00
        -11   -1    0    0    0    0  0.00000000000E+00  0.00000000000E+00  0.45593999997E+02  0.45594000000E+02  0.51100000000E-03 0. -1.
         11   -1    0    0    0    0 -0.00000000000E+00 -0.00000000000E+00 -0.45593999997E+02  0.45594000000E+02  0.51100000000E-03 0.  1.
         23    2    1    2    0    0 -0.17763568394E-14  0.71054273576E-14  0.00000000000E+00  0.91188000000E+02  0.91188000000E+02 0.  0.
    9900012    2    3    3    0    0 -0.13179724173E+02  0.34224500438E+02 -0.32800346556E+01  0.54367079495E+02  0.39999989324E+02 0.  0.
        -12    1    3    3    0    0  0.13179724173E+02 -0.34224500438E+02  0.32800346556E+01  0.36820920505E+02  0.00000000000E+00 0.  1.
         11    1    4    4    0    0 -0.18284655730E+02  0.14469348175E+02 -0.83886563377E+01  0.24780238642E+02  0.51100000000E-03 0.  1.
        -11    1    4    4    0    0 -0.28222553423E+00  0.15130055875E+02  0.12285076056E+02  0.19491570896E+02  0.51100000000E-03 0. -1.
        -12    1    4    4    0    0  0.53871570912E+01  0.46250963879E+01 -0.71764543734E+01  0.10095269957E+02  0.00000000000E+00 0.  1.
</event>
<event>
 8    1  0.1271559E-006  0.9118800E+02  0.7816164E-02  0.1184000E+00
        -11   -1    0    0    0    0  0.00000000000E+00  0.00000000000E+00  0.45593999997E+02  0.45594000000E+02  0.51100000000E-03 0.  1.
         11   -1    0    0    0    0 -0.00000000000E+00 -0.00000000000E+00 -0.45593999997E+02  0.45594000000E+02  0.51100000000E-03 0. -1.
         23    2    1    2    0    0 -0.44408920985E-15  0.00000000000E+00  0.71054273576E-14  0.91188000000E+02  0.91188000000E+02 0.  0.
    9900012    2    3    3    0    0 -0.31923579462E+01 -0.36137197253E+01  0.36503837914E+02  0.54367077932E+02  0.39999985762E+02 0.  0.
         12    1    3    3    0    0  0.31923579462E+01  0.36137197253E+01 -0.36503837914E+02  0.36820922068E+02  0.00000000000E+00 0. -1.
         11    1    4    4    0    0  0.11700767656E+01  0.11010648456E+02  0.16808981638E+01  0.11199503469E+02  0.51100000000E-03 0. -1.
        -11    1    4    4    0    0 -0.84774150920E+00  0.44263480616E+01  0.14087330817E+02  0.14790676544E+02  0.51100000000E-03 0.  1.
        -12    1    4    4    0    0 -0.35146932026E+01 -0.19050716243E+02  0.20735608933E+02  0.28376897919E+02  0.00000000000E+00 0.  1.
</event>
<event>
 8    1  0.1271559E-006  0.9118800E+02  0.7816164E-02  0.1184000E+00
        -11   -1    0    0    0    0  0.00000000000E+00  0.00000000000E+00  0.45593999997E+02  0.45594000000E+02  0.51100000000E-03 0.  1.
         11   -1    0    0    0    0 -0.00000000000E+00 -0.00000000000E+00 -0.45593999997E+02  0.45594000000E+02  0.51100000000E-03 0. -1.
         23    2    1    2    0    0 -0.17763568394E-14  0.00000000000E+00  0.71054273576E-14  0.91188000000E+02  0.91188000000E+02 0.  0.
    9900012    2    3    3    0    0 -0.93382619327E+01 -0.94051613828E+01  0.34352851800E+02  0.54367100725E+02  0.40000037724E+02 0.  0.
         12    1    3    3    0    0  0.93382619327E+01  0.94051613828E+01 -0.34352851800E+02  0.36820899275E+02  0.00000000000E+00 0. -1.
         11    1    4    4    0    0 -0.33729965993E+01 -0.10272718134E+01 -0.35667717965E+01  0.50154017533E+01  0.51100000000E-03 0. -1.
        -11    1    4    4    0    0  0.93988923475E+01 -0.73930253021E+01  0.29438488571E+02  0.31774527692E+02  0.51100000000E-03 0.  1.
        -12    1    4    4    0    0 -0.15364157681E+02 -0.98486426724E+00  0.84811350264E+01  0.17577171280E+02  0.00000000000E+00 0.  1.
</event>
<event>
 8    1  0.1271559E-006  0.9118800E+02  0.7816164E-02  0.1184000E+00
        -11   -1    0    0    0    0  0.00000000000E+00  0.00000000000E+00  0.45593999997E+02  0.45594000000E+02  0.51100000000E-03 0. -1.
         11   -1    0    0    0    0 -0.00000000000E+00 -0.00000000000E+00 -0.45593999997E+02  0.45594000000E+02  0.51100000000E-03 0.  1.
         23    2    1    2    0    0  0.35527136788E-14  0.00000000000E+00  0.66613381478E-15  0.91188000000E+02  0.91188000000E+02 0.  0.
    9900012    2    3    3    0    0  0.23157179219E+02 -0.28565257434E+02  0.18848083887E+01  0.54367063235E+02  0.39999952256E+02 0.  0.
         12    1    3    3    0    0 -0.23157179219E+02  0.28565257434E+02 -0.18848083887E+01  0.36820936765E+02  0.00000000000E+00 0. -1.
         11    1    4    4    0    0  0.28578862759E+02 -0.12966785554E+02 -0.74480565540E+01  0.32254650376E+02  0.51100000000E-03 0. -1.
        -11    1    4    4    0    0 -0.83867542841E+01 -0.12290556075E+02  0.44930087309E+01  0.15542925844E+02  0.51100000000E-03 0.  1.
        -12    1    4    4    0    0  0.29650707439E+01 -0.33079158047E+01  0.48398562119E+01  0.65694870149E+01  0.00000000000E+00 0.  1.
</event>
<event>
 8    1  0.1271559E-006  0.9118800E+02  0.7816164E-02  0.1184000E+00
        -11   -1    0    0    0    0  0.00000000000E+00  0.00000000000E+00  0.45593999997E+02  0.45594000000E+02  0.51100000000E-03 0.  1.
         11   -1    0    0    0    0 -0.00000000000E+00 -0.00000000000E+00 -0.45593999997E+02  0.45594000000E+02  0.51100000000E-03 0. -1.
         23    2    1    2    0    0  0.00000000000E+00 -0.35527136788E-14  0.00000000000E+00  0.91188000000E+02  0.91188000000E+02 0.  0.
    9900012    2    3    3    0    0  0.18189602556E+02 -0.22517453442E+02  0.22756965125E+02  0.54367125318E+02  0.40000093787E+02 0.  0.
        -12    1    3    3    0    0 -0.18189602556E+02  0.22517453442E+02 -0.22756965125E+02  0.36820874682E+02  0.00000000000E+00 0.  1.
         11    1    4    4    0    0  0.23179249723E+02 -0.85796017912E+01  0.11866959607E+01  0.24744604102E+02  0.51100000000E-03 0. -1.
        -11    1    4    4    0    0 -0.96630507673E+01 -0.11501258708E+02  0.16388174460E+02  0.22231189001E+02  0.51100000000E-03 0.  1.
         12    1    4    4    0    0  0.46734036000E+01 -0.24365929432E+01  0.51820947047E+01  0.73913322147E+01  0.00000000000E+00 0. -1.
</event>
<event>
 8    1  0.1271559E-006  0.9118800E+02  0.7816164E-02  0.1184000E+00
        -11   -1    0    0    0    0  0.00000000000E+00  0.00000000000E+00  0.45593999997E+02  0.45594000000E+02  0.51100000000E-03 0.  1.
         11   -1    0    0    0    0 -0.00000000000E+00 -0.00000000000E+00 -0.45593999997E+02  0.45594000000E+02  0.51100000000E-03 0. -1.
         23    2    1    2    0    0  0.35527136788E-14  0.00000000000E+00  0.17763568394E-14  0.91188000000E+02  0.91188000000E+02 0.  0.
    9900012    2    3    3    0    0 -0.26479232788E+02 -0.20069173344E+02 -0.15870041617E+02  0.54367085988E+02  0.40000004126E+02 0.  0.
        -12    1    3    3    0    0  0.26479232788E+02  0.20069173344E+02  0.15870041617E+02  0.36820914012E+02  0.00000000000E+00 0.  1.
         11    1    4    4    0    0 -0.13999133738E+02  0.21308868966E+01 -0.30906624000E+01  0.14493744123E+02  0.51100000000E-03 0. -1.
        -11    1    4    4    0    0 -0.16479823548E+02 -0.24520368961E+02 -0.16588599983E+02  0.33882366030E+02  0.51100000000E-03 0.  1.
        -12    1    4    4    0    0  0.39997244974E+01  0.23203087197E+01  0.38092207654E+01  0.59909758345E+01  0.00000000000E+00 0.  1.
</event>
<event>
 8    1  0.1271559E-006  0.9118800E+02  0.7816164E-02  0.1184000E+00
        -11   -1    0    0    0    0  0.00000000000E+00  0.00000000000E+00  0.45593999997E+02  0.45594000000E+02  0.51100000000E-03 0. -1.
         11   -1    0    0    0    0 -0.00000000000E+00 -0.00000000000E+00 -0.45593999997E+02  0.45594000000E+02  0.51100000000E-03 0.  1.
         23    2    1    2    0    0  0.17763568394E-14  0.00000000000E+00  0.00000000000E+00  0.91188000000E+02  0.91188000000E+02 0.  0.
    9900012    2    3    3    0    0 -0.72220688846E+01  0.27421580458E+02  0.23487829229E+02  0.54367089152E+02  0.40000011340E+02 0.  0.
        -12    1    3    3    0    0  0.72220688846E+01 -0.27421580458E+02 -0.23487829229E+02  0.36820910848E+02  0.00000000000E+00 0.  1.
         11    1    4    4    0    0  0.51939302092E+01  0.20583746147E+01  0.11582310317E+02  0.12859382940E+02  0.51100000000E-03 0. -1.
        -11    1    4    4    0    0 -0.13933978925E+02  0.22562292923E+01 -0.23572755224E+01  0.14310942926E+02  0.51100000000E-03 0.  1.
        -12    1    4    4    0    0  0.15179798309E+01  0.23106976551E+02  0.14262794434E+02  0.27196763285E+02  0.00000000000E+00 0.  1.
</event>
<event>
 8    1  0.1271559E-006  0.9118800E+02  0.7816164E-02  0.1184000E+00
        -11   -1    0    0    0    0  0.00000000000E+00  0.00000000000E+00  0.45593999997E+02  0.45594000000E+02  0.51100000000E-03 0.  1.
         11   -1    0    0    0    0 -0.00000000000E+00 -0.00000000000E+00 -0.45593999997E+02  0.45594000000E+02  0.51100000000E-03 0. -1.
         23    2    1    2    0    0 -0.35527136788E-14  0.00000000000E+00  0.35527136788E-14  0.91188000000E+02  0.91188000000E+02 0.  0.
    9900012    2    3    3    0    0 -0.24860033010E+02 -0.10778458253E+02  0.24931571500E+02  0.54367086636E+02  0.40000005604E+02 0.  0.
        -12    1    3    3    0    0  0.24860033010E+02  0.10778458253E+02 -0.24931571500E+02  0.36820913364E+02  0.00000000000E+00 0.  1.
         11    1    4    4    0    0 -0.29529276244E+01  0.59528638789E+01  0.24770327242E+01  0.70916895937E+01  0.51100000000E-03 0. -1.
        -11    1    4    4    0    0 -0.22756482713E+02 -0.20388203141E+02  0.27417891653E+02  0.41052126812E+02  0.51100000000E-03 0.  1.
        -12    1    4    4    0    0  0.84937732809E+00  0.36568810099E+01 -0.49633528779E+01  0.62232702301E+01  0.00000000000E+00 0.  1.
</event>
<event>
 8    1  0.1271559E-006  0.9118800E+02  0.7816164E-02  0.1184000E+00
        -11   -1    0    0    0    0  0.00000000000E+00  0.00000000000E+00  0.45593999997E+02  0.45594000000E+02  0.51100000000E-03 0.  1.
         11   -1    0    0    0    0 -0.00000000000E+00 -0.00000000000E+00 -0.45593999997E+02  0.45594000000E+02  0.51100000000E-03 0. -1.
         23    2    1    2    0    0 -0.35527136788E-14 -0.17763568394E-14  0.00000000000E+00  0.91188000000E+02  0.91188000000E+02 0.  0.
    9900012    2    3    3    0    0  0.27526036633E+02  0.10242172704E+02  0.22208029160E+02  0.54367063652E+02  0.39999953206E+02 0.  0.
         12    1    3    3    0    0 -0.27526036633E+02 -0.10242172704E+02 -0.22208029160E+02  0.36820936348E+02  0.00000000000E+00 0. -1.
         11    1    4    4    0    0  0.22174994394E+00  0.69659711181E+01 -0.16645838813E+00  0.69714873099E+01  0.51100000000E-03 0. -1.
        -11    1    4    4    0    0  0.11578969870E+02  0.10745834973E+02  0.25216440470E+02  0.29755913408E+02  0.51100000000E-03 0.  1.
        -12    1    4    4    0    0  0.15725316819E+02 -0.74696333874E+01 -0.28419529217E+01  0.17639662934E+02  0.00000000000E+00 0.  1.
</event>
<event>
 8    1  0.1271559E-006  0.9118800E+02  0.7816164E-02  0.1184000E+00
        -11   -1    0    0    0    0  0.00000000000E+00  0.00000000000E+00  0.45593999997E+02  0.45594000000E+02  0.51100000000E-03 0. -1.
         11   -1    0    0    0    0 -0.00000000000E+00 -0.00000000000E+00 -0.45593999997E+02  0.45594000000E+02  0.51100000000E-03 0.  1.
         23    2    1    2    0    0  0.00000000000E+00  0.00000000000E+00  0.00000000000E+00  0.91188000000E+02  0.91188000000E+02 0.  0.
    9900012    2    3    3    0    0  0.28198133531E+02  0.91659745407E+01  0.21832160257E+02  0.54366904886E+02  0.39999591266E+02 0.  0.
        -12    1    3    3    0    0 -0.28198133531E+02 -0.91659745407E+01 -0.21832160257E+02  0.36821095114E+02  0.00000000000E+00 0.  1.
         11    1    4    4    0    0  0.50488339954E+01  0.13402041138E+02  0.22183482131E+02  0.26404778187E+02  0.51100000000E-03 0. -1.
        -11    1    4    4    0    0  0.17488796253E+02 -0.24069937254E+01  0.65692187920E+01  0.18836301361E+02  0.51100000000E-03 0.  1.
         12    1    4    4    0    0  0.56605032827E+01 -0.18290728714E+01 -0.69205406661E+01  0.91258253377E+01  0.00000000000E+00 0. -1.
</event>
<event>
 8    1  0.1271559E-006  0.9118800E+02  0.7816164E-02  0.1184000E+00
        -11   -1    0    0    0    0  0.00000000000E+00  0.00000000000E+00  0.45593999997E+02  0.45594000000E+02  0.51100000000E-03 0.  1.
         11   -1    0    0    0    0 -0.00000000000E+00 -0.00000000000E+00 -0.45593999997E+02  0.45594000000E+02  0.51100000000E-03 0. -1.
         23    2    1    2    0    0 -0.35527136788E-14  0.35527136788E-14  0.00000000000E+00  0.91188000000E+02  0.91188000000E+02 0.  0.
    9900012    2    3    3    0    0  0.18556633132E+02 -0.26292782845E+02 -0.17891919050E+02  0.54367084338E+02  0.40000000365E+02 0.  0.
        -12    1    3    3    0    0 -0.18556633132E+02  0.26292782845E+02  0.17891919050E+02  0.36820915662E+02  0.00000000000E+00 0.  1.
         11    1    4    4    0    0  0.17656712555E+02  0.45007227097E+00 -0.59102086990E+01  0.18625053837E+02  0.51100000000E-03 0. -1.
        -11    1    4    4    0    0  0.74913639915E+01 -0.24574958422E+02 -0.12890557431E+02  0.28743966098E+02  0.51100000000E-03 0.  1.
        -12    1    4    4    0    0 -0.65914434150E+01 -0.21678966934E+01  0.90884707937E+00  0.69980644024E+01  0.00000000000E+00 0.  1.
</event>
<event>
 8    1  0.1271559E-006  0.9118800E+02  0.7816164E-02  0.1184000E+00
        -11   -1    0    0    0    0  0.00000000000E+00  0.00000000000E+00  0.45593999997E+02  0.45594000000E+02  0.51100000000E-03 0.  1.
         11   -1    0    0    0    0 -0.00000000000E+00 -0.00000000000E+00 -0.45593999997E+02  0.45594000000E+02  0.51100000000E-03 0. -1.
         23    2    1    2    0    0  0.35527136788E-14 -0.88817841970E-15  0.00000000000E+00  0.91188000000E+02  0.91188000000E+02 0.  0.
    9900012    2    3    3    0    0 -0.17684255096E+02 -0.36069137267E+01  0.32094210186E+02  0.54367068013E+02  0.39999963149E+02 0.  0.
         12    1    3    3    0    0  0.17684255096E+02  0.36069137267E+01 -0.32094210186E+02  0.36820931987E+02  0.00000000000E+00 0. -1.
         11    1    4    4    0    0 -0.22358640800E+01  0.13569152516E+02  0.19741598377E+02  0.24059336960E+02  0.51100000000E-03 0. -1.
        -11    1    4    4    0    0 -0.17040337975E+02 -0.91056464191E+01  0.72984215920E+01  0.20653156490E+02  0.51100000000E-03 0.  1.
         12    1    4    4    0    0  0.15919469590E+01 -0.80704198238E+01  0.50541902165E+01  0.96545745632E+01  0.00000000000E+00 0. -1.
</event>
<event>
 8    1  0.1271559E-006  0.9118800E+02  0.7816164E-02  0.1184000E+00
        -11   -1    0    0    0    0  0.00000000000E+00  0.00000000000E+00  0.45593999997E+02  0.45594000000E+02  0.51100000000E-03 0.  1.
         11   -1    0    0    0    0 -0.00000000000E+00 -0.00000000000E+00 -0.45593999997E+02  0.45594000000E+02  0.51100000000E-03 0. -1.
         23    2    1    2    0    0  0.17763568394E-14  0.71054273576E-14 -0.17763568394E-14  0.91188000000E+02  0.91188000000E+02 0.  0.
    9900012    2    3    3    0    0 -0.14430880912E+02  0.32106303929E+02  0.10803472711E+02  0.54367080695E+02  0.39999992059E+02 0.  0.
        -12    1    3    3    0    0  0.14430880912E+02 -0.32106303929E+02 -0.10803472711E+02  0.36820919305E+02  0.00000000000E+00 0.  1.
         11    1    4    4    0    0 -0.12860058696E+02  0.11941445090E+02  0.11456899908E+02  0.20958048007E+02  0.51100000000E-03 0. -1.
        -11    1    4    4    0    0  0.37488518879E+01 -0.57708498242E+01 -0.84028959369E+00  0.69327256569E+01  0.51100000000E-03 0.  1.
        -12    1    4    4    0    0 -0.53196741037E+01  0.25935708663E+02  0.18686239692E+00  0.26476307031E+02  0.00000000000E+00 0.  1.
</event>
<event>
 8    1  0.1271559E-006  0.9118800E+02  0.7816164E-02  0.1184000E+00
        -11   -1    0    0    0    0  0.00000000000E+00  0.00000000000E+00  0.45593999997E+02  0.45594000000E+02  0.51100000000E-03 0. -1.
         11   -1    0    0    0    0 -0.00000000000E+00 -0.00000000000E+00 -0.45593999997E+02  0.45594000000E+02  0.51100000000E-03 0.  1.
         23    2    1    2    0    0  0.88817841970E-15  0.00000000000E+00  0.00000000000E+00  0.91188000000E+02  0.91188000000E+02 0.  0.
    9900012    2    3    3    0    0  0.55898918376E+01  0.35391369794E+02 -0.84843465776E+01  0.54367080898E+02  0.39999992523E+02 0.  0.
        -12    1    3    3    0    0 -0.55898918376E+01 -0.35391369794E+02  0.84843465776E+01  0.36820919102E+02  0.00000000000E+00 0.  1.
         11    1    4    4    0    0  0.28581836130E+01  0.41555326739E+02 -0.19997982291E+01  0.41701481834E+02  0.51100000000E-03 0. -1.
        -11    1    4    4    0    0  0.77925429696E+00 -0.40771006690E+00  0.20252229396E+01  0.22079386256E+01  0.51100000000E-03 0.  1.
         12    1    4    4    0    0  0.19524539276E+01 -0.57562468778E+01 -0.85097712881E+01  0.10457660438E+02  0.00000000000E+00 0. -1.
</event>
<event>
 8    1  0.1271559E-006  0.9118800E+02  0.7816164E-02  0.1184000E+00
        -11   -1    0    0    0    0  0.00000000000E+00  0.00000000000E+00  0.45593999997E+02  0.45594000000E+02  0.51100000000E-03 0. -1.
         11   -1    0    0    0    0 -0.00000000000E+00 -0.00000000000E+00 -0.45593999997E+02  0.45594000000E+02  0.51100000000E-03 0.  1.
         23    2    1    2    0    0  0.00000000000E+00 -0.17763568394E-14  0.00000000000E+00  0.91188000000E+02  0.91188000000E+02 0.  0.
    9900012    2    3    3    0    0 -0.28043365689E+02 -0.91531380765E+01 -0.22035431624E+02  0.54367210456E+02  0.40000287875E+02 0.  0.
         12    1    3    3    0    0  0.28043365689E+02  0.91531380765E+01  0.22035431624E+02  0.36820789544E+02  0.00000000000E+00 0. -1.
         11    1    4    4    0    0 -0.31953918529E+01  0.82259710177E+00  0.63458241349E+01  0.71523897613E+01  0.51100000000E-03 0. -1.
        -11    1    4    4    0    0 -0.24155365872E+02 -0.43827158471E+01 -0.76243463385E+01  0.25706430245E+02  0.51100000000E-03 0.  1.
        -12    1    4    4    0    0 -0.69260796389E+00 -0.55930193312E+01 -0.20756909420E+02  0.21508390449E+02  0.00000000000E+00 0.  1.
</event>
<event>
 8    1  0.1271559E-006  0.9118800E+02  0.7816164E-02  0.1184000E+00
        -11   -1    0    0    0    0  0.00000000000E+00  0.00000000000E+00  0.45593999997E+02  0.45594000000E+02  0.51100000000E-03 0.  1.
         11   -1    0    0    0    0 -0.00000000000E+00 -0.00000000000E+00 -0.45593999997E+02  0.45594000000E+02  0.51100000000E-03 0. -1.
         23    2    1    2    0    0  0.17763568394E-14  0.88817841970E-15  0.00000000000E+00  0.91188000000E+02  0.91188000000E+02 0.  0.
    9900012    2    3    3    0    0 -0.15291542539E+02 -0.53118140500E+01  0.33071640305E+02  0.54367081568E+02  0.39999994050E+02 0.  0.
         12    1    3    3    0    0  0.15291542539E+02  0.53118140500E+01 -0.33071640305E+02  0.36820918432E+02  0.00000000000E+00 0. -1.
         11    1    4    4    0    0 -0.59097227146E+01  0.15722541010E+01 -0.40228461603E+01  0.73198426904E+01  0.51100000000E-03 0.  1.
        -11    1    4    4    0    0 -0.47274990203E+01 -0.23075788953E+01 -0.32463925474E+01  0.61816852216E+01  0.51100000000E-03 0. -1.
        -12    1    4    4    0    0 -0.46543208040E+01 -0.45764892557E+01  0.40340879013E+02  0.40865553656E+02  0.00000000000E+00 0.  1.
</event>
<event>
 8    1  0.1271559E-006  0.9118800E+02  0.7816164E-02  0.1184000E+00
        -11   -1    0    0    0    0  0.00000000000E+00  0.00000000000E+00  0.45593999997E+02  0.45594000000E+02  0.51100000000E-03 0. -1.
         11   -1    0    0    0    0 -0.00000000000E+00 -0.00000000000E+00 -0.45593999997E+02  0.45594000000E+02  0.51100000000E-03 0.  1.
         23    2    1    2    0    0 -0.17763568394E-14  0.00000000000E+00  0.00000000000E+00  0.91188000000E+02  0.91188000000E+02 0.  0.
    9900012    2    3    3    0    0 -0.11401133122E+02 -0.78209710605E+01 -0.34126621082E+02  0.54367086224E+02  0.40000004665E+02 0.  0.
         12    1    3    3    0    0  0.11401133122E+02  0.78209710605E+01  0.34126621082E+02  0.36820913776E+02  0.00000000000E+00 0. -1.
         11    1    4    4    0    0 -0.59874037713E+01 -0.72440232402E+00 -0.22732616732E+01  0.64452681514E+01  0.51100000000E-03 0. -1.
        -11    1    4    4    0    0  0.12861964233E+02  0.20967728978E+00 -0.33664506484E+01  0.13296882294E+02  0.51100000000E-03 0.  1.
        -12    1    4    4    0    0 -0.18275693584E+02 -0.73062460263E+01 -0.28486908761E+02  0.34624935779E+02  0.00000000000E+00 0.  1.
</event>
<event>
 8    1  0.1271559E-006  0.9118800E+02  0.7816164E-02  0.1184000E+00
        -11   -1    0    0    0    0  0.00000000000E+00  0.00000000000E+00  0.45593999997E+02  0.45594000000E+02  0.51100000000E-03 0.  1.
         11   -1    0    0    0    0 -0.00000000000E+00 -0.00000000000E+00 -0.45593999997E+02  0.45594000000E+02  0.51100000000E-03 0. -1.
         23    2    1    2    0    0 -0.71054273576E-14  0.00000000000E+00  0.00000000000E+00  0.91188000000E+02  0.91188000000E+02 0.  0.
    9900012    2    3    3    0    0  0.22223037400E+02 -0.92740293638E+01 -0.27855104865E+02  0.54367110835E+02  0.40000060769E+02 0.  0.
        -12    1    3    3    0    0 -0.22223037400E+02  0.92740293638E+01  0.27855104865E+02  0.36820889165E+02  0.00000000000E+00 0.  1.
         11    1    4    4    0    0 -0.33763538506E+01  0.52131285354E+00 -0.73926886248E+00  0.34954328957E+01  0.51100000000E-03 0. -1.
        -11    1    4    4    0    0 -0.76777486150E+01 -0.44081351959E+01 -0.27262156573E+01  0.92634621914E+01  0.51100000000E-03 0.  1.
         12    1    4    4    0    0  0.33277139865E+02 -0.53872070214E+01 -0.24389620345E+02  0.41608215747E+02  0.00000000000E+00 0. -1.
</event>
<event>
 8    1  0.1271559E-006  0.9118800E+02  0.7816164E-02  0.1184000E+00
        -11   -1    0    0    0    0  0.00000000000E+00  0.00000000000E+00  0.45593999997E+02  0.45594000000E+02  0.51100000000E-03 0.  1.
         11   -1    0    0    0    0 -0.00000000000E+00 -0.00000000000E+00 -0.45593999997E+02  0.45594000000E+02  0.51100000000E-03 0. -1.
         23    2    1    2    0    0 -0.53290705182E-14  0.17763568394E-14 -0.35527136788E-14  0.91188000000E+02  0.91188000000E+02 0.  0.
    9900012    2    3    3    0    0 -0.14332791059E+02  0.12024020636E+02 -0.31713784514E+02  0.54367216467E+02  0.40000301578E+02 0.  0.
        -12    1    3    3    0    0  0.14332791059E+02 -0.12024020636E+02  0.31713784514E+02  0.36820783533E+02  0.00000000000E+00 0.  1.
         11    1    4    4    0    0  0.71787199951E+01 -0.85335047934E+00 -0.12097730603E+02  0.14093165500E+02  0.51100000000E-03 0. -1.
        -11    1    4    4    0    0  0.28498742232E+01  0.72140826699E+01  0.10530618533E+01  0.78277526394E+01  0.51100000000E-03 0.  1.
         12    1    4    4    0    0 -0.24361385277E+02  0.56632884457E+01 -0.20669115764E+02  0.32446298327E+02  0.00000000000E+00 0. -1.
</event>
<event>
 8    1  0.1271559E-006  0.9118800E+02  0.7816164E-02  0.1184000E+00
        -11   -1    0    0    0    0  0.00000000000E+00  0.00000000000E+00  0.45593999997E+02  0.45594000000E+02  0.51100000000E-03 0.  1.
         11   -1    0    0    0    0 -0.00000000000E+00 -0.00000000000E+00 -0.45593999997E+02  0.45594000000E+02  0.51100000000E-03 0. -1.
         23    2    1    2    0    0  0.00000000000E+00  0.00000000000E+00 -0.17763568394E-14  0.91188000000E+02  0.91188000000E+02 0.  0.
    9900012    2    3    3    0    0  0.27985526161E+02  0.19040684177E+02 -0.14492925295E+02  0.54367051995E+02  0.39999926632E+02 0.  0.
        -12    1    3    3    0    0 -0.27985526161E+02 -0.19040684177E+02  0.14492925295E+02  0.36820948005E+02  0.00000000000E+00 0.  1.
         11    1    4    4    0    0  0.10195232384E+02  0.91657563379E+00  0.83224416827E+01  0.13192646061E+02  0.51100000000E-03 0. -1.
        -11    1    4    4    0    0 -0.16547413076E+01  0.99768081404E+01 -0.49193980506E-02  0.10113105059E+02  0.51100000000E-03 0.  1.
         12    1    4    4    0    0  0.19445035084E+02  0.81473004023E+01 -0.22810447580E+02  0.31061300875E+02  0.00000000000E+00 0. -1.
</event>
<event>
 8    1  0.1271559E-006  0.9118800E+02  0.7816164E-02  0.1184000E+00
        -11   -1    0    0    0    0  0.00000000000E+00  0.00000000000E+00  0.45593999997E+02  0.45594000000E+02  0.51100000000E-03 0. -1.
         11   -1    0    0    0    0 -0.00000000000E+00 -0.00000000000E+00 -0.45593999997E+02  0.45594000000E+02  0.51100000000E-03 0.  1.
         23    2    1    2    0    0  0.00000000000E+00  0.35527136788E-14  0.00000000000E+00  0.91188000000E+02  0.91188000000E+02 0.  0.
    9900012    2    3    3    0    0 -0.23812332209E+01 -0.26384163066E+02 -0.25573149878E+02  0.54367077591E+02  0.39999984984E+02 0.  0.
         12    1    3    3    0    0  0.23812332209E+01  0.26384163066E+02  0.25573149878E+02  0.36820922409E+02  0.00000000000E+00 0. -1.
         11    1    4    4    0    0  0.66133090446E+01 -0.22830249602E+02 -0.70251711499E+01  0.24785261414E+02  0.51100000000E-03 0. -1.
        -11    1    4    4    0    0 -0.47903770252E+01 -0.66993079292E+01  0.19153716270E+01  0.84555950415E+01  0.51100000000E-03 0.  1.
        -12    1    4    4    0    0 -0.42041652402E+01  0.31453944651E+01 -0.20463350356E+02  0.21126221136E+02  0.00000000000E+00 0.  1.
</event>
<event>
 8    1  0.1271559E-006  0.9118800E+02  0.7816164E-02  0.1184000E+00
        -11   -1    0    0    0    0  0.00000000000E+00  0.00000000000E+00  0.45593999997E+02  0.45594000000E+02  0.51100000000E-03 0.  1.
         11   -1    0    0    0    0 -0.00000000000E+00 -0.00000000000E+00 -0.45593999997E+02  0.45594000000E+02  0.51100000000E-03 0. -1.
         23    2    1    2    0    0  0.00000000000E+00  0.00000000000E+00  0.00000000000E+00  0.91188000000E+02  0.91188000000E+02 0.  0.
    9900012    2    3    3    0    0 -0.47173407141E+01  0.44463173637E+01  0.36245782566E+02  0.54367084811E+02  0.40000001444E+02 0.  0.
         12    1    3    3    0    0  0.47173407141E+01 -0.44463173637E+01 -0.36245782566E+02  0.36820915189E+02  0.00000000000E+00 0. -1.
         11    1    4    4    0    0 -0.79247430999E+01  0.10008883334E+02 -0.31118044167E+01  0.13140115136E+02  0.51100000000E-03 0. -1.
        -11    1    4    4    0    0  0.61336368958E+01 -0.59528677581E+01  0.21671337787E+02  0.23296030088E+02  0.51100000000E-03 0.  1.
         12    1    4    4    0    0 -0.29262345100E+01  0.39030178800E+00  0.17686249196E+02  0.17930939588E+02  0.00000000000E+00 0. -1.
</event>
<event>
 8    1  0.1271559E-006  0.9118800E+02  0.7816164E-02  0.1184000E+00
        -11   -1    0    0    0    0  0.00000000000E+00  0.00000000000E+00  0.45593999997E+02  0.45594000000E+02  0.51100000000E-03 0.  1.
         11   -1    0    0    0    0 -0.00000000000E+00 -0.00000000000E+00 -0.45593999997E+02  0.45594000000E+02  0.51100000000E-03 0. -1.
         23    2    1    2    0    0 -0.17763568394E-14  0.00000000000E+00  0.17763568394E-14  0.91188000000E+02  0.91188000000E+02 0.  0.
    9900012    2    3    3    0    0 -0.32528521309E+00 -0.35832601933E+02  0.84675710217E+01  0.54367069393E+02  0.39999966296E+02 0.  0.
         12    1    3    3    0    0  0.32528521309E+00  0.35832601933E+02 -0.84675710217E+01  0.36820930607E+02  0.00000000000E+00 0. -1.
         11    1    4    4    0    0 -0.11418954809E+02 -0.90751261654E+01  0.11192532546E+02  0.18385408043E+02  0.51100000000E-03 0. -1.
        -11    1    4    4    0    0 -0.82265324379E-01 -0.37147425380E+01 -0.88942041282E+01  0.96391362187E+01  0.51100000000E-03 0.  1.
        -12    1    4    4    0    0  0.11175934920E+02 -0.23042733229E+02  0.61692426040E+01  0.26342525132E+02  0.00000000000E+00 0.  1.
</event>
<event>
 8    1  0.1271559E-006  0.9118800E+02  0.7816164E-02  0.1184000E+00
        -11   -1    0    0    0    0  0.00000000000E+00  0.00000000000E+00  0.45593999997E+02  0.45594000000E+02  0.51100000000E-03 0.  1.
         11   -1    0    0    0    0 -0.00000000000E+00 -0.00000000000E+00 -0.45593999997E+02  0.45594000000E+02  0.51100000000E-03 0. -1.
         23    2    1    2    0    0 -0.17763568394E-14  0.88817841970E-15 -0.71054273576E-14  0.91188000000E+02  0.91188000000E+02 0.  0.
    9900012    2    3    3    0    0  0.12287671653E+02  0.42941461467E+01  0.34443540893E+02  0.54367026697E+02  0.39999868960E+02 0.  0.
         12    1    3    3    0    0 -0.12287671653E+02 -0.42941461467E+01 -0.34443540893E+02  0.36820973303E+02  0.00000000000E+00 0. -1.
         11    1    4    4    0    0  0.55747783543E+00 -0.33371296558E+01  0.22682811123E+02  0.22933755396E+02  0.51100000000E-03 0.  1.
        -11    1    4    4    0    0  0.28756091503E+01  0.96368514161E+01  0.17859357974E+02  0.20496211863E+02  0.51100000000E-03 0. -1.
         12    1    4    4    0    0  0.88545846668E+01 -0.20055756136E+01 -0.60986282044E+01  0.10937059438E+02  0.00000000000E+00 0. -1.
</event>
<event>
 8    1  0.1271559E-006  0.9118800E+02  0.7816164E-02  0.1184000E+00
        -11   -1    0    0    0    0  0.00000000000E+00  0.00000000000E+00  0.45593999997E+02  0.45594000000E+02  0.51100000000E-03 0.  1.
         11   -1    0    0    0    0 -0.00000000000E+00 -0.00000000000E+00 -0.45593999997E+02  0.45594000000E+02  0.51100000000E-03 0. -1.
         23    2    1    2    0    0  0.00000000000E+00  0.35527136788E-14 -0.35527136788E-14  0.91188000000E+02  0.91188000000E+02 0.  0.
    9900012    2    3    3    0    0 -0.16080124207E+02 -0.12529012186E+02 -0.30663230304E+02  0.54367078861E+02  0.39999987879E+02 0.  0.
        -12    1    3    3    0    0  0.16080124207E+02  0.12529012186E+02  0.30663230304E+02  0.36820921139E+02  0.00000000000E+00 0.  1.
         11    1    4    4    0    0 -0.93521649800E+00  0.14867474000E+01 -0.11114810606E+01  0.20785663662E+01  0.51100000000E-03 0. -1.
        -11    1    4    4    0    0  0.31466290473E+01  0.82813558967E+01  0.24671629772E+01  0.91961417598E+01  0.51100000000E-03 0.  1.
        -12    1    4    4    0    0 -0.18291536756E+02 -0.22297115482E+02 -0.32018912221E+02  0.43092370735E+02  0.00000000000E+00 0.  1.
</event>
<event>
 8    1  0.1271559E-006  0.9118800E+02  0.7816164E-02  0.1184000E+00
        -11   -1    0    0    0    0  0.00000000000E+00  0.00000000000E+00  0.45593999997E+02  0.45594000000E+02  0.51100000000E-03 0.  1.
         11   -1    0    0    0    0 -0.00000000000E+00 -0.00000000000E+00 -0.45593999997E+02  0.45594000000E+02  0.51100000000E-03 0. -1.
         23    2    1    2    0    0  0.17763568394E-14  0.00000000000E+00  0.00000000000E+00  0.91188000000E+02  0.91188000000E+02 0.  0.
    9900012    2    3    3    0    0 -0.11664314294E+02 -0.29473545823E+02  0.18735918674E+02  0.54367071442E+02  0.39999970966E+02 0.  0.
         12    1    3    3    0    0  0.11664314294E+02  0.29473545823E+02 -0.18735918674E+02  0.36820928558E+02  0.00000000000E+00 0. -1.
         11    1    4    4    0    0  0.88226957995E+00  0.27867550069E+01  0.12078847295E+02  0.12427508009E+02  0.51100000000E-03 0. -1.
        -11    1    4    4    0    0 -0.11205732790E+02 -0.21113872493E+02  0.14760866510E+02  0.28093544443E+02  0.51100000000E-03 0.  1.
         12    1    4    4    0    0 -0.13408510842E+01 -0.11146428338E+02 -0.81037951316E+01  0.13846018989E+02  0.00000000000E+00 0. -1.
</event>
<event>
 8    1  0.1271559E-006  0.9118800E+02  0.7816164E-02  0.1184000E+00
        -11   -1    0    0    0    0  0.00000000000E+00  0.00000000000E+00  0.45593999997E+02  0.45594000000E+02  0.51100000000E-03 0. -1.
         11   -1    0    0    0    0 -0.00000000000E+00 -0.00000000000E+00 -0.45593999997E+02  0.45594000000E+02  0.51100000000E-03 0.  1.
         23    2    1    2    0    0 -0.17763568394E-14  0.00000000000E+00  0.00000000000E+00  0.91188000000E+02  0.91188000000E+02 0.  0.
    9900012    2    3    3    0    0  0.67646408363E+01  0.19424061765E+02 -0.30540553226E+02  0.54367082949E+02  0.39999997199E+02 0.  0.
         12    1    3    3    0    0 -0.67646408363E+01 -0.19424061765E+02  0.30540553226E+02  0.36820917051E+02  0.00000000000E+00 0. -1.
         11    1    4    4    0    0  0.11852544349E+02  0.15874907162E+02 -0.24959043666E+02  0.31866115953E+02  0.51100000000E-03 0. -1.
        -11    1    4    4    0    0  0.55234142859E+01 -0.34758966546E+00 -0.91096250546E+01  0.10658995865E+02  0.51100000000E-03 0.  1.
         12    1    4    4    0    0 -0.10611317799E+02  0.38967442683E+01  0.35281154948E+01  0.11841971131E+02  0.00000000000E+00 0. -1.
</event>
<event>
 8    1  0.1271559E-006  0.9118800E+02  0.7816164E-02  0.1184000E+00
        -11   -1    0    0    0    0  0.00000000000E+00  0.00000000000E+00  0.45593999997E+02  0.45594000000E+02  0.51100000000E-03 0. -1.
         11   -1    0    0    0    0 -0.00000000000E+00 -0.00000000000E+00 -0.45593999997E+02  0.45594000000E+02  0.51100000000E-03 0.  1.
         23    2    1    2    0    0  0.00000000000E+00  0.00000000000E+00  0.00000000000E+00  0.91188000000E+02  0.91188000000E+02 0.  0.
    9900012    2    3    3    0    0  0.23411631629E+02  0.19987202138E+02  0.20203612130E+02  0.54367099849E+02  0.40000035726E+02 0.  0.
        -12    1    3    3    0    0 -0.23411631629E+02 -0.19987202138E+02 -0.20203612130E+02  0.36820900151E+02  0.00000000000E+00 0.  1.
         11    1    4    4    0    0  0.37145726113E+01  0.81309682295E+01  0.27934759621E+02  0.29330214615E+02  0.51100000000E-03 0. -1.
        -11    1    4    4    0    0  0.13784814527E+02  0.11391176009E+02 -0.58711482365E+01  0.18821540433E+02  0.51100000000E-03 0.  1.
         12    1    4    4    0    0  0.59122444912E+01  0.46505789912E+00 -0.18599992544E+01  0.62153448013E+01  0.00000000000E+00 0. -1.
</event>
<event>
 8    1  0.1271559E-006  0.9118800E+02  0.7816164E-02  0.1184000E+00
        -11   -1    0    0    0    0  0.00000000000E+00  0.00000000000E+00  0.45593999997E+02  0.45594000000E+02  0.51100000000E-03 0.  1.
         11   -1    0    0    0    0 -0.00000000000E+00 -0.00000000000E+00 -0.45593999997E+02  0.45594000000E+02  0.51100000000E-03 0. -1.
         23    2    1    2    0    0 -0.35527136788E-14  0.17763568394E-14  0.71054273576E-14  0.91188000000E+02  0.91188000000E+02 0.  0.
    9900012    2    3    3    0    0  0.68853841456E+01  0.12128756196E+02  0.34077319660E+02  0.54367096196E+02  0.40000027399E+02 0.  0.
         12    1    3    3    0    0 -0.68853841456E+01 -0.12128756196E+02 -0.34077319660E+02  0.36820903804E+02  0.00000000000E+00 0. -1.
         11    1    4    4    0    0 -0.10332865989E+02 -0.83409567734E+00  0.17030417388E+02  0.19937375750E+02  0.51100000000E-03 0. -1.
        -11    1    4    4    0    0  0.56804239312E+01  0.92785123779E+01  0.19257269517E+02  0.22117875971E+02  0.51100000000E-03 0.  1.
         12    1    4    4    0    0  0.11537826203E+02  0.36843394952E+01 -0.22103672445E+01  0.12311844475E+02  0.00000000000E+00 0. -1.
</event>
<event>
 8    1  0.1271559E-006  0.9118800E+02  0.7816164E-02  0.1184000E+00
        -11   -1    0    0    0    0  0.00000000000E+00  0.00000000000E+00  0.45593999997E+02  0.45594000000E+02  0.51100000000E-03 0. -1.
         11   -1    0    0    0    0 -0.00000000000E+00 -0.00000000000E+00 -0.45593999997E+02  0.45594000000E+02  0.51100000000E-03 0.  1.
         23    2    1    2    0    0  0.00000000000E+00  0.00000000000E+00  0.17763568394E-14  0.91188000000E+02  0.91188000000E+02 0.  0.
    9900012    2    3    3    0    0  0.31644334582E+02 -0.12337909625E+02 -0.14219396352E+02  0.54367093470E+02  0.40000021185E+02 0.  0.
         12    1    3    3    0    0 -0.31644334582E+02  0.12337909625E+02  0.14219396352E+02  0.36820906530E+02  0.00000000000E+00 0. -1.
         11    1    4    4    0    0 -0.69498664246E+01 -0.37259383679E-01 -0.19246015615E+01  0.72115270930E+01  0.51100000000E-03 0. -1.
        -11    1    4    4    0    0  0.31024532282E+02 -0.75756644556E+01 -0.17907272514E+02  0.36613968706E+02  0.51100000000E-03 0.  1.
         12    1    4    4    0    0  0.75696687237E+01 -0.47249857860E+01  0.56124777232E+01  0.10541597671E+02  0.00000000000E+00 0. -1.
</event>
<event>
 8    1  0.1271559E-006  0.9118800E+02  0.7816164E-02  0.1184000E+00
        -11   -1    0    0    0    0  0.00000000000E+00  0.00000000000E+00  0.45593999997E+02  0.45594000000E+02  0.51100000000E-03 0. -1.
         11   -1    0    0    0    0 -0.00000000000E+00 -0.00000000000E+00 -0.45593999997E+02  0.45594000000E+02  0.51100000000E-03 0.  1.
         23    2    1    2    0    0 -0.17763568394E-14 -0.71054273576E-14 -0.35527136788E-14  0.91188000000E+02  0.91188000000E+02 0.  0.
    9900012    2    3    3    0    0 -0.75237573390E+01 -0.17489824696E+02 -0.31516278100E+02  0.54367127146E+02  0.40000097956E+02 0.  0.
         12    1    3    3    0    0  0.75237573390E+01  0.17489824696E+02  0.31516278100E+02  0.36820872854E+02  0.00000000000E+00 0. -1.
         11    1    4    4    0    0  0.17437064943E+01  0.11858684956E+00 -0.18530907199E+01  0.25472574774E+01  0.51100000000E-03 0. -1.
        -11    1    4    4    0    0 -0.58109797808E+01 -0.26065708557E+02 -0.32674844565E+02  0.42199930286E+02  0.51100000000E-03 0.  1.
         12    1    4    4    0    0 -0.34564840525E+01  0.84572970109E+01  0.30116571840E+01  0.96199393828E+01  0.00000000000E+00 0. -1.
</event>
<event>
 8    1  0.1271559E-006  0.9118800E+02  0.7816164E-02  0.1184000E+00
        -11   -1    0    0    0    0  0.00000000000E+00  0.00000000000E+00  0.45593999997E+02  0.45594000000E+02  0.51100000000E-03 0. -1.
         11   -1    0    0    0    0 -0.00000000000E+00 -0.00000000000E+00 -0.45593999997E+02  0.45594000000E+02  0.51100000000E-03 0.  1.
         23    2    1    2    0    0 -0.35527136788E-14  0.88817841970E-15 -0.35527136788E-14  0.91188000000E+02  0.91188000000E+02 0.  0.
    9900012    2    3    3    0    0 -0.25262054321E+02  0.55091855689E+01 -0.26215585106E+02  0.54367089954E+02  0.40000013169E+02 0.  0.
         12    1    3    3    0    0  0.25262054321E+02 -0.55091855689E+01  0.26215585106E+02  0.36820910046E+02  0.00000000000E+00 0. -1.
         11    1    4    4    0    0  0.82759279320E+00 -0.26778115193E+01  0.95397718220E+00  0.29606852399E+01  0.51100000000E-03 0. -1.
        -11    1    4    4    0    0 -0.20587072795E+02 -0.17477342345E+01  0.13536414113E+01  0.20705421671E+02  0.51100000000E-03 0.  1.
         12    1    4    4    0    0 -0.55025743189E+01  0.99347313227E+01 -0.28523203699E+02  0.30700983044E+02  0.00000000000E+00 0. -1.
</event>
<event>
 8    1  0.1271559E-006  0.9118800E+02  0.7816164E-02  0.1184000E+00
        -11   -1    0    0    0    0  0.00000000000E+00  0.00000000000E+00  0.45593999997E+02  0.45594000000E+02  0.51100000000E-03 0.  1.
         11   -1    0    0    0    0 -0.00000000000E+00 -0.00000000000E+00 -0.45593999997E+02  0.45594000000E+02  0.51100000000E-03 0. -1.
         23    2    1    2    0    0  0.00000000000E+00  0.00000000000E+00  0.35527136788E-14  0.91188000000E+02  0.91188000000E+02 0.  0.
    9900012    2    3    3    0    0  0.49708926625E+01  0.23540334230E+02 -0.27873554342E+02  0.54366917164E+02  0.39999619257E+02 0.  0.
        -12    1    3    3    0    0 -0.49708926625E+01 -0.23540334230E+02  0.27873554342E+02  0.36821082836E+02  0.00000000000E+00 0.  1.
         11    1    4    4    0    0  0.18054997990E+01  0.71266026029E+01 -0.29095569024E+02  0.30010005520E+02  0.51100000000E-03 0. -1.
        -11    1    4    4    0    0 -0.69766463366E+01  0.10409731262E+02  0.95836854073E+00  0.12567997835E+02  0.51100000000E-03 0.  1.
        -12    1    4    4    0    0  0.10142039200E+02  0.60040003648E+01  0.26364614122E+00  0.11788913809E+02  0.00000000000E+00 0.  1.
</event>
<event>
 8    1  0.1271559E-006  0.9118800E+02  0.7816164E-02  0.1184000E+00
        -11   -1    0    0    0    0  0.00000000000E+00  0.00000000000E+00  0.45593999997E+02  0.45594000000E+02  0.51100000000E-03 0.  1.
         11   -1    0    0    0    0 -0.00000000000E+00 -0.00000000000E+00 -0.45593999997E+02  0.45594000000E+02  0.51100000000E-03 0. -1.
         23    2    1    2    0    0  0.35527136788E-14  0.35527136788E-14  0.00000000000E+00  0.91188000000E+02  0.91188000000E+02 0.  0.
    9900012    2    3    3    0    0  0.18237696245E+02  0.30581131492E+02  0.93787322268E+01  0.54367084940E+02  0.40000001738E+02 0.  0.
         12    1    3    3    0    0 -0.18237696245E+02 -0.30581131492E+02 -0.93787322268E+01  0.36820915060E+02  0.00000000000E+00 0. -1.
         11    1    4    4    0    0  0.12412994138E+02  0.41669225694E+00  0.12526881582E+02  0.17640261289E+02  0.51100000000E-03 0. -1.
        -11    1    4    4    0    0  0.33637793358E+01  0.18158333852E+02  0.80314106753E+01  0.20138114544E+02  0.51100000000E-03 0.  1.
         12    1    4    4    0    0  0.24609227714E+01  0.12006105383E+02 -0.11179560031E+02  0.16588709107E+02  0.00000000000E+00 0. -1.
</event>
<event>
 8    1  0.1271559E-006  0.9118800E+02  0.7816164E-02  0.1184000E+00
        -11   -1    0    0    0    0  0.00000000000E+00  0.00000000000E+00  0.45593999997E+02  0.45594000000E+02  0.51100000000E-03 0. -1.
         11   -1    0    0    0    0 -0.00000000000E+00 -0.00000000000E+00 -0.45593999997E+02  0.45594000000E+02  0.51100000000E-03 0.  1.
         23    2    1    2    0    0 -0.17763568394E-14 -0.35527136788E-14  0.00000000000E+00  0.91188000000E+02  0.91188000000E+02 0.  0.
    9900012    2    3    3    0    0 -0.94640312996E+01 -0.26928417028E+02 -0.23260895558E+02  0.54367125564E+02  0.40000094349E+02 0.  0.
         12    1    3    3    0    0  0.94640312996E+01  0.26928417028E+02  0.23260895558E+02  0.36820874436E+02  0.00000000000E+00 0. -1.
         11    1    4    4    0    0 -0.41390880091E+01 -0.18155435282E+02 -0.68132262142E+01  0.19828563527E+02  0.51100000000E-03 0. -1.
        -11    1    4    4    0    0 -0.10624218821E+02 -0.59854158653E+01  0.43108079933E+01  0.12933765671E+02  0.51100000000E-03 0.  1.
        -12    1    4    4    0    0  0.52992755301E+01 -0.27875658806E+01 -0.20758477337E+02  0.21604796366E+02  0.00000000000E+00 0.  1.
</event>
<event>
 8    1  0.1271559E-006  0.9118800E+02  0.7816164E-02  0.1184000E+00
        -11   -1    0    0    0    0  0.00000000000E+00  0.00000000000E+00  0.45593999997E+02  0.45594000000E+02  0.51100000000E-03 0.  1.
         11   -1    0    0    0    0 -0.00000000000E+00 -0.00000000000E+00 -0.45593999997E+02  0.45594000000E+02  0.51100000000E-03 0. -1.
         23    2    1    2    0    0 -0.88817841970E-15  0.17763568394E-14  0.00000000000E+00  0.91188000000E+02  0.91188000000E+02 0.  0.
    9900012    2    3    3    0    0 -0.76403813566E+01 -0.15123787689E+02  0.32690643689E+02  0.54367047186E+02  0.39999915670E+02 0.  0.
         12    1    3    3    0    0  0.76403813566E+01  0.15123787689E+02 -0.32690643689E+02  0.36820952814E+02  0.00000000000E+00 0. -1.
         11    1    4    4    0    0  0.97352807003E+01 -0.79830222570E+00  0.22923033706E+02  0.24917432679E+02  0.51100000000E-03 0. -1.
        -11    1    4    4    0    0 -0.10785810153E+02 -0.15470045672E+02  0.12052942226E+02  0.22381452820E+02  0.51100000000E-03 0.  1.
        -12    1    4    4    0    0 -0.65898519040E+01  0.11445602092E+01 -0.22853322425E+01  0.70681616880E+01  0.00000000000E+00 0.  1.
</event>
<event>
 8    1  0.1271559E-006  0.9118800E+02  0.7816164E-02  0.1184000E+00
        -11   -1    0    0    0    0  0.00000000000E+00  0.00000000000E+00  0.45593999997E+02  0.45594000000E+02  0.51100000000E-03 0.  1.
         11   -1    0    0    0    0 -0.00000000000E+00 -0.00000000000E+00 -0.45593999997E+02  0.45594000000E+02  0.51100000000E-03 0. -1.
         23    2    1    2    0    0  0.17763568394E-14  0.00000000000E+00  0.17763568394E-14  0.91188000000E+02  0.91188000000E+02 0.  0.
    9900012    2    3    3    0    0  0.97012824826E+01 -0.34758612770E+02  0.73135911122E+01  0.54367290360E+02  0.40000470030E+02 0.  0.
         12    1    3    3    0    0 -0.97012824826E+01  0.34758612770E+02 -0.73135911122E+01  0.36820709640E+02  0.00000000000E+00 0. -1.
         11    1    4    4    0    0 -0.18459455994E+01 -0.61859859996E+01 -0.67387615449E+01  0.93319261336E+01  0.51100000000E-03 0. -1.
        -11    1    4    4    0    0  0.50057191954E+01 -0.17557307272E+02  0.23032131915E+02  0.29390395780E+02  0.51100000000E-03 0.  1.
        -12    1    4    4    0    0  0.65415088866E+01 -0.11015319498E+02 -0.89797792577E+01  0.15644968446E+02  0.00000000000E+00 0.  1.
</event>
<event>
 8    1  0.1271559E-006  0.9118800E+02  0.7816164E-02  0.1184000E+00
        -11   -1    0    0    0    0  0.00000000000E+00  0.00000000000E+00  0.45593999997E+02  0.45594000000E+02  0.51100000000E-03 0.  1.
         11   -1    0    0    0    0 -0.00000000000E+00 -0.00000000000E+00 -0.45593999997E+02  0.45594000000E+02  0.51100000000E-03 0. -1.
         23    2    1    2    0    0  0.00000000000E+00  0.00000000000E+00  0.35527136788E-14  0.91188000000E+02  0.91188000000E+02 0.  0.
    9900012    2    3    3    0    0  0.26418046026E+02 -0.18966322118E+02  0.17266889753E+02  0.54367081866E+02  0.39999994729E+02 0.  0.
         12    1    3    3    0    0 -0.26418046026E+02  0.18966322118E+02 -0.17266889753E+02  0.36820918134E+02  0.00000000000E+00 0. -1.
         11    1    4    4    0    0 -0.12389939488E+01  0.71997158857E+01 -0.74363703032E+00  0.73432970207E+01  0.51100000000E-03 0. -1.
        -11    1    4    4    0    0  0.11535885796E+02 -0.37975894665E+01 -0.28191811023E+01  0.12467803704E+02  0.51100000000E-03 0.  1.
        -12    1    4    4    0    0  0.16121154178E+02 -0.22368448537E+02  0.20829707886E+02  0.34555981141E+02  0.00000000000E+00 0.  1.
</event>
<event>
 8    1  0.1271559E-006  0.9118800E+02  0.7816164E-02  0.1184000E+00
        -11   -1    0    0    0    0  0.00000000000E+00  0.00000000000E+00  0.45593999997E+02  0.45594000000E+02  0.51100000000E-03 0.  1.
         11   -1    0    0    0    0 -0.00000000000E+00 -0.00000000000E+00 -0.45593999997E+02  0.45594000000E+02  0.51100000000E-03 0. -1.
         23    2    1    2    0    0  0.00000000000E+00  0.00000000000E+00  0.00000000000E+00  0.91188000000E+02  0.91188000000E+02 0.  0.
    9900012    2    3    3    0    0 -0.21319018130E+01 -0.17042317172E+02 -0.32569889856E+02  0.54367037151E+02  0.39999892792E+02 0.  0.
        -12    1    3    3    0    0  0.21319018130E+01  0.17042317172E+02  0.32569889856E+02  0.36820962849E+02  0.00000000000E+00 0.  1.
         11    1    4    4    0    0 -0.10382823651E+01  0.53953898738E+01 -0.95000321823E+01  0.10974464629E+02  0.51100000000E-03 0.  1.
        -11    1    4    4    0    0 -0.10152879324E+02 -0.25606951329E+01  0.14307345161E+01  0.10568118075E+02  0.51100000000E-03 0. -1.
         12    1    4    4    0    0  0.90592598764E+01 -0.19877011913E+02 -0.24500592190E+02  0.32824454447E+02  0.00000000000E+00 0. -1.
</event>
<event>
 8    1  0.1271559E-006  0.9118800E+02  0.7816164E-02  0.1184000E+00
        -11   -1    0    0    0    0  0.00000000000E+00  0.00000000000E+00  0.45593999997E+02  0.45594000000E+02  0.51100000000E-03 0.  1.
         11   -1    0    0    0    0 -0.00000000000E+00 -0.00000000000E+00 -0.45593999997E+02  0.45594000000E+02  0.51100000000E-03 0. -1.
         23    2    1    2    0    0 -0.35527136788E-14 -0.35527136788E-14  0.35527136788E-14  0.91188000000E+02  0.91188000000E+02 0.  0.
    9900012    2    3    3    0    0  0.10288983951E+02 -0.30592300304E+02  0.17720829993E+02  0.54367084146E+02  0.39999999928E+02 0.  0.
         12    1    3    3    0    0 -0.10288983951E+02  0.30592300304E+02 -0.17720829993E+02  0.36820915854E+02  0.00000000000E+00 0. -1.
         11    1    4    4    0    0 -0.57480734301E+01 -0.24131730118E+01  0.78875615837E+01  0.10053724690E+02  0.51100000000E-03 0. -1.
        -11    1    4    4    0    0  0.33718993223E+01 -0.91391913484E+01  0.17639094908E+02  0.20150240519E+02  0.51100000000E-03 0.  1.
         12    1    4    4    0    0  0.12665158059E+02 -0.19039935944E+02 -0.78058264988E+01  0.24163118937E+02  0.00000000000E+00 0. -1.
</event>
<event>
 8    1  0.1271559E-006  0.9118800E+02  0.7816164E-02  0.1184000E+00
        -11   -1    0    0    0    0  0.00000000000E+00  0.00000000000E+00  0.45593999997E+02  0.45594000000E+02  0.51100000000E-03 0. -1.
         11   -1    0    0    0    0 -0.00000000000E+00 -0.00000000000E+00 -0.45593999997E+02  0.45594000000E+02  0.51100000000E-03 0.  1.
         23    2    1    2    0    0  0.00000000000E+00  0.35527136788E-14  0.00000000000E+00  0.91188000000E+02  0.91188000000E+02 0.  0.
    9900012    2    3    3    0    0 -0.17453148091E+02  0.16272014046E+02 -0.28042641197E+02  0.54367074636E+02  0.39999978247E+02 0.  0.
         12    1    3    3    0    0  0.17453148091E+02 -0.16272014046E+02  0.28042641197E+02  0.36820925364E+02  0.00000000000E+00 0. -1.
         11    1    4    4    0    0 -0.95864642869E+01  0.18199923830E+02 -0.78165513546E+01  0.22005362989E+02  0.51100000000E-03 0. -1.
        -11    1    4    4    0    0 -0.11400875091E+02 -0.40515494811E+01 -0.39425899758E+00  0.12105802181E+02  0.51100000000E-03 0.  1.
         12    1    4    4    0    0  0.35341912868E+01  0.21236396966E+01 -0.19831830845E+02  0.20255909465E+02  0.00000000000E+00 0. -1.
</event>
<event>
 8    1  0.1271559E-006  0.9118800E+02  0.7816164E-02  0.1184000E+00
        -11   -1    0    0    0    0  0.00000000000E+00  0.00000000000E+00  0.45593999997E+02  0.45594000000E+02  0.51100000000E-03 0.  1.
         11   -1    0    0    0    0 -0.00000000000E+00 -0.00000000000E+00 -0.45593999997E+02  0.45594000000E+02  0.51100000000E-03 0. -1.
         23    2    1    2    0    0  0.00000000000E+00 -0.17763568394E-14  0.35527136788E-14  0.91188000000E+02  0.91188000000E+02 0.  0.
    9900012    2    3    3    0    0  0.23061515035E+02 -0.12191998827E+02  0.25986585915E+02  0.54367069015E+02  0.39999965433E+02 0.  0.
         12    1    3    3    0    0 -0.23061515035E+02  0.12191998827E+02 -0.25986585915E+02  0.36820930985E+02  0.00000000000E+00 0. -1.
         11    1    4    4    0    0  0.16403066903E+02  0.11609831445E+02  0.44953348259E+01  0.20592640080E+02  0.51100000000E-03 0.  1.
        -11    1    4    4    0    0  0.66001019771E+01 -0.15838162067E+02  0.10213010780E+02  0.19967831960E+02  0.51100000000E-03 0. -1.
         12    1    4    4    0    0  0.58346155630E-01 -0.79636682050E+01  0.11278240309E+02  0.13806596975E+02  0.00000000000E+00 0. -1.
</event>
<event>
 8    1  0.1271559E-006  0.9118800E+02  0.7816164E-02  0.1184000E+00
        -11   -1    0    0    0    0  0.00000000000E+00  0.00000000000E+00  0.45593999997E+02  0.45594000000E+02  0.51100000000E-03 0.  1.
         11   -1    0    0    0    0 -0.00000000000E+00 -0.00000000000E+00 -0.45593999997E+02  0.45594000000E+02  0.51100000000E-03 0. -1.
         23    2    1    2    0    0  0.00000000000E+00  0.17763568394E-14  0.00000000000E+00  0.91188000000E+02  0.91188000000E+02 0.  0.
    9900012    2    3    3    0    0 -0.27213222303E+02 -0.15619579235E+02  0.19267821243E+02  0.54367086662E+02  0.40000005663E+02 0.  0.
        -12    1    3    3    0    0  0.27213222303E+02  0.15619579235E+02 -0.19267821243E+02  0.36820913338E+02  0.00000000000E+00 0.  1.
         11    1    4    4    0    0 -0.22381005839E+02 -0.24005635328E+02  0.52899991743E+01  0.33244007601E+02  0.51100000000E-03 0. -1.
        -11    1    4    4    0    0 -0.14420007478E+01  0.11198872532E+02  0.87376010047E+01  0.14277247064E+02  0.51100000000E-03 0.  1.
         12    1    4    4    0    0 -0.33902157166E+01 -0.28128164395E+01  0.52402210645E+01  0.68458319970E+01  0.00000000000E+00 0. -1.
</event>
<event>
 8    1  0.1271559E-006  0.9118800E+02  0.7816164E-02  0.1184000E+00
        -11   -1    0    0    0    0  0.00000000000E+00  0.00000000000E+00  0.45593999997E+02  0.45594000000E+02  0.51100000000E-03 0.  1.
         11   -1    0    0    0    0 -0.00000000000E+00 -0.00000000000E+00 -0.45593999997E+02  0.45594000000E+02  0.51100000000E-03 0. -1.
         23    2    1    2    0    0  0.00000000000E+00 -0.44408920985E-15  0.00000000000E+00  0.91188000000E+02  0.91188000000E+02 0.  0.
    9900012    2    3    3    0    0 -0.48926658014E+01  0.32545392673E+01 -0.36349005700E+02  0.54367076330E+02  0.39999982111E+02 0.  0.
        -12    1    3    3    0    0  0.48926658014E+01 -0.32545392673E+01  0.36349005700E+02  0.36820923670E+02  0.00000000000E+00 0.  1.
         11    1    4    4    0    0 -0.20444067358E+00 -0.11837568294E+02  0.12619017310E+01  0.11906393885E+02  0.51100000000E-03 0. -1.
        -11    1    4    4    0    0  0.85969083647E+00 -0.17487552892E+01 -0.31081548020E+01  0.36684928691E+01  0.51100000000E-03 0.  1.
         12    1    4    4    0    0 -0.55479159643E+01  0.16840862851E+02 -0.34502752629E+02  0.38792189576E+02  0.00000000000E+00 0. -1.
</event>
<event>
 8    1  0.1271559E-006  0.9118800E+02  0.7816164E-02  0.1184000E+00
        -11   -1    0    0    0    0  0.00000000000E+00  0.00000000000E+00  0.45593999997E+02  0.45594000000E+02  0.51100000000E-03 0. -1.
         11   -1    0    0    0    0 -0.00000000000E+00 -0.00000000000E+00 -0.45593999997E+02  0.45594000000E+02  0.51100000000E-03 0.  1.
         23    2    1    2    0    0  0.88817841970E-15 -0.35527136788E-14 -0.71054273576E-14  0.91188000000E+02  0.91188000000E+02 0.  0.
    9900012    2    3    3    0    0  0.17927818609E+01 -0.22927768161E+02 -0.28755533661E+02  0.54367118210E+02  0.40000077584E+02 0.  0.
         12    1    3    3    0    0 -0.17927818609E+01  0.22927768161E+02  0.28755533661E+02  0.36820881790E+02  0.00000000000E+00 0. -1.
         11    1    4    4    0    0 -0.33347430813E+01 -0.25644847717E+01  0.48442217172E+01  0.64158848080E+01  0.51100000000E-03 0. -1.
        -11    1    4    4    0    0  0.12872333645E+02 -0.18371068582E+02 -0.13170590737E+02  0.26012642982E+02  0.51100000000E-03 0.  1.
         12    1    4    4    0    0 -0.77448087027E+01 -0.19922148079E+01 -0.20429164641E+02  0.21938590420E+02  0.00000000000E+00 0. -1.
</event>
<event>
 8    1  0.1271559E-006  0.9118800E+02  0.7816164E-02  0.1184000E+00
        -11   -1    0    0    0    0  0.00000000000E+00  0.00000000000E+00  0.45593999997E+02  0.45594000000E+02  0.51100000000E-03 0.  1.
         11   -1    0    0    0    0 -0.00000000000E+00 -0.00000000000E+00 -0.45593999997E+02  0.45594000000E+02  0.51100000000E-03 0. -1.
         23    2    1    2    0    0  0.00000000000E+00  0.35527136788E-14  0.00000000000E+00  0.91188000000E+02  0.91188000000E+02 0.  0.
    9900012    2    3    3    0    0  0.30455686840E+02  0.19777949150E+02 -0.60879389651E+01  0.54367093788E+02  0.40000021908E+02 0.  0.
        -12    1    3    3    0    0 -0.30455686840E+02 -0.19777949150E+02  0.60879389651E+01  0.36820906212E+02  0.00000000000E+00 0.  1.
         11    1    4    4    0    0  0.18329678119E+02  0.96178538759E+01 -0.24173059612E+01  0.20840431413E+02  0.51100000000E-03 0. -1.
        -11    1    4    4    0    0 -0.64865129041E+01  0.78174125261E+01 -0.94737200251E+01  0.13890218128E+02  0.51100000000E-03 0.  1.
        -12    1    4    4    0    0  0.18612521625E+02  0.23426827477E+01  0.58030870213E+01  0.19636444247E+02  0.00000000000E+00 0.  1.
</event>
<event>
 8    1  0.1271559E-006  0.9118800E+02  0.7816164E-02  0.1184000E+00
        -11   -1    0    0    0    0  0.00000000000E+00  0.00000000000E+00  0.45593999997E+02  0.45594000000E+02  0.51100000000E-03 0.  1.
         11   -1    0    0    0    0 -0.00000000000E+00 -0.00000000000E+00 -0.45593999997E+02  0.45594000000E+02  0.51100000000E-03 0. -1.
         23    2    1    2    0    0  0.17763568394E-14  0.44408920985E-15  0.00000000000E+00  0.91188000000E+02  0.91188000000E+02 0.  0.
    9900012    2    3    3    0    0  0.15146921325E+02 -0.28300905282E+01 -0.33441607761E+02  0.54367085187E+02  0.40000002300E+02 0.  0.
        -12    1    3    3    0    0 -0.15146921325E+02  0.28300905282E+01  0.33441607761E+02  0.36820914813E+02  0.00000000000E+00 0.  1.
         11    1    4    4    0    0 -0.85540005623E+01 -0.39067275284E+01 -0.25288349175E+02  0.26980252961E+02  0.51100000000E-03 0. -1.
        -11    1    4    4    0    0  0.31298612427E+00  0.98048581245E+00 -0.33579795638E+01  0.35121702342E+01  0.51100000000E-03 0.  1.
         12    1    4    4    0    0  0.23387935763E+02  0.96151187687E-01 -0.47952790226E+01  0.23874661991E+02  0.00000000000E+00 0. -1.
</event>
<event>
 8    1  0.1271559E-006  0.9118800E+02  0.7816164E-02  0.1184000E+00
        -11   -1    0    0    0    0  0.00000000000E+00  0.00000000000E+00  0.45593999997E+02  0.45594000000E+02  0.51100000000E-03 0. -1.
         11   -1    0    0    0    0 -0.00000000000E+00 -0.00000000000E+00 -0.45593999997E+02  0.45594000000E+02  0.51100000000E-03 0.  1.
         23    2    1    2    0    0  0.35527136788E-14  0.00000000000E+00  0.00000000000E+00  0.91188000000E+02  0.91188000000E+02 0.  0.
    9900012    2    3    3    0    0 -0.22779982892E+02 -0.28765141580E+02  0.30687747301E+01  0.54367104180E+02  0.40000045598E+02 0.  0.
         12    1    3    3    0    0  0.22779982892E+02  0.28765141580E+02 -0.30687747301E+01  0.36820895820E+02  0.00000000000E+00 0. -1.
         11    1    4    4    0    0  0.20628422343E+01  0.50614911436E+01  0.61789789298E+01  0.82494721987E+01  0.51100000000E-03 0. -1.
        -11    1    4    4    0    0 -0.91173766682E+01 -0.27576756379E+02 -0.29574455624E+01  0.29195042973E+02  0.51100000000E-03 0.  1.
         12    1    4    4    0    0 -0.15725448458E+02 -0.62498763446E+01 -0.15275863735E+00  0.16922589008E+02  0.00000000000E+00 0. -1.
</event>
<event>
 8    1  0.1271559E-006  0.9118800E+02  0.7816164E-02  0.1184000E+00
        -11   -1    0    0    0    0  0.00000000000E+00  0.00000000000E+00  0.45593999997E+02  0.45594000000E+02  0.51100000000E-03 0.  1.
         11   -1    0    0    0    0 -0.00000000000E+00 -0.00000000000E+00 -0.45593999997E+02  0.45594000000E+02  0.51100000000E-03 0. -1.
         23    2    1    2    0    0  0.00000000000E+00  0.71054273576E-14 -0.26645352591E-14  0.91188000000E+02  0.91188000000E+02 0.  0.
    9900012    2    3    3    0    0 -0.29556747431E+01 -0.36360943831E+02  0.49924836204E+01  0.54367093681E+02  0.40000021665E+02 0.  0.
        -12    1    3    3    0    0  0.29556747431E+01  0.36360943831E+02 -0.49924836204E+01  0.36820906319E+02  0.00000000000E+00 0.  1.
         11    1    4    4    0    0 -0.35922533045E+00  0.28989033517E+01 -0.59671483411E+01  0.66437597087E+01  0.51100000000E-03 0.  1.
        -11    1    4    4    0    0 -0.44306674132E+01 -0.20280467646E+02 -0.66194985011E+01  0.21788665455E+02  0.51100000000E-03 0. -1.
        -12    1    4    4    0    0  0.18342180006E+01 -0.18979379537E+02  0.17579130463E+02  0.25934668517E+02  0.00000000000E+00 0.  1.
</event>
<event>
 8    1  0.1271559E-006  0.9118800E+02  0.7816164E-02  0.1184000E+00
        -11   -1    0    0    0    0  0.00000000000E+00  0.00000000000E+00  0.45593999997E+02  0.45594000000E+02  0.51100000000E-03 0. -1.
         11   -1    0    0    0    0 -0.00000000000E+00 -0.00000000000E+00 -0.45593999997E+02  0.45594000000E+02  0.51100000000E-03 0.  1.
         23    2    1    2    0    0  0.00000000000E+00  0.00000000000E+00 -0.35527136788E-14  0.91188000000E+02  0.91188000000E+02 0.  0.
    9900012    2    3    3    0    0  0.25864779304E+02 -0.16574338131E+02 -0.20299854153E+02  0.54367087850E+02  0.40000008373E+02 0.  0.
         12    1    3    3    0    0 -0.25864779304E+02  0.16574338131E+02  0.20299854153E+02  0.36820912150E+02  0.00000000000E+00 0. -1.
         11    1    4    4    0    0  0.89062432909E+01  0.84989460035E+01  0.61985969530E+01  0.13783172972E+02  0.51100000000E-03 0. -1.
        -11    1    4    4    0    0  0.39124596485E+01 -0.52670437856E+01 -0.88708122226E+01  0.11033603241E+02  0.51100000000E-03 0.  1.
         12    1    4    4    0    0  0.13046076364E+02 -0.19806240348E+02 -0.17627638883E+02  0.29550311637E+02  0.00000000000E+00 0. -1.
</event>
<event>
 8    1  0.1271559E-006  0.9118800E+02  0.7816164E-02  0.1184000E+00
        -11   -1    0    0    0    0  0.00000000000E+00  0.00000000000E+00  0.45593999997E+02  0.45594000000E+02  0.51100000000E-03 0.  1.
         11   -1    0    0    0    0 -0.00000000000E+00 -0.00000000000E+00 -0.45593999997E+02  0.45594000000E+02  0.51100000000E-03 0. -1.
         23    2    1    2    0    0  0.00000000000E+00  0.35527136788E-14  0.00000000000E+00  0.91188000000E+02  0.91188000000E+02 0.  0.
    9900012    2    3    3    0    0  0.25367026640E+02 -0.20772793489E+02  0.16756653871E+02  0.54367076073E+02  0.39999981523E+02 0.  0.
        -12    1    3    3    0    0 -0.25367026640E+02  0.20772793489E+02 -0.16756653871E+02  0.36820923927E+02  0.00000000000E+00 0.  1.
         11    1    4    4    0    0  0.23011560070E+02 -0.25764062651E+02  0.99184352229E+01  0.35940147171E+02  0.51100000000E-03 0. -1.
        -11    1    4    4    0    0 -0.26297641963E+01  0.31626330586E+01  0.10959047397E+02  0.11705495620E+02  0.51100000000E-03 0.  1.
        -12    1    4    4    0    0  0.49852307661E+01  0.18286361028E+01 -0.41208287492E+01  0.67214332823E+01  0.00000000000E+00 0.  1.
</event>
<event>
 8    1  0.1271559E-006  0.9118800E+02  0.7816164E-02  0.1184000E+00
        -11   -1    0    0    0    0  0.00000000000E+00  0.00000000000E+00  0.45593999997E+02  0.45594000000E+02  0.51100000000E-03 0.  1.
         11   -1    0    0    0    0 -0.00000000000E+00 -0.00000000000E+00 -0.45593999997E+02  0.45594000000E+02  0.51100000000E-03 0. -1.
         23    2    1    2    0    0  0.00000000000E+00  0.71054273576E-14  0.35527136788E-14  0.91188000000E+02  0.91188000000E+02 0.  0.
    9900012    2    3    3    0    0 -0.24078697152E+01  0.29073341541E+02  0.22466083451E+02  0.54367055817E+02  0.39999935346E+02 0.  0.
         12    1    3    3    0    0  0.24078697152E+01 -0.29073341541E+02 -0.22466083451E+02  0.36820944183E+02  0.00000000000E+00 0. -1.
         11    1    4    4    0    0 -0.73028170935E+01  0.39978828607E+01  0.26371877974E+01  0.87332104411E+01  0.51100000000E-03 0. -1.
        -11    1    4    4    0    0 -0.91377228422E+01  0.25079931450E+01 -0.36683470236E+01  0.10160943780E+02  0.51100000000E-03 0.  1.
        -12    1    4    4    0    0  0.14032670220E+02  0.22567465535E+02  0.23497242677E+02  0.35472901596E+02  0.00000000000E+00 0.  1.
</event>
<event>
 8    1  0.1271559E-006  0.9118800E+02  0.7816164E-02  0.1184000E+00
        -11   -1    0    0    0    0  0.00000000000E+00  0.00000000000E+00  0.45593999997E+02  0.45594000000E+02  0.51100000000E-03 0. -1.
         11   -1    0    0    0    0 -0.00000000000E+00 -0.00000000000E+00 -0.45593999997E+02  0.45594000000E+02  0.51100000000E-03 0.  1.
         23    2    1    2    0    0  0.00000000000E+00  0.00000000000E+00 -0.17763568394E-14  0.91188000000E+02  0.91188000000E+02 0.  0.
    9900012    2    3    3    0    0  0.30820188890E+02  0.13593234673E+02  0.14870101328E+02  0.54367082228E+02  0.39999995554E+02 0.  0.
        -12    1    3    3    0    0 -0.30820188890E+02 -0.13593234673E+02 -0.14870101328E+02  0.36820917772E+02  0.00000000000E+00 0.  1.
         11    1    4    4    0    0  0.76673103420E+01  0.18262964398E+01  0.16195817707E+02  0.18011871586E+02  0.51100000000E-03 0. -1.
        -11    1    4    4    0    0  0.74975462510E+01  0.14065823498E+02  0.81599511942E+01  0.17906574050E+02  0.51100000000E-03 0.  1.
        -12    1    4    4    0    0  0.15655332297E+02 -0.22988852649E+01 -0.94856675727E+01  0.18448636592E+02  0.00000000000E+00 0.  1.
</event>
<event>
 8    1  0.1271559E-006  0.9118800E+02  0.7816164E-02  0.1184000E+00
        -11   -1    0    0    0    0  0.00000000000E+00  0.00000000000E+00  0.45593999997E+02  0.45594000000E+02  0.51100000000E-03 0. -1.
         11   -1    0    0    0    0 -0.00000000000E+00 -0.00000000000E+00 -0.45593999997E+02  0.45594000000E+02  0.51100000000E-03 0.  1.
         23    2    1    2    0    0 -0.35527136788E-14 -0.35527136788E-14  0.00000000000E+00  0.91188000000E+02  0.91188000000E+02 0.  0.
    9900012    2    3    3    0    0 -0.11742524412E+02 -0.21615290873E+02  0.27398388776E+02  0.54367090361E+02  0.40000014097E+02 0.  0.
        -12    1    3    3    0    0  0.11742524412E+02  0.21615290873E+02 -0.27398388776E+02  0.36820909639E+02  0.00000000000E+00 0.  1.
         11    1    4    4    0    0  0.22067122458E+00  0.35537686156E+01  0.85498862830E+01  0.92616695512E+01  0.51100000000E-03 0. -1.
        -11    1    4    4    0    0 -0.12845788007E+01 -0.51291828736E+00  0.18175148755E+02  0.18227705845E+02  0.51100000000E-03 0.  1.
         12    1    4    4    0    0 -0.10678616835E+02 -0.24656141201E+02  0.67335373843E+00  0.26877714965E+02  0.00000000000E+00 0. -1.
</event>
<event>
 8    1  0.1271559E-006  0.9118800E+02  0.7816164E-02  0.1184000E+00
        -11   -1    0    0    0    0  0.00000000000E+00  0.00000000000E+00  0.45593999997E+02  0.45594000000E+02  0.51100000000E-03 0.  1.
         11   -1    0    0    0    0 -0.00000000000E+00 -0.00000000000E+00 -0.45593999997E+02  0.45594000000E+02  0.51100000000E-03 0. -1.
         23    2    1    2    0    0  0.00000000000E+00  0.00000000000E+00 -0.88817841970E-15  0.91188000000E+02  0.91188000000E+02 0.  0.
    9900012    2    3    3    0    0 -0.35606932719E+02 -0.63035208815E+01 -0.69418349629E+01  0.54367121333E+02  0.40000084702E+02 0.  0.
        -12    1    3    3    0    0  0.35606932719E+02  0.63035208815E+01  0.69418349629E+01  0.36820878667E+02  0.00000000000E+00 0.  1.
         11    1    4    4    0    0 -0.42174038916E+01 -0.15158298738E+00  0.72992928262E+01  0.84314381342E+01  0.51100000000E-03 0.  1.
        -11    1    4    4    0    0 -0.27514458966E+02  0.49738330743E+00  0.23775589834E+01  0.27621470441E+02  0.51100000000E-03 0. -1.
        -12    1    4    4    0    0 -0.38750698615E+01 -0.66493212015E+01 -0.16618686772E+02  0.18314212757E+02  0.00000000000E+00 0.  1.
</event>
<event>
 8    1  0.1271559E-006  0.9118800E+02  0.7816164E-02  0.1184000E+00
        -11   -1    0    0    0    0  0.00000000000E+00  0.00000000000E+00  0.45593999997E+02  0.45594000000E+02  0.51100000000E-03 0. -1.
         11   -1    0    0    0    0 -0.00000000000E+00 -0.00000000000E+00 -0.45593999997E+02  0.45594000000E+02  0.51100000000E-03 0.  1.
         23    2    1    2    0    0 -0.35527136788E-14  0.35527136788E-14 -0.17763568394E-14  0.91188000000E+02  0.91188000000E+02 0.  0.
    9900012    2    3    3    0    0 -0.22070277705E+02 -0.28080458543E+02 -0.89537751287E+01  0.54367090193E+02  0.40000013713E+02 0.  0.
         12    1    3    3    0    0  0.22070277705E+02  0.28080458543E+02  0.89537751287E+01  0.36820909807E+02  0.00000000000E+00 0. -1.
         11    1    4    4    0    0  0.65485597246E+00 -0.62367743896E+01 -0.50866581215E+01  0.80746691720E+01  0.51100000000E-03 0. -1.
        -11    1    4    4    0    0 -0.26414963162E+02 -0.25546595860E+02 -0.10145874648E+02  0.38122403013E+02  0.51100000000E-03 0.  1.
         12    1    4    4    0    0  0.36898294846E+01  0.37029117067E+01  0.62787576408E+01  0.81700180076E+01  0.00000000000E+00 0. -1.
</event>
<event>
 8    1  0.1271559E-006  0.9118800E+02  0.7816164E-02  0.1184000E+00
        -11   -1    0    0    0    0  0.00000000000E+00  0.00000000000E+00  0.45593999997E+02  0.45594000000E+02  0.51100000000E-03 0.  1.
         11   -1    0    0    0    0 -0.00000000000E+00 -0.00000000000E+00 -0.45593999997E+02  0.45594000000E+02  0.51100000000E-03 0. -1.
         23    2    1    2    0    0  0.00000000000E+00  0.35527136788E-14  0.00000000000E+00  0.91188000000E+02  0.91188000000E+02 0.  0.
    9900012    2    3    3    0    0  0.63389904512E+01 -0.12104279767E+02  0.34191865587E+02  0.54367081204E+02  0.39999993221E+02 0.  0.
         12    1    3    3    0    0 -0.63389904512E+01  0.12104279767E+02 -0.34191865587E+02  0.36820918796E+02  0.00000000000E+00 0. -1.
         11    1    4    4    0    0  0.62098524858E+01  0.87187268782E+01  0.90549126106E+01  0.14020339116E+02  0.51100000000E-03 0. -1.
        -11    1    4    4    0    0 -0.84033576038E-01 -0.26183162626E+02  0.21268770646E+02  0.33733153896E+02  0.51100000000E-03 0.  1.
        -12    1    4    4    0    0  0.21317154134E+00  0.53601559801E+01  0.38681823302E+01  0.66135881923E+01  0.00000000000E+00 0.  1.
</event>
<event>
 8    1  0.1271559E-006  0.9118800E+02  0.7816164E-02  0.1184000E+00
        -11   -1    0    0    0    0  0.00000000000E+00  0.00000000000E+00  0.45593999997E+02  0.45594000000E+02  0.51100000000E-03 0. -1.
         11   -1    0    0    0    0 -0.00000000000E+00 -0.00000000000E+00 -0.45593999997E+02  0.45594000000E+02  0.51100000000E-03 0.  1.
         23    2    1    2    0    0  0.71054273576E-14  0.44408920985E-15  0.00000000000E+00  0.91188000000E+02  0.91188000000E+02 0.  0.
    9900012    2    3    3    0    0 -0.32242240047E+02 -0.30982196298E+01 -0.17510532237E+02  0.54367085463E+02  0.40000002929E+02 0.  0.
         12    1    3    3    0    0  0.32242240047E+02  0.30982196298E+01  0.17510532237E+02  0.36820914537E+02  0.00000000000E+00 0. -1.
         11    1    4    4    0    0 -0.83350604130E+00  0.35576307466E+00  0.25133294966E+01  0.26717269894E+01  0.51100000000E-03 0. -1.
        -11    1    4    4    0    0 -0.34433631251E+02 -0.13570192238E+02 -0.16878047093E+02  0.40677924633E+02  0.51100000000E-03 0.  1.
        -12    1    4    4    0    0  0.30248972450E+01  0.10116209534E+02 -0.31458146404E+01  0.11017433840E+02  0.00000000000E+00 0.  1.
</event>
<event>
 8    1  0.1271559E-006  0.9118800E+02  0.7816164E-02  0.1184000E+00
        -11   -1    0    0    0    0  0.00000000000E+00  0.00000000000E+00  0.45593999997E+02  0.45594000000E+02  0.51100000000E-03 0. -1.
         11   -1    0    0    0    0 -0.00000000000E+00 -0.00000000000E+00 -0.45593999997E+02  0.45594000000E+02  0.51100000000E-03 0.  1.
         23    2    1    2    0    0 -0.35527136788E-14 -0.35527136788E-14  0.88817841970E-15  0.91188000000E+02  0.91188000000E+02 0.  0.
    9900012    2    3    3    0    0 -0.21054909382E+02 -0.29474491840E+02 -0.66125381266E+01  0.54367074716E+02  0.39999978431E+02 0.  0.
        -12    1    3    3    0    0  0.21054909382E+02  0.29474491840E+02  0.66125381266E+01  0.36820925284E+02  0.00000000000E+00 0.  1.
         11    1    4    4    0    0 -0.44589093448E+01  0.48123652907E+01  0.42079470315E+01  0.77940715109E+01  0.51100000000E-03 0. -1.
        -11    1    4    4    0    0  0.56608161428E+01 -0.14218412494E+02 -0.44100315863E+01  0.15926596375E+02  0.51100000000E-03 0.  1.
         12    1    4    4    0    0 -0.22256816180E+02 -0.20068444636E+02 -0.64104535717E+01  0.30646406830E+02  0.00000000000E+00 0. -1.
</event>
<event>
 8    1  0.1271559E-006  0.9118800E+02  0.7816164E-02  0.1184000E+00
        -11   -1    0    0    0    0  0.00000000000E+00  0.00000000000E+00  0.45593999997E+02  0.45594000000E+02  0.51100000000E-03 0.  1.
         11   -1    0    0    0    0 -0.00000000000E+00 -0.00000000000E+00 -0.45593999997E+02  0.45594000000E+02  0.51100000000E-03 0. -1.
         23    2    1    2    0    0  0.00000000000E+00  0.00000000000E+00  0.44408920985E-15  0.91188000000E+02  0.91188000000E+02 0.  0.
    9900012    2    3    3    0    0 -0.11670089824E+02  0.34813032890E+02  0.27644426910E+01  0.54367076616E+02  0.39999982761E+02 0.  0.
        -12    1    3    3    0    0  0.11670089824E+02 -0.34813032890E+02 -0.27644426910E+01  0.36820923384E+02  0.00000000000E+00 0.  1.
         11    1    4    4    0    0 -0.95247515434E+01  0.19642818841E+02  0.85601293998E+01  0.23448604214E+02  0.51100000000E-03 0. -1.
        -11    1    4    4    0    0  0.57389774305E+01  0.50472905554E+00  0.76080893259E+01  0.95432508517E+01  0.51100000000E-03 0.  1.
         12    1    4    4    0    0 -0.78843157112E+01  0.14665484993E+02 -0.13403776035E+02  0.21375221550E+02  0.00000000000E+00 0. -1.
</event>
<event>
 8    1  0.1271559E-006  0.9118800E+02  0.7816164E-02  0.1184000E+00
        -11   -1    0    0    0    0  0.00000000000E+00  0.00000000000E+00  0.45593999997E+02  0.45594000000E+02  0.51100000000E-03 0. -1.
         11   -1    0    0    0    0 -0.00000000000E+00 -0.00000000000E+00 -0.45593999997E+02  0.45594000000E+02  0.51100000000E-03 0.  1.
         23    2    1    2    0    0  0.00000000000E+00 -0.33306690739E-15  0.35527136788E-14  0.91188000000E+02  0.91188000000E+02 0.  0.
    9900012    2    3    3    0    0  0.36386703833E+02 -0.82209445506E+00 -0.55777838991E+01  0.54367085720E+02  0.40000003517E+02 0.  0.
         12    1    3    3    0    0 -0.36386703833E+02  0.82209445506E+00  0.55777838991E+01  0.36820914280E+02  0.00000000000E+00 0. -1.
         11    1    4    4    0    0 -0.10544196250E+01 -0.50350755106E+01 -0.88270761441E+01  0.10216704931E+02  0.51100000000E-03 0. -1.
        -11    1    4    4    0    0  0.21791053017E+02 -0.13547812236E+01  0.12478641734E+02  0.25147602739E+02  0.51100000000E-03 0.  1.
        -12    1    4    4    0    0  0.15650070441E+02  0.55677622791E+01 -0.92293494888E+01  0.19002778049E+02  0.00000000000E+00 0.  1.
</event>
<event>
 8    1  0.1271559E-006  0.9118800E+02  0.7816164E-02  0.1184000E+00
        -11   -1    0    0    0    0  0.00000000000E+00  0.00000000000E+00  0.45593999997E+02  0.45594000000E+02  0.51100000000E-03 0.  1.
         11   -1    0    0    0    0 -0.00000000000E+00 -0.00000000000E+00 -0.45593999997E+02  0.45594000000E+02  0.51100000000E-03 0. -1.
         23    2    1    2    0    0 -0.35527136788E-14 -0.35527136788E-14 -0.17763568394E-14  0.91188000000E+02  0.91188000000E+02 0.  0.
    9900012    2    3    3    0    0  0.19335058680E+02  0.30610063091E+02  0.67052026613E+01  0.54367079325E+02  0.39999988937E+02 0.  0.
         12    1    3    3    0    0 -0.19335058680E+02 -0.30610063091E+02 -0.67052026613E+01  0.36820920675E+02  0.00000000000E+00 0. -1.
         11    1    4    4    0    0  0.44445550280E+01  0.14774322777E+02 -0.80013869003E+01  0.17379783529E+02  0.51100000000E-03 0.  1.
        -11    1    4    4    0    0  0.38999899089E+01 -0.72766221549E+01  0.47610226346E+01  0.95302931782E+01  0.51100000000E-03 0. -1.
         12    1    4    4    0    0  0.10990513744E+02  0.23112362469E+02  0.99455669270E+01  0.27457002618E+02  0.00000000000E+00 0. -1.
</event>
<event>
 8    1  0.1271559E-006  0.9118800E+02  0.7816164E-02  0.1184000E+00
        -11   -1    0    0    0    0  0.00000000000E+00  0.00000000000E+00  0.45593999997E+02  0.45594000000E+02  0.51100000000E-03 0. -1.
         11   -1    0    0    0    0 -0.00000000000E+00 -0.00000000000E+00 -0.45593999997E+02  0.45594000000E+02  0.51100000000E-03 0.  1.
         23    2    1    2    0    0  0.00000000000E+00  0.00000000000E+00  0.00000000000E+00  0.91188000000E+02  0.91188000000E+02 0.  0.
    9900012    2    3    3    0    0 -0.12325305473E+02 -0.30999620343E+02 -0.15585110611E+02  0.54367010209E+02  0.39999831373E+02 0.  0.
         12    1    3    3    0    0  0.12325305473E+02  0.30999620343E+02  0.15585110611E+02  0.36820989791E+02  0.00000000000E+00 0. -1.
         11    1    4    4    0    0 -0.30571710431E+01 -0.58865285857E+01  0.12443026262E+02  0.14100582130E+02  0.51100000000E-03 0. -1.
        -11    1    4    4    0    0  0.16871503262E+01 -0.97560599680E+01 -0.77742049386E+01  0.12588305883E+02  0.51100000000E-03 0.  1.
         12    1    4    4    0    0 -0.10955284756E+02 -0.15357031790E+02 -0.20253931935E+02  0.27678122196E+02  0.00000000000E+00 0. -1.
</event>
<event>
 8    1  0.1271559E-006  0.9118800E+02  0.7816164E-02  0.1184000E+00
        -11   -1    0    0    0    0  0.00000000000E+00  0.00000000000E+00  0.45593999997E+02  0.45594000000E+02  0.51100000000E-03 0. -1.
         11   -1    0    0    0    0 -0.00000000000E+00 -0.00000000000E+00 -0.45593999997E+02  0.45594000000E+02  0.51100000000E-03 0.  1.
         23    2    1    2    0    0  0.00000000000E+00  0.00000000000E+00  0.00000000000E+00  0.91188000000E+02  0.91188000000E+02 0.  0.
    9900012    2    3    3    0    0 -0.29093560857E+02 -0.16789601690E+02 -0.15081571983E+02  0.54367084453E+02  0.40000000627E+02 0.  0.
         12    1    3    3    0    0  0.29093560857E+02  0.16789601690E+02  0.15081571983E+02  0.36820915547E+02  0.00000000000E+00 0. -1.
         11    1    4    4    0    0 -0.16347151805E+02 -0.14105655083E+02  0.41635590229E+01  0.21989408847E+02  0.51100000000E-03 0. -1.
        -11    1    4    4    0    0 -0.57466526215E+01  0.86149280731E+01 -0.19049183403E+01  0.10529468942E+02  0.51100000000E-03 0.  1.
         12    1    4    4    0    0 -0.69997564307E+01 -0.11298874680E+02 -0.17340212665E+02  0.21848206663E+02  0.00000000000E+00 0. -1.
</event>
<event>
 8    1  0.1271559E-006  0.9118800E+02  0.7816164E-02  0.1184000E+00
        -11   -1    0    0    0    0  0.00000000000E+00  0.00000000000E+00  0.45593999997E+02  0.45594000000E+02  0.51100000000E-03 0.  1.
         11   -1    0    0    0    0 -0.00000000000E+00 -0.00000000000E+00 -0.45593999997E+02  0.45594000000E+02  0.51100000000E-03 0. -1.
         23    2    1    2    0    0  0.88817841970E-15  0.00000000000E+00  0.00000000000E+00  0.91188000000E+02  0.91188000000E+02 0.  0.
    9900012    2    3    3    0    0 -0.65256704255E+01 -0.31938627255E+02  0.17120729161E+02  0.54367086751E+02  0.40000005867E+02 0.  0.
        -12    1    3    3    0    0  0.65256704255E+01  0.31938627255E+02 -0.17120729161E+02  0.36820913249E+02  0.00000000000E+00 0.  1.
         11    1    4    4    0    0 -0.23661658647E+01  0.62178022878E+01 -0.11067164307E+01  0.67442292153E+01  0.51100000000E-03 0.  1.
        -11    1    4    4    0    0  0.12901958777E+01 -0.29214349606E+02  0.21890747324E+02  0.36528723588E+02  0.51100000000E-03 0. -1.
         12    1    4    4    0    0 -0.54497004384E+01 -0.89420799370E+01 -0.36633017321E+01  0.11094133948E+02  0.00000000000E+00 0. -1.
</event>
<event>
 8    1  0.1271559E-006  0.9118800E+02  0.7816164E-02  0.1184000E+00
        -11   -1    0    0    0    0  0.00000000000E+00  0.00000000000E+00  0.45593999997E+02  0.45594000000E+02  0.51100000000E-03 0. -1.
         11   -1    0    0    0    0 -0.00000000000E+00 -0.00000000000E+00 -0.45593999997E+02  0.45594000000E+02  0.51100000000E-03 0.  1.
         23    2    1    2    0    0  0.00000000000E+00  0.00000000000E+00 -0.35527136788E-14  0.91188000000E+02  0.91188000000E+02 0.  0.
    9900012    2    3    3    0    0  0.17007785940E+02 -0.24611432615E+02  0.21466141085E+02  0.54367046577E+02  0.39999914281E+02 0.  0.
        -12    1    3    3    0    0 -0.17007785940E+02  0.24611432615E+02 -0.21466141085E+02  0.36820953423E+02  0.00000000000E+00 0.  1.
         11    1    4    4    0    0 -0.25119798964E+01 -0.48870690212E+01  0.68197401413E+01  0.87579873529E+01  0.51100000000E-03 0. -1.
        -11    1    4    4    0    0 -0.15025576925E+01  0.53872368502E+01  0.11401256078E+02  0.12699159063E+02  0.51100000000E-03 0.  1.
        -12    1    4    4    0    0  0.21022323528E+02 -0.25111600444E+02  0.32451448652E+01  0.32909900161E+02  0.00000000000E+00 0.  1.
</event>
<event>
 8    1  0.1271559E-006  0.9118800E+02  0.7816164E-02  0.1184000E+00
        -11   -1    0    0    0    0  0.00000000000E+00  0.00000000000E+00  0.45593999997E+02  0.45594000000E+02  0.51100000000E-03 0. -1.
         11   -1    0    0    0    0 -0.00000000000E+00 -0.00000000000E+00 -0.45593999997E+02  0.45594000000E+02  0.51100000000E-03 0.  1.
         23    2    1    2    0    0  0.00000000000E+00  0.00000000000E+00 -0.17763568394E-14  0.91188000000E+02  0.91188000000E+02 0.  0.
    9900012    2    3    3    0    0 -0.28705420507E+02  0.21418539592E+02 -0.85454164268E+01  0.54367093621E+02  0.40000021527E+02 0.  0.
         12    1    3    3    0    0  0.28705420507E+02 -0.21418539592E+02  0.85454164268E+01  0.36820906379E+02  0.00000000000E+00 0. -1.
         11    1    4    4    0    0 -0.31975993149E+02  0.84953279331E+01 -0.16429124635E+02  0.36939827708E+02  0.51100000000E-03 0. -1.
        -11    1    4    4    0    0  0.29935189459E+01  0.98437390519E+01  0.15844870685E+01  0.10410137066E+02  0.51100000000E-03 0.  1.
         12    1    4    4    0    0  0.27705369662E+00  0.30794726067E+01  0.62992211395E+01  0.70171288466E+01  0.00000000000E+00 0. -1.
</event>
<event>
 8    1  0.1271559E-006  0.9118800E+02  0.7816164E-02  0.1184000E+00
        -11   -1    0    0    0    0  0.00000000000E+00  0.00000000000E+00  0.45593999997E+02  0.45594000000E+02  0.51100000000E-03 0. -1.
         11   -1    0    0    0    0 -0.00000000000E+00 -0.00000000000E+00 -0.45593999997E+02  0.45594000000E+02  0.51100000000E-03 0.  1.
         23    2    1    2    0    0  0.17763568394E-14  0.35527136788E-14  0.17763568394E-14  0.91188000000E+02  0.91188000000E+02 0.  0.
    9900012    2    3    3    0    0  0.14827925601E+02  0.30949267652E+02  0.13343853211E+02  0.54367041778E+02  0.39999903342E+02 0.  0.
        -12    1    3    3    0    0 -0.14827925601E+02 -0.30949267652E+02 -0.13343853211E+02  0.36820958222E+02  0.00000000000E+00 0.  1.
         11    1    4    4    0    0  0.47239340290E+01  0.10206134668E+02 -0.66658901713E+01  0.13073439853E+02  0.51100000000E-03 0. -1.
        -11    1    4    4    0    0  0.12100901296E+02  0.31697726084E+01 -0.24081664727E+01  0.12738859313E+02  0.51100000000E-03 0.  1.
         12    1    4    4    0    0 -0.19969097239E+01  0.17573360376E+02  0.22417909855E+02  0.28554742612E+02  0.00000000000E+00 0. -1.
</event>
<event>
 8    1  0.1271559E-006  0.9118800E+02  0.7816164E-02  0.1184000E+00
        -11   -1    0    0    0    0  0.00000000000E+00  0.00000000000E+00  0.45593999997E+02  0.45594000000E+02  0.51100000000E-03 0. -1.
         11   -1    0    0    0    0 -0.00000000000E+00 -0.00000000000E+00 -0.45593999997E+02  0.45594000000E+02  0.51100000000E-03 0.  1.
         23    2    1    2    0    0 -0.88817841970E-15  0.00000000000E+00  0.00000000000E+00  0.91188000000E+02  0.91188000000E+02 0.  0.
    9900012    2    3    3    0    0  0.67352802419E+01 -0.16127089266E+02 -0.32408816405E+02  0.54367103909E+02  0.40000044982E+02 0.  0.
         12    1    3    3    0    0 -0.67352802419E+01  0.16127089266E+02  0.32408816405E+02  0.36820896091E+02  0.00000000000E+00 0. -1.
         11    1    4    4    0    0 -0.93158245572E+01 -0.11328776179E+02 -0.25687035096E+02  0.29579545791E+02  0.51100000000E-03 0. -1.
        -11    1    4    4    0    0  0.50492917861E+01 -0.54458079679E+01 -0.10739550930E+02  0.13057186772E+02  0.51100000000E-03 0.  1.
        -12    1    4    4    0    0  0.11001813013E+02  0.64749488097E+00  0.40177696210E+01  0.11730371346E+02  0.00000000000E+00 0.  1.
</event>
<event>
 8    1  0.1271559E-006  0.9118800E+02  0.7816164E-02  0.1184000E+00
        -11   -1    0    0    0    0  0.00000000000E+00  0.00000000000E+00  0.45593999997E+02  0.45594000000E+02  0.51100000000E-03 0. -1.
         11   -1    0    0    0    0 -0.00000000000E+00 -0.00000000000E+00 -0.45593999997E+02  0.45594000000E+02  0.51100000000E-03 0.  1.
         23    2    1    2    0    0 -0.17763568394E-14  0.00000000000E+00  0.35527136788E-14  0.91188000000E+02  0.91188000000E+02 0.  0.
    9900012    2    3    3    0    0  0.11692364158E+02  0.16806920463E+02  0.30603854757E+02  0.54367083648E+02  0.39999998791E+02 0.  0.
        -12    1    3    3    0    0 -0.11692364158E+02 -0.16806920463E+02 -0.30603854757E+02  0.36820916352E+02  0.00000000000E+00 0.  1.
         11    1    4    4    0    0 -0.25727513568E+01  0.22912523470E+02  0.12034141265E+02  0.26008139833E+02  0.51100000000E-03 0. -1.
        -11    1    4    4    0    0  0.56316349421E+01  0.23621764768E+01  0.14274195064E+02  0.15525715276E+02  0.51100000000E-03 0.  1.
        -12    1    4    4    0    0  0.86334805724E+01 -0.84677794838E+01  0.42955184275E+01  0.12833228539E+02  0.00000000000E+00 0.  1.
</event>
<event>
 8    1  0.1271559E-006  0.9118800E+02  0.7816164E-02  0.1184000E+00
        -11   -1    0    0    0    0  0.00000000000E+00  0.00000000000E+00  0.45593999997E+02  0.45594000000E+02  0.51100000000E-03 0. -1.
         11   -1    0    0    0    0 -0.00000000000E+00 -0.00000000000E+00 -0.45593999997E+02  0.45594000000E+02  0.51100000000E-03 0.  1.
         23    2    1    2    0    0 -0.10658141036E-13 -0.35527136788E-14 -0.17763568394E-14  0.91188000000E+02  0.91188000000E+02 0.  0.
    9900012    2    3    3    0    0  0.23009486102E+02  0.27831135641E+02  0.71952535301E+01  0.54367078839E+02  0.39999987830E+02 0.  0.
        -12    1    3    3    0    0 -0.23009486102E+02 -0.27831135641E+02 -0.71952535301E+01  0.36820921161E+02  0.00000000000E+00 0.  1.
         11    1    4    4    0    0  0.18963099067E+02 -0.33497459311E+01 -0.48311948060E+01  0.19853472431E+02  0.51100000000E-03 0.  1.
        -11    1    4    4    0    0 -0.43155223190E+00  0.59502611968E+01  0.53974426331E+01  0.80451372194E+01  0.51100000000E-03 0. -1.
        -12    1    4    4    0    0  0.44779392661E+01  0.25230620376E+02  0.66290057029E+01  0.26468469189E+02  0.00000000000E+00 0.  1.
</event>
<event>
 8    1  0.1271559E-006  0.9118800E+02  0.7816164E-02  0.1184000E+00
        -11   -1    0    0    0    0  0.00000000000E+00  0.00000000000E+00  0.45593999997E+02  0.45594000000E+02  0.51100000000E-03 0. -1.
         11   -1    0    0    0    0 -0.00000000000E+00 -0.00000000000E+00 -0.45593999997E+02  0.45594000000E+02  0.51100000000E-03 0.  1.
         23    2    1    2    0    0 -0.17763568394E-14  0.71054273576E-14  0.00000000000E+00  0.91188000000E+02  0.91188000000E+02 0.  0.
    9900012    2    3    3    0    0 -0.12166577401E+02  0.31490892937E+02 -0.14699580476E+02  0.54367087331E+02  0.40000007188E+02 0.  0.
        -12    1    3    3    0    0  0.12166577401E+02 -0.31490892937E+02  0.14699580476E+02  0.36820912669E+02  0.00000000000E+00 0.  1.
         11    1    4    4    0    0 -0.15951258712E+02  0.22898313494E+02 -0.14734237989E+01  0.27945418109E+02  0.51100000000E-03 0. -1.
        -11    1    4    4    0    0 -0.63343262956E+00 -0.28342948388E+01  0.42082961686E+01  0.51131419922E+01  0.51100000000E-03 0.  1.
        -12    1    4    4    0    0  0.44181139407E+01  0.11426874282E+02 -0.17434452846E+02  0.21308527230E+02  0.00000000000E+00 0.  1.
</event>
<event>
 8    1  0.1271559E-006  0.9118800E+02  0.7816164E-02  0.1184000E+00
        -11   -1    0    0    0    0  0.00000000000E+00  0.00000000000E+00  0.45593999997E+02  0.45594000000E+02  0.51100000000E-03 0. -1.
         11   -1    0    0    0    0 -0.00000000000E+00 -0.00000000000E+00 -0.45593999997E+02  0.45594000000E+02  0.51100000000E-03 0.  1.
         23    2    1    2    0    0  0.00000000000E+00  0.00000000000E+00  0.35527136788E-14  0.91188000000E+02  0.91188000000E+02 0.  0.
    9900012    2    3    3    0    0  0.81291673125E+01  0.19990738010E+02 -0.29833991864E+02  0.54367081518E+02  0.39999993936E+02 0.  0.
         12    1    3    3    0    0 -0.81291673125E+01 -0.19990738010E+02  0.29833991864E+02  0.36820918482E+02  0.00000000000E+00 0. -1.
         11    1    4    4    0    0 -0.80347123995E+01 -0.80934306272E+01 -0.29936771617E+01  0.11790772912E+02  0.51100000000E-03 0. -1.
        -11    1    4    4    0    0  0.38200042641E+01  0.90315204249E+01 -0.11806730365E+02  0.15347953477E+02  0.51100000000E-03 0.  1.
         12    1    4    4    0    0  0.12343875448E+02  0.19052648212E+02 -0.15033584337E+02  0.27228355128E+02  0.00000000000E+00 0. -1.
</event>
<event>
 8    1  0.1271559E-006  0.9118800E+02  0.7816164E-02  0.1184000E+00
        -11   -1    0    0    0    0  0.00000000000E+00  0.00000000000E+00  0.45593999997E+02  0.45594000000E+02  0.51100000000E-03 0.  1.
         11   -1    0    0    0    0 -0.00000000000E+00 -0.00000000000E+00 -0.45593999997E+02  0.45594000000E+02  0.51100000000E-03 0. -1.
         23    2    1    2    0    0 -0.26645352591E-14  0.00000000000E+00  0.00000000000E+00  0.91188000000E+02  0.91188000000E+02 0.  0.
    9900012    2    3    3    0    0 -0.43239988053E+01 -0.10800606581E+02  0.34934618003E+02  0.54367114579E+02  0.40000069306E+02 0.  0.
         12    1    3    3    0    0  0.43239988053E+01  0.10800606581E+02 -0.34934618003E+02  0.36820885421E+02  0.00000000000E+00 0. -1.
         11    1    4    4    0    0  0.45892910849E+01  0.16855209739E+01  0.25654438885E+01  0.55212386492E+01  0.51100000000E-03 0. -1.
        -11    1    4    4    0    0 -0.18946823747E+02  0.78554360993E+00  0.11581610097E+02  0.22220101295E+02  0.51100000000E-03 0.  1.
        -12    1    4    4    0    0  0.10033533856E+02 -0.13271671165E+02  0.20787564018E+02  0.26625774635E+02  0.00000000000E+00 0.  1.
</event>
<event>
 8    1  0.1271559E-006  0.9118800E+02  0.7816164E-02  0.1184000E+00
        -11   -1    0    0    0    0  0.00000000000E+00  0.00000000000E+00  0.45593999997E+02  0.45594000000E+02  0.51100000000E-03 0. -1.
         11   -1    0    0    0    0 -0.00000000000E+00 -0.00000000000E+00 -0.45593999997E+02  0.45594000000E+02  0.51100000000E-03 0.  1.
         23    2    1    2    0    0 -0.35527136788E-14  0.00000000000E+00  0.10658141036E-13  0.91188000000E+02  0.91188000000E+02 0.  0.
    9900012    2    3    3    0    0  0.24062721746E+02  0.10834114346E+02 -0.25678528739E+02  0.54367089505E+02  0.40000012145E+02 0.  0.
         12    1    3    3    0    0 -0.24062721746E+02 -0.10834114346E+02  0.25678528739E+02  0.36820910495E+02  0.00000000000E+00 0. -1.
         11    1    4    4    0    0  0.10788490500E+02  0.51434638075E+01  0.94539528203E+01  0.15238896660E+02  0.51100000000E-03 0. -1.
        -11    1    4    4    0    0  0.13403346689E+02  0.25987184227E+01 -0.24417755301E+02  0.27975521695E+02  0.51100000000E-03 0.  1.
         12    1    4    4    0    0 -0.12911544314E+00  0.30919321158E+01 -0.10714726259E+02  0.11152671151E+02  0.00000000000E+00 0. -1.
</event>
<event>
 8    1  0.1271559E-006  0.9118800E+02  0.7816164E-02  0.1184000E+00
        -11   -1    0    0    0    0  0.00000000000E+00  0.00000000000E+00  0.45593999997E+02  0.45594000000E+02  0.51100000000E-03 0. -1.
         11   -1    0    0    0    0 -0.00000000000E+00 -0.00000000000E+00 -0.45593999997E+02  0.45594000000E+02  0.51100000000E-03 0.  1.
         23    2    1    2    0    0 -0.35527136788E-14  0.00000000000E+00 -0.71054273576E-14  0.91188000000E+02  0.91188000000E+02 0.  0.
    9900012    2    3    3    0    0 -0.14349618831E+02  0.10291598914E+02 -0.32310216214E+02  0.54367100492E+02  0.40000037191E+02 0.  0.
         12    1    3    3    0    0  0.14349618831E+02 -0.10291598914E+02  0.32310216214E+02  0.36820899508E+02  0.00000000000E+00 0. -1.
         11    1    4    4    0    0  0.16579350586E+01 -0.23180224204E+01 -0.29627629183E+01  0.41109537788E+01  0.51100000000E-03 0. -1.
        -11    1    4    4    0    0  0.97990552502E+01 -0.32094432929E+01 -0.52776078765E+01  0.11583399985E+02  0.51100000000E-03 0.  1.
        -12    1    4    4    0    0 -0.25806609140E+02  0.15819064628E+02 -0.24069845419E+02  0.38672746728E+02  0.00000000000E+00 0.  1.
</event>
<event>
 8    1  0.1271559E-006  0.9118800E+02  0.7816164E-02  0.1184000E+00
        -11   -1    0    0    0    0  0.00000000000E+00  0.00000000000E+00  0.45593999997E+02  0.45594000000E+02  0.51100000000E-03 0. -1.
         11   -1    0    0    0    0 -0.00000000000E+00 -0.00000000000E+00 -0.45593999997E+02  0.45594000000E+02  0.51100000000E-03 0.  1.
         23    2    1    2    0    0  0.17763568394E-14  0.00000000000E+00  0.00000000000E+00  0.91188000000E+02  0.91188000000E+02 0.  0.
    9900012    2    3    3    0    0  0.99229193570E+01 -0.16852610151E+02  0.31197931801E+02  0.54367004004E+02  0.39999817228E+02 0.  0.
        -12    1    3    3    0    0 -0.99229193570E+01  0.16852610151E+02 -0.31197931801E+02  0.36820995996E+02  0.00000000000E+00 0.  1.
         11    1    4    4    0    0 -0.32994067807E+01 -0.38686308759E+01  0.13898449855E+02  0.14799300612E+02  0.51100000000E-03 0. -1.
        -11    1    4    4    0    0 -0.84987763511E+01 -0.36988845222E+00 -0.89273936651E+00  0.85535373250E+01  0.51100000000E-03 0.  1.
        -12    1    4    4    0    0  0.21721102489E+02 -0.12614090823E+02  0.18192221312E+02  0.31014166068E+02  0.00000000000E+00 0.  1.
</event>
<event>
 8    1  0.1271559E-006  0.9118800E+02  0.7816164E-02  0.1184000E+00
        -11   -1    0    0    0    0  0.00000000000E+00  0.00000000000E+00  0.45593999997E+02  0.45594000000E+02  0.51100000000E-03 0.  1.
         11   -1    0    0    0    0 -0.00000000000E+00 -0.00000000000E+00 -0.45593999997E+02  0.45594000000E+02  0.51100000000E-03 0. -1.
         23    2    1    2    0    0  0.00000000000E+00  0.88817841970E-15  0.35527136788E-14  0.91188000000E+02  0.91188000000E+02 0.  0.
    9900012    2    3    3    0    0  0.34312335727E+02 -0.70807673657E+01 -0.11327188187E+02  0.54367097760E+02  0.40000030964E+02 0.  0.
        -12    1    3    3    0    0 -0.34312335727E+02  0.70807673657E+01  0.11327188187E+02  0.36820902240E+02  0.00000000000E+00 0.  1.
         11    1    4    4    0    0 -0.90000811264E+00 -0.10719597838E+01 -0.35516683503E+01  0.38175202308E+01  0.51100000000E-03 0. -1.
        -11    1    4    4    0    0 -0.26950977954E-01  0.10549654951E+02 -0.45225099348E+01  0.11478198566E+02  0.51100000000E-03 0.  1.
         12    1    4    4    0    0  0.35239294817E+02 -0.16558462533E+02 -0.32530099020E+01  0.39071378964E+02  0.00000000000E+00 0. -1.
</event>
<event>
 8    1  0.1271559E-006  0.9118800E+02  0.7816164E-02  0.1184000E+00
        -11   -1    0    0    0    0  0.00000000000E+00  0.00000000000E+00  0.45593999997E+02  0.45594000000E+02  0.51100000000E-03 0. -1.
         11   -1    0    0    0    0 -0.00000000000E+00 -0.00000000000E+00 -0.45593999997E+02  0.45594000000E+02  0.51100000000E-03 0.  1.
         23    2    1    2    0    0  0.00000000000E+00 -0.35527136788E-14  0.00000000000E+00  0.91188000000E+02  0.91188000000E+02 0.  0.
    9900012    2    3    3    0    0 -0.21626323633E+02  0.25562062912E+02 -0.15318708490E+02  0.54367085237E+02  0.40000002414E+02 0.  0.
         12    1    3    3    0    0  0.21626323633E+02 -0.25562062912E+02  0.15318708490E+02  0.36820914763E+02  0.00000000000E+00 0. -1.
         11    1    4    4    0    0 -0.89883726404E+01 -0.17443002308E+01  0.93179768457E+01  0.13063618135E+02  0.51100000000E-03 0. -1.
        -11    1    4    4    0    0 -0.15265872278E+02  0.21575881957E+02 -0.22296279626E+02  0.34578745264E+02  0.51100000000E-03 0.  1.
        -12    1    4    4    0    0  0.26279212851E+01  0.57304811859E+01 -0.23404057097E+01  0.67247218373E+01  0.00000000000E+00 0.  1.
</event>
<event>
 8    1  0.1271559E-006  0.9118800E+02  0.7816164E-02  0.1184000E+00
        -11   -1    0    0    0    0  0.00000000000E+00  0.00000000000E+00  0.45593999997E+02  0.45594000000E+02  0.51100000000E-03 0. -1.
         11   -1    0    0    0    0 -0.00000000000E+00 -0.00000000000E+00 -0.45593999997E+02  0.45594000000E+02  0.51100000000E-03 0.  1.
         23    2    1    2    0    0 -0.35527136788E-14  0.00000000000E+00 -0.35527136788E-14  0.91188000000E+02  0.91188000000E+02 0.  0.
    9900012    2    3    3    0    0 -0.22547853100E+02  0.85655003822E+01 -0.27820947211E+02  0.54367101315E+02  0.40000039068E+02 0.  0.
         12    1    3    3    0    0  0.22547853100E+02 -0.85655003822E+01  0.27820947211E+02  0.36820898685E+02  0.00000000000E+00 0. -1.
         11    1    4    4    0    0  0.16837957711E+01  0.85279185964E+01  0.12663455747E+01  0.87843152927E+01  0.51100000000E-03 0. -1.
        -11    1    4    4    0    0 -0.12506522497E+02  0.74816698442E+01 -0.14418248078E+01  0.14644703741E+02  0.51100000000E-03 0.  1.
        -12    1    4    4    0    0 -0.11725126374E+02 -0.74440880585E+01 -0.27645467978E+02  0.30938082281E+02  0.00000000000E+00 0.  1.
</event>
<event>
 8    1  0.1271559E-006  0.9118800E+02  0.7816164E-02  0.1184000E+00
        -11   -1    0    0    0    0  0.00000000000E+00  0.00000000000E+00  0.45593999997E+02  0.45594000000E+02  0.51100000000E-03 0.  1.
         11   -1    0    0    0    0 -0.00000000000E+00 -0.00000000000E+00 -0.45593999997E+02  0.45594000000E+02  0.51100000000E-03 0. -1.
         23    2    1    2    0    0  0.17763568394E-14  0.35527136788E-14  0.00000000000E+00  0.91188000000E+02  0.91188000000E+02 0.  0.
    9900012    2    3    3    0    0 -0.14093641618E+02  0.10790152797E+01  0.33999775777E+02  0.54367085279E+02  0.40000002511E+02 0.  0.
         12    1    3    3    0    0  0.14093641618E+02 -0.10790152797E+01 -0.33999775777E+02  0.36820914721E+02  0.00000000000E+00 0. -1.
         11    1    4    4    0    0 -0.96992256786E+00 -0.34169399639E+01 -0.38241347733E+00  0.35724597735E+01  0.51100000000E-03 0. -1.
        -11    1    4    4    0    0  0.46687567320E+00  0.16017507325E+02  0.27230898940E+02  0.31595891682E+02  0.51100000000E-03 0.  1.
        -12    1    4    4    0    0 -0.13590594723E+02 -0.11521552082E+02  0.71512903139E+01  0.19198733824E+02  0.00000000000E+00 0.  1.
</event>
<event>
 8    1  0.1271559E-006  0.9118800E+02  0.7816164E-02  0.1184000E+00
        -11   -1    0    0    0    0  0.00000000000E+00  0.00000000000E+00  0.45593999997E+02  0.45594000000E+02  0.51100000000E-03 0.  1.
         11   -1    0    0    0    0 -0.00000000000E+00 -0.00000000000E+00 -0.45593999997E+02  0.45594000000E+02  0.51100000000E-03 0. -1.
         23    2    1    2    0    0 -0.17763568394E-14  0.00000000000E+00 -0.35527136788E-14  0.91188000000E+02  0.91188000000E+02 0.  0.
    9900012    2    3    3    0    0 -0.71780410812E+01 -0.20443691943E+02 -0.29770997356E+02  0.54367067128E+02  0.39999961131E+02 0.  0.
        -12    1    3    3    0    0  0.71780410812E+01  0.20443691943E+02  0.29770997356E+02  0.36820932872E+02  0.00000000000E+00 0.  1.
         11    1    4    4    0    0  0.46602167878E+01 -0.14896260296E+02 -0.11141107131E+02  0.19176560163E+02  0.51100000000E-03 0. -1.
        -11    1    4    4    0    0 -0.14681128743E+02 -0.82976199618E+01 -0.75224436961E+00  0.16880518655E+02  0.51100000000E-03 0.  1.
        -12    1    4    4    0    0  0.28428708742E+01  0.27501883152E+01 -0.17877645855E+02  0.18309988309E+02  0.00000000000E+00 0.  1.
</event>
<event>
 8    1  0.1271559E-006  0.9118800E+02  0.7816164E-02  0.1184000E+00
        -11   -1    0    0    0    0  0.00000000000E+00  0.00000000000E+00  0.45593999997E+02  0.45594000000E+02  0.51100000000E-03 0.  1.
         11   -1    0    0    0    0 -0.00000000000E+00 -0.00000000000E+00 -0.45593999997E+02  0.45594000000E+02  0.51100000000E-03 0. -1.
         23    2    1    2    0    0  0.00000000000E+00 -0.44408920985E-15  0.00000000000E+00  0.91188000000E+02  0.91188000000E+02 0.  0.
    9900012    2    3    3    0    0 -0.36261827591E+02  0.22024148410E+01  0.60008343704E+01  0.54367071379E+02  0.39999970823E+02 0.  0.
         12    1    3    3    0    0  0.36261827591E+02 -0.22024148410E+01 -0.60008343704E+01  0.36820928621E+02  0.00000000000E+00 0. -1.
         11    1    4    4    0    0  0.98834282322E+00 -0.42578126803E+01 -0.28539596980E+01  0.52202372145E+01  0.51100000000E-03 0. -1.
        -11    1    4    4    0    0 -0.71565417593E+01  0.14654719452E+02  0.74392111741E+01  0.17925366253E+02  0.51100000000E-03 0.  1.
        -12    1    4    4    0    0 -0.30093628655E+02 -0.81944919304E+01  0.14155828943E+01  0.31221467911E+02  0.00000000000E+00 0.  1.
</event>
<event>
 8    1  0.1271559E-006  0.9118800E+02  0.7816164E-02  0.1184000E+00
        -11   -1    0    0    0    0  0.00000000000E+00  0.00000000000E+00  0.45593999997E+02  0.45594000000E+02  0.51100000000E-03 0. -1.
         11   -1    0    0    0    0 -0.00000000000E+00 -0.00000000000E+00 -0.45593999997E+02  0.45594000000E+02  0.51100000000E-03 0.  1.
         23    2    1    2    0    0  0.00000000000E+00 -0.35527136788E-14  0.00000000000E+00  0.91188000000E+02  0.91188000000E+02 0.  0.
    9900012    2    3    3    0    0 -0.31234133322E+02 -0.16947718715E+02  0.96428120511E+01  0.54367080969E+02  0.39999992685E+02 0.  0.
        -12    1    3    3    0    0  0.31234133322E+02  0.16947718715E+02 -0.96428120511E+01  0.36820919031E+02  0.00000000000E+00 0.  1.
         11    1    4    4    0    0 -0.19081324790E+02 -0.23521832829E+02  0.11125870157E+01  0.30308603160E+02  0.51100000000E-03 0.  1.
        -11    1    4    4    0    0 -0.12099127889E+02  0.11954692131E+02  0.54624179406E+01  0.17864533849E+02  0.51100000000E-03 0. -1.
        -12    1    4    4    0    0 -0.53680643321E-01 -0.53805780172E+01  0.30678070948E+01  0.61939439602E+01  0.00000000000E+00 0.  1.
</event>
<event>
 8    1  0.1271559E-006  0.9118800E+02  0.7816164E-02  0.1184000E+00
        -11   -1    0    0    0    0  0.00000000000E+00  0.00000000000E+00  0.45593999997E+02  0.45594000000E+02  0.51100000000E-03 0. -1.
         11   -1    0    0    0    0 -0.00000000000E+00 -0.00000000000E+00 -0.45593999997E+02  0.45594000000E+02  0.51100000000E-03 0.  1.
         23    2    1    2    0    0  0.00000000000E+00  0.00000000000E+00  0.00000000000E+00  0.91188000000E+02  0.91188000000E+02 0.  0.
    9900012    2    3    3    0    0 -0.10434000318E+02  0.34369428647E+02 -0.81028688330E+01  0.54367048472E+02  0.39999918601E+02 0.  0.
         12    1    3    3    0    0  0.10434000318E+02 -0.34369428647E+02  0.81028688330E+01  0.36820951528E+02  0.00000000000E+00 0. -1.
         11    1    4    4    0    0 -0.32139451546E+01 -0.68516824250E+01 -0.33744928575E+01  0.82862656134E+01  0.51100000000E-03 0. -1.
        -11    1    4    4    0    0 -0.47556109246E+01  0.13692294832E+02  0.69513977887E+01  0.16075344615E+02  0.51100000000E-03 0.  1.
        -12    1    4    4    0    0 -0.24644442386E+01  0.27528816240E+02 -0.11679773764E+02  0.30005438243E+02  0.00000000000E+00 0.  1.
</event>
<event>
 8    1  0.1271559E-006  0.9118800E+02  0.7816164E-02  0.1184000E+00
        -11   -1    0    0    0    0  0.00000000000E+00  0.00000000000E+00  0.45593999997E+02  0.45594000000E+02  0.51100000000E-03 0. -1.
         11   -1    0    0    0    0 -0.00000000000E+00 -0.00000000000E+00 -0.45593999997E+02  0.45594000000E+02  0.51100000000E-03 0.  1.
         23    2    1    2    0    0  0.88817841970E-15 -0.35527136788E-14 -0.35527136788E-14  0.91188000000E+02  0.91188000000E+02 0.  0.
    9900012    2    3    3    0    0 -0.70012364852E+01  0.24078862927E+02  0.26962428345E+02  0.54367061739E+02  0.39999948846E+02 0.  0.
        -12    1    3    3    0    0  0.70012364852E+01 -0.24078862927E+02 -0.26962428345E+02  0.36820938261E+02  0.00000000000E+00 0.  1.
         11    1    4    4    0    0  0.42061474880E+01  0.10891134411E+02  0.32137934030E+02  0.34192912853E+02  0.51100000000E-03 0. -1.
        -11    1    4    4    0    0 -0.67405361177E+01  0.12611101708E+02 -0.15325358107E+01  0.14381355281E+02  0.51100000000E-03 0.  1.
        -12    1    4    4    0    0 -0.44668478555E+01  0.57662680807E+00 -0.36429698744E+01  0.57927936046E+01  0.00000000000E+00 0.  1.
</event>
<event>
 8    1  0.1271559E-006  0.9118800E+02  0.7816164E-02  0.1184000E+00
        -11   -1    0    0    0    0  0.00000000000E+00  0.00000000000E+00  0.45593999997E+02  0.45594000000E+02  0.51100000000E-03 0. -1.
         11   -1    0    0    0    0 -0.00000000000E+00 -0.00000000000E+00 -0.45593999997E+02  0.45594000000E+02  0.51100000000E-03 0.  1.
         23    2    1    2    0    0  0.00000000000E+00  0.00000000000E+00 -0.88817841970E-15  0.91188000000E+02  0.91188000000E+02 0.  0.
    9900012    2    3    3    0    0 -0.13675489212E+02 -0.33629072872E+02  0.61518668884E+01  0.54367095426E+02  0.40000025644E+02 0.  0.
        -12    1    3    3    0    0  0.13675489212E+02  0.33629072872E+02 -0.61518668884E+01  0.36820904574E+02  0.00000000000E+00 0.  1.
         11    1    4    4    0    0 -0.15336354357E+02 -0.29577170692E+02  0.14579038165E+02  0.36367033769E+02  0.51100000000E-03 0. -1.
        -11    1    4    4    0    0 -0.47141459418E+01  0.35411338562E+01 -0.22044867261E+01  0.62946455766E+01  0.51100000000E-03 0.  1.
         12    1    4    4    0    0  0.63750110864E+01 -0.75930360360E+01 -0.62226845509E+01  0.11705416080E+02  0.00000000000E+00 0. -1.
</event>
<event>
 8    1  0.1271559E-006  0.9118800E+02  0.7816164E-02  0.1184000E+00
        -11   -1    0    0    0    0  0.00000000000E+00  0.00000000000E+00  0.45593999997E+02  0.45594000000E+02  0.51100000000E-03 0.  1.
         11   -1    0    0    0    0 -0.00000000000E+00 -0.00000000000E+00 -0.45593999997E+02  0.45594000000E+02  0.51100000000E-03 0. -1.
         23    2    1    2    0    0 -0.88817841970E-15  0.00000000000E+00 -0.17763568394E-14  0.91188000000E+02  0.91188000000E+02 0.  0.
    9900012    2    3    3    0    0  0.61275543508E+01 -0.34140387840E+02 -0.12355814381E+02  0.54367093531E+02  0.40000021323E+02 0.  0.
        -12    1    3    3    0    0 -0.61275543508E+01  0.34140387840E+02  0.12355814381E+02  0.36820906469E+02  0.00000000000E+00 0.  1.
         11    1    4    4    0    0 -0.10085753169E+02 -0.22329885613E+02 -0.71913839705E+01  0.25535508849E+02  0.51100000000E-03 0.  1.
        -11    1    4    4    0    0  0.16196249388E+02 -0.12828392811E+01 -0.77354976903E+01  0.17994501817E+02  0.51100000000E-03 0. -1.
         12    1    4    4    0    0  0.17058131894E-01 -0.10527662945E+02  0.25710672799E+01  0.10837082865E+02  0.00000000000E+00 0. -1.
</event>
<event>
 8    1  0.1271559E-006  0.9118800E+02  0.7816164E-02  0.1184000E+00
        -11   -1    0    0    0    0  0.00000000000E+00  0.00000000000E+00  0.45593999997E+02  0.45594000000E+02  0.51100000000E-03 0.  1.
         11   -1    0    0    0    0 -0.00000000000E+00 -0.00000000000E+00 -0.45593999997E+02  0.45594000000E+02  0.51100000000E-03 0. -1.
         23    2    1    2    0    0  0.71054273576E-14 -0.35527136788E-14 -0.35527136788E-14  0.91188000000E+02  0.91188000000E+02 0.  0.
    9900012    2    3    3    0    0  0.30997586674E+02 -0.10190238749E+02 -0.17061302489E+02  0.54367090342E+02  0.40000014053E+02 0.  0.
        -12    1    3    3    0    0 -0.30997586674E+02  0.10190238749E+02  0.17061302489E+02  0.36820909658E+02  0.00000000000E+00 0.  1.
         11    1    4    4    0    0  0.32613330571E+02 -0.10691710762E+02 -0.22003758424E+01  0.34391622003E+02  0.51100000000E-03 0. -1.
        -11    1    4    4    0    0 -0.43469539648E+01 -0.41252039197E+00 -0.16215232366E+02  0.16792853921E+02  0.51100000000E-03 0.  1.
        -12    1    4    4    0    0  0.27312100684E+01  0.91399240452E+00  0.13543057194E+01  0.31826144181E+01  0.00000000000E+00 0.  1.
</event>
<event>
 8    1  0.1271559E-006  0.9118800E+02  0.7816164E-02  0.1184000E+00
        -11   -1    0    0    0    0  0.00000000000E+00  0.00000000000E+00  0.45593999997E+02  0.45594000000E+02  0.51100000000E-03 0. -1.
         11   -1    0    0    0    0 -0.00000000000E+00 -0.00000000000E+00 -0.45593999997E+02  0.45594000000E+02  0.51100000000E-03 0.  1.
         23    2    1    2    0    0  0.00000000000E+00  0.00000000000E+00 -0.71054273576E-14  0.91188000000E+02  0.91188000000E+02 0.  0.
    9900012    2    3    3    0    0 -0.76139827006E+01 -0.10688067189E+02  0.34403067880E+02  0.54367101147E+02  0.40000038684E+02 0.  0.
        -12    1    3    3    0    0  0.76139827006E+01  0.10688067189E+02 -0.34403067880E+02  0.36820898853E+02  0.00000000000E+00 0.  1.
         11    1    4    4    0    0 -0.48504033827E+01 -0.12347792782E+02  0.33145423107E+02  0.35701729268E+02  0.51100000000E-03 0. -1.
        -11    1    4    4    0    0  0.66692105407E+01 -0.32469993368E+01  0.27856871768E+01  0.79234731802E+01  0.51100000000E-03 0.  1.
        -12    1    4    4    0    0 -0.94327898586E+01  0.49067249300E+01 -0.15280424033E+01  0.10741898698E+02  0.00000000000E+00 0.  1.
</event>
<event>
 8    1  0.1271559E-006  0.9118800E+02  0.7816164E-02  0.1184000E+00
        -11   -1    0    0    0    0  0.00000000000E+00  0.00000000000E+00  0.45593999997E+02  0.45594000000E+02  0.51100000000E-03 0. -1.
         11   -1    0    0    0    0 -0.00000000000E+00 -0.00000000000E+00 -0.45593999997E+02  0.45594000000E+02  0.51100000000E-03 0.  1.
         23    2    1    2    0    0  0.88817841970E-15  0.44408920985E-15  0.00000000000E+00  0.91188000000E+02  0.91188000000E+02 0.  0.
    9900012    2    3    3    0    0  0.37651056365E+01  0.29275386003E+01 -0.36510703368E+02  0.54367109691E+02  0.40000058162E+02 0.  0.
         12    1    3    3    0    0 -0.37651056365E+01 -0.29275386003E+01  0.36510703368E+02  0.36820890309E+02  0.00000000000E+00 0. -1.
         11    1    4    4    0    0 -0.52691486258E+01 -0.11209003645E+02 -0.31920487580E+02  0.34239205855E+02  0.51100000000E-03 0. -1.
        -11    1    4    4    0    0  0.82944642150E+01  0.37085106780E+01 -0.13668091118E+01  0.91880006243E+01  0.51100000000E-03 0.  1.
         12    1    4    4    0    0  0.73979004728E+00  0.10428031567E+02 -0.32234066761E+01  0.10939903211E+02  0.00000000000E+00 0. -1.
</event>
<event>
 8    1  0.1271559E-006  0.9118800E+02  0.7816164E-02  0.1184000E+00
        -11   -1    0    0    0    0  0.00000000000E+00  0.00000000000E+00  0.45593999997E+02  0.45594000000E+02  0.51100000000E-03 0.  1.
         11   -1    0    0    0    0 -0.00000000000E+00 -0.00000000000E+00 -0.45593999997E+02  0.45594000000E+02  0.51100000000E-03 0. -1.
         23    2    1    2    0    0  0.00000000000E+00 -0.35527136788E-14  0.35527136788E-14  0.91188000000E+02  0.91188000000E+02 0.  0.
    9900012    2    3    3    0    0 -0.24733521383E+02  0.24641647952E+02 -0.11697072271E+02  0.54367090268E+02  0.40000013884E+02 0.  0.
         12    1    3    3    0    0  0.24733521383E+02 -0.24641647952E+02  0.11697072271E+02  0.36820909732E+02  0.00000000000E+00 0. -1.
         11    1    4    4    0    0 -0.31027305026E+01  0.40676011165E+01 -0.45602813755E+01  0.68533555212E+01  0.51100000000E-03 0. -1.
        -11    1    4    4    0    0  0.31721760221E+01 -0.25900941712E+01  0.90351210355E+01  0.99199143604E+01  0.51100000000E-03 0.  1.
        -12    1    4    4    0    0 -0.24802966903E+02  0.23164141006E+02 -0.16171911931E+02  0.37593820386E+02  0.00000000000E+00 0.  1.
</event>
<event>
 8    1  0.1271559E-006  0.9118800E+02  0.7816164E-02  0.1184000E+00
        -11   -1    0    0    0    0  0.00000000000E+00  0.00000000000E+00  0.45593999997E+02  0.45594000000E+02  0.51100000000E-03 0.  1.
         11   -1    0    0    0    0 -0.00000000000E+00 -0.00000000000E+00 -0.45593999997E+02  0.45594000000E+02  0.51100000000E-03 0. -1.
         23    2    1    2    0    0 -0.35527136788E-14  0.00000000000E+00  0.00000000000E+00  0.91188000000E+02  0.91188000000E+02 0.  0.
    9900012    2    3    3    0    0 -0.22981714230E+02 -0.27080829936E+01 -0.28640659631E+02  0.54367078141E+02  0.39999986238E+02 0.  0.
        -12    1    3    3    0    0  0.22981714230E+02  0.27080829936E+01  0.28640659631E+02  0.36820921859E+02  0.00000000000E+00 0.  1.
         11    1    4    4    0    0  0.50634284157E+01 -0.14267142057E+01 -0.85464453284E+01  0.10035713665E+02  0.51100000000E-03 0. -1.
        -11    1    4    4    0    0 -0.57007099411E+01 -0.46920469362E+01  0.62114467045E+01  0.96485993132E+01  0.51100000000E-03 0.  1.
         12    1    4    4    0    0 -0.22344432704E+02  0.34106781483E+01 -0.26305661007E+02  0.34682765163E+02  0.00000000000E+00 0. -1.
</event>
<event>
 8    1  0.1271559E-006  0.9118800E+02  0.7816164E-02  0.1184000E+00
        -11   -1    0    0    0    0  0.00000000000E+00  0.00000000000E+00  0.45593999997E+02  0.45594000000E+02  0.51100000000E-03 0.  1.
         11   -1    0    0    0    0 -0.00000000000E+00 -0.00000000000E+00 -0.45593999997E+02  0.45594000000E+02  0.51100000000E-03 0. -1.
         23    2    1    2    0    0  0.17763568394E-14  0.00000000000E+00  0.00000000000E+00  0.91188000000E+02  0.91188000000E+02 0.  0.
    9900012    2    3    3    0    0 -0.60094906283E+01 -0.22073459222E+02  0.28851839383E+02  0.54367079107E+02  0.39999988440E+02 0.  0.
         12    1    3    3    0    0  0.60094906283E+01  0.22073459222E+02 -0.28851839383E+02  0.36820920893E+02  0.00000000000E+00 0. -1.
         11    1    4    4    0    0 -0.47814732798E+01  0.29131721176E+01  0.54821332688E+01  0.78359966788E+01  0.51100000000E-03 0. -1.
        -11    1    4    4    0    0  0.12748149798E+02 -0.85255930061E+01  0.89311601550E+00  0.15362249701E+02  0.51100000000E-03 0.  1.
        -12    1    4    4    0    0 -0.13976167147E+02 -0.16461038333E+02  0.22476590099E+02  0.31168832727E+02  0.00000000000E+00 0.  1.
</event>
<event>
 8    1  0.1271559E-006  0.9118800E+02  0.7816164E-02  0.1184000E+00
        -11   -1    0    0    0    0  0.00000000000E+00  0.00000000000E+00  0.45593999997E+02  0.45594000000E+02  0.51100000000E-03 0.  1.
         11   -1    0    0    0    0 -0.00000000000E+00 -0.00000000000E+00 -0.45593999997E+02  0.45594000000E+02  0.51100000000E-03 0. -1.
         23    2    1    2    0    0  0.35527136788E-14 -0.17763568394E-14 -0.35527136788E-14  0.91188000000E+02  0.91188000000E+02 0.  0.
    9900012    2    3    3    0    0 -0.21133446295E+02 -0.12869726018E+02  0.27267713448E+02  0.54367073928E+02  0.39999976634E+02 0.  0.
         12    1    3    3    0    0  0.21133446295E+02  0.12869726018E+02 -0.27267713448E+02  0.36820926072E+02  0.00000000000E+00 0. -1.
         11    1    4    4    0    0  0.22938630448E+01 -0.28263791353E+01 -0.18784045422E+01  0.40961726734E+01  0.51100000000E-03 0. -1.
        -11    1    4    4    0    0 -0.61644858624E+01  0.61302097046E+01  0.24720760845E+02  0.26204892176E+02  0.51100000000E-03 0.  1.
        -12    1    4    4    0    0 -0.17262823478E+02 -0.16173556587E+02  0.44253571455E+01  0.24066009078E+02  0.00000000000E+00 0.  1.
</event>
<event>
 8    1  0.1271559E-006  0.9118800E+02  0.7816164E-02  0.1184000E+00
        -11   -1    0    0    0    0  0.00000000000E+00  0.00000000000E+00  0.45593999997E+02  0.45594000000E+02  0.51100000000E-03 0.  1.
         11   -1    0    0    0    0 -0.00000000000E+00 -0.00000000000E+00 -0.45593999997E+02  0.45594000000E+02  0.51100000000E-03 0. -1.
         23    2    1    2    0    0  0.00000000000E+00  0.35527136788E-14  0.00000000000E+00  0.91188000000E+02  0.91188000000E+02 0.  0.
    9900012    2    3    3    0    0 -0.31220443886E+02 -0.18973704072E+02 -0.45893120812E+01  0.54367090886E+02  0.40000015292E+02 0.  0.
         12    1    3    3    0    0  0.31220443886E+02  0.18973704072E+02  0.45893120812E+01  0.36820909114E+02  0.00000000000E+00 0. -1.
         11    1    4    4    0    0 -0.31157402319E+01  0.57284516329E+01 -0.12719837710E+02  0.14293959106E+02  0.51100000000E-03 0. -1.
        -11    1    4    4    0    0 -0.88129564118E+01 -0.78232562698E+01  0.83432722701E+01  0.14438896489E+02  0.51100000000E-03 0.  1.
        -12    1    4    4    0    0 -0.19291747242E+02 -0.16878899435E+02 -0.21274664134E+00  0.25634235290E+02  0.00000000000E+00 0.  1.
</event>
<event>
 8    1  0.1271559E-006  0.9118800E+02  0.7816164E-02  0.1184000E+00
        -11   -1    0    0    0    0  0.00000000000E+00  0.00000000000E+00  0.45593999997E+02  0.45594000000E+02  0.51100000000E-03 0.  1.
         11   -1    0    0    0    0 -0.00000000000E+00 -0.00000000000E+00 -0.45593999997E+02  0.45594000000E+02  0.51100000000E-03 0. -1.
         23    2    1    2    0    0  0.00000000000E+00 -0.88817841970E-15  0.35527136788E-14  0.91188000000E+02  0.91188000000E+02 0.  0.
    9900012    2    3    3    0    0  0.29877346845E+02 -0.32948566909E+01 -0.21266586342E+02  0.54367087060E+02  0.40000006570E+02 0.  0.
        -12    1    3    3    0    0 -0.29877346845E+02  0.32948566909E+01  0.21266586342E+02  0.36820912940E+02  0.00000000000E+00 0.  1.
         11    1    4    4    0    0  0.29810780278E+02 -0.73779601230E+01 -0.25954344042E+01  0.30819688453E+02  0.51100000000E-03 0. -1.
        -11    1    4    4    0    0 -0.33501853200E+01  0.84035062630E+00  0.77414863715E+00  0.35396662592E+01  0.51100000000E-03 0.  1.
         12    1    4    4    0    0  0.34167518868E+01  0.32427528058E+01 -0.19445300575E+02  0.20007732347E+02  0.00000000000E+00 0. -1.
</event>
<event>
 8    1  0.1271559E-006  0.9118800E+02  0.7816164E-02  0.1184000E+00
        -11   -1    0    0    0    0  0.00000000000E+00  0.00000000000E+00  0.45593999997E+02  0.45594000000E+02  0.51100000000E-03 0. -1.
         11   -1    0    0    0    0 -0.00000000000E+00 -0.00000000000E+00 -0.45593999997E+02  0.45594000000E+02  0.51100000000E-03 0.  1.
         23    2    1    2    0    0 -0.35527136788E-14 -0.35527136788E-14 -0.83266726847E-15  0.91188000000E+02  0.91188000000E+02 0.  0.
    9900012    2    3    3    0    0  0.23552125414E+02 -0.28299746040E+02 -0.44871307155E+00  0.54367087723E+02  0.40000008083E+02 0.  0.
         12    1    3    3    0    0 -0.23552125414E+02  0.28299746040E+02  0.44871307155E+00  0.36820912277E+02  0.00000000000E+00 0. -1.
         11    1    4    4    0    0  0.10441899583E+02 -0.27301522803E+02  0.12436857129E+02  0.31766048381E+02  0.51100000000E-03 0. -1.
        -11    1    4    4    0    0 -0.16668986072E+01 -0.25645790005E+01 -0.20406306476E+00  0.30654948070E+01  0.51100000000E-03 0.  1.
        -12    1    4    4    0    0  0.14777124438E+02  0.15663557636E+01 -0.12681507136E+02  0.19535544535E+02  0.00000000000E+00 0.  1.
</event>
<event>
 8    1  0.1271559E-006  0.9118800E+02  0.7816164E-02  0.1184000E+00
        -11   -1    0    0    0    0  0.00000000000E+00  0.00000000000E+00  0.45593999997E+02  0.45594000000E+02  0.51100000000E-03 0. -1.
         11   -1    0    0    0    0 -0.00000000000E+00 -0.00000000000E+00 -0.45593999997E+02  0.45594000000E+02  0.51100000000E-03 0.  1.
         23    2    1    2    0    0 -0.88817841970E-15  0.00000000000E+00  0.00000000000E+00  0.91188000000E+02  0.91188000000E+02 0.  0.
    9900012    2    3    3    0    0 -0.57827557678E+01  0.31978231037E+02 -0.17312716547E+02  0.54367113553E+02  0.40000066967E+02 0.  0.
         12    1    3    3    0    0  0.57827557678E+01 -0.31978231037E+02  0.17312716547E+02  0.36820886447E+02  0.00000000000E+00 0. -1.
         11    1    4    4    0    0 -0.37385555177E+01 -0.39666262863E+01  0.32025902856E+01  0.63219859421E+01  0.51100000000E-03 0. -1.
        -11    1    4    4    0    0 -0.11315433006E+02  0.30376414019E+02 -0.13264419464E+02  0.35024425430E+02  0.51100000000E-03 0.  1.
        -12    1    4    4    0    0  0.92712327561E+01  0.55684433043E+01 -0.72508873683E+01  0.13020702181E+02  0.00000000000E+00 0.  1.
</event>
<event>
 8    1  0.1271559E-006  0.9118800E+02  0.7816164E-02  0.1184000E+00
        -11   -1    0    0    0    0  0.00000000000E+00  0.00000000000E+00  0.45593999997E+02  0.45594000000E+02  0.51100000000E-03 0. -1.
         11   -1    0    0    0    0 -0.00000000000E+00 -0.00000000000E+00 -0.45593999997E+02  0.45594000000E+02  0.51100000000E-03 0.  1.
         23    2    1    2    0    0  0.00000000000E+00 -0.35527136788E-14  0.00000000000E+00  0.91188000000E+02  0.91188000000E+02 0.  0.
    9900012    2    3    3    0    0  0.37189636696E+01  0.25873935688E+02 -0.25932459657E+02  0.54367031754E+02  0.39999880489E+02 0.  0.
         12    1    3    3    0    0 -0.37189636696E+01 -0.25873935688E+02  0.25932459657E+02  0.36820968246E+02  0.00000000000E+00 0. -1.
         11    1    4    4    0    0 -0.67961033934E+00  0.17776323621E+02 -0.27138197358E+01  0.17995120714E+02  0.51100000000E-03 0. -1.
        -11    1    4    4    0    0  0.35422477698E+01  0.17412664093E+02 -0.10692334757E+02  0.20738235530E+02  0.51100000000E-03 0.  1.
        -12    1    4    4    0    0  0.85632623911E+00 -0.93150520263E+01 -0.12526305164E+02  0.15633675510E+02  0.00000000000E+00 0.  1.
</event>
<event>
 8    1  0.1271559E-006  0.9118800E+02  0.7816164E-02  0.1184000E+00
        -11   -1    0    0    0    0  0.00000000000E+00  0.00000000000E+00  0.45593999997E+02  0.45594000000E+02  0.51100000000E-03 0. -1.
         11   -1    0    0    0    0 -0.00000000000E+00 -0.00000000000E+00 -0.45593999997E+02  0.45594000000E+02  0.51100000000E-03 0.  1.
         23    2    1    2    0    0  0.35527136788E-14  0.00000000000E+00  0.00000000000E+00  0.91188000000E+02  0.91188000000E+02 0.  0.
    9900012    2    3    3    0    0  0.24271236898E+02  0.13095394124E+02 -0.24396949974E+02  0.54366899312E+02  0.39999578560E+02 0.  0.
         12    1    3    3    0    0 -0.24271236898E+02 -0.13095394124E+02  0.24396949974E+02  0.36821100688E+02  0.00000000000E+00 0. -1.
         11    1    4    4    0    0 -0.21094319116E+01  0.11240843334E+02 -0.24492823547E+01  0.11696377480E+02  0.51100000000E-03 0. -1.
        -11    1    4    4    0    0  0.20255851968E+02  0.78094139634E+01 -0.30377849352E+01  0.21920643762E+02  0.51100000000E-03 0.  1.
        -12    1    4    4    0    0  0.61248168417E+01 -0.59548631738E+01 -0.18909882684E+02  0.20749878070E+02  0.00000000000E+00 0.  1.
</event>
<event>
 8    1  0.1271559E-006  0.9118800E+02  0.7816164E-02  0.1184000E+00
        -11   -1    0    0    0    0  0.00000000000E+00  0.00000000000E+00  0.45593999997E+02  0.45594000000E+02  0.51100000000E-03 0. -1.
         11   -1    0    0    0    0 -0.00000000000E+00 -0.00000000000E+00 -0.45593999997E+02  0.45594000000E+02  0.51100000000E-03 0.  1.
         23    2    1    2    0    0 -0.44408920985E-15 -0.17763568394E-14  0.00000000000E+00  0.91188000000E+02  0.91188000000E+02 0.  0.
    9900012    2    3    3    0    0  0.33843195489E+01 -0.10436493344E+02 -0.35148348824E+02  0.54367076095E+02  0.39999981574E+02 0.  0.
         12    1    3    3    0    0 -0.33843195489E+01  0.10436493344E+02  0.35148348824E+02  0.36820923905E+02  0.00000000000E+00 0. -1.
         11    1    4    4    0    0  0.71008561821E+00 -0.25991428290E+00 -0.51653685247E+01  0.52204223274E+01  0.51100000000E-03 0. -1.
        -11    1    4    4    0    0 -0.12642824315E+02  0.46075654107E+01 -0.23171609295E+02  0.26795412728E+02  0.51100000000E-03 0.  1.
         12    1    4    4    0    0  0.15317058246E+02 -0.14784144472E+02 -0.68113710052E+01  0.22351241040E+02  0.00000000000E+00 0. -1.
</event>
<event>
 8    1  0.1271559E-006  0.9118800E+02  0.7816164E-02  0.1184000E+00
        -11   -1    0    0    0    0  0.00000000000E+00  0.00000000000E+00  0.45593999997E+02  0.45594000000E+02  0.51100000000E-03 0.  1.
         11   -1    0    0    0    0 -0.00000000000E+00 -0.00000000000E+00 -0.45593999997E+02  0.45594000000E+02  0.51100000000E-03 0. -1.
         23    2    1    2    0    0 -0.35527136788E-14  0.88817841970E-15  0.00000000000E+00  0.91188000000E+02  0.91188000000E+02 0.  0.
    9900012    2    3    3    0    0  0.26644910319E+02  0.52435578785E+01  0.24866335468E+02  0.54367071376E+02  0.39999970816E+02 0.  0.
         12    1    3    3    0    0 -0.26644910319E+02 -0.52435578785E+01 -0.24866335468E+02  0.36820928624E+02  0.00000000000E+00 0. -1.
         11    1    4    4    0    0  0.23611267559E+02  0.10252923827E+02  0.45219992134E+01  0.26135471679E+02  0.51100000000E-03 0. -1.
        -11    1    4    4    0    0  0.10479678391E+02  0.13354605406E+00  0.11854760868E+02  0.15823300832E+02  0.51100000000E-03 0.  1.
        -12    1    4    4    0    0 -0.74460356308E+01 -0.51429120027E+01  0.84895753863E+01  0.12408298865E+02  0.00000000000E+00 0.  1.
</event>
<event>
 8    1  0.1271559E-006  0.9118800E+02  0.7816164E-02  0.1184000E+00
        -11   -1    0    0    0    0  0.00000000000E+00  0.00000000000E+00  0.45593999997E+02  0.45594000000E+02  0.51100000000E-03 0. -1.
         11   -1    0    0    0    0 -0.00000000000E+00 -0.00000000000E+00 -0.45593999997E+02  0.45594000000E+02  0.51100000000E-03 0.  1.
         23    2    1    2    0    0  0.00000000000E+00  0.00000000000E+00  0.00000000000E+00  0.91188000000E+02  0.91188000000E+02 0.  0.
    9900012    2    3    3    0    0  0.22637348904E+02  0.23631435797E+02  0.16878482769E+02  0.54367115929E+02  0.40000072382E+02 0.  0.
        -12    1    3    3    0    0 -0.22637348904E+02 -0.23631435797E+02 -0.16878482769E+02  0.36820884071E+02  0.00000000000E+00 0.  1.
         11    1    4    4    0    0  0.14392957485E+01 -0.46460811318E+01  0.89830208517E+01  0.10215297647E+02  0.51100000000E-03 0. -1.
        -11    1    4    4    0    0  0.25050459373E+02  0.17474041407E+02  0.10666845682E+02  0.32351958750E+02  0.51100000000E-03 0.  1.
        -12    1    4    4    0    0 -0.38524062174E+01  0.10803475521E+02 -0.27713837642E+01  0.11799859532E+02  0.00000000000E+00 0.  1.
</event>
<event>
 8    1  0.1271559E-006  0.9118800E+02  0.7816164E-02  0.1184000E+00
        -11   -1    0    0    0    0  0.00000000000E+00  0.00000000000E+00  0.45593999997E+02  0.45594000000E+02  0.51100000000E-03 0. -1.
         11   -1    0    0    0    0 -0.00000000000E+00 -0.00000000000E+00 -0.45593999997E+02  0.45594000000E+02  0.51100000000E-03 0.  1.
         23    2    1    2    0    0  0.42188474936E-14  0.00000000000E+00  0.66613381478E-15  0.91188000000E+02  0.91188000000E+02 0.  0.
    9900012    2    3    3    0    0 -0.16237992987E+01  0.36778638981E+02  0.68914633394E+00  0.54367082954E+02  0.39999997210E+02 0.  0.
         12    1    3    3    0    0  0.16237992987E+01 -0.36778638981E+02 -0.68914633394E+00  0.36820917046E+02  0.00000000000E+00 0. -1.
         11    1    4    4    0    0 -0.14074096995E+02  0.10441204553E+02 -0.77053373222E+01  0.19143437054E+02  0.51100000000E-03 0. -1.
        -11    1    4    4    0    0  0.15352029241E+02  0.11754527632E+02  0.50328382708E+01  0.19979569139E+02  0.51100000000E-03 0.  1.
        -12    1    4    4    0    0 -0.29017315451E+01  0.14582906796E+02  0.33616453853E+01  0.15244076761E+02  0.00000000000E+00 0.  1.
</event>
<event>
 8    1  0.1271559E-006  0.9118800E+02  0.7816164E-02  0.1184000E+00
        -11   -1    0    0    0    0  0.00000000000E+00  0.00000000000E+00  0.45593999997E+02  0.45594000000E+02  0.51100000000E-03 0. -1.
         11   -1    0    0    0    0 -0.00000000000E+00 -0.00000000000E+00 -0.45593999997E+02  0.45594000000E+02  0.51100000000E-03 0.  1.
         23    2    1    2    0    0  0.17763568394E-14  0.00000000000E+00  0.00000000000E+00  0.91188000000E+02  0.91188000000E+02 0.  0.
    9900012    2    3    3    0    0  0.61950256425E+01 -0.29277133884E+02  0.21453380806E+02  0.54367130114E+02  0.40000104721E+02 0.  0.
        -12    1    3    3    0    0 -0.61950256425E+01  0.29277133884E+02 -0.21453380806E+02  0.36820869886E+02  0.00000000000E+00 0.  1.
         11    1    4    4    0    0  0.90229783119E+01  0.46971671514E+01  0.74307697547E+01  0.12597374976E+02  0.51100000000E-03 0. -1.
        -11    1    4    4    0    0 -0.35878256086E+01 -0.28676256485E+02  0.24307095842E+01  0.29001871111E+02  0.51100000000E-03 0.  1.
        -12    1    4    4    0    0  0.75987293923E+00 -0.52980445505E+01  0.11591901467E+02  0.12767884028E+02  0.00000000000E+00 0.  1.
</event>
<event>
 8    1  0.1271559E-006  0.9118800E+02  0.7816164E-02  0.1184000E+00
        -11   -1    0    0    0    0  0.00000000000E+00  0.00000000000E+00  0.45593999997E+02  0.45594000000E+02  0.51100000000E-03 0.  1.
         11   -1    0    0    0    0 -0.00000000000E+00 -0.00000000000E+00 -0.45593999997E+02  0.45594000000E+02  0.51100000000E-03 0. -1.
         23    2    1    2    0    0  0.17763568394E-14  0.35527136788E-14  0.00000000000E+00  0.91188000000E+02  0.91188000000E+02 0.  0.
    9900012    2    3    3    0    0  0.15626523459E+02  0.27467829912E+02  0.18897356542E+02  0.54367082036E+02  0.39999995117E+02 0.  0.
        -12    1    3    3    0    0 -0.15626523459E+02 -0.27467829912E+02 -0.18897356542E+02  0.36820917964E+02  0.00000000000E+00 0.  1.
         11    1    4    4    0    0  0.53793498871E+01 -0.12977367993E+01  0.20418947192E+02  0.21155494102E+02  0.51100000000E-03 0.  1.
        -11    1    4    4    0    0  0.17985388271E+01  0.13666990239E+02 -0.64536068568E+01  0.15220722907E+02  0.51100000000E-03 0. -1.
        -12    1    4    4    0    0  0.84486347449E+01  0.15098576472E+02  0.49320162068E+01  0.17990865027E+02  0.00000000000E+00 0.  1.
</event>
<event>
 8    1  0.1271559E-006  0.9118800E+02  0.7816164E-02  0.1184000E+00
        -11   -1    0    0    0    0  0.00000000000E+00  0.00000000000E+00  0.45593999997E+02  0.45594000000E+02  0.51100000000E-03 0. -1.
         11   -1    0    0    0    0 -0.00000000000E+00 -0.00000000000E+00 -0.45593999997E+02  0.45594000000E+02  0.51100000000E-03 0.  1.
         23    2    1    2    0    0 -0.71054273576E-14  0.00000000000E+00 -0.13322676296E-14  0.91188000000E+02  0.91188000000E+02 0.  0.
    9900012    2    3    3    0    0 -0.36200095558E+02 -0.63922243220E+01 -0.21150235365E+01  0.54367071512E+02  0.39999971125E+02 0.  0.
         12    1    3    3    0    0  0.36200095558E+02  0.63922243220E+01  0.21150235365E+01  0.36820928488E+02  0.00000000000E+00 0. -1.
         11    1    4    4    0    0 -0.15194369291E+02 -0.21756685278E+01  0.84587615837E+01  0.17525782136E+02  0.51100000000E-03 0. -1.
        -11    1    4    4    0    0 -0.29737028497E+01 -0.14254501369E+02 -0.56900019014E+01  0.15633612501E+02  0.51100000000E-03 0.  1.
        -12    1    4    4    0    0 -0.18032023418E+02  0.10037945575E+02 -0.48837832188E+01  0.21207676875E+02  0.00000000000E+00 0.  1.
</event>
<event>
 8    1  0.1271559E-006  0.9118800E+02  0.7816164E-02  0.1184000E+00
        -11   -1    0    0    0    0  0.00000000000E+00  0.00000000000E+00  0.45593999997E+02  0.45594000000E+02  0.51100000000E-03 0. -1.
         11   -1    0    0    0    0 -0.00000000000E+00 -0.00000000000E+00 -0.45593999997E+02  0.45594000000E+02  0.51100000000E-03 0.  1.
         23    2    1    2    0    0  0.00000000000E+00  0.17763568394E-14  0.00000000000E+00  0.91188000000E+02  0.91188000000E+02 0.  0.
    9900012    2    3    3    0    0  0.23488519205E+02 -0.13374212131E+02  0.25003989887E+02  0.54367087534E+02  0.40000007652E+02 0.  0.
         12    1    3    3    0    0 -0.23488519205E+02  0.13374212131E+02 -0.25003989887E+02  0.36820912466E+02  0.00000000000E+00 0. -1.
         11    1    4    4    0    0 -0.68166800619E+01 -0.21216622304E+01  0.44538839278E+01  0.84146099130E+01  0.51100000000E-03 0. -1.
        -11    1    4    4    0    0  0.12083617991E+02  0.25831117372E+01  0.19454756088E+02  0.23047208610E+02  0.51100000000E-03 0.  1.
         12    1    4    4    0    0  0.18221581276E+02 -0.13835661638E+02  0.10953498707E+01  0.22905269011E+02  0.00000000000E+00 0. -1.
</event>
<event>
 8    1  0.1271559E-006  0.9118800E+02  0.7816164E-02  0.1184000E+00
        -11   -1    0    0    0    0  0.00000000000E+00  0.00000000000E+00  0.45593999997E+02  0.45594000000E+02  0.51100000000E-03 0. -1.
         11   -1    0    0    0    0 -0.00000000000E+00 -0.00000000000E+00 -0.45593999997E+02  0.45594000000E+02  0.51100000000E-03 0.  1.
         23    2    1    2    0    0 -0.35527136788E-14 -0.35527136788E-14 -0.44408920985E-15  0.91188000000E+02  0.91188000000E+02 0.  0.
    9900012    2    3    3    0    0 -0.24120314668E+02 -0.27640779467E+02 -0.31587691481E+01  0.54367080787E+02  0.39999992269E+02 0.  0.
        -12    1    3    3    0    0  0.24120314668E+02  0.27640779467E+02  0.31587691481E+01  0.36820919213E+02  0.00000000000E+00 0.  1.
         11    1    4    4    0    0 -0.29561107462E+02 -0.11175596687E+02 -0.91732951864E+01  0.32907482135E+02  0.51100000000E-03 0. -1.
        -11    1    4    4    0    0  0.83612101882E+01 -0.13039672544E+02  0.23754426517E+01  0.15671171746E+02  0.51100000000E-03 0.  1.
         12    1    4    4    0    0 -0.29204173942E+01 -0.34255102363E+01  0.36390833866E+01  0.57884269046E+01  0.00000000000E+00 0. -1.
</event>
<event>
 8    1  0.1271559E-006  0.9118800E+02  0.7816164E-02  0.1184000E+00
        -11   -1    0    0    0    0  0.00000000000E+00  0.00000000000E+00  0.45593999997E+02  0.45594000000E+02  0.51100000000E-03 0.  1.
         11   -1    0    0    0    0 -0.00000000000E+00 -0.00000000000E+00 -0.45593999997E+02  0.45594000000E+02  0.51100000000E-03 0. -1.
         23    2    1    2    0    0  0.00000000000E+00  0.00000000000E+00 -0.35527136788E-14  0.91188000000E+02  0.91188000000E+02 0.  0.
    9900012    2    3    3    0    0 -0.18232734710E+02 -0.98456736584E+01 -0.30436962698E+02  0.54367101001E+02  0.40000038353E+02 0.  0.
        -12    1    3    3    0    0  0.18232734710E+02  0.98456736584E+01  0.30436962698E+02  0.36820898999E+02  0.00000000000E+00 0.  1.
         11    1    4    4    0    0 -0.10090818272E+02 -0.86607810110E+01 -0.33764407686E+02  0.36288689254E+02  0.51100000000E-03 0. -1.
        -11    1    4    4    0    0 -0.14736408944E+01 -0.39138466143E+01  0.83204812982E+01  0.93123693065E+01  0.51100000000E-03 0.  1.
        -12    1    4    4    0    0 -0.66682755435E+01  0.27289539670E+01 -0.49930363099E+01  0.87660424406E+01  0.00000000000E+00 0.  1.
</event>
<event>
 8    1  0.1271559E-006  0.9118800E+02  0.7816164E-02  0.1184000E+00
        -11   -1    0    0    0    0  0.00000000000E+00  0.00000000000E+00  0.45593999997E+02  0.45594000000E+02  0.51100000000E-03 0.  1.
         11   -1    0    0    0    0 -0.00000000000E+00 -0.00000000000E+00 -0.45593999997E+02  0.45594000000E+02  0.51100000000E-03 0. -1.
         23    2    1    2    0    0  0.00000000000E+00  0.00000000000E+00  0.00000000000E+00  0.91188000000E+02  0.91188000000E+02 0.  0.
    9900012    2    3    3    0    0  0.14213154859E+02  0.33431328093E+02  0.60094064037E+01  0.54367076132E+02  0.39999981659E+02 0.  0.
        -12    1    3    3    0    0 -0.14213154859E+02 -0.33431328093E+02 -0.60094064037E+01  0.36820923868E+02  0.00000000000E+00 0.  1.
         11    1    4    4    0    0  0.13507475829E+02  0.98697062929E+01  0.17550077750E+01  0.16820911335E+02  0.51100000000E-03 0. -1.
        -11    1    4    4    0    0  0.75168507284E+01 -0.42179008436E+01 -0.64281998581E-01  0.86196209218E+01  0.51100000000E-03 0.  1.
        -12    1    4    4    0    0 -0.68111716981E+01  0.27779522644E+02  0.43186806273E+01  0.28926543876E+02  0.00000000000E+00 0.  1.
</event>
<event>
 8    1  0.1271559E-006  0.9118800E+02  0.7816164E-02  0.1184000E+00
        -11   -1    0    0    0    0  0.00000000000E+00  0.00000000000E+00  0.45593999997E+02  0.45594000000E+02  0.51100000000E-03 0. -1.
         11   -1    0    0    0    0 -0.00000000000E+00 -0.00000000000E+00 -0.45593999997E+02  0.45594000000E+02  0.51100000000E-03 0.  1.
         23    2    1    2    0    0 -0.71054273576E-14  0.00000000000E+00  0.17763568394E-14  0.91188000000E+02  0.91188000000E+02 0.  0.
    9900012    2    3    3    0    0 -0.28719109076E+02 -0.20251434845E+02  0.10994147171E+02  0.54367094099E+02  0.40000022617E+02 0.  0.
        -12    1    3    3    0    0  0.28719109076E+02  0.20251434845E+02 -0.10994147171E+02  0.36820905901E+02  0.00000000000E+00 0.  1.
         11    1    4    4    0    0 -0.24186303366E+02 -0.21397455075E+01  0.31995902575E+01  0.24490674948E+02  0.51100000000E-03 0. -1.
        -11    1    4    4    0    0  0.79651662879E+01 -0.30662786586E+01  0.55685732668E+01  0.10190924752E+02  0.51100000000E-03 0.  1.
        -12    1    4    4    0    0 -0.12497971997E+02 -0.15045410678E+02  0.22259836470E+01  0.19685494399E+02  0.00000000000E+00 0.  1.
</event>
<event>
 8    1  0.1271559E-006  0.9118800E+02  0.7816164E-02  0.1184000E+00
        -11   -1    0    0    0    0  0.00000000000E+00  0.00000000000E+00  0.45593999997E+02  0.45594000000E+02  0.51100000000E-03 0.  1.
         11   -1    0    0    0    0 -0.00000000000E+00 -0.00000000000E+00 -0.45593999997E+02  0.45594000000E+02  0.51100000000E-03 0. -1.
         23    2    1    2    0    0 -0.35527136788E-14  0.35527136788E-14  0.35527136788E-14  0.91188000000E+02  0.91188000000E+02 0.  0.
    9900012    2    3    3    0    0  0.22795741407E+02 -0.21804742838E+02 -0.18991803232E+02  0.54367065376E+02  0.39999957139E+02 0.  0.
        -12    1    3    3    0    0 -0.22795741407E+02  0.21804742838E+02  0.18991803232E+02  0.36820934624E+02  0.00000000000E+00 0.  1.
         11    1    4    4    0    0 -0.41700041479E+01 -0.43982458342E+01 -0.59350077017E+01  0.84827953937E+01  0.51100000000E-03 0. -1.
        -11    1    4    4    0    0  0.14314384813E+02 -0.16381715966E+02 -0.21542623388E+02  0.30616120807E+02  0.51100000000E-03 0.  1.
        -12    1    4    4    0    0  0.12651360742E+02 -0.10247810374E+01  0.84858278579E+01  0.15268149175E+02  0.00000000000E+00 0.  1.
</event>
<event>
 8    1  0.1271559E-006  0.9118800E+02  0.7816164E-02  0.1184000E+00
        -11   -1    0    0    0    0  0.00000000000E+00  0.00000000000E+00  0.45593999997E+02  0.45594000000E+02  0.51100000000E-03 0.  1.
         11   -1    0    0    0    0 -0.00000000000E+00 -0.00000000000E+00 -0.45593999997E+02  0.45594000000E+02  0.51100000000E-03 0. -1.
         23    2    1    2    0    0  0.00000000000E+00  0.00000000000E+00  0.00000000000E+00  0.91188000000E+02  0.91188000000E+02 0.  0.
    9900012    2    3    3    0    0 -0.16751797207E+02 -0.23935342652E+02  0.22411001240E+02  0.54367132084E+02  0.40000109211E+02 0.  0.
         12    1    3    3    0    0  0.16751797207E+02  0.23935342652E+02 -0.22411001240E+02  0.36820867916E+02  0.00000000000E+00 0. -1.
         11    1    4    4    0    0  0.78554870351E+01 -0.46206581735E+01 -0.14659259262E+01  0.92308232351E+01  0.51100000000E-03 0. -1.
        -11    1    4    4    0    0 -0.13508209833E+02 -0.22190593475E+02  0.11960993765E+02  0.28599992024E+02  0.51100000000E-03 0.  1.
        -12    1    4    4    0    0 -0.11099074409E+02  0.28759089965E+01  0.11915933401E+02  0.16536316824E+02  0.00000000000E+00 0.  1.
</event>
<event>
 8    1  0.1271559E-006  0.9118800E+02  0.7816164E-02  0.1184000E+00
        -11   -1    0    0    0    0  0.00000000000E+00  0.00000000000E+00  0.45593999997E+02  0.45594000000E+02  0.51100000000E-03 0.  1.
         11   -1    0    0    0    0 -0.00000000000E+00 -0.00000000000E+00 -0.45593999997E+02  0.45594000000E+02  0.51100000000E-03 0. -1.
         23    2    1    2    0    0  0.00000000000E+00  0.00000000000E+00  0.00000000000E+00  0.91188000000E+02  0.91188000000E+02 0.  0.
    9900012    2    3    3    0    0 -0.11924660660E+02 -0.19591328924E+02  0.28805613753E+02  0.54367067305E+02  0.39999961535E+02 0.  0.
         12    1    3    3    0    0  0.11924660660E+02  0.19591328924E+02 -0.28805613753E+02  0.36820932695E+02  0.00000000000E+00 0. -1.
         11    1    4    4    0    0 -0.60149122503E+01 -0.17093261428E+02  0.10081604952E+02  0.20736381417E+02  0.51100000000E-03 0. -1.
        -11    1    4    4    0    0  0.81575097107E+01  0.27070317915E+01  0.16313072225E+02  0.18438799079E+02  0.51100000000E-03 0.  1.
         12    1    4    4    0    0 -0.14067258120E+02 -0.52050992876E+01  0.24109365758E+01  0.15191886808E+02  0.00000000000E+00 0. -1.
</event>
<event>
 8    1  0.1271559E-006  0.9118800E+02  0.7816164E-02  0.1184000E+00
        -11   -1    0    0    0    0  0.00000000000E+00  0.00000000000E+00  0.45593999997E+02  0.45594000000E+02  0.51100000000E-03 0.  1.
         11   -1    0    0    0    0 -0.00000000000E+00 -0.00000000000E+00 -0.45593999997E+02  0.45594000000E+02  0.51100000000E-03 0. -1.
         23    2    1    2    0    0 -0.11102230246E-14 -0.17763568394E-14  0.00000000000E+00  0.91188000000E+02  0.91188000000E+02 0.  0.
    9900012    2    3    3    0    0 -0.10065620798E+01 -0.12428141478E+02 -0.34645453373E+02  0.54367091439E+02  0.40000016553E+02 0.  0.
        -12    1    3    3    0    0  0.10065620798E+01  0.12428141478E+02  0.34645453373E+02  0.36820908561E+02  0.00000000000E+00 0.  1.
         11    1    4    4    0    0 -0.28388032604E+01 -0.11154316724E+02 -0.17229305479E+02  0.20720196743E+02  0.51100000000E-03 0. -1.
        -11    1    4    4    0    0  0.10525980019E+02 -0.21773964094E+01  0.32326041575E+01  0.11224394879E+02  0.51100000000E-03 0.  1.
        -12    1    4    4    0    0 -0.86937388387E+01  0.90357165521E+00 -0.20648752052E+02  0.22422499817E+02  0.00000000000E+00 0.  1.
</event>
<event>
 8    1  0.1271559E-006  0.9118800E+02  0.7816164E-02  0.1184000E+00
        -11   -1    0    0    0    0  0.00000000000E+00  0.00000000000E+00  0.45593999997E+02  0.45594000000E+02  0.51100000000E-03 0.  1.
         11   -1    0    0    0    0 -0.00000000000E+00 -0.00000000000E+00 -0.45593999997E+02  0.45594000000E+02  0.51100000000E-03 0. -1.
         23    2    1    2    0    0  0.00000000000E+00  0.00000000000E+00  0.00000000000E+00  0.91188000000E+02  0.91188000000E+02 0.  0.
    9900012    2    3    3    0    0 -0.34792487199E+02 -0.10888052952E+02 -0.51684862883E+01  0.54367080496E+02  0.39999991607E+02 0.  0.
        -12    1    3    3    0    0  0.34792487199E+02  0.10888052952E+02  0.51684862883E+01  0.36820919504E+02  0.00000000000E+00 0.  1.
         11    1    4    4    0    0 -0.24477405766E+02 -0.10371828522E+02 -0.89627455229E+01  0.28054394085E+02  0.51100000000E-03 0. -1.
        -11    1    4    4    0    0 -0.55707544038E+01  0.73190765791E+01  0.11229103756E+02  0.14515335270E+02  0.51100000000E-03 0.  1.
         12    1    4    4    0    0 -0.47443270292E+01 -0.78353010101E+01 -0.74348445211E+01  0.11797351140E+02  0.00000000000E+00 0. -1.
</event>
<event>
 8    1  0.1271559E-006  0.9118800E+02  0.7816164E-02  0.1184000E+00
        -11   -1    0    0    0    0  0.00000000000E+00  0.00000000000E+00  0.45593999997E+02  0.45594000000E+02  0.51100000000E-03 0.  1.
         11   -1    0    0    0    0 -0.00000000000E+00 -0.00000000000E+00 -0.45593999997E+02  0.45594000000E+02  0.51100000000E-03 0. -1.
         23    2    1    2    0    0  0.88817841970E-15 -0.35527136788E-14  0.35527136788E-14  0.91188000000E+02  0.91188000000E+02 0.  0.
    9900012    2    3    3    0    0 -0.16662277699E+01 -0.29453913948E+02  0.22033399985E+02  0.54367080990E+02  0.39999992733E+02 0.  0.
         12    1    3    3    0    0  0.16662277699E+01  0.29453913948E+02 -0.22033399985E+02  0.36820919010E+02  0.00000000000E+00 0. -1.
         11    1    4    4    0    0  0.18417034549E+01 -0.42839656375E+01 -0.63468339414E+01  0.78756926387E+01  0.51100000000E-03 0. -1.
        -11    1    4    4    0    0 -0.83564895649E+01  0.22498004867E+01  0.42305452350E+01  0.96327583445E+01  0.51100000000E-03 0.  1.
        -12    1    4    4    0    0  0.48485583400E+01 -0.27419748798E+02  0.24149688691E+02  0.36858630007E+02  0.00000000000E+00 0.  1.
</event>
<event>
 8    1  0.1271559E-006  0.9118800E+02  0.7816164E-02  0.1184000E+00
        -11   -1    0    0    0    0  0.00000000000E+00  0.00000000000E+00  0.45593999997E+02  0.45594000000E+02  0.51100000000E-03 0. -1.
         11   -1    0    0    0    0 -0.00000000000E+00 -0.00000000000E+00 -0.45593999997E+02  0.45594000000E+02  0.51100000000E-03 0.  1.
         23    2    1    2    0    0  0.00000000000E+00  0.00000000000E+00  0.71054273576E-14  0.91188000000E+02  0.91188000000E+02 0.  0.
    9900012    2    3    3    0    0  0.28181042186E+02 -0.57383535220E+01 -0.22993034002E+02  0.54367089468E+02  0.40000012060E+02 0.  0.
         12    1    3    3    0    0 -0.28181042186E+02  0.57383535220E+01  0.22993034002E+02  0.36820910532E+02  0.00000000000E+00 0. -1.
         11    1    4    4    0    0  0.44778164902E+01  0.33199818560E+01  0.47881483878E+01  0.73484342066E+01  0.51100000000E-03 0. -1.
        -11    1    4    4    0    0  0.45305262624E+01  0.20313397780E+01  0.52647359065E+01  0.72366742316E+01  0.51100000000E-03 0.  1.
        -12    1    4    4    0    0  0.19172699433E+02 -0.11089675156E+02 -0.33045918296E+02  0.39781981030E+02  0.00000000000E+00 0.  1.
</event>
<event>
 8    1  0.1271559E-006  0.9118800E+02  0.7816164E-02  0.1184000E+00
        -11   -1    0    0    0    0  0.00000000000E+00  0.00000000000E+00  0.45593999997E+02  0.45594000000E+02  0.51100000000E-03 0.  1.
         11   -1    0    0    0    0 -0.00000000000E+00 -0.00000000000E+00 -0.45593999997E+02  0.45594000000E+02  0.51100000000E-03 0. -1.
         23    2    1    2    0    0 -0.35527136788E-14  0.17763568394E-14 -0.35527136788E-14  0.91188000000E+02  0.91188000000E+02 0.  0.
    9900012    2    3    3    0    0 -0.26675495191E+02 -0.80749354674E+01  0.24062285166E+02  0.54367079399E+02  0.39999989105E+02 0.  0.
         12    1    3    3    0    0  0.26675495191E+02  0.80749354674E+01 -0.24062285166E+02  0.36820920601E+02  0.00000000000E+00 0. -1.
         11    1    4    4    0    0 -0.71454062902E+01 -0.17922181116E+02  0.11069159040E+02  0.22243823617E+02  0.51100000000E-03 0. -1.
        -11    1    4    4    0    0 -0.11188292790E+02  0.35168291977E+01 -0.38037786675E+01  0.12329424787E+02  0.51100000000E-03 0.  1.
         12    1    4    4    0    0 -0.83417961109E+01  0.63304164505E+01  0.16796904794E+02  0.19793830995E+02  0.00000000000E+00 0. -1.
</event>
<event>
 8    1  0.1271559E-006  0.9118800E+02  0.7816164E-02  0.1184000E+00
        -11   -1    0    0    0    0  0.00000000000E+00  0.00000000000E+00  0.45593999997E+02  0.45594000000E+02  0.51100000000E-03 0.  1.
         11   -1    0    0    0    0 -0.00000000000E+00 -0.00000000000E+00 -0.45593999997E+02  0.45594000000E+02  0.51100000000E-03 0. -1.
         23    2    1    2    0    0 -0.17763568394E-14  0.00000000000E+00  0.71054273576E-14  0.91188000000E+02  0.91188000000E+02 0.  0.
    9900012    2    3    3    0    0 -0.11519085724E+02  0.74802801634E+01  0.34163358954E+02  0.54367095309E+02  0.40000025376E+02 0.  0.
         12    1    3    3    0    0  0.11519085724E+02 -0.74802801634E+01 -0.34163358954E+02  0.36820904691E+02  0.00000000000E+00 0. -1.
         11    1    4    4    0    0 -0.50180965454E+01  0.90980497954E+01 -0.54650569027E+01  0.11739789190E+02  0.51100000000E-03 0. -1.
        -11    1    4    4    0    0 -0.28057978954E+01  0.62952596726E+01  0.15364529830E+02  0.16839583526E+02  0.51100000000E-03 0.  1.
        -12    1    4    4    0    0 -0.36951912831E+01 -0.79130293045E+01  0.24263886027E+02  0.25787722593E+02  0.00000000000E+00 0.  1.
</event>
<event>
 8    1  0.1271559E-006  0.9118800E+02  0.7816164E-02  0.1184000E+00
        -11   -1    0    0    0    0  0.00000000000E+00  0.00000000000E+00  0.45593999997E+02  0.45594000000E+02  0.51100000000E-03 0. -1.
         11   -1    0    0    0    0 -0.00000000000E+00 -0.00000000000E+00 -0.45593999997E+02  0.45594000000E+02  0.51100000000E-03 0.  1.
         23    2    1    2    0    0  0.00000000000E+00  0.00000000000E+00  0.00000000000E+00  0.91188000000E+02  0.91188000000E+02 0.  0.
    9900012    2    3    3    0    0 -0.11678115125E+02 -0.13876580559E+02  0.32044353375E+02  0.54367103160E+02  0.40000043273E+02 0.  0.
        -12    1    3    3    0    0  0.11678115125E+02  0.13876580559E+02 -0.32044353375E+02  0.36820896840E+02  0.00000000000E+00 0.  1.
         11    1    4    4    0    0 -0.10116299778E+02 -0.13129908563E+02  0.40010688424E+01  0.17051175098E+02  0.51100000000E-03 0. -1.
        -11    1    4    4    0    0 -0.35293033129E+01  0.41038615910E+00 -0.39088472778E+01  0.52823750318E+01  0.51100000000E-03 0.  1.
        -12    1    4    4    0    0  0.19674879662E+01 -0.11570581555E+01  0.31952131811E+02  0.32033553030E+02  0.00000000000E+00 0.  1.
</event>
<event>
 8    1  0.1271559E-006  0.9118800E+02  0.7816164E-02  0.1184000E+00
        -11   -1    0    0    0    0  0.00000000000E+00  0.00000000000E+00  0.45593999997E+02  0.45594000000E+02  0.51100000000E-03 0. -1.
         11   -1    0    0    0    0 -0.00000000000E+00 -0.00000000000E+00 -0.45593999997E+02  0.45594000000E+02  0.51100000000E-03 0.  1.
         23    2    1    2    0    0  0.00000000000E+00  0.00000000000E+00  0.00000000000E+00  0.91188000000E+02  0.91188000000E+02 0.  0.
    9900012    2    3    3    0    0  0.23918536347E+02 -0.11621167545E+02  0.25468250668E+02  0.54367085995E+02  0.40000004142E+02 0.  0.
         12    1    3    3    0    0 -0.23918536347E+02  0.11621167545E+02 -0.25468250668E+02  0.36820914005E+02  0.00000000000E+00 0. -1.
         11    1    4    4    0    0  0.12939667249E+02  0.54552373258E+01  0.21606590648E+02  0.25768961222E+02  0.51100000000E-03 0. -1.
        -11    1    4    4    0    0 -0.24406082080E+01 -0.11242605637E+02 -0.37550279013E+01  0.12101776099E+02  0.51100000000E-03 0.  1.
        -12    1    4    4    0    0  0.13419477306E+02 -0.58337992337E+01  0.76166879214E+01  0.16496348674E+02  0.00000000000E+00 0.  1.
</event>
<event>
 8    1  0.1271559E-006  0.9118800E+02  0.7816164E-02  0.1184000E+00
        -11   -1    0    0    0    0  0.00000000000E+00  0.00000000000E+00  0.45593999997E+02  0.45594000000E+02  0.51100000000E-03 0. -1.
         11   -1    0    0    0    0 -0.00000000000E+00 -0.00000000000E+00 -0.45593999997E+02  0.45594000000E+02  0.51100000000E-03 0.  1.
         23    2    1    2    0    0  0.35527136788E-14  0.00000000000E+00 -0.35527136788E-14  0.91188000000E+02  0.91188000000E+02 0.  0.
    9900012    2    3    3    0    0  0.15186428157E+02 -0.20097076151E+02  0.26856267931E+02  0.54367092934E+02  0.40000019961E+02 0.  0.
        -12    1    3    3    0    0 -0.15186428157E+02  0.20097076151E+02 -0.26856267931E+02  0.36820907066E+02  0.00000000000E+00 0.  1.
         11    1    4    4    0    0 -0.28513613203E+01  0.35065935970E+01 -0.24706543653E+01  0.51507856961E+01  0.51100000000E-03 0. -1.
        -11    1    4    4    0    0  0.68628144262E+01 -0.65300532537E+01 -0.38831850710E+01  0.10238112321E+02  0.51100000000E-03 0.  1.
         12    1    4    4    0    0  0.11174975051E+02 -0.17073616494E+02  0.33210107368E+02  0.38978194916E+02  0.00000000000E+00 0. -1.
</event>
<event>
 8    1  0.1271559E-006  0.9118800E+02  0.7816164E-02  0.1184000E+00
        -11   -1    0    0    0    0  0.00000000000E+00  0.00000000000E+00  0.45593999997E+02  0.45594000000E+02  0.51100000000E-03 0. -1.
         11   -1    0    0    0    0 -0.00000000000E+00 -0.00000000000E+00 -0.45593999997E+02  0.45594000000E+02  0.51100000000E-03 0.  1.
         23    2    1    2    0    0  0.71054273576E-14  0.35527136788E-14 -0.35527136788E-14  0.91188000000E+02  0.91188000000E+02 0.  0.
    9900012    2    3    3    0    0 -0.21487024941E+02 -0.28236413179E+02  0.98383638587E+01  0.54367072888E+02  0.39999974262E+02 0.  0.
         12    1    3    3    0    0  0.21487024941E+02  0.28236413179E+02 -0.98383638587E+01  0.36820927112E+02  0.00000000000E+00 0. -1.
         11    1    4    4    0    0 -0.23039799783E+01 -0.26719281449E+02 -0.58865456265E+01  0.27456870626E+02  0.51100000000E-03 0. -1.
        -11    1    4    4    0    0  0.80876565411E+00 -0.22959134022E+00 -0.62853761917E+00  0.10497017989E+01  0.51100000000E-03 0.  1.
        -12    1    4    4    0    0 -0.19991810617E+02 -0.12875403892E+01  0.16353447104E+02  0.25860500463E+02  0.00000000000E+00 0.  1.
</event>
<event>
 8    1  0.1271559E-006  0.9118800E+02  0.7816164E-02  0.1184000E+00
        -11   -1    0    0    0    0  0.00000000000E+00  0.00000000000E+00  0.45593999997E+02  0.45594000000E+02  0.51100000000E-03 0.  1.
         11   -1    0    0    0    0 -0.00000000000E+00 -0.00000000000E+00 -0.45593999997E+02  0.45594000000E+02  0.51100000000E-03 0. -1.
         23    2    1    2    0    0  0.00000000000E+00  0.71054273576E-14  0.00000000000E+00  0.91188000000E+02  0.91188000000E+02 0.  0.
    9900012    2    3    3    0    0  0.79749993390E+01  0.29373186620E+02  0.20721870500E+02  0.54367073563E+02  0.39999975802E+02 0.  0.
         12    1    3    3    0    0 -0.79749993390E+01 -0.29373186620E+02 -0.20721870500E+02  0.36820926437E+02  0.00000000000E+00 0. -1.
         11    1    4    4    0    0  0.13818364058E+02  0.22225767929E+02  0.77345584339E+01  0.27290205930E+02  0.51100000000E-03 0. -1.
        -11    1    4    4    0    0 -0.71096100431E+01  0.14522184646E+02  0.10052337841E+02  0.19039167477E+02  0.51100000000E-03 0.  1.
         12    1    4    4    0    0  0.12662453238E+01 -0.73747659548E+01  0.29349742243E+01  0.80377001565E+01  0.00000000000E+00 0. -1.
</event>
<event>
 8    1  0.1271559E-006  0.9118800E+02  0.7816164E-02  0.1184000E+00
        -11   -1    0    0    0    0  0.00000000000E+00  0.00000000000E+00  0.45593999997E+02  0.45594000000E+02  0.51100000000E-03 0.  1.
         11   -1    0    0    0    0 -0.00000000000E+00 -0.00000000000E+00 -0.45593999997E+02  0.45594000000E+02  0.51100000000E-03 0. -1.
         23    2    1    2    0    0  0.00000000000E+00  0.17763568394E-14 -0.71054273576E-14  0.91188000000E+02  0.91188000000E+02 0.  0.
    9900012    2    3    3    0    0  0.38639133040E+01  0.11465088416E+02 -0.34776454219E+02  0.54367084117E+02  0.39999999862E+02 0.  0.
        -12    1    3    3    0    0 -0.38639133040E+01 -0.11465088416E+02  0.34776454219E+02  0.36820915883E+02  0.00000000000E+00 0.  1.
         11    1    4    4    0    0  0.12682330512E+01  0.38653986160E+01 -0.15558140345E+02  0.16081214282E+02  0.51100000000E-03 0. -1.
        -11    1    4    4    0    0  0.69216610184E+01  0.81498504128E+01 -0.27180316470E+02  0.29207859501E+02  0.51100000000E-03 0.  1.
        -12    1    4    4    0    0 -0.43259807656E+01 -0.55016061295E+00  0.79620025956E+01  0.90780103336E+01  0.00000000000E+00 0.  1.
</event>
<event>
 8    1  0.1271559E-006  0.9118800E+02  0.7816164E-02  0.1184000E+00
        -11   -1    0    0    0    0  0.00000000000E+00  0.00000000000E+00  0.45593999997E+02  0.45594000000E+02  0.51100000000E-03 0. -1.
         11   -1    0    0    0    0 -0.00000000000E+00 -0.00000000000E+00 -0.45593999997E+02  0.45594000000E+02  0.51100000000E-03 0.  1.
         23    2    1    2    0    0  0.00000000000E+00  0.00000000000E+00  0.88817841970E-15  0.91188000000E+02  0.91188000000E+02 0.  0.
    9900012    2    3    3    0    0  0.83311098874E+01 -0.35747775822E+02 -0.29104330883E+01  0.54367061813E+02  0.39999949016E+02 0.  0.
        -12    1    3    3    0    0 -0.83311098874E+01  0.35747775822E+02  0.29104330883E+01  0.36820938187E+02  0.00000000000E+00 0.  1.
         11    1    4    4    0    0 -0.58968694589E+01 -0.46555004963E+01 -0.37309310349E+01  0.83884802518E+01  0.51100000000E-03 0. -1.
        -11    1    4    4    0    0  0.17192066181E+02 -0.12317729989E+02  0.11606076109E+02  0.24124564547E+02  0.51100000000E-03 0.  1.
        -12    1    4    4    0    0 -0.29640868349E+01 -0.18774545337E+02 -0.10785578163E+02  0.21854017015E+02  0.00000000000E+00 0.  1.
</event>
<event>
 8    1  0.1271559E-006  0.9118800E+02  0.7816164E-02  0.1184000E+00
        -11   -1    0    0    0    0  0.00000000000E+00  0.00000000000E+00  0.45593999997E+02  0.45594000000E+02  0.51100000000E-03 0. -1.
         11   -1    0    0    0    0 -0.00000000000E+00 -0.00000000000E+00 -0.45593999997E+02  0.45594000000E+02  0.51100000000E-03 0.  1.
         23    2    1    2    0    0  0.35527136788E-14  0.35527136788E-14  0.35527136788E-14  0.91188000000E+02  0.91188000000E+02 0.  0.
    9900012    2    3    3    0    0 -0.22215034606E+02 -0.28718618585E+02 -0.61248085315E+01  0.54367080735E+02  0.39999992151E+02 0.  0.
         12    1    3    3    0    0  0.22215034606E+02  0.28718618585E+02  0.61248085315E+01  0.36820919265E+02  0.00000000000E+00 0. -1.
         11    1    4    4    0    0 -0.87666877124E+01 -0.39699123583E+01  0.13486983805E+02  0.16568456476E+02  0.51100000000E-03 0. -1.
        -11    1    4    4    0    0  0.26038279609E+00 -0.11555918428E+02 -0.17282785320E+01  0.11687343448E+02  0.51100000000E-03 0.  1.
         12    1    4    4    0    0 -0.13708729689E+02 -0.13192787799E+02 -0.17883513804E+02  0.26111280811E+02  0.00000000000E+00 0. -1.
</event>
<event>
 8    1  0.1271559E-006  0.9118800E+02  0.7816164E-02  0.1184000E+00
        -11   -1    0    0    0    0  0.00000000000E+00  0.00000000000E+00  0.45593999997E+02  0.45594000000E+02  0.51100000000E-03 0. -1.
         11   -1    0    0    0    0 -0.00000000000E+00 -0.00000000000E+00 -0.45593999997E+02  0.45594000000E+02  0.51100000000E-03 0.  1.
         23    2    1    2    0    0  0.00000000000E+00 -0.35527136788E-14  0.35527136788E-14  0.91188000000E+02  0.91188000000E+02 0.  0.
    9900012    2    3    3    0    0 -0.17241432494E+02 -0.25683714494E+02  0.19971480622E+02  0.54367079005E+02  0.39999988208E+02 0.  0.
        -12    1    3    3    0    0  0.17241432494E+02  0.25683714494E+02 -0.19971480622E+02  0.36820920995E+02  0.00000000000E+00 0.  1.
         11    1    4    4    0    0 -0.77625762394E+01 -0.60272794404E+01  0.11718802394E+02  0.15294313229E+02  0.51100000000E-03 0. -1.
        -11    1    4    4    0    0 -0.14836857486E+02 -0.15157402868E+02 -0.69643117580E+01  0.22324444904E+02  0.51100000000E-03 0.  1.
        -12    1    4    4    0    0  0.53580012306E+01 -0.44990321852E+01  0.15216989986E+02  0.16748320872E+02  0.00000000000E+00 0.  1.
</event>
<event>
 8    1  0.1271559E-006  0.9118800E+02  0.7816164E-02  0.1184000E+00
        -11   -1    0    0    0    0  0.00000000000E+00  0.00000000000E+00  0.45593999997E+02  0.45594000000E+02  0.51100000000E-03 0.  1.
         11   -1    0    0    0    0 -0.00000000000E+00 -0.00000000000E+00 -0.45593999997E+02  0.45594000000E+02  0.51100000000E-03 0. -1.
         23    2    1    2    0    0  0.00000000000E+00  0.71054273576E-14  0.00000000000E+00  0.91188000000E+02  0.91188000000E+02 0.  0.
    9900012    2    3    3    0    0 -0.11548921801E+01  0.33550246734E+02  0.15127042817E+02  0.54367078552E+02  0.39999987176E+02 0.  0.
         12    1    3    3    0    0  0.11548921801E+01 -0.33550246734E+02 -0.15127042817E+02  0.36820921448E+02  0.00000000000E+00 0. -1.
         11    1    4    4    0    0 -0.37644767197E+01 -0.22478330474E+01  0.13250357368E+01  0.45803666171E+01  0.51100000000E-03 0. -1.
        -11    1    4    4    0    0  0.48217123661E+00  0.41625532326E+02  0.11811885851E+02  0.43271677551E+02  0.51100000000E-03 0.  1.
        -12    1    4    4    0    0  0.21274133030E+01 -0.58274525442E+01  0.19901212298E+01  0.65150343842E+01  0.00000000000E+00 0.  1.
</event>
<event>
 8    1  0.1271559E-006  0.9118800E+02  0.7816164E-02  0.1184000E+00
        -11   -1    0    0    0    0  0.00000000000E+00  0.00000000000E+00  0.45593999997E+02  0.45594000000E+02  0.51100000000E-03 0.  1.
         11   -1    0    0    0    0 -0.00000000000E+00 -0.00000000000E+00 -0.45593999997E+02  0.45594000000E+02  0.51100000000E-03 0. -1.
         23    2    1    2    0    0  0.00000000000E+00 -0.17763568394E-14  0.35527136788E-14  0.91188000000E+02  0.91188000000E+02 0.  0.
    9900012    2    3    3    0    0  0.24406884311E+02  0.12165599702E+02 -0.24740292070E+02  0.54367083803E+02  0.39999999146E+02 0.  0.
        -12    1    3    3    0    0 -0.24406884311E+02 -0.12165599702E+02  0.24740292070E+02  0.36820916197E+02  0.00000000000E+00 0.  1.
         11    1    4    4    0    0  0.30513880348E+02  0.12541862825E+02 -0.18294040770E+02  0.37723562199E+02  0.51100000000E-03 0. -1.
        -11    1    4    4    0    0 -0.49451805059E+01  0.48403029590E+01 -0.84624834069E+01  0.10931466903E+02  0.51100000000E-03 0.  1.
        -12    1    4    4    0    0 -0.11618155314E+01 -0.52165660811E+01  0.20162321067E+01  0.57120547018E+01  0.00000000000E+00 0.  1.
</event>
<event>
 8    1  0.1271559E-006  0.9118800E+02  0.7816164E-02  0.1184000E+00
        -11   -1    0    0    0    0  0.00000000000E+00  0.00000000000E+00  0.45593999997E+02  0.45594000000E+02  0.51100000000E-03 0. -1.
         11   -1    0    0    0    0 -0.00000000000E+00 -0.00000000000E+00 -0.45593999997E+02  0.45594000000E+02  0.51100000000E-03 0.  1.
         23    2    1    2    0    0  0.00000000000E+00  0.00000000000E+00  0.35527136788E-14  0.91188000000E+02  0.91188000000E+02 0.  0.
    9900012    2    3    3    0    0 -0.24140842739E+02  0.16002242663E+02  0.22735851810E+02  0.54367204029E+02  0.40000273224E+02 0.  0.
        -12    1    3    3    0    0  0.24140842739E+02 -0.16002242663E+02 -0.22735851810E+02  0.36820795971E+02  0.00000000000E+00 0.  1.
         11    1    4    4    0    0 -0.22196625704E+01  0.13346784726E+02  0.79960122046E+01  0.15716226515E+02  0.51100000000E-03 0. -1.
        -11    1    4    4    0    0  0.13412197224E+01  0.31640153817E+01 -0.63675398156E+01  0.72357050274E+01  0.51100000000E-03 0.  1.
         12    1    4    4    0    0 -0.23262399891E+02 -0.50855744409E+00  0.21107379421E+02  0.31415272486E+02  0.00000000000E+00 0. -1.
</event>
<event>
 8    1  0.1271559E-006  0.9118800E+02  0.7816164E-02  0.1184000E+00
        -11   -1    0    0    0    0  0.00000000000E+00  0.00000000000E+00  0.45593999997E+02  0.45594000000E+02  0.51100000000E-03 0. -1.
         11   -1    0    0    0    0 -0.00000000000E+00 -0.00000000000E+00 -0.45593999997E+02  0.45594000000E+02  0.51100000000E-03 0.  1.
         23    2    1    2    0    0 -0.17763568394E-14  0.35527136788E-14  0.00000000000E+00  0.91188000000E+02  0.91188000000E+02 0.  0.
    9900012    2    3    3    0    0  0.15245044690E+02 -0.18722829127E+02  0.27799717942E+02  0.54367081546E+02  0.39999994001E+02 0.  0.
         12    1    3    3    0    0 -0.15245044690E+02  0.18722829127E+02 -0.27799717942E+02  0.36820918454E+02  0.00000000000E+00 0. -1.
         11    1    4    4    0    0  0.28043170290E+02 -0.13173552587E+02  0.16715656658E+02  0.35204759130E+02  0.51100000000E-03 0. -1.
        -11    1    4    4    0    0  0.58157166521E+00 -0.14930767587E+01  0.70875884735E+00  0.17520967935E+01  0.51100000000E-03 0.  1.
         12    1    4    4    0    0 -0.13379697265E+02 -0.40561997804E+01  0.10375302437E+02  0.17410225622E+02  0.00000000000E+00 0. -1.
</event>
<event>
 8    1  0.1271559E-006  0.9118800E+02  0.7816164E-02  0.1184000E+00
        -11   -1    0    0    0    0  0.00000000000E+00  0.00000000000E+00  0.45593999997E+02  0.45594000000E+02  0.51100000000E-03 0. -1.
         11   -1    0    0    0    0 -0.00000000000E+00 -0.00000000000E+00 -0.45593999997E+02  0.45594000000E+02  0.51100000000E-03 0.  1.
         23    2    1    2    0    0 -0.88817841970E-15  0.88817841970E-15  0.00000000000E+00  0.91188000000E+02  0.91188000000E+02 0.  0.
    9900012    2    3    3    0    0  0.52304587958E+01  0.58847662273E+01 -0.35969274423E+02  0.54367124464E+02  0.40000091840E+02 0.  0.
         12    1    3    3    0    0 -0.52304587958E+01 -0.58847662273E+01  0.35969274423E+02  0.36820875536E+02  0.00000000000E+00 0. -1.
         11    1    4    4    0    0  0.64503650793E+01  0.12129766974E+02 -0.49344792699E+01  0.14597518365E+02  0.51100000000E-03 0. -1.
        -11    1    4    4    0    0  0.76022946749E+01 -0.19490744103E+01 -0.28603065591E+02  0.29660228200E+02  0.51100000000E-03 0.  1.
        -12    1    4    4    0    0 -0.88222009584E+01 -0.42959263365E+01 -0.24317295612E+01  0.10109377899E+02  0.00000000000E+00 0.  1.
</event>
<event>
 8    1  0.1271559E-006  0.9118800E+02  0.7816164E-02  0.1184000E+00
        -11   -1    0    0    0    0  0.00000000000E+00  0.00000000000E+00  0.45593999997E+02  0.45594000000E+02  0.51100000000E-03 0.  1.
         11   -1    0    0    0    0 -0.00000000000E+00 -0.00000000000E+00 -0.45593999997E+02  0.45594000000E+02  0.51100000000E-03 0. -1.
         23    2    1    2    0    0 -0.35527136788E-14  0.17763568394E-14 -0.35527136788E-14  0.91188000000E+02  0.91188000000E+02 0.  0.
    9900012    2    3    3    0    0 -0.22941258425E+02  0.12617134978E+02  0.25889895129E+02  0.54367080634E+02  0.39999991921E+02 0.  0.
         12    1    3    3    0    0  0.22941258425E+02 -0.12617134978E+02 -0.25889895129E+02  0.36820919366E+02  0.00000000000E+00 0. -1.
         11    1    4    4    0    0 -0.17341182740E+02  0.58719221248E+01  0.12573750187E+02  0.22210251738E+02  0.51100000000E-03 0. -1.
        -11    1    4    4    0    0 -0.12607690383E+02  0.11380428537E+02  0.16002873357E+02  0.23335808673E+02  0.51100000000E-03 0.  1.
         12    1    4    4    0    0  0.70076146981E+01 -0.46352156838E+01 -0.26867284148E+01  0.88210202226E+01  0.00000000000E+00 0. -1.
</event>
<event>
 8    1  0.1271559E-006  0.9118800E+02  0.7816164E-02  0.1184000E+00
        -11   -1    0    0    0    0  0.00000000000E+00  0.00000000000E+00  0.45593999997E+02  0.45594000000E+02  0.51100000000E-03 0.  1.
         11   -1    0    0    0    0 -0.00000000000E+00 -0.00000000000E+00 -0.45593999997E+02  0.45594000000E+02  0.51100000000E-03 0. -1.
         23    2    1    2    0    0  0.44408920985E-15 -0.17763568394E-14  0.71054273576E-14  0.91188000000E+02  0.91188000000E+02 0.  0.
    9900012    2    3    3    0    0  0.39504807613E+01 -0.12021709320E+02  0.34578207009E+02  0.54367079409E+02  0.39999989130E+02 0.  0.
         12    1    3    3    0    0 -0.39504807613E+01  0.12021709320E+02 -0.34578207009E+02  0.36820920591E+02  0.00000000000E+00 0. -1.
         11    1    4    4    0    0  0.39573333177E+01  0.60279284326E+01 -0.11308316564E+01  0.72989854550E+01  0.51100000000E-03 0. -1.
        -11    1    4    4    0    0 -0.58662162312E+01 -0.17883430501E+02  0.11272886321E+02  0.21938722516E+02  0.51100000000E-03 0.  1.
        -12    1    4    4    0    0  0.58593636749E+01 -0.16620725139E+00  0.24436152344E+02  0.25129371439E+02  0.00000000000E+00 0.  1.
</event>
<event>
 8    1  0.1271559E-006  0.9118800E+02  0.7816164E-02  0.1184000E+00
        -11   -1    0    0    0    0  0.00000000000E+00  0.00000000000E+00  0.45593999997E+02  0.45594000000E+02  0.51100000000E-03 0. -1.
         11   -1    0    0    0    0 -0.00000000000E+00 -0.00000000000E+00 -0.45593999997E+02  0.45594000000E+02  0.51100000000E-03 0.  1.
         23    2    1    2    0    0  0.00000000000E+00  0.13322676296E-14  0.00000000000E+00  0.91188000000E+02  0.91188000000E+02 0.  0.
    9900012    2    3    3    0    0 -0.23601801945E+02 -0.18072676966E+01 -0.28204057116E+02  0.54367080547E+02  0.39999991723E+02 0.  0.
         12    1    3    3    0    0  0.23601801945E+02  0.18072676966E+01  0.28204057116E+02  0.36820919453E+02  0.00000000000E+00 0. -1.
         11    1    4    4    0    0 -0.12996869768E+02  0.89722710185E+01 -0.59032119166E+01  0.16860254512E+02  0.51100000000E-03 0. -1.
        -11    1    4    4    0    0 -0.79609210673E+01  0.73226431867E+01 -0.37379606603E+01  0.11444200175E+02  0.51100000000E-03 0.  1.
         12    1    4    4    0    0 -0.26440111090E+01 -0.18102181902E+02 -0.18562884539E+02  0.26062625861E+02  0.00000000000E+00 0. -1.
</event>
<event>
 8    1  0.1271559E-006  0.9118800E+02  0.7816164E-02  0.1184000E+00
        -11   -1    0    0    0    0  0.00000000000E+00  0.00000000000E+00  0.45593999997E+02  0.45594000000E+02  0.51100000000E-03 0.  1.
         11   -1    0    0    0    0 -0.00000000000E+00 -0.00000000000E+00 -0.45593999997E+02  0.45594000000E+02  0.51100000000E-03 0. -1.
         23    2    1    2    0    0  0.17763568394E-14  0.35527136788E-14  0.00000000000E+00  0.91188000000E+02  0.91188000000E+02 0.  0.
    9900012    2    3    3    0    0 -0.87355013319E+01 -0.26956203008E+02  0.23512399482E+02  0.54367098415E+02  0.40000032456E+02 0.  0.
         12    1    3    3    0    0  0.87355013319E+01  0.26956203008E+02 -0.23512399482E+02  0.36820901585E+02  0.00000000000E+00 0. -1.
         11    1    4    4    0    0 -0.57619827724E+01 -0.14339339803E+02  0.89144380032E+01  0.17840524561E+02  0.51100000000E-03 0. -1.
        -11    1    4    4    0    0  0.18743757132E+01 -0.21663909079E+02  0.14725464729E+02  0.26261712675E+02  0.51100000000E-03 0.  1.
         12    1    4    4    0    0 -0.48478942726E+01  0.90470458738E+01 -0.12750324941E+00  0.10264861178E+02  0.00000000000E+00 0. -1.
</event>
<event>
 8    1  0.1271559E-006  0.9118800E+02  0.7816164E-02  0.1184000E+00
        -11   -1    0    0    0    0  0.00000000000E+00  0.00000000000E+00  0.45593999997E+02  0.45594000000E+02  0.51100000000E-03 0.  1.
         11   -1    0    0    0    0 -0.00000000000E+00 -0.00000000000E+00 -0.45593999997E+02  0.45594000000E+02  0.51100000000E-03 0. -1.
         23    2    1    2    0    0 -0.44408920985E-15  0.17763568394E-14  0.71054273576E-14  0.91188000000E+02  0.91188000000E+02 0.  0.
    9900012    2    3    3    0    0 -0.33924410811E+01 -0.63454982929E+01  0.36110997771E+02  0.54367106949E+02  0.40000051912E+02 0.  0.
         12    1    3    3    0    0  0.33924410811E+01  0.63454982929E+01 -0.36110997771E+02  0.36820893051E+02  0.00000000000E+00 0. -1.
         11    1    4    4    0    0 -0.40896478212E+01 -0.10792434422E+02  0.17137820911E+02  0.20661722239E+02  0.51100000000E-03 0. -1.
        -11    1    4    4    0    0  0.39792492044E+01 -0.48269622943E+01  0.22423940027E+02  0.23280186336E+02  0.51100000000E-03 0.  1.
         12    1    4    4    0    0 -0.32820424643E+01  0.92738984230E+01 -0.34507631681E+01  0.10425198374E+02  0.00000000000E+00 0. -1.
</event>
<event>
 8    1  0.1271559E-006  0.9118800E+02  0.7816164E-02  0.1184000E+00
        -11   -1    0    0    0    0  0.00000000000E+00  0.00000000000E+00  0.45593999997E+02  0.45594000000E+02  0.51100000000E-03 0. -1.
         11   -1    0    0    0    0 -0.00000000000E+00 -0.00000000000E+00 -0.45593999997E+02  0.45594000000E+02  0.51100000000E-03 0.  1.
         23    2    1    2    0    0  0.35527136788E-14  0.17763568394E-14  0.00000000000E+00  0.91188000000E+02  0.91188000000E+02 0.  0.
    9900012    2    3    3    0    0 -0.19520670858E+02 -0.10421098032E+02  0.29429989063E+02  0.54367080250E+02  0.39999991047E+02 0.  0.
        -12    1    3    3    0    0  0.19520670858E+02  0.10421098032E+02 -0.29429989063E+02  0.36820919750E+02  0.00000000000E+00 0.  1.
         11    1    4    4    0    0 -0.41207879557E+01 -0.26886943170E+01  0.12975524609E+02  0.13877110998E+02  0.51100000000E-03 0. -1.
        -11    1    4    4    0    0  0.84756234085E+01  0.29294537054E+01 -0.10424299494E+01  0.90279871308E+01  0.51100000000E-03 0.  1.
        -12    1    4    4    0    0 -0.23875506311E+02 -0.10661857420E+02  0.17496894404E+02  0.31461982122E+02  0.00000000000E+00 0.  1.
</event>
<event>
 8    1  0.1271559E-006  0.9118800E+02  0.7816164E-02  0.1184000E+00
        -11   -1    0    0    0    0  0.00000000000E+00  0.00000000000E+00  0.45593999997E+02  0.45594000000E+02  0.51100000000E-03 0. -1.
         11   -1    0    0    0    0 -0.00000000000E+00 -0.00000000000E+00 -0.45593999997E+02  0.45594000000E+02  0.51100000000E-03 0.  1.
         23    2    1    2    0    0  0.35527136788E-14  0.35527136788E-14 -0.17763568394E-14  0.91188000000E+02  0.91188000000E+02 0.  0.
    9900012    2    3    3    0    0 -0.27450183497E+02 -0.24360288090E+02  0.29731289092E+01  0.54367140350E+02  0.40000128057E+02 0.  0.
        -12    1    3    3    0    0  0.27450183497E+02  0.24360288090E+02 -0.29731289092E+01  0.36820859650E+02  0.00000000000E+00 0.  1.
         11    1    4    4    0    0 -0.25326301723E+02 -0.85909528701E+01  0.68369880195E+01  0.27603811977E+02  0.51100000000E-03 0.  1.
        -11    1    4    4    0    0  0.27172740291E+01 -0.98406991282E+01 -0.11890754862E+02  0.15672044823E+02  0.51100000000E-03 0. -1.
        -12    1    4    4    0    0 -0.48411558025E+01 -0.59286360914E+01  0.80268957514E+01  0.11091283551E+02  0.00000000000E+00 0.  1.
</event>
<event>
 8    1  0.1271559E-006  0.9118800E+02  0.7816164E-02  0.1184000E+00
        -11   -1    0    0    0    0  0.00000000000E+00  0.00000000000E+00  0.45593999997E+02  0.45594000000E+02  0.51100000000E-03 0. -1.
         11   -1    0    0    0    0 -0.00000000000E+00 -0.00000000000E+00 -0.45593999997E+02  0.45594000000E+02  0.51100000000E-03 0.  1.
         23    2    1    2    0    0  0.00000000000E+00  0.00000000000E+00 -0.44408920985E-15  0.91188000000E+02  0.91188000000E+02 0.  0.
    9900012    2    3    3    0    0  0.28348369459E+02 -0.23254461396E+02  0.33733294141E+01  0.54367090490E+02  0.40000014390E+02 0.  0.
         12    1    3    3    0    0 -0.28348369459E+02  0.23254461396E+02 -0.33733294141E+01  0.36820909510E+02  0.00000000000E+00 0. -1.
         11    1    4    4    0    0  0.16648835253E+02 -0.12162481889E+02 -0.15697161843E+01  0.20677855067E+02  0.51100000000E-03 0. -1.
        -11    1    4    4    0    0  0.13802986554E+02 -0.18654778681E+02 -0.18886989690E+01  0.23282834654E+02  0.51100000000E-03 0.  1.
         12    1    4    4    0    0 -0.21034523476E+01  0.75627991752E+01  0.68317445674E+01  0.10406400770E+02  0.00000000000E+00 0. -1.
</event>
<event>
 8    1  0.1271559E-006  0.9118800E+02  0.7816164E-02  0.1184000E+00
        -11   -1    0    0    0    0  0.00000000000E+00  0.00000000000E+00  0.45593999997E+02  0.45594000000E+02  0.51100000000E-03 0.  1.
         11   -1    0    0    0    0 -0.00000000000E+00 -0.00000000000E+00 -0.45593999997E+02  0.45594000000E+02  0.51100000000E-03 0. -1.
         23    2    1    2    0    0  0.35527136788E-14  0.35527136788E-14  0.17763568394E-14  0.91188000000E+02  0.91188000000E+02 0.  0.
    9900012    2    3    3    0    0  0.22983189579E+02 -0.25912556370E+02 -0.12493661464E+02  0.54367093471E+02  0.40000021185E+02 0.  0.
        -12    1    3    3    0    0 -0.22983189579E+02  0.25912556370E+02  0.12493661464E+02  0.36820906529E+02  0.00000000000E+00 0.  1.
         11    1    4    4    0    0  0.13755574472E+02 -0.59670703593E+01 -0.12851183819E+02  0.19747776673E+02  0.51100000000E-03 0. -1.
        -11    1    4    4    0    0  0.16111686935E+02 -0.19755493757E+02  0.54322392523E+01  0.26064827124E+02  0.51100000000E-03 0.  1.
        -12    1    4    4    0    0 -0.68840718272E+01 -0.18999225353E+00 -0.50747168980E+01  0.85544896735E+01  0.00000000000E+00 0.  1.
</event>
<event>
 8    1  0.1271559E-006  0.9118800E+02  0.7816164E-02  0.1184000E+00
        -11   -1    0    0    0    0  0.00000000000E+00  0.00000000000E+00  0.45593999997E+02  0.45594000000E+02  0.51100000000E-03 0.  1.
         11   -1    0    0    0    0 -0.00000000000E+00 -0.00000000000E+00 -0.45593999997E+02  0.45594000000E+02  0.51100000000E-03 0. -1.
         23    2    1    2    0    0  0.35527136788E-14  0.00000000000E+00  0.35527136788E-14  0.91188000000E+02  0.91188000000E+02 0.  0.
    9900012    2    3    3    0    0 -0.22357066279E+02  0.92347729328E+01 -0.27760770027E+02  0.54367084799E+02  0.40000001416E+02 0.  0.
        -12    1    3    3    0    0  0.22357066279E+02 -0.92347729328E+01  0.27760770027E+02  0.36820915201E+02  0.00000000000E+00 0.  1.
         11    1    4    4    0    0 -0.25194567670E+02  0.15696420590E+02 -0.22736247864E+02  0.37390919039E+02  0.51100000000E-03 0. -1.
        -11    1    4    4    0    0  0.54683359274E+01 -0.27578906355E+01 -0.90357319156E+01  0.10915727648E+02  0.51100000000E-03 0.  1.
         12    1    4    4    0    0 -0.26308345363E+01 -0.37037570216E+01  0.40112097519E+01  0.60604381117E+01  0.00000000000E+00 0. -1.
</event>
<event>
 8    1  0.1271559E-006  0.9118800E+02  0.7816164E-02  0.1184000E+00
        -11   -1    0    0    0    0  0.00000000000E+00  0.00000000000E+00  0.45593999997E+02  0.45594000000E+02  0.51100000000E-03 0.  1.
         11   -1    0    0    0    0 -0.00000000000E+00 -0.00000000000E+00 -0.45593999997E+02  0.45594000000E+02  0.51100000000E-03 0. -1.
         23    2    1    2    0    0  0.35527136788E-14  0.00000000000E+00 -0.35527136788E-14  0.91188000000E+02  0.91188000000E+02 0.  0.
    9900012    2    3    3    0    0  0.21970743279E+02  0.20286778138E+02 -0.21482929802E+02  0.54367038573E+02  0.39999896036E+02 0.  0.
        -12    1    3    3    0    0 -0.21970743279E+02 -0.20286778138E+02  0.21482929802E+02  0.36820961427E+02  0.00000000000E+00 0.  1.
         11    1    4    4    0    0  0.96404833202E+01  0.39967905259E+01 -0.36035829720E+01  0.11040790898E+02  0.51100000000E-03 0. -1.
        -11    1    4    4    0    0  0.11202812554E+02  0.11089309688E+01 -0.24318295044E+02  0.26797615773E+02  0.51100000000E-03 0.  1.
        -12    1    4    4    0    0  0.11274474056E+01  0.15181056644E+02  0.64389482138E+01  0.16528631902E+02  0.00000000000E+00 0.  1.
</event>
<event>
 8    1  0.1271559E-006  0.9118800E+02  0.7816164E-02  0.1184000E+00
        -11   -1    0    0    0    0  0.00000000000E+00  0.00000000000E+00  0.45593999997E+02  0.45594000000E+02  0.51100000000E-03 0.  1.
         11   -1    0    0    0    0 -0.00000000000E+00 -0.00000000000E+00 -0.45593999997E+02  0.45594000000E+02  0.51100000000E-03 0. -1.
         23    2    1    2    0    0  0.00000000000E+00  0.00000000000E+00 -0.26645352591E-14  0.91188000000E+02  0.91188000000E+02 0.  0.
    9900012    2    3    3    0    0  0.23670982375E+02  0.27861746751E+02  0.43803257762E+01  0.54367087566E+02  0.40000007723E+02 0.  0.
         12    1    3    3    0    0 -0.23670982375E+02 -0.27861746751E+02 -0.43803257762E+01  0.36820912434E+02  0.00000000000E+00 0. -1.
         11    1    4    4    0    0  0.57567458744E+01  0.80748524055E+01 -0.16694237707E+02  0.19417542000E+02  0.51100000000E-03 0. -1.
        -11    1    4    4    0    0  0.67816784185E+01  0.67961662934E+01  0.12646218172E+02  0.15877842195E+02  0.51100000000E-03 0.  1.
        -12    1    4    4    0    0  0.11132558082E+02  0.12990728052E+02  0.84283453116E+01  0.19071703371E+02  0.00000000000E+00 0.  1.
</event>
<event>
 8    1  0.1271559E-006  0.9118800E+02  0.7816164E-02  0.1184000E+00
        -11   -1    0    0    0    0  0.00000000000E+00  0.00000000000E+00  0.45593999997E+02  0.45594000000E+02  0.51100000000E-03 0. -1.
         11   -1    0    0    0    0 -0.00000000000E+00 -0.00000000000E+00 -0.45593999997E+02  0.45594000000E+02  0.51100000000E-03 0.  1.
         23    2    1    2    0    0  0.71054273576E-14  0.35527136788E-14  0.88817841970E-15  0.91188000000E+02  0.91188000000E+02 0.  0.
    9900012    2    3    3    0    0 -0.30425699800E+02 -0.19721458961E+02 -0.64125109143E+01  0.54367089526E+02  0.40000012193E+02 0.  0.
         12    1    3    3    0    0  0.30425699800E+02  0.19721458961E+02  0.64125109143E+01  0.36820910474E+02  0.00000000000E+00 0. -1.
         11    1    4    4    0    0  0.22416817305E+01 -0.12998701432E+02  0.71386786301E+01  0.14998403540E+02  0.51100000000E-03 0. -1.
        -11    1    4    4    0    0 -0.11742858542E+01 -0.49791189293E+01 -0.37386747119E+01  0.63362655754E+01  0.51100000000E-03 0.  1.
        -12    1    4    4    0    0 -0.31493095676E+02 -0.17436385996E+01 -0.98125148325E+01  0.33032420411E+02  0.00000000000E+00 0.  1.
</event>
<event>
 8    1  0.1271559E-006  0.9118800E+02  0.7816164E-02  0.1184000E+00
        -11   -1    0    0    0    0  0.00000000000E+00  0.00000000000E+00  0.45593999997E+02  0.45594000000E+02  0.51100000000E-03 0.  1.
         11   -1    0    0    0    0 -0.00000000000E+00 -0.00000000000E+00 -0.45593999997E+02  0.45594000000E+02  0.51100000000E-03 0. -1.
         23    2    1    2    0    0 -0.71054273576E-14 -0.35527136788E-14 -0.44408920985E-15  0.91188000000E+02  0.91188000000E+02 0.  0.
    9900012    2    3    3    0    0  0.35756593765E+02 -0.81583606010E+01  0.32695776004E+01  0.54367041524E+02  0.39999902762E+02 0.  0.
         12    1    3    3    0    0 -0.35756593765E+02  0.81583606010E+01 -0.32695776004E+01  0.36820958476E+02  0.00000000000E+00 0. -1.
         11    1    4    4    0    0  0.20230747021E+01 -0.16793380645E+02  0.33978614757E+01  0.17252707834E+02  0.51100000000E-03 0. -1.
        -11    1    4    4    0    0  0.16640509325E+02  0.24386575428E+01  0.61080230818E+01  0.17893058639E+02  0.51100000000E-03 0.  1.
         12    1    4    4    0    0  0.17093009738E+02  0.61963625008E+01 -0.62363069572E+01  0.19221275052E+02  0.00000000000E+00 0. -1.
</event>
<event>
 8    1  0.1271559E-006  0.9118800E+02  0.7816164E-02  0.1184000E+00
        -11   -1    0    0    0    0  0.00000000000E+00  0.00000000000E+00  0.45593999997E+02  0.45594000000E+02  0.51100000000E-03 0.  1.
         11   -1    0    0    0    0 -0.00000000000E+00 -0.00000000000E+00 -0.45593999997E+02  0.45594000000E+02  0.51100000000E-03 0. -1.
         23    2    1    2    0    0  0.00000000000E+00 -0.35527136788E-14  0.00000000000E+00  0.91188000000E+02  0.91188000000E+02 0.  0.
    9900012    2    3    3    0    0  0.12289111741E+02 -0.16198788218E+02 -0.30697823160E+02  0.54367090806E+02  0.40000015110E+02 0.  0.
        -12    1    3    3    0    0 -0.12289111741E+02  0.16198788218E+02  0.30697823160E+02  0.36820909194E+02  0.00000000000E+00 0.  1.
         11    1    4    4    0    0 -0.47108127185E+01 -0.91710758543E+01 -0.16673145166E+02  0.19603422119E+02  0.51100000000E-03 0. -1.
        -11    1    4    4    0    0 -0.59266186186E+01 -0.65782329180E+01 -0.45158868731E+01  0.99393757895E+01  0.51100000000E-03 0.  1.
        -12    1    4    4    0    0  0.22926543078E+02 -0.44947944527E+00 -0.95087911212E+01  0.24824292897E+02  0.00000000000E+00 0.  1.
</event>
<event>
 8    1  0.1271559E-006  0.9118800E+02  0.7816164E-02  0.1184000E+00
        -11   -1    0    0    0    0  0.00000000000E+00  0.00000000000E+00  0.45593999997E+02  0.45594000000E+02  0.51100000000E-03 0. -1.
         11   -1    0    0    0    0 -0.00000000000E+00 -0.00000000000E+00 -0.45593999997E+02  0.45594000000E+02  0.51100000000E-03 0.  1.
         23    2    1    2    0    0  0.35527136788E-14 -0.44408920985E-15 -0.35527136788E-14  0.91188000000E+02  0.91188000000E+02 0.  0.
    9900012    2    3    3    0    0 -0.31888083984E+02 -0.30534259987E+01  0.18155068269E+02  0.54367084553E+02  0.40000000855E+02 0.  0.
        -12    1    3    3    0    0  0.31888083984E+02  0.30534259987E+01 -0.18155068269E+02  0.36820915447E+02  0.00000000000E+00 0.  1.
         11    1    4    4    0    0 -0.29093975058E+02 -0.10546419255E+02  0.11421227745E+02  0.32986827480E+02  0.51100000000E-03 0. -1.
        -11    1    4    4    0    0 -0.59066808038E+01  0.86974593376E+01 -0.31279780944E+01  0.10968998326E+02  0.51100000000E-03 0.  1.
         12    1    4    4    0    0  0.31125718772E+01 -0.12044660817E+01  0.98618186187E+01  0.10411258747E+02  0.00000000000E+00 0. -1.
</event>
<event>
 8    1  0.1271559E-006  0.9118800E+02  0.7816164E-02  0.1184000E+00
        -11   -1    0    0    0    0  0.00000000000E+00  0.00000000000E+00  0.45593999997E+02  0.45594000000E+02  0.51100000000E-03 0.  1.
         11   -1    0    0    0    0 -0.00000000000E+00 -0.00000000000E+00 -0.45593999997E+02  0.45594000000E+02  0.51100000000E-03 0. -1.
         23    2    1    2    0    0  0.17763568394E-14 -0.66613381478E-15  0.14210854715E-13  0.91188000000E+02  0.91188000000E+02 0.  0.
    9900012    2    3    3    0    0  0.86345473348E+01 -0.71750758589E+00  0.35787006103E+02  0.54367081616E+02  0.39999994161E+02 0.  0.
         12    1    3    3    0    0 -0.86345473348E+01  0.71750758589E+00 -0.35787006103E+02  0.36820918384E+02  0.00000000000E+00 0. -1.
         11    1    4    4    0    0  0.87308889840E+01  0.67216658256E+01  0.11898133515E+02  0.16216497628E+02  0.51100000000E-03 0. -1.
        -11    1    4    4    0    0  0.81522851478E+01  0.56876004470E+01  0.32687263015E+00  0.99456220496E+01  0.51100000000E-03 0.  1.
        -12    1    4    4    0    0 -0.82486267970E+01 -0.13126773858E+02  0.23561999957E+02  0.28204961939E+02  0.00000000000E+00 0.  1.
</event>
<event>
 8    1  0.1271559E-006  0.9118800E+02  0.7816164E-02  0.1184000E+00
        -11   -1    0    0    0    0  0.00000000000E+00  0.00000000000E+00  0.45593999997E+02  0.45594000000E+02  0.51100000000E-03 0.  1.
         11   -1    0    0    0    0 -0.00000000000E+00 -0.00000000000E+00 -0.45593999997E+02  0.45594000000E+02  0.51100000000E-03 0. -1.
         23    2    1    2    0    0  0.00000000000E+00  0.17763568394E-14 -0.17763568394E-14  0.91188000000E+02  0.91188000000E+02 0.  0.
    9900012    2    3    3    0    0 -0.33515773543E+02  0.82064198763E+01 -0.12850292316E+02  0.54367049225E+02  0.39999920318E+02 0.  0.
        -12    1    3    3    0    0  0.33515773543E+02 -0.82064198763E+01  0.12850292316E+02  0.36820950775E+02  0.00000000000E+00 0.  1.
         11    1    4    4    0    0 -0.22039003316E+02  0.39297902239E+01 -0.12676029016E+02  0.25726302304E+02  0.51100000000E-03 0. -1.
        -11    1    4    4    0    0  0.16632598708E+01 -0.30924587453E+01 -0.10037444559E+02  0.10633909349E+02  0.51100000000E-03 0.  1.
        -12    1    4    4    0    0 -0.13140030098E+02  0.73690883977E+01  0.98631812595E+01  0.18006837572E+02  0.00000000000E+00 0.  1.
</event>
<event>
 8    1  0.1271559E-006  0.9118800E+02  0.7816164E-02  0.1184000E+00
        -11   -1    0    0    0    0  0.00000000000E+00  0.00000000000E+00  0.45593999997E+02  0.45594000000E+02  0.51100000000E-03 0. -1.
         11   -1    0    0    0    0 -0.00000000000E+00 -0.00000000000E+00 -0.45593999997E+02  0.45594000000E+02  0.51100000000E-03 0.  1.
         23    2    1    2    0    0 -0.17763568394E-14 -0.35527136788E-14 -0.35527136788E-14  0.91188000000E+02  0.91188000000E+02 0.  0.
    9900012    2    3    3    0    0 -0.15149643556E+02 -0.31189768654E+02 -0.12388224305E+02  0.54367062071E+02  0.39999949602E+02 0.  0.
         12    1    3    3    0    0  0.15149643556E+02  0.31189768654E+02  0.12388224305E+02  0.36820937929E+02  0.00000000000E+00 0. -1.
         11    1    4    4    0    0 -0.10303020605E+02 -0.78972771616E+01  0.86336120504E+01  0.15590332821E+02  0.51100000000E-03 0. -1.
        -11    1    4    4    0    0 -0.56186454636E+01 -0.26336991559E+02 -0.12489988124E+02  0.29685115880E+02  0.51100000000E-03 0.  1.
         12    1    4    4    0    0  0.77202251308E+00  0.30445000668E+01 -0.85318482315E+01  0.90916133696E+01  0.00000000000E+00 0. -1.
</event>
<event>
 8    1  0.1271559E-006  0.9118800E+02  0.7816164E-02  0.1184000E+00
        -11   -1    0    0    0    0  0.00000000000E+00  0.00000000000E+00  0.45593999997E+02  0.45594000000E+02  0.51100000000E-03 0. -1.
         11   -1    0    0    0    0 -0.00000000000E+00 -0.00000000000E+00 -0.45593999997E+02  0.45594000000E+02  0.51100000000E-03 0.  1.
         23    2    1    2    0    0  0.17763568394E-14  0.00000000000E+00  0.00000000000E+00  0.91188000000E+02  0.91188000000E+02 0.  0.
    9900012    2    3    3    0    0 -0.93934625102E+01 -0.36950476012E+01  0.35410301626E+02  0.54367082359E+02  0.39999995854E+02 0.  0.
        -12    1    3    3    0    0  0.93934625102E+01  0.36950476012E+01 -0.35410301626E+02  0.36820917641E+02  0.00000000000E+00 0.  1.
         11    1    4    4    0    0 -0.16000306353E+02 -0.32126022300E+01  0.40121941876E+02  0.43313979691E+02  0.51100000000E-03 0. -1.
        -11    1    4    4    0    0  0.39648001348E+01  0.33999180745E+01 -0.17841364044E+01  0.55192595512E+01  0.51100000000E-03 0.  1.
         12    1    4    4    0    0  0.26420437075E+01 -0.38823634457E+01 -0.29275038462E+01  0.55338431173E+01  0.00000000000E+00 0. -1.
</event>
<event>
 8    1  0.1271559E-006  0.9118800E+02  0.7816164E-02  0.1184000E+00
        -11   -1    0    0    0    0  0.00000000000E+00  0.00000000000E+00  0.45593999997E+02  0.45594000000E+02  0.51100000000E-03 0. -1.
         11   -1    0    0    0    0 -0.00000000000E+00 -0.00000000000E+00 -0.45593999997E+02  0.45594000000E+02  0.51100000000E-03 0.  1.
         23    2    1    2    0    0  0.00000000000E+00 -0.17763568394E-14  0.00000000000E+00  0.91188000000E+02  0.91188000000E+02 0.  0.
    9900012    2    3    3    0    0  0.29282052740E+02 -0.15478854522E+02 -0.16085605118E+02  0.54367078746E+02  0.39999987618E+02 0.  0.
         12    1    3    3    0    0 -0.29282052740E+02  0.15478854522E+02  0.16085605118E+02  0.36820921254E+02  0.00000000000E+00 0. -1.
         11    1    4    4    0    0  0.12103568247E+02 -0.10851398731E+02  0.10247831482E+01  0.16288013982E+02  0.51100000000E-03 0. -1.
        -11    1    4    4    0    0  0.78875461396E+01  0.98789201486E+01  0.14876034521E+01  0.12728684602E+02  0.51100000000E-03 0.  1.
        -12    1    4    4    0    0  0.92909383530E+01 -0.14506375940E+02 -0.18597991719E+02  0.25350380162E+02  0.00000000000E+00 0.  1.
</event>
<event>
 8    1  0.1271559E-006  0.9118800E+02  0.7816164E-02  0.1184000E+00
        -11   -1    0    0    0    0  0.00000000000E+00  0.00000000000E+00  0.45593999997E+02  0.45594000000E+02  0.51100000000E-03 0.  1.
         11   -1    0    0    0    0 -0.00000000000E+00 -0.00000000000E+00 -0.45593999997E+02  0.45594000000E+02  0.51100000000E-03 0. -1.
         23    2    1    2    0    0 -0.88817841970E-15  0.88817841970E-15  0.00000000000E+00  0.91188000000E+02  0.91188000000E+02 0.  0.
    9900012    2    3    3    0    0 -0.21874254463E+01 -0.14923768635E+01  0.36725584990E+02  0.54367073726E+02  0.39999976173E+02 0.  0.
         12    1    3    3    0    0  0.21874254463E+01  0.14923768635E+01 -0.36725584990E+02  0.36820926274E+02  0.00000000000E+00 0. -1.
         11    1    4    4    0    0  0.55445719415E+01 -0.18459195575E+02  0.17741928941E+02  0.26196568899E+02  0.51100000000E-03 0. -1.
        -11    1    4    4    0    0 -0.69678831668E+00  0.11493789065E+02  0.13332270630E+02  0.17616530346E+02  0.51100000000E-03 0.  1.
         12    1    4    4    0    0 -0.70352090711E+01  0.54730296460E+01  0.56513854196E+01  0.10553974481E+02  0.00000000000E+00 0. -1.
</event>
<event>
 8    1  0.1271559E-006  0.9118800E+02  0.7816164E-02  0.1184000E+00
        -11   -1    0    0    0    0  0.00000000000E+00  0.00000000000E+00  0.45593999997E+02  0.45594000000E+02  0.51100000000E-03 0. -1.
         11   -1    0    0    0    0 -0.00000000000E+00 -0.00000000000E+00 -0.45593999997E+02  0.45594000000E+02  0.51100000000E-03 0.  1.
         23    2    1    2    0    0  0.17763568394E-14  0.00000000000E+00  0.00000000000E+00  0.91188000000E+02  0.91188000000E+02 0.  0.
    9900012    2    3    3    0    0 -0.84041618634E+01 -0.29451243678E+02 -0.20439506925E+02  0.54367093790E+02  0.40000021913E+02 0.  0.
         12    1    3    3    0    0  0.84041618634E+01  0.29451243678E+02  0.20439506925E+02  0.36820906210E+02  0.00000000000E+00 0. -1.
         11    1    4    4    0    0  0.39795381070E+01 -0.91970896344E+01 -0.11624601727E+02  0.15347786383E+02  0.51100000000E-03 0. -1.
        -11    1    4    4    0    0  0.66851864824E+01 -0.14624585987E+02 -0.10276054125E+02  0.19083173799E+02  0.51100000000E-03 0.  1.
        -12    1    4    4    0    0 -0.19068886453E+02 -0.56295680564E+01  0.14611489268E+01  0.19936133608E+02  0.00000000000E+00 0.  1.
</event>
<event>
 8    1  0.1271559E-006  0.9118800E+02  0.7816164E-02  0.1184000E+00
        -11   -1    0    0    0    0  0.00000000000E+00  0.00000000000E+00  0.45593999997E+02  0.45594000000E+02  0.51100000000E-03 0.  1.
         11   -1    0    0    0    0 -0.00000000000E+00 -0.00000000000E+00 -0.45593999997E+02  0.45594000000E+02  0.51100000000E-03 0. -1.
         23    2    1    2    0    0  0.26645352591E-14  0.71054273576E-14  0.00000000000E+00  0.91188000000E+02  0.91188000000E+02 0.  0.
    9900012    2    3    3    0    0  0.77391943424E+01 -0.34986570048E+02 -0.84749616320E+01  0.54367079486E+02  0.39999989305E+02 0.  0.
        -12    1    3    3    0    0 -0.77391943424E+01  0.34986570048E+02  0.84749616320E+01  0.36820920514E+02  0.00000000000E+00 0.  1.
         11    1    4    4    0    0 -0.76460002679E+01  0.29347368281E+01 -0.14015158872E+01  0.83089257663E+01  0.51100000000E-03 0. -1.
        -11    1    4    4    0    0  0.19428509591E+02 -0.32562443236E+02 -0.26330633335E+01  0.38009376701E+02  0.51100000000E-03 0.  1.
        -12    1    4    4    0    0 -0.40433149804E+01 -0.53588636404E+01 -0.44403824113E+01  0.80487770192E+01  0.00000000000E+00 0.  1.
</event>
<event>
 8    1  0.1271559E-006  0.9118800E+02  0.7816164E-02  0.1184000E+00
        -11   -1    0    0    0    0  0.00000000000E+00  0.00000000000E+00  0.45593999997E+02  0.45594000000E+02  0.51100000000E-03 0.  1.
         11   -1    0    0    0    0 -0.00000000000E+00 -0.00000000000E+00 -0.45593999997E+02  0.45594000000E+02  0.51100000000E-03 0. -1.
         23    2    1    2    0    0  0.17763568394E-14  0.00000000000E+00  0.00000000000E+00  0.91188000000E+02  0.91188000000E+02 0.  0.
    9900012    2    3    3    0    0 -0.14066625488E+02 -0.24311138342E+01 -0.33941121750E+02  0.54367081859E+02  0.39999994713E+02 0.  0.
        -12    1    3    3    0    0  0.14066625488E+02  0.24311138342E+01  0.33941121750E+02  0.36820918141E+02  0.00000000000E+00 0.  1.
         11    1    4    4    0    0 -0.95958853351E+01  0.85856422280E+00 -0.19090732593E+02  0.21383971079E+02  0.51100000000E-03 0. -1.
        -11    1    4    4    0    0 -0.12933966674E+02 -0.66790796151E+01  0.11137048325E+01  0.14599244403E+02  0.51100000000E-03 0.  1.
        -12    1    4    4    0    0  0.84632265206E+01  0.33894015581E+01 -0.15964093990E+02  0.18383866377E+02  0.00000000000E+00 0.  1.
</event>
<event>
 8    1  0.1271559E-006  0.9118800E+02  0.7816164E-02  0.1184000E+00
        -11   -1    0    0    0    0  0.00000000000E+00  0.00000000000E+00  0.45593999997E+02  0.45594000000E+02  0.51100000000E-03 0.  1.
         11   -1    0    0    0    0 -0.00000000000E+00 -0.00000000000E+00 -0.45593999997E+02  0.45594000000E+02  0.51100000000E-03 0. -1.
         23    2    1    2    0    0  0.35527136788E-14  0.44408920985E-15 -0.71054273576E-14  0.91188000000E+02  0.91188000000E+02 0.  0.
    9900012    2    3    3    0    0 -0.99682424521E+01  0.29573861426E+01  0.35322310809E+02  0.54367114198E+02  0.40000068436E+02 0.  0.
         12    1    3    3    0    0  0.99682424521E+01 -0.29573861426E+01 -0.35322310809E+02  0.36820885802E+02  0.00000000000E+00 0. -1.
         11    1    4    4    0    0 -0.45659017172E+01  0.34676543333E+01 -0.27732754999E+01  0.63689200282E+01  0.51100000000E-03 0. -1.
        -11    1    4    4    0    0 -0.34965133842E+01 -0.14503684769E+02  0.17082497984E+02  0.22680260478E+02  0.51100000000E-03 0.  1.
        -12    1    4    4    0    0 -0.19058273507E+01  0.13993416578E+02  0.21013088325E+02  0.25317933691E+02  0.00000000000E+00 0.  1.
</event>
<event>
 8    1  0.1271559E-006  0.9118800E+02  0.7816164E-02  0.1184000E+00
        -11   -1    0    0    0    0  0.00000000000E+00  0.00000000000E+00  0.45593999997E+02  0.45594000000E+02  0.51100000000E-03 0.  1.
         11   -1    0    0    0    0 -0.00000000000E+00 -0.00000000000E+00 -0.45593999997E+02  0.45594000000E+02  0.51100000000E-03 0. -1.
         23    2    1    2    0    0  0.00000000000E+00  0.00000000000E+00 -0.17763568394E-14  0.91188000000E+02  0.91188000000E+02 0.  0.
    9900012    2    3    3    0    0  0.32471246985E+02 -0.71378109691E+01  0.15825512325E+02  0.54367121867E+02  0.40000085920E+02 0.  0.
         12    1    3    3    0    0 -0.32471246985E+02  0.71378109691E+01 -0.15825512325E+02  0.36820878133E+02  0.00000000000E+00 0. -1.
         11    1    4    4    0    0  0.53229908720E+01 -0.60426182483E+01  0.15089104373E+02  0.17103465677E+02  0.51100000000E-03 0. -1.
        -11    1    4    4    0    0 -0.12098745491E+01  0.28288815857E+01  0.72743467529E+01  0.78982585671E+01  0.51100000000E-03 0.  1.
         12    1    4    4    0    0  0.28358130662E+02 -0.39240743065E+01 -0.65379388011E+01  0.29365397623E+02  0.00000000000E+00 0. -1.
</event>
<event>
 8    1  0.1271559E-006  0.9118800E+02  0.7816164E-02  0.1184000E+00
        -11   -1    0    0    0    0  0.00000000000E+00  0.00000000000E+00  0.45593999997E+02  0.45594000000E+02  0.51100000000E-03 0.  1.
         11   -1    0    0    0    0 -0.00000000000E+00 -0.00000000000E+00 -0.45593999997E+02  0.45594000000E+02  0.51100000000E-03 0. -1.
         23    2    1    2    0    0  0.00000000000E+00  0.00000000000E+00  0.00000000000E+00  0.91188000000E+02  0.91188000000E+02 0.  0.
    9900012    2    3    3    0    0 -0.32320200946E+02  0.54440494632E+01 -0.16779334267E+02  0.54367093952E+02  0.40000022282E+02 0.  0.
        -12    1    3    3    0    0  0.32320200946E+02 -0.54440494632E+01  0.16779334267E+02  0.36820906048E+02  0.00000000000E+00 0.  1.
         11    1    4    4    0    0 -0.25953325973E+02  0.10339892018E+02 -0.16454568548E+02  0.32422851854E+02  0.51100000000E-03 0. -1.
        -11    1    4    4    0    0  0.51613705222E+01 -0.65036853941E+01 -0.46625000536E+01  0.95224249214E+01  0.51100000000E-03 0.  1.
        -12    1    4    4    0    0 -0.11528245496E+02  0.16078428397E+01  0.43377343348E+01  0.12421817176E+02  0.00000000000E+00 0.  1.
</event>
<event>
 8    1  0.1271559E-006  0.9118800E+02  0.7816164E-02  0.1184000E+00
        -11   -1    0    0    0    0  0.00000000000E+00  0.00000000000E+00  0.45593999997E+02  0.45594000000E+02  0.51100000000E-03 0.  1.
         11   -1    0    0    0    0 -0.00000000000E+00 -0.00000000000E+00 -0.45593999997E+02  0.45594000000E+02  0.51100000000E-03 0. -1.
         23    2    1    2    0    0 -0.88817841970E-15  0.00000000000E+00  0.00000000000E+00  0.91188000000E+02  0.91188000000E+02 0.  0.
    9900012    2    3    3    0    0 -0.38050181044E+01  0.29850742669E+02  0.21218751156E+02  0.54367076582E+02  0.39999982685E+02 0.  0.
         12    1    3    3    0    0  0.38050181044E+01 -0.29850742669E+02 -0.21218751156E+02  0.36820923418E+02  0.00000000000E+00 0. -1.
         11    1    4    4    0    0 -0.77131978528E+01 -0.16347614926E+01  0.39474307865E+01  0.88174869623E+01  0.51100000000E-03 0. -1.
        -11    1    4    4    0    0 -0.35588913134E+01  0.33940121779E+02  0.12437510861E+02  0.36322021563E+02  0.51100000000E-03 0.  1.
        -12    1    4    4    0    0  0.74670710618E+01 -0.24546176166E+01  0.48338095085E+01  0.92275680572E+01  0.00000000000E+00 0.  1.
</event>
<event>
 8    1  0.1271559E-006  0.9118800E+02  0.7816164E-02  0.1184000E+00
        -11   -1    0    0    0    0  0.00000000000E+00  0.00000000000E+00  0.45593999997E+02  0.45594000000E+02  0.51100000000E-03 0.  1.
         11   -1    0    0    0    0 -0.00000000000E+00 -0.00000000000E+00 -0.45593999997E+02  0.45594000000E+02  0.51100000000E-03 0. -1.
         23    2    1    2    0    0  0.00000000000E+00  0.00000000000E+00 -0.26645352591E-14  0.91188000000E+02  0.91188000000E+02 0.  0.
    9900012    2    3    3    0    0  0.29921881591E+02  0.20057371149E+02 -0.76264043878E+01  0.54367093177E+02  0.40000020516E+02 0.  0.
         12    1    3    3    0    0 -0.29921881591E+02 -0.20057371149E+02  0.76264043878E+01  0.36820906823E+02  0.00000000000E+00 0. -1.
         11    1    4    4    0    0 -0.32421754279E+00 -0.49126469926E+01 -0.45926402712E+01  0.67328717803E+01  0.51100000000E-03 0. -1.
        -11    1    4    4    0    0  0.19213475482E+02  0.93729493848E+01  0.10892231096E+02  0.23992718037E+02  0.51100000000E-03 0.  1.
        -12    1    4    4    0    0  0.11032623652E+02  0.15597068757E+02 -0.13925995213E+02  0.23641503360E+02  0.00000000000E+00 0.  1.
</event>
<event>
 8    1  0.1271559E-006  0.9118800E+02  0.7816164E-02  0.1184000E+00
        -11   -1    0    0    0    0  0.00000000000E+00  0.00000000000E+00  0.45593999997E+02  0.45594000000E+02  0.51100000000E-03 0. -1.
         11   -1    0    0    0    0 -0.00000000000E+00 -0.00000000000E+00 -0.45593999997E+02  0.45594000000E+02  0.51100000000E-03 0.  1.
         23    2    1    2    0    0  0.35527136788E-14 -0.35527136788E-14 -0.66613381478E-15  0.91188000000E+02  0.91188000000E+02 0.  0.
    9900012    2    3    3    0    0  0.25874214370E+02  0.26155452690E+02  0.14820950229E+01  0.54367091805E+02  0.40000017388E+02 0.  0.
         12    1    3    3    0    0 -0.25874214370E+02 -0.26155452690E+02 -0.14820950229E+01  0.36820908195E+02  0.00000000000E+00 0. -1.
         11    1    4    4    0    0  0.21977953288E+02  0.27342951200E+02  0.29352054939E+01  0.35203449299E+02  0.51100000000E-03 0. -1.
        -11    1    4    4    0    0  0.41605770918E+01 -0.84526228476E+01  0.38371980008E+01  0.10172577033E+02  0.51100000000E-03 0.  1.
        -12    1    4    4    0    0 -0.26431600992E+00  0.72651243379E+01 -0.52903084719E+01  0.89910654722E+01  0.00000000000E+00 0.  1.
</event>
<event>
 8    1  0.1271559E-006  0.9118800E+02  0.7816164E-02  0.1184000E+00
        -11   -1    0    0    0    0  0.00000000000E+00  0.00000000000E+00  0.45593999997E+02  0.45594000000E+02  0.51100000000E-03 0. -1.
         11   -1    0    0    0    0 -0.00000000000E+00 -0.00000000000E+00 -0.45593999997E+02  0.45594000000E+02  0.51100000000E-03 0.  1.
         23    2    1    2    0    0  0.00000000000E+00  0.00000000000E+00  0.00000000000E+00  0.91188000000E+02  0.91188000000E+02 0.  0.
    9900012    2    3    3    0    0 -0.34454657207E+02 -0.90477741014E+01 -0.93162374370E+01  0.54367110556E+02  0.40000060134E+02 0.  0.
        -12    1    3    3    0    0  0.34454657207E+02  0.90477741014E+01  0.93162374370E+01  0.36820889444E+02  0.00000000000E+00 0.  1.
         11    1    4    4    0    0 -0.15176618406E+02  0.87022725439E+01  0.20429734045E+01  0.17613433347E+02  0.51100000000E-03 0. -1.
        -11    1    4    4    0    0  0.29868580886E+01 -0.31621682902E+01  0.40952602391E+01  0.59742603077E+01  0.51100000000E-03 0.  1.
        -12    1    4    4    0    0 -0.22264896890E+02 -0.14587878355E+02 -0.15454471081E+02  0.30779416902E+02  0.00000000000E+00 0.  1.
</event>
<event>
 8    1  0.1271559E-006  0.9118800E+02  0.7816164E-02  0.1184000E+00
        -11   -1    0    0    0    0  0.00000000000E+00  0.00000000000E+00  0.45593999997E+02  0.45594000000E+02  0.51100000000E-03 0. -1.
         11   -1    0    0    0    0 -0.00000000000E+00 -0.00000000000E+00 -0.45593999997E+02  0.45594000000E+02  0.51100000000E-03 0.  1.
         23    2    1    2    0    0  0.00000000000E+00 -0.35527136788E-14 -0.26645352591E-14  0.91188000000E+02  0.91188000000E+02 0.  0.
    9900012    2    3    3    0    0 -0.22921086180E+02  0.27807258758E+02 -0.75602435646E+01  0.54367121221E+02  0.40000084448E+02 0.  0.
        -12    1    3    3    0    0  0.22921086180E+02 -0.27807258758E+02  0.75602435646E+01  0.36820878779E+02  0.00000000000E+00 0.  1.
         11    1    4    4    0    0 -0.57372431769E+01  0.67687654220E+00  0.27012554743E+01  0.63773742656E+01  0.51100000000E-03 0. -1.
        -11    1    4    4    0    0 -0.10272833371E+02  0.16531460427E+02 -0.22935483750E+02  0.30080836166E+02  0.51100000000E-03 0.  1.
        -12    1    4    4    0    0 -0.69110096317E+01  0.10598921789E+02  0.12673984711E+02  0.17908910790E+02  0.00000000000E+00 0.  1.
</event>
<event>
 8    1  0.1271559E-006  0.9118800E+02  0.7816164E-02  0.1184000E+00
        -11   -1    0    0    0    0  0.00000000000E+00  0.00000000000E+00  0.45593999997E+02  0.45594000000E+02  0.51100000000E-03 0. -1.
         11   -1    0    0    0    0 -0.00000000000E+00 -0.00000000000E+00 -0.45593999997E+02  0.45594000000E+02  0.51100000000E-03 0.  1.
         23    2    1    2    0    0  0.00000000000E+00  0.35527136788E-14  0.00000000000E+00  0.91188000000E+02  0.91188000000E+02 0.  0.
    9900012    2    3    3    0    0 -0.89388554262E+01 -0.29939240283E+02 -0.19481228383E+02  0.54367088763E+02  0.40000010452E+02 0.  0.
         12    1    3    3    0    0  0.89388554262E+01  0.29939240283E+02  0.19481228383E+02  0.36820911237E+02  0.00000000000E+00 0. -1.
         11    1    4    4    0    0 -0.49747679359E+00  0.72745573299E+01 -0.28310614154E+01  0.78218652830E+01  0.51100000000E-03 0. -1.
        -11    1    4    4    0    0  0.29630044467E+01 -0.81704673113E+01 -0.12271277891E+02  0.15037293399E+02  0.51100000000E-03 0.  1.
        -12    1    4    4    0    0 -0.11404383079E+02 -0.29043330302E+02 -0.43788890769E+01  0.31507930081E+02  0.00000000000E+00 0.  1.
</event>
<event>
 8    1  0.1271559E-006  0.9118800E+02  0.7816164E-02  0.1184000E+00
        -11   -1    0    0    0    0  0.00000000000E+00  0.00000000000E+00  0.45593999997E+02  0.45594000000E+02  0.51100000000E-03 0. -1.
         11   -1    0    0    0    0 -0.00000000000E+00 -0.00000000000E+00 -0.45593999997E+02  0.45594000000E+02  0.51100000000E-03 0.  1.
         23    2    1    2    0    0 -0.35527136788E-14  0.35527136788E-14  0.00000000000E+00  0.91188000000E+02  0.91188000000E+02 0.  0.
    9900012    2    3    3    0    0 -0.27704642849E+02 -0.58400609521E+01 -0.23540103803E+02  0.54366945773E+02  0.39999684478E+02 0.  0.
         12    1    3    3    0    0  0.27704642849E+02  0.58400609521E+01  0.23540103803E+02  0.36821054227E+02  0.00000000000E+00 0. -1.
         11    1    4    4    0    0 -0.53846144589E+01  0.15459568973E+02 -0.30032358183E+01  0.16643670609E+02  0.51100000000E-03 0. -1.
        -11    1    4    4    0    0 -0.77749819182E+01 -0.67967776282E+01 -0.10965050861E+02  0.15062498816E+02  0.51100000000E-03 0.  1.
         12    1    4    4    0    0 -0.14545046472E+02 -0.14502852297E+02 -0.95718171242E+01  0.22660776348E+02  0.00000000000E+00 0. -1.
</event>
<event>
 8    1  0.1271559E-006  0.9118800E+02  0.7816164E-02  0.1184000E+00
        -11   -1    0    0    0    0  0.00000000000E+00  0.00000000000E+00  0.45593999997E+02  0.45594000000E+02  0.51100000000E-03 0.  1.
         11   -1    0    0    0    0 -0.00000000000E+00 -0.00000000000E+00 -0.45593999997E+02  0.45594000000E+02  0.51100000000E-03 0. -1.
         23    2    1    2    0    0 -0.17763568394E-14 -0.35527136788E-14 -0.71054273576E-14  0.91188000000E+02  0.91188000000E+02 0.  0.
    9900012    2    3    3    0    0  0.95889106591E+01  0.16313759274E+02  0.31586293681E+02  0.54367083420E+02  0.39999998272E+02 0.  0.
         12    1    3    3    0    0 -0.95889106591E+01 -0.16313759274E+02 -0.31586293681E+02  0.36820916580E+02  0.00000000000E+00 0. -1.
         11    1    4    4    0    0 -0.16323680442E+01  0.24628872030E+01 -0.37188816999E+01  0.47497915918E+01  0.51100000000E-03 0. -1.
        -11    1    4    4    0    0  0.84625462936E+01 -0.47247599586E+01  0.72671171198E-01  0.96924366285E+01  0.51100000000E-03 0.  1.
        -12    1    4    4    0    0  0.27587324098E+01  0.18575632029E+02  0.35232504210E+02  0.39924855200E+02  0.00000000000E+00 0.  1.
</event>
<event>
 8    1  0.1271559E-006  0.9118800E+02  0.7816164E-02  0.1184000E+00
        -11   -1    0    0    0    0  0.00000000000E+00  0.00000000000E+00  0.45593999997E+02  0.45594000000E+02  0.51100000000E-03 0.  1.
         11   -1    0    0    0    0 -0.00000000000E+00 -0.00000000000E+00 -0.45593999997E+02  0.45594000000E+02  0.51100000000E-03 0. -1.
         23    2    1    2    0    0 -0.26645352591E-14  0.00000000000E+00 -0.71054273576E-14  0.91188000000E+02  0.91188000000E+02 0.  0.
    9900012    2    3    3    0    0 -0.69258470523E+01 -0.16485362796E+02 -0.32187685720E+02  0.54367059546E+02  0.39999943848E+02 0.  0.
        -12    1    3    3    0    0  0.69258470523E+01  0.16485362796E+02  0.32187685720E+02  0.36820940454E+02  0.00000000000E+00 0.  1.
         11    1    4    4    0    0  0.33598087102E+01 -0.15254566083E+02 -0.20731098451E+02  0.25957051916E+02  0.51100000000E-03 0. -1.
        -11    1    4    4    0    0  0.26096461463E+01  0.36588743251E+01 -0.13717280083E+02  0.14434728521E+02  0.51100000000E-03 0.  1.
        -12    1    4    4    0    0 -0.12895301909E+02 -0.48896710381E+01  0.22606928139E+01  0.13975279109E+02  0.00000000000E+00 0.  1.
</event>
<event>
 8    1  0.1271559E-006  0.9118800E+02  0.7816164E-02  0.1184000E+00
        -11   -1    0    0    0    0  0.00000000000E+00  0.00000000000E+00  0.45593999997E+02  0.45594000000E+02  0.51100000000E-03 0.  1.
         11   -1    0    0    0    0 -0.00000000000E+00 -0.00000000000E+00 -0.45593999997E+02  0.45594000000E+02  0.51100000000E-03 0. -1.
         23    2    1    2    0    0  0.00000000000E+00  0.00000000000E+00  0.00000000000E+00  0.91188000000E+02  0.91188000000E+02 0.  0.
    9900012    2    3    3    0    0  0.25138871838E+02 -0.14570984847E+02 -0.22616482625E+02  0.54367058092E+02  0.39999940531E+02 0.  0.
        -12    1    3    3    0    0 -0.25138871838E+02  0.14570984847E+02  0.22616482625E+02  0.36820941908E+02  0.00000000000E+00 0.  1.
         11    1    4    4    0    0  0.30799479808E+01 -0.31713489923E+01 -0.14893418504E+02  0.15535683087E+02  0.51100000000E-03 0. -1.
        -11    1    4    4    0    0  0.87827657101E+01  0.27307790954E+01  0.92635765563E+01  0.13054040710E+02  0.51100000000E-03 0.  1.
         12    1    4    4    0    0  0.13276158147E+02 -0.14130414950E+02 -0.16986640678E+02  0.25777334294E+02  0.00000000000E+00 0. -1.
</event>
<event>
 8    1  0.1271559E-006  0.9118800E+02  0.7816164E-02  0.1184000E+00
        -11   -1    0    0    0    0  0.00000000000E+00  0.00000000000E+00  0.45593999997E+02  0.45594000000E+02  0.51100000000E-03 0.  1.
         11   -1    0    0    0    0 -0.00000000000E+00 -0.00000000000E+00 -0.45593999997E+02  0.45594000000E+02  0.51100000000E-03 0. -1.
         23    2    1    2    0    0 -0.35527136788E-14  0.00000000000E+00  0.00000000000E+00  0.91188000000E+02  0.91188000000E+02 0.  0.
    9900012    2    3    3    0    0  0.22403638875E+02 -0.18594276482E+02 -0.22541372834E+02  0.54367032577E+02  0.39999882365E+02 0.  0.
        -12    1    3    3    0    0 -0.22403638875E+02  0.18594276482E+02  0.22541372834E+02  0.36820967423E+02  0.00000000000E+00 0.  1.
         11    1    4    4    0    0 -0.10234769415E+01  0.21977686938E+01 -0.80790419627E+01  0.84349636382E+01  0.51100000000E-03 0.  1.
        -11    1    4    4    0    0  0.16128119539E+02 -0.37435057219E+01  0.66400038884E+01  0.17838714271E+02  0.51100000000E-03 0. -1.
         12    1    4    4    0    0  0.72989962780E+01 -0.17048539454E+02 -0.21102334759E+02  0.28093354667E+02  0.00000000000E+00 0. -1.
</event>
<event>
 8    1  0.1271559E-006  0.9118800E+02  0.7816164E-02  0.1184000E+00
        -11   -1    0    0    0    0  0.00000000000E+00  0.00000000000E+00  0.45593999997E+02  0.45594000000E+02  0.51100000000E-03 0. -1.
         11   -1    0    0    0    0 -0.00000000000E+00 -0.00000000000E+00 -0.45593999997E+02  0.45594000000E+02  0.51100000000E-03 0.  1.
         23    2    1    2    0    0  0.35527136788E-14  0.00000000000E+00  0.00000000000E+00  0.91188000000E+02  0.91188000000E+02 0.  0.
    9900012    2    3    3    0    0 -0.22077113055E+02 -0.29438110612E+02 -0.13327261060E+01  0.54367116847E+02  0.40000074477E+02 0.  0.
         12    1    3    3    0    0  0.22077113055E+02  0.29438110612E+02  0.13327261060E+01  0.36820883153E+02  0.00000000000E+00 0. -1.
         11    1    4    4    0    0  0.86307930774E+00 -0.10223057104E+02 -0.30538339780E+01  0.10704284407E+02  0.51100000000E-03 0. -1.
        -11    1    4    4    0    0 -0.13832445330E+02 -0.27825519318E+02  0.60929583360E+00  0.31080014653E+02  0.51100000000E-03 0.  1.
         12    1    4    4    0    0 -0.91077470329E+01  0.86104658095E+01  0.11118120384E+01  0.12582817788E+02  0.00000000000E+00 0. -1.
</event>
<event>
 8    1  0.1271559E-006  0.9118800E+02  0.7816164E-02  0.1184000E+00
        -11   -1    0    0    0    0  0.00000000000E+00  0.00000000000E+00  0.45593999997E+02  0.45594000000E+02  0.51100000000E-03 0.  1.
         11   -1    0    0    0    0 -0.00000000000E+00 -0.00000000000E+00 -0.45593999997E+02  0.45594000000E+02  0.51100000000E-03 0. -1.
         23    2    1    2    0    0  0.00000000000E+00  0.00000000000E+00  0.00000000000E+00  0.91188000000E+02  0.91188000000E+02 0.  0.
    9900012    2    3    3    0    0 -0.34153668039E+01 -0.18306853858E+02 -0.31764338530E+02  0.54367097909E+02  0.40000031303E+02 0.  0.
        -12    1    3    3    0    0  0.34153668039E+01  0.18306853858E+02  0.31764338530E+02  0.36820902091E+02  0.00000000000E+00 0.  1.
         11    1    4    4    0    0  0.32588357864E+00 -0.34864406528E+01 -0.75194985253E+01  0.82948373622E+01  0.51100000000E-03 0. -1.
        -11    1    4    4    0    0 -0.71822010604E+01  0.77070615818E+01  0.26080595622E+01  0.10852869908E+02  0.51100000000E-03 0.  1.
        -12    1    4    4    0    0  0.34409506778E+01 -0.22527474787E+02 -0.26852899567E+02  0.35219390639E+02  0.00000000000E+00 0.  1.
</event>
<event>
 8    1  0.1271559E-006  0.9118800E+02  0.7816164E-02  0.1184000E+00
        -11   -1    0    0    0    0  0.00000000000E+00  0.00000000000E+00  0.45593999997E+02  0.45594000000E+02  0.51100000000E-03 0. -1.
         11   -1    0    0    0    0 -0.00000000000E+00 -0.00000000000E+00 -0.45593999997E+02  0.45594000000E+02  0.51100000000E-03 0.  1.
         23    2    1    2    0    0  0.71054273576E-14  0.00000000000E+00  0.17763568394E-14  0.91188000000E+02  0.91188000000E+02 0.  0.
    9900012    2    3    3    0    0 -0.33274702426E+02 -0.44922492157E+01 -0.15112573401E+02  0.54367136358E+02  0.40000118955E+02 0.  0.
        -12    1    3    3    0    0  0.33274702426E+02  0.44922492157E+01  0.15112573401E+02  0.36820863642E+02  0.00000000000E+00 0.  1.
         11    1    4    4    0    0 -0.33074966675E+01 -0.14294542562E+01  0.73427313838E+01  0.81791550976E+01  0.51100000000E-03 0. -1.
        -11    1    4    4    0    0  0.60560389984E+00 -0.61482383458E+01  0.24382475961E+01  0.66417348970E+01  0.51100000000E-03 0.  1.
        -12    1    4    4    0    0 -0.30572809658E+02  0.30854433863E+01 -0.24893552381E+02  0.39546246363E+02  0.00000000000E+00 0.  1.
</event>
<event>
 8    1  0.1271559E-006  0.9118800E+02  0.7816164E-02  0.1184000E+00
        -11   -1    0    0    0    0  0.00000000000E+00  0.00000000000E+00  0.45593999997E+02  0.45594000000E+02  0.51100000000E-03 0. -1.
         11   -1    0    0    0    0 -0.00000000000E+00 -0.00000000000E+00 -0.45593999997E+02  0.45594000000E+02  0.51100000000E-03 0.  1.
         23    2    1    2    0    0  0.00000000000E+00  0.00000000000E+00  0.00000000000E+00  0.91188000000E+02  0.91188000000E+02 0.  0.
    9900012    2    3    3    0    0 -0.21942282889E+02  0.15821450133E+02  0.24979964470E+02  0.54367072695E+02  0.39999973824E+02 0.  0.
        -12    1    3    3    0    0  0.21942282889E+02 -0.15821450133E+02 -0.24979964470E+02  0.36820927305E+02  0.00000000000E+00 0.  1.
         11    1    4    4    0    0  0.81137390194E+01 -0.14944736560E+01  0.74167470881E+01  0.11093887957E+02  0.51100000000E-03 0. -1.
        -11    1    4    4    0    0 -0.22160143374E+02  0.18444454166E+02  0.19816147097E+02  0.34984990065E+02  0.51100000000E-03 0.  1.
        -12    1    4    4    0    0 -0.78958785342E+01 -0.11285303767E+01 -0.22529297151E+01  0.82881946731E+01  0.00000000000E+00 0.  1.
</event>
<event>
 8    1  0.1271559E-006  0.9118800E+02  0.7816164E-02  0.1184000E+00
        -11   -1    0    0    0    0  0.00000000000E+00  0.00000000000E+00  0.45593999997E+02  0.45594000000E+02  0.51100000000E-03 0. -1.
         11   -1    0    0    0    0 -0.00000000000E+00 -0.00000000000E+00 -0.45593999997E+02  0.45594000000E+02  0.51100000000E-03 0.  1.
         23    2    1    2    0    0  0.00000000000E+00  0.00000000000E+00  0.00000000000E+00  0.91188000000E+02  0.91188000000E+02 0.  0.
    9900012    2    3    3    0    0  0.30568480012E+02 -0.20364666207E+02  0.25723666662E+01  0.54367235882E+02  0.40000345839E+02 0.  0.
         12    1    3    3    0    0 -0.30568480012E+02  0.20364666207E+02 -0.25723666662E+01  0.36820764118E+02  0.00000000000E+00 0. -1.
         11    1    4    4    0    0  0.49307904131E+01 -0.34707658220E+01  0.14663936587E+02  0.15855281328E+02  0.51100000000E-03 0. -1.
        -11    1    4    4    0    0 -0.18200028749E+01 -0.19792952006E+00  0.25980896001E+01  0.31783103044E+01  0.51100000000E-03 0.  1.
        -12    1    4    4    0    0  0.27457692474E+02 -0.16695970865E+02 -0.14689659521E+02  0.35333644250E+02  0.00000000000E+00 0.  1.
</event>
<event>
 8    1  0.1271559E-006  0.9118800E+02  0.7816164E-02  0.1184000E+00
        -11   -1    0    0    0    0  0.00000000000E+00  0.00000000000E+00  0.45593999997E+02  0.45594000000E+02  0.51100000000E-03 0.  1.
         11   -1    0    0    0    0 -0.00000000000E+00 -0.00000000000E+00 -0.45593999997E+02  0.45594000000E+02  0.51100000000E-03 0. -1.
         23    2    1    2    0    0  0.00000000000E+00  0.00000000000E+00  0.17763568394E-14  0.91188000000E+02  0.91188000000E+02 0.  0.
    9900012    2    3    3    0    0 -0.33323864692E+02 -0.10187560768E+02 -0.11895947205E+02  0.54367083223E+02  0.39999997824E+02 0.  0.
        -12    1    3    3    0    0  0.33323864692E+02  0.10187560768E+02  0.11895947205E+02  0.36820916777E+02  0.00000000000E+00 0.  1.
         11    1    4    4    0    0 -0.31292026896E+01  0.42230338024E+01 -0.68194921798E+01  0.86099592230E+01  0.51100000000E-03 0. -1.
        -11    1    4    4    0    0 -0.22415412278E+01  0.49401174904E+01  0.77163293488E+01  0.94324443690E+01  0.51100000000E-03 0.  1.
        -12    1    4    4    0    0 -0.27953120774E+02 -0.19350712061E+02 -0.12792784374E+02  0.36324679631E+02  0.00000000000E+00 0.  1.
</event>
<event>
 8    1  0.1271559E-006  0.9118800E+02  0.7816164E-02  0.1184000E+00
        -11   -1    0    0    0    0  0.00000000000E+00  0.00000000000E+00  0.45593999997E+02  0.45594000000E+02  0.51100000000E-03 0. -1.
         11   -1    0    0    0    0 -0.00000000000E+00 -0.00000000000E+00 -0.45593999997E+02  0.45594000000E+02  0.51100000000E-03 0.  1.
         23    2    1    2    0    0  0.00000000000E+00  0.00000000000E+00 -0.71054273576E-14  0.91188000000E+02  0.91188000000E+02 0.  0.
    9900012    2    3    3    0    0  0.10884223933E+02 -0.19904511776E+02 -0.29002241202E+02  0.54367001719E+02  0.39999812018E+02 0.  0.
         12    1    3    3    0    0 -0.10884223933E+02  0.19904511776E+02  0.29002241202E+02  0.36820998281E+02  0.00000000000E+00 0. -1.
         11    1    4    4    0    0  0.44955108022E+01 -0.74167670393E+01 -0.19619474703E+01  0.88919789038E+01  0.51100000000E-03 0. -1.
        -11    1    4    4    0    0  0.10098665709E+02 -0.22901921867E+02 -0.22004498503E+02  0.33326851470E+02  0.51100000000E-03 0.  1.
         12    1    4    4    0    0 -0.37099525788E+01  0.10414177130E+02 -0.50357952295E+01  0.12148171345E+02  0.00000000000E+00 0. -1.
</event>
<event>
 8    1  0.1271559E-006  0.9118800E+02  0.7816164E-02  0.1184000E+00
        -11   -1    0    0    0    0  0.00000000000E+00  0.00000000000E+00  0.45593999997E+02  0.45594000000E+02  0.51100000000E-03 0.  1.
         11   -1    0    0    0    0 -0.00000000000E+00 -0.00000000000E+00 -0.45593999997E+02  0.45594000000E+02  0.51100000000E-03 0. -1.
         23    2    1    2    0    0  0.00000000000E+00 -0.35527136788E-14  0.17763568394E-14  0.91188000000E+02  0.91188000000E+02 0.  0.
    9900012    2    3    3    0    0  0.21745607358E+02 -0.25344989182E+02  0.15509356765E+02  0.54367081172E+02  0.39999993149E+02 0.  0.
         12    1    3    3    0    0 -0.21745607358E+02  0.25344989182E+02 -0.15509356765E+02  0.36820918828E+02  0.00000000000E+00 0. -1.
         11    1    4    4    0    0 -0.15343186975E+01 -0.10336713790E+02  0.15644628267E+02  0.18813723175E+02  0.51100000000E-03 0.  1.
        -11    1    4    4    0    0  0.90601905544E+01 -0.15767745154E+02 -0.73201839090E+01  0.19603416356E+02  0.51100000000E-03 0. -1.
        -12    1    4    4    0    0  0.14219735502E+02  0.75946976127E+00  0.71849124071E+01  0.15949941641E+02  0.00000000000E+00 0.  1.
</event>
<event>
 8    1  0.1271559E-006  0.9118800E+02  0.7816164E-02  0.1184000E+00
        -11   -1    0    0    0    0  0.00000000000E+00  0.00000000000E+00  0.45593999997E+02  0.45594000000E+02  0.51100000000E-03 0.  1.
         11   -1    0    0    0    0 -0.00000000000E+00 -0.00000000000E+00 -0.45593999997E+02  0.45594000000E+02  0.51100000000E-03 0. -1.
         23    2    1    2    0    0  0.35527136788E-14 -0.88817841970E-15  0.00000000000E+00  0.91188000000E+02  0.91188000000E+02 0.  0.
    9900012    2    3    3    0    0  0.31819130085E+02  0.35008500709E+01  0.18195193257E+02  0.54367108536E+02  0.40000055529E+02 0.  0.
         12    1    3    3    0    0 -0.31819130085E+02 -0.35008500709E+01 -0.18195193257E+02  0.36820891464E+02  0.00000000000E+00 0. -1.
         11    1    4    4    0    0  0.25350973599E+02  0.11308446415E+02 -0.15311028008E+01  0.27801026937E+02  0.51100000000E-03 0. -1.
        -11    1    4    4    0    0  0.56262616246E+01 -0.12137602473E+02  0.15098856610E+02  0.20173043520E+02  0.51100000000E-03 0.  1.
         12    1    4    4    0    0  0.84189486112E+00  0.43300061288E+01  0.46274394474E+01  0.63930380784E+01  0.00000000000E+00 0. -1.
</event>
<event>
 8    1  0.1271559E-006  0.9118800E+02  0.7816164E-02  0.1184000E+00
        -11   -1    0    0    0    0  0.00000000000E+00  0.00000000000E+00  0.45593999997E+02  0.45594000000E+02  0.51100000000E-03 0.  1.
         11   -1    0    0    0    0 -0.00000000000E+00 -0.00000000000E+00 -0.45593999997E+02  0.45594000000E+02  0.51100000000E-03 0. -1.
         23    2    1    2    0    0  0.17763568394E-14  0.00000000000E+00  0.13322676296E-14  0.91188000000E+02  0.91188000000E+02 0.  0.
    9900012    2    3    3    0    0  0.13208083057E+02 -0.34289851467E+02  0.23524714871E+01  0.54367061748E+02  0.39999948867E+02 0.  0.
         12    1    3    3    0    0 -0.13208083057E+02  0.34289851467E+02 -0.23524714871E+01  0.36820938252E+02  0.00000000000E+00 0. -1.
         11    1    4    4    0    0 -0.46368954779E+01 -0.11509419415E+01 -0.11820525074E+02  0.12749520788E+02  0.51100000000E-03 0. -1.
        -11    1    4    4    0    0  0.99404192731E+01 -0.22501201332E+02  0.40266541222E+01  0.24926490735E+02  0.51100000000E-03 0.  1.
         12    1    4    4    0    0  0.79045592617E+01 -0.10637708193E+02  0.10146342439E+02  0.16691050225E+02  0.00000000000E+00 0. -1.
</event>
<event>
 8    1  0.1271559E-006  0.9118800E+02  0.7816164E-02  0.1184000E+00
        -11   -1    0    0    0    0  0.00000000000E+00  0.00000000000E+00  0.45593999997E+02  0.45594000000E+02  0.51100000000E-03 0.  1.
         11   -1    0    0    0    0 -0.00000000000E+00 -0.00000000000E+00 -0.45593999997E+02  0.45594000000E+02  0.51100000000E-03 0. -1.
         23    2    1    2    0    0  0.00000000000E+00 -0.88817841970E-15  0.71054273576E-14  0.91188000000E+02  0.91188000000E+02 0.  0.
    9900012    2    3    3    0    0 -0.20871555652E+02 -0.48270572586E+01  0.29947571226E+02  0.54367091002E+02  0.40000015558E+02 0.  0.
         12    1    3    3    0    0  0.20871555652E+02  0.48270572586E+01 -0.29947571226E+02  0.36820908998E+02  0.00000000000E+00 0. -1.
         11    1    4    4    0    0  0.75925066367E+01  0.39006944632E+01  0.58909959207E+01  0.10371374428E+02  0.51100000000E-03 0. -1.
        -11    1    4    4    0    0 -0.14186168317E+02 -0.86784264794E+00 -0.84142860857E+00  0.14237574398E+02  0.51100000000E-03 0.  1.
        -12    1    4    4    0    0 -0.14277893971E+02 -0.78599090739E+01  0.24898003914E+02  0.29758142176E+02  0.00000000000E+00 0.  1.
</event>
<event>
 8    1  0.1271559E-006  0.9118800E+02  0.7816164E-02  0.1184000E+00
        -11   -1    0    0    0    0  0.00000000000E+00  0.00000000000E+00  0.45593999997E+02  0.45594000000E+02  0.51100000000E-03 0.  1.
         11   -1    0    0    0    0 -0.00000000000E+00 -0.00000000000E+00 -0.45593999997E+02  0.45594000000E+02  0.51100000000E-03 0. -1.
         23    2    1    2    0    0  0.35527136788E-14  0.17763568394E-14  0.00000000000E+00  0.91188000000E+02  0.91188000000E+02 0.  0.
    9900012    2    3    3    0    0  0.30423021828E+02  0.12878622547E+02 -0.16259174166E+02  0.54367083113E+02  0.39999997572E+02 0.  0.
        -12    1    3    3    0    0 -0.30423021828E+02 -0.12878622547E+02  0.16259174166E+02  0.36820916887E+02  0.00000000000E+00 0.  1.
         11    1    4    4    0    0  0.16393896367E+02  0.13633543543E+02 -0.11820561117E+02  0.24379479343E+02  0.51100000000E-03 0. -1.
        -11    1    4    4    0    0  0.18166930050E+02 -0.75117549996E+01  0.20246050096E+01  0.19762662683E+02  0.51100000000E-03 0.  1.
         12    1    4    4    0    0 -0.41378045887E+01  0.67568340036E+01 -0.64632180580E+01  0.10224941087E+02  0.00000000000E+00 0. -1.
</event>
<event>
 8    1  0.1271559E-006  0.9118800E+02  0.7816164E-02  0.1184000E+00
        -11   -1    0    0    0    0  0.00000000000E+00  0.00000000000E+00  0.45593999997E+02  0.45594000000E+02  0.51100000000E-03 0.  1.
         11   -1    0    0    0    0 -0.00000000000E+00 -0.00000000000E+00 -0.45593999997E+02  0.45594000000E+02  0.51100000000E-03 0. -1.
         23    2    1    2    0    0  0.35527136788E-14  0.00000000000E+00  0.00000000000E+00  0.91188000000E+02  0.91188000000E+02 0.  0.
    9900012    2    3    3    0    0 -0.25103065419E+02 -0.22036709983E+02 -0.15491931543E+02  0.54367076285E+02  0.39999982007E+02 0.  0.
        -12    1    3    3    0    0  0.25103065419E+02  0.22036709983E+02  0.15491931543E+02  0.36820923715E+02  0.00000000000E+00 0.  1.
         11    1    4    4    0    0 -0.28564790600E+02 -0.88427895676E+01 -0.16052856113E+02  0.33938715047E+02  0.51100000000E-03 0. -1.
        -11    1    4    4    0    0 -0.43306425957E+01  0.55019342273E+00  0.14606791361E+01  0.46033424698E+01  0.51100000000E-03 0.  1.
         12    1    4    4    0    0  0.77923677765E+01 -0.13744113838E+02 -0.89975456555E+00  0.15825018769E+02  0.00000000000E+00 0. -1.
</event>
<event>
 8    1  0.1271559E-006  0.9118800E+02  0.7816164E-02  0.1184000E+00
        -11   -1    0    0    0    0  0.00000000000E+00  0.00000000000E+00  0.45593999997E+02  0.45594000000E+02  0.51100000000E-03 0. -1.
         11   -1    0    0    0    0 -0.00000000000E+00 -0.00000000000E+00 -0.45593999997E+02  0.45594000000E+02  0.51100000000E-03 0.  1.
         23    2    1    2    0    0  0.00000000000E+00  0.00000000000E+00  0.00000000000E+00  0.91188000000E+02  0.91188000000E+02 0.  0.
    9900012    2    3    3    0    0  0.18583311897E+02 -0.45734468142E+01 -0.31456696313E+02  0.54367086924E+02  0.40000006260E+02 0.  0.
         12    1    3    3    0    0 -0.18583311897E+02  0.45734468142E+01  0.31456696313E+02  0.36820913076E+02  0.00000000000E+00 0. -1.
         11    1    4    4    0    0 -0.42349056693E+01 -0.25446875678E+01  0.67532685406E+01  0.83675860969E+01  0.51100000000E-03 0. -1.
        -11    1    4    4    0    0  0.94619642513E+01  0.28494745070E+01 -0.23729946502E+02  0.25705225806E+02  0.51100000000E-03 0.  1.
         12    1    4    4    0    0  0.13356253315E+02 -0.48782337533E+01 -0.14480018352E+02  0.20294275021E+02  0.00000000000E+00 0. -1.
</event>
<event>
 8    1  0.1271559E-006  0.9118800E+02  0.7816164E-02  0.1184000E+00
        -11   -1    0    0    0    0  0.00000000000E+00  0.00000000000E+00  0.45593999997E+02  0.45594000000E+02  0.51100000000E-03 0.  1.
         11   -1    0    0    0    0 -0.00000000000E+00 -0.00000000000E+00 -0.45593999997E+02  0.45594000000E+02  0.51100000000E-03 0. -1.
         23    2    1    2    0    0  0.00000000000E+00  0.00000000000E+00  0.00000000000E+00  0.91188000000E+02  0.91188000000E+02 0.  0.
    9900012    2    3    3    0    0  0.20519306415E+02 -0.15068567510E+01 -0.30536332795E+02  0.54367079675E+02  0.39999989736E+02 0.  0.
        -12    1    3    3    0    0 -0.20519306415E+02  0.15068567510E+01  0.30536332795E+02  0.36820920325E+02  0.00000000000E+00 0.  1.
         11    1    4    4    0    0  0.32505131959E+01 -0.36971625245E+01 -0.86293795329E+01  0.99348396138E+01  0.51100000000E-03 0. -1.
        -11    1    4    4    0    0 -0.75297676981E+01 -0.28752923732E+01  0.33012589316E+01  0.87099379225E+01  0.51100000000E-03 0.  1.
        -12    1    4    4    0    0  0.24798560917E+02  0.50655981467E+01 -0.25208212193E+02  0.35722302139E+02  0.00000000000E+00 0.  1.
</event>
<event>
 8    1  0.1271559E-006  0.9118800E+02  0.7816164E-02  0.1184000E+00
        -11   -1    0    0    0    0  0.00000000000E+00  0.00000000000E+00  0.45593999997E+02  0.45594000000E+02  0.51100000000E-03 0. -1.
         11   -1    0    0    0    0 -0.00000000000E+00 -0.00000000000E+00 -0.45593999997E+02  0.45594000000E+02  0.51100000000E-03 0.  1.
         23    2    1    2    0    0  0.00000000000E+00  0.00000000000E+00  0.00000000000E+00  0.91188000000E+02  0.91188000000E+02 0.  0.
    9900012    2    3    3    0    0 -0.11242508940E+02 -0.25876805852E+02  0.23659596256E+02  0.54367087690E+02  0.40000008006E+02 0.  0.
         12    1    3    3    0    0  0.11242508940E+02  0.25876805852E+02 -0.23659596256E+02  0.36820912310E+02  0.00000000000E+00 0. -1.
         11    1    4    4    0    0 -0.29089507808E+01 -0.28016763684E+02  0.58334941637E+01  0.28765095105E+02  0.51100000000E-03 0.  1.
        -11    1    4    4    0    0 -0.30121432248E+01  0.85915565226E+01  0.52816188637E+01  0.10525366900E+02  0.51100000000E-03 0. -1.
         12    1    4    4    0    0 -0.53214149347E+01 -0.64515986898E+01  0.12544483229E+02  0.15076625685E+02  0.00000000000E+00 0. -1.
</event>
<event>
 8    1  0.1271559E-006  0.9118800E+02  0.7816164E-02  0.1184000E+00
        -11   -1    0    0    0    0  0.00000000000E+00  0.00000000000E+00  0.45593999997E+02  0.45594000000E+02  0.51100000000E-03 0.  1.
         11   -1    0    0    0    0 -0.00000000000E+00 -0.00000000000E+00 -0.45593999997E+02  0.45594000000E+02  0.51100000000E-03 0. -1.
         23    2    1    2    0    0  0.35527136788E-14  0.00000000000E+00 -0.35527136788E-14  0.91188000000E+02  0.91188000000E+02 0.  0.
    9900012    2    3    3    0    0  0.14447873677E+02  0.16592135686E+02 -0.29525261150E+02  0.54367067551E+02  0.39999962097E+02 0.  0.
        -12    1    3    3    0    0 -0.14447873677E+02 -0.16592135686E+02  0.29525261150E+02  0.36820932449E+02  0.00000000000E+00 0.  1.
         11    1    4    4    0    0  0.14425184626E+02  0.94865069092E+00 -0.98441117657E+01  0.17489780626E+02  0.51100000000E-03 0. -1.
        -11    1    4    4    0    0  0.11068254306E+02  0.14165402343E+02 -0.54153553430E+01  0.18774742360E+02  0.51100000000E-03 0.  1.
        -12    1    4    4    0    0 -0.11045565255E+02  0.14780826517E+01 -0.14265794041E+02  0.18102544565E+02  0.00000000000E+00 0.  1.
</event>
<event>
 8    1  0.1271559E-006  0.9118800E+02  0.7816164E-02  0.1184000E+00
        -11   -1    0    0    0    0  0.00000000000E+00  0.00000000000E+00  0.45593999997E+02  0.45594000000E+02  0.51100000000E-03 0. -1.
         11   -1    0    0    0    0 -0.00000000000E+00 -0.00000000000E+00 -0.45593999997E+02  0.45594000000E+02  0.51100000000E-03 0.  1.
         23    2    1    2    0    0  0.17763568394E-14  0.00000000000E+00 -0.44408920985E-15  0.91188000000E+02  0.91188000000E+02 0.  0.
    9900012    2    3    3    0    0 -0.14723897613E+02 -0.33668702805E+02  0.23249965351E+01  0.54367077709E+02  0.39999985253E+02 0.  0.
        -12    1    3    3    0    0  0.14723897613E+02  0.33668702805E+02 -0.23249965351E+01  0.36820922291E+02  0.00000000000E+00 0.  1.
         11    1    4    4    0    0 -0.11120427780E+02 -0.26079054927E+02  0.18779134480E+02  0.34006424569E+02  0.51100000000E-03 0. -1.
        -11    1    4    4    0    0 -0.60043476214E+01 -0.35180569759E+01 -0.74721985107E+01  0.10210909171E+02  0.51100000000E-03 0.  1.
         12    1    4    4    0    0  0.24008777884E+01 -0.40715909021E+01 -0.89819394347E+01  0.10149743969E+02  0.00000000000E+00 0. -1.
</event>
<event>
 8    1  0.1271559E-006  0.9118800E+02  0.7816164E-02  0.1184000E+00
        -11   -1    0    0    0    0  0.00000000000E+00  0.00000000000E+00  0.45593999997E+02  0.45594000000E+02  0.51100000000E-03 0. -1.
         11   -1    0    0    0    0 -0.00000000000E+00 -0.00000000000E+00 -0.45593999997E+02  0.45594000000E+02  0.51100000000E-03 0.  1.
         23    2    1    2    0    0  0.17763568394E-14 -0.35527136788E-14  0.00000000000E+00  0.91188000000E+02  0.91188000000E+02 0.  0.
    9900012    2    3    3    0    0 -0.80037108887E+01 -0.29753139091E+02 -0.20161046066E+02  0.54367130208E+02  0.40000104936E+02 0.  0.
         12    1    3    3    0    0  0.80037108887E+01  0.29753139091E+02  0.20161046066E+02  0.36820869792E+02  0.00000000000E+00 0. -1.
         11    1    4    4    0    0  0.34788884226E+01 -0.19902317594E+02 -0.89356618564E+01  0.22091875505E+02  0.51100000000E-03 0. -1.
        -11    1    4    4    0    0  0.58755093629E+01  0.35702855943E+01  0.13194872550E+01  0.70006854218E+01  0.51100000000E-03 0.  1.
        -12    1    4    4    0    0 -0.17358108674E+02 -0.13421107091E+02 -0.12544871465E+02  0.25274569281E+02  0.00000000000E+00 0.  1.
</event>
<event>
 8    1  0.1271559E-006  0.9118800E+02  0.7816164E-02  0.1184000E+00
        -11   -1    0    0    0    0  0.00000000000E+00  0.00000000000E+00  0.45593999997E+02  0.45594000000E+02  0.51100000000E-03 0.  1.
         11   -1    0    0    0    0 -0.00000000000E+00 -0.00000000000E+00 -0.45593999997E+02  0.45594000000E+02  0.51100000000E-03 0. -1.
         23    2    1    2    0    0  0.17763568394E-14 -0.44408920985E-15  0.00000000000E+00  0.91188000000E+02  0.91188000000E+02 0.  0.
    9900012    2    3    3    0    0  0.39112066416E+01  0.36970015404E+01  0.36425496736E+02  0.54367052562E+02  0.39999927925E+02 0.  0.
         12    1    3    3    0    0 -0.39112066416E+01 -0.36970015404E+01 -0.36425496736E+02  0.36820947438E+02  0.00000000000E+00 0. -1.
         11    1    4    4    0    0  0.14869254897E+02  0.26899982533E+01  0.19523994402E+01  0.15236229706E+02  0.51100000000E-03 0. -1.
        -11    1    4    4    0    0 -0.78327419717E+01  0.64906908300E+01  0.11722393835E+02  0.15520806414E+02  0.51100000000E-03 0.  1.
         12    1    4    4    0    0 -0.31253062841E+01 -0.54836875429E+01  0.22750703461E+02  0.23610016442E+02  0.00000000000E+00 0. -1.
</event>
<event>
 8    1  0.1271559E-006  0.9118800E+02  0.7816164E-02  0.1184000E+00
        -11   -1    0    0    0    0  0.00000000000E+00  0.00000000000E+00  0.45593999997E+02  0.45594000000E+02  0.51100000000E-03 0.  1.
         11   -1    0    0    0    0 -0.00000000000E+00 -0.00000000000E+00 -0.45593999997E+02  0.45594000000E+02  0.51100000000E-03 0. -1.
         23    2    1    2    0    0  0.00000000000E+00  0.00000000000E+00  0.00000000000E+00  0.91188000000E+02  0.91188000000E+02 0.  0.
    9900012    2    3    3    0    0 -0.20606953908E+02 -0.11977001978E+02 -0.28065706886E+02  0.54367095220E+02  0.40000025174E+02 0.  0.
        -12    1    3    3    0    0  0.20606953908E+02  0.11977001978E+02  0.28065706886E+02  0.36820904780E+02  0.00000000000E+00 0.  1.
         11    1    4    4    0    0 -0.71159647212E+01 -0.30838463994E+01 -0.44375370189E+01  0.89352558768E+01  0.51100000000E-03 0. -1.
        -11    1    4    4    0    0  0.94250812451E+01  0.29856124173E+01 -0.15473778656E+02  0.18362566927E+02  0.51100000000E-03 0.  1.
        -12    1    4    4    0    0 -0.22916070432E+02 -0.11878767996E+02 -0.81543912113E+01  0.27069272417E+02  0.00000000000E+00 0.  1.
</event>
<event>
 8    1  0.1271559E-006  0.9118800E+02  0.7816164E-02  0.1184000E+00
        -11   -1    0    0    0    0  0.00000000000E+00  0.00000000000E+00  0.45593999997E+02  0.45594000000E+02  0.51100000000E-03 0. -1.
         11   -1    0    0    0    0 -0.00000000000E+00 -0.00000000000E+00 -0.45593999997E+02  0.45594000000E+02  0.51100000000E-03 0.  1.
         23    2    1    2    0    0  0.35527136788E-14 -0.44408920985E-15  0.00000000000E+00  0.91188000000E+02  0.91188000000E+02 0.  0.
    9900012    2    3    3    0    0 -0.24770680107E+02  0.32592951999E+01 -0.27047552206E+02  0.54367086398E+02  0.40000005062E+02 0.  0.
         12    1    3    3    0    0  0.24770680107E+02 -0.32592951999E+01  0.27047552206E+02  0.36820913602E+02  0.00000000000E+00 0. -1.
         11    1    4    4    0    0 -0.31353059242E+02  0.10193647933E+02 -0.15602375006E+02  0.36474085158E+02  0.51100000000E-03 0.  1.
        -11    1    4    4    0    0  0.81806833769E+01 -0.25225327389E+01 -0.49782530337E+01  0.99030174927E+01  0.51100000000E-03 0. -1.
        -12    1    4    4    0    0 -0.15983042411E+01 -0.44118199947E+01 -0.64669241659E+01  0.79899837472E+01  0.00000000000E+00 0.  1.
</event>
<event>
 8    1  0.1271559E-006  0.9118800E+02  0.7816164E-02  0.1184000E+00
        -11   -1    0    0    0    0  0.00000000000E+00  0.00000000000E+00  0.45593999997E+02  0.45594000000E+02  0.51100000000E-03 0.  1.
         11   -1    0    0    0    0 -0.00000000000E+00 -0.00000000000E+00 -0.45593999997E+02  0.45594000000E+02  0.51100000000E-03 0. -1.
         23    2    1    2    0    0  0.00000000000E+00 -0.88817841970E-15  0.00000000000E+00  0.91188000000E+02  0.91188000000E+02 0.  0.
    9900012    2    3    3    0    0 -0.26073555804E+02  0.33943200346E+01  0.25776620366E+02  0.54367002210E+02  0.39999813137E+02 0.  0.
         12    1    3    3    0    0  0.26073555804E+02 -0.33943200346E+01 -0.25776620366E+02  0.36820997790E+02  0.00000000000E+00 0. -1.
         11    1    4    4    0    0  0.28579692123E+01 -0.10653036723E+02  0.16459386185E+01  0.11151873996E+02  0.51100000000E-03 0. -1.
        -11    1    4    4    0    0 -0.18590480584E+02  0.16864315796E+02  0.17745195279E+02  0.30739275713E+02  0.51100000000E-03 0.  1.
         12    1    4    4    0    0 -0.10341044432E+02 -0.28169590387E+01  0.63854864685E+01  0.12475852501E+02  0.00000000000E+00 0. -1.
</event>
<event>
 8    1  0.1271559E-006  0.9118800E+02  0.7816164E-02  0.1184000E+00
        -11   -1    0    0    0    0  0.00000000000E+00  0.00000000000E+00  0.45593999997E+02  0.45594000000E+02  0.51100000000E-03 0. -1.
         11   -1    0    0    0    0 -0.00000000000E+00 -0.00000000000E+00 -0.45593999997E+02  0.45594000000E+02  0.51100000000E-03 0.  1.
         23    2    1    2    0    0  0.00000000000E+00  0.00000000000E+00  0.00000000000E+00  0.91188000000E+02  0.91188000000E+02 0.  0.
    9900012    2    3    3    0    0  0.21712205760E+02  0.19066760066E+02  0.22821451427E+02  0.54367083884E+02  0.39999999330E+02 0.  0.
        -12    1    3    3    0    0 -0.21712205760E+02 -0.19066760066E+02 -0.22821451427E+02  0.36820916116E+02  0.00000000000E+00 0.  1.
         11    1    4    4    0    0  0.54925227241E+01 -0.37663060323E+01  0.59668188511E+01  0.89418004041E+01  0.51100000000E-03 0. -1.
        -11    1    4    4    0    0 -0.83750064018E+01  0.36959907256E+01 -0.14735851411E+01  0.92721374614E+01  0.51100000000E-03 0.  1.
         12    1    4    4    0    0  0.24594689437E+02  0.19137075373E+02  0.18328217717E+02  0.36153146019E+02  0.00000000000E+00 0. -1.
</event>
<event>
 8    1  0.1271559E-006  0.9118800E+02  0.7816164E-02  0.1184000E+00
        -11   -1    0    0    0    0  0.00000000000E+00  0.00000000000E+00  0.45593999997E+02  0.45594000000E+02  0.51100000000E-03 0. -1.
         11   -1    0    0    0    0 -0.00000000000E+00 -0.00000000000E+00 -0.45593999997E+02  0.45594000000E+02  0.51100000000E-03 0.  1.
         23    2    1    2    0    0  0.00000000000E+00  0.00000000000E+00  0.00000000000E+00  0.91188000000E+02  0.91188000000E+02 0.  0.
    9900012    2    3    3    0    0  0.23991331717E+02  0.24188426305E+02 -0.13968242132E+02  0.54367139704E+02  0.40000126584E+02 0.  0.
         12    1    3    3    0    0 -0.23991331717E+02 -0.24188426305E+02  0.13968242132E+02  0.36820860296E+02  0.00000000000E+00 0. -1.
         11    1    4    4    0    0 -0.90840616984E+01  0.58886869249E+01  0.23787238426E+01  0.11084003700E+02  0.51100000000E-03 0. -1.
        -11    1    4    4    0    0  0.28298256274E+02  0.19037980348E+02 -0.10477318611E+02  0.35679268622E+02  0.51100000000E-03 0.  1.
        -12    1    4    4    0    0  0.47771371413E+01 -0.73824096794E+00 -0.58696473640E+01  0.76038673825E+01  0.00000000000E+00 0.  1.
</event>
<event>
 8    1  0.1271559E-006  0.9118800E+02  0.7816164E-02  0.1184000E+00
        -11   -1    0    0    0    0  0.00000000000E+00  0.00000000000E+00  0.45593999997E+02  0.45594000000E+02  0.51100000000E-03 0. -1.
         11   -1    0    0    0    0 -0.00000000000E+00 -0.00000000000E+00 -0.45593999997E+02  0.45594000000E+02  0.51100000000E-03 0.  1.
         23    2    1    2    0    0  0.00000000000E+00  0.00000000000E+00 -0.23314683517E-14  0.91188000000E+02  0.91188000000E+02 0.  0.
    9900012    2    3    3    0    0 -0.36076874316E+02  0.73181784661E+01 -0.82668991324E+00  0.54367081860E+02  0.39999994715E+02 0.  0.
         12    1    3    3    0    0  0.36076874316E+02 -0.73181784661E+01  0.82668991324E+00  0.36820918140E+02  0.00000000000E+00 0. -1.
         11    1    4    4    0    0 -0.91222958919E+01  0.43705747694E+01  0.75715793713E+01  0.12635150201E+02  0.51100000000E-03 0. -1.
        -11    1    4    4    0    0 -0.28429012536E+02  0.12487425214E+02 -0.47473266018E+01  0.31411489178E+02  0.51100000000E-03 0.  1.
         12    1    4    4    0    0  0.14744341118E+01 -0.95398215172E+01 -0.36509426828E+01  0.10320442481E+02  0.00000000000E+00 0. -1.
</event>
<event>
 8    1  0.1271559E-006  0.9118800E+02  0.7816164E-02  0.1184000E+00
        -11   -1    0    0    0    0  0.00000000000E+00  0.00000000000E+00  0.45593999997E+02  0.45594000000E+02  0.51100000000E-03 0.  1.
         11   -1    0    0    0    0 -0.00000000000E+00 -0.00000000000E+00 -0.45593999997E+02  0.45594000000E+02  0.51100000000E-03 0. -1.
         23    2    1    2    0    0 -0.35527136788E-14  0.00000000000E+00  0.00000000000E+00  0.91188000000E+02  0.91188000000E+02 0.  0.
    9900012    2    3    3    0    0  0.22922089377E+02 -0.14023980942E+02  0.25173092566E+02  0.54367098161E+02  0.40000031878E+02 0.  0.
         12    1    3    3    0    0 -0.22922089377E+02  0.14023980942E+02 -0.25173092566E+02  0.36820901839E+02  0.00000000000E+00 0. -1.
         11    1    4    4    0    0  0.11036012980E+02 -0.10228178554E+02  0.10354694005E+02  0.18265511414E+02  0.51100000000E-03 0. -1.
        -11    1    4    4    0    0  0.19821710415E+02  0.55367762595E+01  0.10564794698E+02  0.23133762824E+02  0.51100000000E-03 0.  1.
         12    1    4    4    0    0 -0.79356340178E+01 -0.93325786473E+01  0.42536038625E+01  0.12967823923E+02  0.00000000000E+00 0. -1.
</event>
<event>
 8    1  0.1271559E-006  0.9118800E+02  0.7816164E-02  0.1184000E+00
        -11   -1    0    0    0    0  0.00000000000E+00  0.00000000000E+00  0.45593999997E+02  0.45594000000E+02  0.51100000000E-03 0.  1.
         11   -1    0    0    0    0 -0.00000000000E+00 -0.00000000000E+00 -0.45593999997E+02  0.45594000000E+02  0.51100000000E-03 0. -1.
         23    2    1    2    0    0  0.35527136788E-14  0.00000000000E+00  0.00000000000E+00  0.91188000000E+02  0.91188000000E+02 0.  0.
    9900012    2    3    3    0    0 -0.26779658269E+02  0.10319611957E+02 -0.23068063636E+02  0.54367081382E+02  0.39999993627E+02 0.  0.
        -12    1    3    3    0    0  0.26779658269E+02 -0.10319611957E+02  0.23068063636E+02  0.36820918618E+02  0.00000000000E+00 0.  1.
         11    1    4    4    0    0 -0.14872984917E+02  0.32706307092E+01  0.17447573813E+01  0.15327977171E+02  0.51100000000E-03 0.  1.
        -11    1    4    4    0    0 -0.15244032875E+02 -0.47716520713E+01 -0.70902541174E+01  0.17476295531E+02  0.51100000000E-03 0. -1.
         12    1    4    4    0    0  0.33373595225E+01  0.11820633319E+02 -0.17722566900E+02  0.21562808680E+02  0.00000000000E+00 0. -1.
</event>
<event>
 8    1  0.1271559E-006  0.9118800E+02  0.7816164E-02  0.1184000E+00
        -11   -1    0    0    0    0  0.00000000000E+00  0.00000000000E+00  0.45593999997E+02  0.45594000000E+02  0.51100000000E-03 0.  1.
         11   -1    0    0    0    0 -0.00000000000E+00 -0.00000000000E+00 -0.45593999997E+02  0.45594000000E+02  0.51100000000E-03 0. -1.
         23    2    1    2    0    0  0.44408920985E-15  0.00000000000E+00  0.00000000000E+00  0.91188000000E+02  0.91188000000E+02 0.  0.
    9900012    2    3    3    0    0  0.11035900866E+01  0.23340980744E+02 -0.28456322195E+02  0.54367060767E+02  0.39999946630E+02 0.  0.
        -12    1    3    3    0    0 -0.11035900866E+01 -0.23340980744E+02  0.28456322195E+02  0.36820939233E+02  0.00000000000E+00 0.  1.
         11    1    4    4    0    0 -0.80355936731E+01 -0.81271349779E-01 -0.64613384219E+01  0.10311462805E+02  0.51100000000E-03 0. -1.
        -11    1    4    4    0    0  0.42344456683E+01  0.28934348685E+02 -0.22135869244E+02  0.36675929046E+02  0.51100000000E-03 0.  1.
        -12    1    4    4    0    0  0.49047380914E+01 -0.55120965920E+01  0.14088547087E+00  0.73796689154E+01  0.00000000000E+00 0.  1.
</event>
<event>
 8    1  0.1271559E-006  0.9118800E+02  0.7816164E-02  0.1184000E+00
        -11   -1    0    0    0    0  0.00000000000E+00  0.00000000000E+00  0.45593999997E+02  0.45594000000E+02  0.51100000000E-03 0. -1.
         11   -1    0    0    0    0 -0.00000000000E+00 -0.00000000000E+00 -0.45593999997E+02  0.45594000000E+02  0.51100000000E-03 0.  1.
         23    2    1    2    0    0 -0.35527136788E-14  0.00000000000E+00 -0.53290705182E-14  0.91188000000E+02  0.91188000000E+02 0.  0.
    9900012    2    3    3    0    0  0.31917565109E+02 -0.13742925938E+02  0.12172956018E+02  0.54367084285E+02  0.40000000245E+02 0.  0.
        -12    1    3    3    0    0 -0.31917565109E+02  0.13742925938E+02 -0.12172956018E+02  0.36820915715E+02  0.00000000000E+00 0.  1.
         11    1    4    4    0    0  0.40474213011E+01  0.52719679742E+01 -0.63849869252E+01  0.92164702465E+01  0.51100000000E-03 0. -1.
        -11    1    4    4    0    0 -0.17920397357E+01  0.28718334941E+01 -0.85084255181E+00  0.34903821197E+01  0.51100000000E-03 0.  1.
         12    1    4    4    0    0  0.29662183544E+02 -0.21886727407E+02  0.19408785495E+02  0.41660231919E+02  0.00000000000E+00 0. -1.
</event>
<event>
 8    1  0.1271559E-006  0.9118800E+02  0.7816164E-02  0.1184000E+00
        -11   -1    0    0    0    0  0.00000000000E+00  0.00000000000E+00  0.45593999997E+02  0.45594000000E+02  0.51100000000E-03 0.  1.
         11   -1    0    0    0    0 -0.00000000000E+00 -0.00000000000E+00 -0.45593999997E+02  0.45594000000E+02  0.51100000000E-03 0. -1.
         23    2    1    2    0    0  0.71054273576E-14 -0.17763568394E-14  0.44408920985E-15  0.91188000000E+02  0.91188000000E+02 0.  0.
    9900012    2    3    3    0    0 -0.34413025680E+02 -0.12820142320E+02  0.26772203500E+01  0.54367083466E+02  0.39999998378E+02 0.  0.
         12    1    3    3    0    0  0.34413025680E+02  0.12820142320E+02 -0.26772203500E+01  0.36820916534E+02  0.00000000000E+00 0. -1.
         11    1    4    4    0    0 -0.10588113691E+02  0.74865361279E+01  0.97510423905E+01  0.16224647999E+02  0.51100000000E-03 0. -1.
        -11    1    4    4    0    0 -0.63729618323E+01 -0.16472135865E+01  0.64664547307E+01  0.92272960374E+01  0.51100000000E-03 0.  1.
         12    1    4    4    0    0 -0.17451950157E+02 -0.18659464862E+02 -0.13540276771E+02  0.28915139430E+02  0.00000000000E+00 0. -1.
</event>
<event>
 8    1  0.1271559E-006  0.9118800E+02  0.7816164E-02  0.1184000E+00
        -11   -1    0    0    0    0  0.00000000000E+00  0.00000000000E+00  0.45593999997E+02  0.45594000000E+02  0.51100000000E-03 0. -1.
         11   -1    0    0    0    0 -0.00000000000E+00 -0.00000000000E+00 -0.45593999997E+02  0.45594000000E+02  0.51100000000E-03 0.  1.
         23    2    1    2    0    0  0.17763568394E-14 -0.35527136788E-14  0.00000000000E+00  0.91188000000E+02  0.91188000000E+02 0.  0.
    9900012    2    3    3    0    0  0.10556250354E+02 -0.21244881716E+02 -0.28160135225E+02  0.54367182022E+02  0.40000223054E+02 0.  0.
         12    1    3    3    0    0 -0.10556250354E+02  0.21244881716E+02  0.28160135225E+02  0.36820817978E+02  0.00000000000E+00 0. -1.
         11    1    4    4    0    0 -0.96482566827E+01 -0.13769948156E+02 -0.22998344562E+02  0.28489018623E+02  0.51100000000E-03 0. -1.
        -11    1    4    4    0    0  0.11176126634E+02 -0.94232602066E+01 -0.73850834849E+01  0.16378128641E+02  0.51100000000E-03 0.  1.
         12    1    4    4    0    0  0.90283804033E+01  0.19483266463E+01  0.22232928214E+01  0.95000347577E+01  0.00000000000E+00 0. -1.
</event>
<event>
 8    1  0.1271559E-006  0.9118800E+02  0.7816164E-02  0.1184000E+00
        -11   -1    0    0    0    0  0.00000000000E+00  0.00000000000E+00  0.45593999997E+02  0.45594000000E+02  0.51100000000E-03 0. -1.
         11   -1    0    0    0    0 -0.00000000000E+00 -0.00000000000E+00 -0.45593999997E+02  0.45594000000E+02  0.51100000000E-03 0.  1.
         23    2    1    2    0    0  0.00000000000E+00  0.00000000000E+00  0.00000000000E+00  0.91188000000E+02  0.91188000000E+02 0.  0.
    9900012    2    3    3    0    0  0.44032722167E+01  0.29672761068E+02  0.21352250640E+02  0.54367079819E+02  0.39999990062E+02 0.  0.
        -12    1    3    3    0    0 -0.44032722167E+01 -0.29672761068E+02 -0.21352250640E+02  0.36820920181E+02  0.00000000000E+00 0.  1.
         11    1    4    4    0    0  0.32283972355E+01  0.24565921566E+02  0.26790813935E+02  0.36491845153E+02  0.51100000000E-03 0. -1.
        -11    1    4    4    0    0  0.67105014365E+01  0.32448146894E+01  0.26391835361E+01  0.79072714571E+01  0.51100000000E-03 0.  1.
         12    1    4    4    0    0 -0.55356264553E+01  0.18620248124E+01 -0.80777468311E+01  0.99679632083E+01  0.00000000000E+00 0. -1.
</event>
<event>
 8    1  0.1271559E-006  0.9118800E+02  0.7816164E-02  0.1184000E+00
        -11   -1    0    0    0    0  0.00000000000E+00  0.00000000000E+00  0.45593999997E+02  0.45594000000E+02  0.51100000000E-03 0.  1.
         11   -1    0    0    0    0 -0.00000000000E+00 -0.00000000000E+00 -0.45593999997E+02  0.45594000000E+02  0.51100000000E-03 0. -1.
         23    2    1    2    0    0  0.00000000000E+00 -0.35527136788E-14 -0.35527136788E-14  0.91188000000E+02  0.91188000000E+02 0.  0.
    9900012    2    3    3    0    0 -0.10627027285E+02 -0.17512591686E+02 -0.30596645766E+02  0.54367091420E+02  0.40000016511E+02 0.  0.
        -12    1    3    3    0    0  0.10627027285E+02  0.17512591686E+02  0.30596645766E+02  0.36820908580E+02  0.00000000000E+00 0.  1.
         11    1    4    4    0    0 -0.16713137760E+02 -0.22727062803E+02 -0.27376105993E+02  0.39310298104E+02  0.51100000000E-03 0. -1.
        -11    1    4    4    0    0 -0.26391212233E+01  0.13346753951E+01  0.25454578056E+01  0.39020090905E+01  0.51100000000E-03 0.  1.
         12    1    4    4    0    0  0.87252316983E+01  0.38797957221E+01 -0.57659975791E+01  0.11154784225E+02  0.00000000000E+00 0. -1.
</event>
<event>
 8    1  0.1271559E-006  0.9118800E+02  0.7816164E-02  0.1184000E+00
        -11   -1    0    0    0    0  0.00000000000E+00  0.00000000000E+00  0.45593999997E+02  0.45594000000E+02  0.51100000000E-03 0. -1.
         11   -1    0    0    0    0 -0.00000000000E+00 -0.00000000000E+00 -0.45593999997E+02  0.45594000000E+02  0.51100000000E-03 0.  1.
         23    2    1    2    0    0  0.22204460493E-15  0.00000000000E+00  0.00000000000E+00  0.91188000000E+02  0.91188000000E+02 0.  0.
    9900012    2    3    3    0    0  0.19843479445E+01 -0.16523185228E+02 -0.32845510427E+02  0.54367070597E+02  0.39999969041E+02 0.  0.
         12    1    3    3    0    0 -0.19843479445E+01  0.16523185228E+02  0.32845510427E+02  0.36820929403E+02  0.00000000000E+00 0. -1.
         11    1    4    4    0    0  0.99504627321E+01 -0.33202897321E+01 -0.90133542717E+01  0.13830277943E+02  0.51100000000E-03 0. -1.
        -11    1    4    4    0    0 -0.74553298627E+01 -0.21762996840E+02 -0.12064764074E+02  0.25976306651E+02  0.51100000000E-03 0.  1.
        -12    1    4    4    0    0 -0.51078492487E+00  0.85601013440E+01 -0.11767392081E+02  0.14560486003E+02  0.00000000000E+00 0.  1.
</event>
<event>
 8    1  0.1271559E-006  0.9118800E+02  0.7816164E-02  0.1184000E+00
        -11   -1    0    0    0    0  0.00000000000E+00  0.00000000000E+00  0.45593999997E+02  0.45594000000E+02  0.51100000000E-03 0. -1.
         11   -1    0    0    0    0 -0.00000000000E+00 -0.00000000000E+00 -0.45593999997E+02  0.45594000000E+02  0.51100000000E-03 0.  1.
         23    2    1    2    0    0  0.00000000000E+00  0.00000000000E+00  0.00000000000E+00  0.91188000000E+02  0.91188000000E+02 0.  0.
    9900012    2    3    3    0    0 -0.32940875554E+02  0.13370315324E+02 -0.95871834686E+01  0.54367072514E+02  0.39999973409E+02 0.  0.
         12    1    3    3    0    0  0.32940875554E+02 -0.13370315324E+02  0.95871834686E+01  0.36820927486E+02  0.00000000000E+00 0. -1.
         11    1    4    4    0    0 -0.98602490449E+00 -0.24822340102E+01 -0.52145384968E+01  0.58587663198E+01  0.51100000000E-03 0. -1.
        -11    1    4    4    0    0 -0.22266357500E+02 -0.71120723726E+01 -0.26454573509E+01  0.23523832481E+02  0.51100000000E-03 0.  1.
        -12    1    4    4    0    0 -0.96884931495E+01  0.22964621707E+02 -0.17271876208E+01  0.24984473713E+02  0.00000000000E+00 0.  1.
</event>
<event>
 8    1  0.1271559E-006  0.9118800E+02  0.7816164E-02  0.1184000E+00
        -11   -1    0    0    0    0  0.00000000000E+00  0.00000000000E+00  0.45593999997E+02  0.45594000000E+02  0.51100000000E-03 0.  1.
         11   -1    0    0    0    0 -0.00000000000E+00 -0.00000000000E+00 -0.45593999997E+02  0.45594000000E+02  0.51100000000E-03 0. -1.
         23    2    1    2    0    0  0.88817841970E-15  0.22204460493E-15  0.00000000000E+00  0.91188000000E+02  0.91188000000E+02 0.  0.
    9900012    2    3    3    0    0  0.59046217054E+01 -0.11460391585E+01 -0.36326321187E+02  0.54367087814E+02  0.40000008290E+02 0.  0.
        -12    1    3    3    0    0 -0.59046217054E+01  0.11460391585E+01  0.36326321187E+02  0.36820912186E+02  0.00000000000E+00 0.  1.
         11    1    4    4    0    0 -0.48320614021E+01  0.29594939172E+01 -0.23537703735E+02  0.24210140831E+02  0.51100000000E-03 0. -1.
        -11    1    4    4    0    0 -0.37377397603E+00 -0.50398630432E+01 -0.17379311238E+02  0.18099181911E+02  0.51100000000E-03 0.  1.
        -12    1    4    4    0    0  0.11110457084E+02  0.93432996751E+00  0.45906937871E+01  0.12057765072E+02  0.00000000000E+00 0.  1.
</event>
<event>
 8    1  0.1271559E-006  0.9118800E+02  0.7816164E-02  0.1184000E+00
        -11   -1    0    0    0    0  0.00000000000E+00  0.00000000000E+00  0.45593999997E+02  0.45594000000E+02  0.51100000000E-03 0. -1.
         11   -1    0    0    0    0 -0.00000000000E+00 -0.00000000000E+00 -0.45593999997E+02  0.45594000000E+02  0.51100000000E-03 0.  1.
         23    2    1    2    0    0 -0.17763568394E-14  0.00000000000E+00  0.35527136788E-14  0.91188000000E+02  0.91188000000E+02 0.  0.
    9900012    2    3    3    0    0  0.13855623221E+02 -0.17847043608E+02 -0.29073706007E+02  0.54367141219E+02  0.40000130037E+02 0.  0.
         12    1    3    3    0    0 -0.13855623221E+02  0.17847043608E+02  0.29073706007E+02  0.36820858781E+02  0.00000000000E+00 0. -1.
         11    1    4    4    0    0  0.96922587490E+00 -0.21494175230E+00 -0.43398549943E+00  0.10834862382E+01  0.51100000000E-03 0. -1.
        -11    1    4    4    0    0  0.39257305492E+01 -0.18216678127E+02 -0.36736521932E+02  0.41192605723E+02  0.51100000000E-03 0.  1.
         12    1    4    4    0    0  0.89606667968E+01  0.58457627146E+00  0.80968014240E+01  0.12091049258E+02  0.00000000000E+00 0. -1.
</event>
<event>
 8    1  0.1271559E-006  0.9118800E+02  0.7816164E-02  0.1184000E+00
        -11   -1    0    0    0    0  0.00000000000E+00  0.00000000000E+00  0.45593999997E+02  0.45594000000E+02  0.51100000000E-03 0.  1.
         11   -1    0    0    0    0 -0.00000000000E+00 -0.00000000000E+00 -0.45593999997E+02  0.45594000000E+02  0.51100000000E-03 0. -1.
         23    2    1    2    0    0  0.00000000000E+00  0.00000000000E+00  0.00000000000E+00  0.91188000000E+02  0.91188000000E+02 0.  0.
    9900012    2    3    3    0    0  0.19491955107E+02  0.26515327997E+02  0.16516096551E+02  0.54367076900E+02  0.39999983409E+02 0.  0.
         12    1    3    3    0    0 -0.19491955107E+02 -0.26515327997E+02 -0.16516096551E+02  0.36820923100E+02  0.00000000000E+00 0. -1.
         11    1    4    4    0    0 -0.13012949726E+01 -0.19191733854E+00  0.64926012140E+00  0.14668809894E+01  0.51100000000E-03 0. -1.
        -11    1    4    4    0    0  0.21996496651E+02 -0.16640387588E+01  0.64572005319E+01  0.22985002260E+02  0.51100000000E-03 0.  1.
        -12    1    4    4    0    0 -0.12032465718E+01  0.28371284094E+02  0.94096358974E+01  0.29915193651E+02  0.00000000000E+00 0.  1.
</event>
<event>
 8    1  0.1271559E-006  0.9118800E+02  0.7816164E-02  0.1184000E+00
        -11   -1    0    0    0    0  0.00000000000E+00  0.00000000000E+00  0.45593999997E+02  0.45594000000E+02  0.51100000000E-03 0.  1.
         11   -1    0    0    0    0 -0.00000000000E+00 -0.00000000000E+00 -0.45593999997E+02  0.45594000000E+02  0.51100000000E-03 0. -1.
         23    2    1    2    0    0  0.88817841970E-15  0.00000000000E+00  0.00000000000E+00  0.91188000000E+02  0.91188000000E+02 0.  0.
    9900012    2    3    3    0    0 -0.50531526541E+01  0.36112145568E+02  0.51146109575E+01  0.54367073145E+02  0.39999974848E+02 0.  0.
         12    1    3    3    0    0  0.50531526541E+01 -0.36112145568E+02 -0.51146109575E+01  0.36820926855E+02  0.00000000000E+00 0. -1.
         11    1    4    4    0    0  0.53994024010E+01  0.16927349010E+02  0.11724567440E+02  0.21287418178E+02  0.51100000000E-03 0. -1.
        -11    1    4    4    0    0 -0.25086386563E+01  0.19120091314E+02  0.41296336260E+01  0.19721182366E+02  0.51100000000E-03 0.  1.
         12    1    4    4    0    0 -0.79439163988E+01  0.64705244036E-01 -0.10739590108E+02  0.13358472600E+02  0.00000000000E+00 0. -1.
</event>
<event>
 8    1  0.1271559E-006  0.9118800E+02  0.7816164E-02  0.1184000E+00
        -11   -1    0    0    0    0  0.00000000000E+00  0.00000000000E+00  0.45593999997E+02  0.45594000000E+02  0.51100000000E-03 0.  1.
         11   -1    0    0    0    0 -0.00000000000E+00 -0.00000000000E+00 -0.45593999997E+02  0.45594000000E+02  0.51100000000E-03 0. -1.
         23    2    1    2    0    0  0.00000000000E+00  0.26645352591E-14  0.00000000000E+00  0.91188000000E+02  0.91188000000E+02 0.  0.
    9900012    2    3    3    0    0 -0.11514580918E+02  0.67508610100E+01  0.34316534242E+02  0.54367024722E+02  0.39999864457E+02 0.  0.
         12    1    3    3    0    0  0.11514580918E+02 -0.67508610100E+01 -0.34316534242E+02  0.36820975278E+02  0.00000000000E+00 0. -1.
         11    1    4    4    0    0  0.40252100092E+01  0.21494961188E+01 -0.45173287561E+01  0.64209741110E+01  0.51100000000E-03 0. -1.
        -11    1    4    4    0    0 -0.15783478875E+02  0.99286701874E+01  0.16226878735E+02  0.24718581894E+02  0.51100000000E-03 0.  1.
         12    1    4    4    0    0  0.24368794756E+00 -0.53273052962E+01  0.22606984263E+02  0.23227468717E+02  0.00000000000E+00 0. -1.
</event>
<event>
 8    1  0.1271559E-006  0.9118800E+02  0.7816164E-02  0.1184000E+00
        -11   -1    0    0    0    0  0.00000000000E+00  0.00000000000E+00  0.45593999997E+02  0.45594000000E+02  0.51100000000E-03 0.  1.
         11   -1    0    0    0    0 -0.00000000000E+00 -0.00000000000E+00 -0.45593999997E+02  0.45594000000E+02  0.51100000000E-03 0. -1.
         23    2    1    2    0    0 -0.17763568394E-14  0.00000000000E+00  0.00000000000E+00  0.91188000000E+02  0.91188000000E+02 0.  0.
    9900012    2    3    3    0    0 -0.87450983233E+01  0.14289750940E+02 -0.32788862407E+02  0.54367038245E+02  0.39999895288E+02 0.  0.
        -12    1    3    3    0    0  0.87450983233E+01 -0.14289750940E+02  0.32788862407E+02  0.36820961755E+02  0.00000000000E+00 0.  1.
         11    1    4    4    0    0  0.35399614524E+01 -0.16139041702E+01  0.15382794496E+01  0.41835771394E+01  0.51100000000E-03 0.  1.
        -11    1    4    4    0    0 -0.13430508979E+02  0.17751300416E+02 -0.78288506034E+01  0.23596146718E+02  0.51100000000E-03 0. -1.
         12    1    4    4    0    0  0.11454492034E+01 -0.18476453057E+01 -0.26498291253E+02  0.26587314388E+02  0.00000000000E+00 0. -1.
</event>
<event>
 8    1  0.1271559E-006  0.9118800E+02  0.7816164E-02  0.1184000E+00
        -11   -1    0    0    0    0  0.00000000000E+00  0.00000000000E+00  0.45593999997E+02  0.45594000000E+02  0.51100000000E-03 0.  1.
         11   -1    0    0    0    0 -0.00000000000E+00 -0.00000000000E+00 -0.45593999997E+02  0.45594000000E+02  0.51100000000E-03 0. -1.
         23    2    1    2    0    0  0.00000000000E+00  0.00000000000E+00 -0.17763568394E-14  0.91188000000E+02  0.91188000000E+02 0.  0.
    9900012    2    3    3    0    0  0.23364614220E+02  0.27097981721E+02 -0.86933537961E+01  0.54367079164E+02  0.39999988570E+02 0.  0.
         12    1    3    3    0    0 -0.23364614220E+02 -0.27097981721E+02  0.86933537961E+01  0.36820920836E+02  0.00000000000E+00 0. -1.
         11    1    4    4    0    0 -0.46114174531E+01 -0.30692638599E+01  0.17428559232E+01  0.58071592538E+01  0.51100000000E-03 0. -1.
        -11    1    4    4    0    0  0.21221164371E+02  0.90953665044E+01  0.20034610562E+01  0.23174929678E+02  0.51100000000E-03 0.  1.
         12    1    4    4    0    0  0.67548673023E+01  0.21071879076E+02 -0.12439670775E+02  0.25384990232E+02  0.00000000000E+00 0. -1.
</event>
<event>
 8    1  0.1271559E-006  0.9118800E+02  0.7816164E-02  0.1184000E+00
        -11   -1    0    0    0    0  0.00000000000E+00  0.00000000000E+00  0.45593999997E+02  0.45594000000E+02  0.51100000000E-03 0.  1.
         11   -1    0    0    0    0 -0.00000000000E+00 -0.00000000000E+00 -0.45593999997E+02  0.45594000000E+02  0.51100000000E-03 0. -1.
         23    2    1    2    0    0  0.00000000000E+00  0.17763568394E-14  0.00000000000E+00  0.91188000000E+02  0.91188000000E+02 0.  0.
    9900012    2    3    3    0    0 -0.14771319276E+02  0.92826927988E+01  0.32425684704E+02  0.54367010235E+02  0.39999831432E+02 0.  0.
         12    1    3    3    0    0  0.14771319276E+02 -0.92826927988E+01 -0.32425684704E+02  0.36820989765E+02  0.00000000000E+00 0. -1.
         11    1    4    4    0    0  0.56028882355E+01 -0.86079673317E+01  0.48648441502E+01  0.11364689482E+02  0.51100000000E-03 0. -1.
        -11    1    4    4    0    0 -0.13082187550E+02  0.17069162594E+02  0.95057241747E+01  0.23512948244E+02  0.51100000000E-03 0.  1.
        -12    1    4    4    0    0 -0.72920199615E+01  0.82149753667E+00  0.18055116379E+02  0.19489372509E+02  0.00000000000E+00 0.  1.
</event>
<event>
 8    1  0.1271559E-006  0.9118800E+02  0.7816164E-02  0.1184000E+00
        -11   -1    0    0    0    0  0.00000000000E+00  0.00000000000E+00  0.45593999997E+02  0.45594000000E+02  0.51100000000E-03 0. -1.
         11   -1    0    0    0    0 -0.00000000000E+00 -0.00000000000E+00 -0.45593999997E+02  0.45594000000E+02  0.51100000000E-03 0.  1.
         23    2    1    2    0    0  0.88817841970E-15  0.71054273576E-14  0.00000000000E+00  0.91188000000E+02  0.91188000000E+02 0.  0.
    9900012    2    3    3    0    0  0.18422707773E+01  0.32027329789E+02  0.18073076674E+02  0.54367083180E+02  0.39999997724E+02 0.  0.
        -12    1    3    3    0    0 -0.18422707773E+01 -0.32027329789E+02 -0.18073076674E+02  0.36820916820E+02  0.00000000000E+00 0.  1.
         11    1    4    4    0    0 -0.77205438057E+01 -0.14664512418E+01 -0.53105676258E+01  0.94846931774E+01  0.51100000000E-03 0.  1.
        -11    1    4    4    0    0 -0.24347536305E+01  0.13571651432E+02  0.14440940036E+02  0.19966434264E+02  0.51100000000E-03 0. -1.
         12    1    4    4    0    0  0.11997568213E+02  0.19922129599E+02  0.89427042634E+01  0.24915955738E+02  0.00000000000E+00 0. -1.
</event>
<event>
 8    1  0.1271559E-006  0.9118800E+02  0.7816164E-02  0.1184000E+00
        -11   -1    0    0    0    0  0.00000000000E+00  0.00000000000E+00  0.45593999997E+02  0.45594000000E+02  0.51100000000E-03 0.  1.
         11   -1    0    0    0    0 -0.00000000000E+00 -0.00000000000E+00 -0.45593999997E+02  0.45594000000E+02  0.51100000000E-03 0. -1.
         23    2    1    2    0    0  0.71054273576E-14  0.00000000000E+00  0.00000000000E+00  0.91188000000E+02  0.91188000000E+02 0.  0.
    9900012    2    3    3    0    0  0.31004491605E+02 -0.63181844434E+01  0.18830365565E+02  0.54367073591E+02  0.39999975864E+02 0.  0.
         12    1    3    3    0    0 -0.31004491605E+02  0.63181844434E+01 -0.18830365565E+02  0.36820926409E+02  0.00000000000E+00 0. -1.
         11    1    4    4    0    0  0.10767705794E+02  0.76165882533E+01  0.37929574915E+01  0.13723790711E+02  0.51100000000E-03 0. -1.
        -11    1    4    4    0    0 -0.28840204598E+01 -0.74376800722E+01  0.14583428798E+02  0.16622666893E+02  0.51100000000E-03 0.  1.
        -12    1    4    4    0    0  0.23120806270E+02 -0.64970926246E+01  0.45397927516E+00  0.24020615986E+02  0.00000000000E+00 0.  1.
</event>
<event>
 8    1  0.1271559E-006  0.9118800E+02  0.7816164E-02  0.1184000E+00
        -11   -1    0    0    0    0  0.00000000000E+00  0.00000000000E+00  0.45593999997E+02  0.45594000000E+02  0.51100000000E-03 0.  1.
         11   -1    0    0    0    0 -0.00000000000E+00 -0.00000000000E+00 -0.45593999997E+02  0.45594000000E+02  0.51100000000E-03 0. -1.
         23    2    1    2    0    0 -0.17763568394E-14  0.71054273576E-14 -0.88817841970E-15  0.91188000000E+02  0.91188000000E+02 0.  0.
    9900012    2    3    3    0    0  0.12574890612E+02 -0.34316681944E+02  0.44741353266E+01  0.54367076322E+02  0.39999982092E+02 0.  0.
         12    1    3    3    0    0 -0.12574890612E+02  0.34316681944E+02 -0.44741353266E+01  0.36820923678E+02  0.00000000000E+00 0. -1.
         11    1    4    4    0    0  0.13818025654E+02 -0.49842839021E+01 -0.32129948962E+01  0.15036763464E+02  0.51100000000E-03 0. -1.
        -11    1    4    4    0    0 -0.11134215427E+02 -0.15761172117E+02 -0.28476350336E+01  0.19506263743E+02  0.51100000000E-03 0.  1.
        -12    1    4    4    0    0  0.98910803852E+01 -0.13571225925E+02  0.10534765256E+02  0.19824049115E+02  0.00000000000E+00 0.  1.
</event>
<event>
 8    1  0.1271559E-006  0.9118800E+02  0.7816164E-02  0.1184000E+00
        -11   -1    0    0    0    0  0.00000000000E+00  0.00000000000E+00  0.45593999997E+02  0.45594000000E+02  0.51100000000E-03 0.  1.
         11   -1    0    0    0    0 -0.00000000000E+00 -0.00000000000E+00 -0.45593999997E+02  0.45594000000E+02  0.51100000000E-03 0. -1.
         23    2    1    2    0    0 -0.35527136788E-14  0.26645352591E-14 -0.35527136788E-14  0.91188000000E+02  0.91188000000E+02 0.  0.
    9900012    2    3    3    0    0 -0.22717986211E+02  0.73291546331E+01 -0.28034911639E+02  0.54367086435E+02  0.40000005147E+02 0.  0.
        -12    1    3    3    0    0  0.22717986211E+02 -0.73291546331E+01  0.28034911639E+02  0.36820913565E+02  0.00000000000E+00 0.  1.
         11    1    4    4    0    0  0.48638685596E+01 -0.23462071504E+01 -0.12426841856E+02  0.13549476157E+02  0.51100000000E-03 0. -1.
        -11    1    4    4    0    0 -0.11345138592E+02 -0.33783375955E+01 -0.16094016994E+02  0.19978556450E+02  0.51100000000E-03 0.  1.
        -12    1    4    4    0    0 -0.16236716179E+02  0.13053699379E+02  0.48594721099E+00  0.20839053828E+02  0.00000000000E+00 0.  1.
</event>
<event>
 8    1  0.1271559E-006  0.9118800E+02  0.7816164E-02  0.1184000E+00
        -11   -1    0    0    0    0  0.00000000000E+00  0.00000000000E+00  0.45593999997E+02  0.45594000000E+02  0.51100000000E-03 0. -1.
         11   -1    0    0    0    0 -0.00000000000E+00 -0.00000000000E+00 -0.45593999997E+02  0.45594000000E+02  0.51100000000E-03 0.  1.
         23    2    1    2    0    0 -0.88817841970E-15 -0.35527136788E-14  0.00000000000E+00  0.91188000000E+02  0.91188000000E+02 0.  0.
    9900012    2    3    3    0    0  0.69704562673E+01  0.21739563019E+02  0.28889177235E+02  0.54367076300E+02  0.39999982041E+02 0.  0.
        -12    1    3    3    0    0 -0.69704562673E+01 -0.21739563019E+02 -0.28889177235E+02  0.36820923700E+02  0.00000000000E+00 0.  1.
         11    1    4    4    0    0 -0.13538836798E+02  0.10958060032E+02  0.19693613368E+02  0.26291017273E+02  0.51100000000E-03 0. -1.
        -11    1    4    4    0    0  0.56208373673E+00 -0.20068074519E+01 -0.96287061434E+00  0.22957208796E+01  0.51100000000E-03 0.  1.
         12    1    4    4    0    0  0.19947209329E+02  0.12788310439E+02  0.10158434481E+02  0.25780338147E+02  0.00000000000E+00 0. -1.
</event>
<event>
 8    1  0.1271559E-006  0.9118800E+02  0.7816164E-02  0.1184000E+00
        -11   -1    0    0    0    0  0.00000000000E+00  0.00000000000E+00  0.45593999997E+02  0.45594000000E+02  0.51100000000E-03 0. -1.
         11   -1    0    0    0    0 -0.00000000000E+00 -0.00000000000E+00 -0.45593999997E+02  0.45594000000E+02  0.51100000000E-03 0.  1.
         23    2    1    2    0    0  0.00000000000E+00  0.35527136788E-14  0.00000000000E+00  0.91188000000E+02  0.91188000000E+02 0.  0.
    9900012    2    3    3    0    0  0.21314703169E+02 -0.16792225465E+02 -0.24889437000E+02  0.54367089074E+02  0.40000011162E+02 0.  0.
         12    1    3    3    0    0 -0.21314703169E+02  0.16792225465E+02  0.24889437000E+02  0.36820910926E+02  0.00000000000E+00 0. -1.
         11    1    4    4    0    0  0.15424735007E+02  0.33173924991E+01 -0.23035614686E+02  0.27920728631E+02  0.51100000000E-03 0. -1.
        -11    1    4    4    0    0 -0.50085575448E+01 -0.78221205832E+01 -0.35305730531E+01  0.99366073407E+01  0.51100000000E-03 0.  1.
         12    1    4    4    0    0  0.10898525706E+02 -0.12287497381E+02  0.16767507395E+01  0.16509753102E+02  0.00000000000E+00 0. -1.
</event>
<event>
 8    1  0.1271559E-006  0.9118800E+02  0.7816164E-02  0.1184000E+00
        -11   -1    0    0    0    0  0.00000000000E+00  0.00000000000E+00  0.45593999997E+02  0.45594000000E+02  0.51100000000E-03 0.  1.
         11   -1    0    0    0    0 -0.00000000000E+00 -0.00000000000E+00 -0.45593999997E+02  0.45594000000E+02  0.51100000000E-03 0. -1.
         23    2    1    2    0    0  0.00000000000E+00  0.00000000000E+00  0.00000000000E+00  0.91188000000E+02  0.91188000000E+02 0.  0.
    9900012    2    3    3    0    0  0.29041060680E+02 -0.11480376054E+02  0.19508741286E+02  0.54367174013E+02  0.40000204797E+02 0.  0.
         12    1    3    3    0    0 -0.29041060680E+02  0.11480376054E+02 -0.19508741286E+02  0.36820825987E+02  0.00000000000E+00 0. -1.
         11    1    4    4    0    0 -0.11562870383E+01 -0.54871501014E+01 -0.86921466677E+01  0.10344043209E+02  0.51100000000E-03 0. -1.
        -11    1    4    4    0    0  0.42521321415E+01  0.25405685289E+01  0.10122356362E+02  0.11269304095E+02  0.51100000000E-03 0.  1.
         12    1    4    4    0    0  0.25945215577E+02 -0.85337944819E+01  0.18078531592E+02  0.32753826710E+02  0.00000000000E+00 0. -1.
</event>
<event>
 8    1  0.1271559E-006  0.9118800E+02  0.7816164E-02  0.1184000E+00
        -11   -1    0    0    0    0  0.00000000000E+00  0.00000000000E+00  0.45593999997E+02  0.45594000000E+02  0.51100000000E-03 0. -1.
         11   -1    0    0    0    0 -0.00000000000E+00 -0.00000000000E+00 -0.45593999997E+02  0.45594000000E+02  0.51100000000E-03 0.  1.
         23    2    1    2    0    0 -0.44408920985E-15  0.00000000000E+00  0.00000000000E+00  0.91188000000E+02  0.91188000000E+02 0.  0.
    9900012    2    3    3    0    0  0.53343951705E+00  0.31992000099E+02 -0.18221125093E+02  0.54367054497E+02  0.39999932338E+02 0.  0.
         12    1    3    3    0    0 -0.53343951705E+00 -0.31992000099E+02  0.18221125093E+02  0.36820945503E+02  0.00000000000E+00 0. -1.
         11    1    4    4    0    0 -0.10388772750E+02 -0.51455581765E+00 -0.53291779811E+01  0.11687236849E+02  0.51100000000E-03 0. -1.
        -11    1    4    4    0    0  0.15350087977E+02  0.30803075675E+02 -0.70092233219E+01  0.35122412841E+02  0.51100000000E-03 0.  1.
        -12    1    4    4    0    0 -0.44278757093E+01  0.17034802415E+01 -0.58827237897E+01  0.75574048069E+01  0.00000000000E+00 0.  1.
</event>
<event>
 8    1  0.1271559E-006  0.9118800E+02  0.7816164E-02  0.1184000E+00
        -11   -1    0    0    0    0  0.00000000000E+00  0.00000000000E+00  0.45593999997E+02  0.45594000000E+02  0.51100000000E-03 0.  1.
         11   -1    0    0    0    0 -0.00000000000E+00 -0.00000000000E+00 -0.45593999997E+02  0.45594000000E+02  0.51100000000E-03 0. -1.
         23    2    1    2    0    0 -0.17763568394E-14 -0.44408920985E-15  0.00000000000E+00  0.91188000000E+02  0.91188000000E+02 0.  0.
    9900012    2    3    3    0    0 -0.26853122004E+00 -0.35537171675E+01  0.36647935564E+02  0.54367188007E+02  0.40000236699E+02 0.  0.
         12    1    3    3    0    0  0.26853122004E+00  0.35537171675E+01 -0.36647935564E+02  0.36820811993E+02  0.00000000000E+00 0. -1.
         11    1    4    4    0    0  0.91704648390E+01 -0.13096669454E+02  0.14506935102E+02  0.21588685520E+02  0.51100000000E-03 0. -1.
        -11    1    4    4    0    0  0.10347986103E+01 -0.50342487071E+01  0.95755597497E+01  0.10867649837E+02  0.51100000000E-03 0.  1.
         12    1    4    4    0    0 -0.10473794669E+02  0.14577200993E+02  0.12565440712E+02  0.21910852650E+02  0.00000000000E+00 0. -1.
</event>
<event>
 8    1  0.1271559E-006  0.9118800E+02  0.7816164E-02  0.1184000E+00
        -11   -1    0    0    0    0  0.00000000000E+00  0.00000000000E+00  0.45593999997E+02  0.45594000000E+02  0.51100000000E-03 0. -1.
         11   -1    0    0    0    0 -0.00000000000E+00 -0.00000000000E+00 -0.45593999997E+02  0.45594000000E+02  0.51100000000E-03 0.  1.
         23    2    1    2    0    0  0.22204460493E-15  0.53290705182E-14  0.00000000000E+00  0.91188000000E+02  0.91188000000E+02 0.  0.
    9900012    2    3    3    0    0 -0.16649527980E+01  0.14241624728E+02  0.33914374393E+02  0.54367072076E+02  0.39999972412E+02 0.  0.
        -12    1    3    3    0    0  0.16649527980E+01 -0.14241624728E+02 -0.33914374393E+02  0.36820927924E+02  0.00000000000E+00 0.  1.
         11    1    4    4    0    0  0.49991981569E+01 -0.34609022345E+01  0.16567747471E+02  0.17648231725E+02  0.51100000000E-03 0. -1.
        -11    1    4    4    0    0  0.49832132727E+01 -0.17633332398E+01  0.12430681956E+02  0.13507909268E+02  0.51100000000E-03 0.  1.
        -12    1    4    4    0    0 -0.11647364228E+02  0.19465860203E+02  0.49159449660E+01  0.23210931084E+02  0.00000000000E+00 0.  1.
</event>
<event>
 8    1  0.1271559E-006  0.9118800E+02  0.7816164E-02  0.1184000E+00
        -11   -1    0    0    0    0  0.00000000000E+00  0.00000000000E+00  0.45593999997E+02  0.45594000000E+02  0.51100000000E-03 0. -1.
         11   -1    0    0    0    0 -0.00000000000E+00 -0.00000000000E+00 -0.45593999997E+02  0.45594000000E+02  0.51100000000E-03 0.  1.
         23    2    1    2    0    0  0.00000000000E+00  0.88817841970E-15  0.00000000000E+00  0.91188000000E+02  0.91188000000E+02 0.  0.
    9900012    2    3    3    0    0 -0.87134458475E+01 -0.35696684633E+01  0.35596533016E+02  0.54367084283E+02  0.40000000240E+02 0.  0.
        -12    1    3    3    0    0  0.87134458475E+01  0.35696684633E+01 -0.35596533016E+02  0.36820915717E+02  0.00000000000E+00 0.  1.
         11    1    4    4    0    0 -0.10244411526E+02 -0.14758192415E+02  0.31898777223E+02  0.36609892098E+02  0.51100000000E-03 0. -1.
        -11    1    4    4    0    0  0.52779686054E+01  0.56773259751E+00  0.37419466663E+01  0.64947238599E+01  0.51100000000E-03 0.  1.
         12    1    4    4    0    0 -0.37470029264E+01  0.10620791355E+02 -0.44190872826E-01  0.11262468325E+02  0.00000000000E+00 0. -1.
</event>
<event>
 8    1  0.1271559E-006  0.9118800E+02  0.7816164E-02  0.1184000E+00
        -11   -1    0    0    0    0  0.00000000000E+00  0.00000000000E+00  0.45593999997E+02  0.45594000000E+02  0.51100000000E-03 0.  1.
         11   -1    0    0    0    0 -0.00000000000E+00 -0.00000000000E+00 -0.45593999997E+02  0.45594000000E+02  0.51100000000E-03 0. -1.
         23    2    1    2    0    0 -0.35527136788E-14  0.00000000000E+00 -0.35527136788E-14  0.91188000000E+02  0.91188000000E+02 0.  0.
    9900012    2    3    3    0    0 -0.22111132405E+02 -0.23600204219E+02  0.17604242987E+02  0.54367065919E+02  0.39999958376E+02 0.  0.
         12    1    3    3    0    0  0.22111132405E+02  0.23600204219E+02 -0.17604242987E+02  0.36820934081E+02  0.00000000000E+00 0. -1.
         11    1    4    4    0    0  0.70532552235E+01 -0.46264632708E+01  0.37383329938E-01  0.84352812293E+01  0.51100000000E-03 0. -1.
        -11    1    4    4    0    0  0.40982347529E+01 -0.19300298515E+00  0.28542287134E+01  0.49979395806E+01  0.51100000000E-03 0.  1.
        -12    1    4    4    0    0 -0.33262622382E+02 -0.18780737963E+02  0.14712630944E+02  0.40933845109E+02  0.00000000000E+00 0.  1.
</event>
<event>
 8    1  0.1271559E-006  0.9118800E+02  0.7816164E-02  0.1184000E+00
        -11   -1    0    0    0    0  0.00000000000E+00  0.00000000000E+00  0.45593999997E+02  0.45594000000E+02  0.51100000000E-03 0.  1.
         11   -1    0    0    0    0 -0.00000000000E+00 -0.00000000000E+00 -0.45593999997E+02  0.45594000000E+02  0.51100000000E-03 0. -1.
         23    2    1    2    0    0  0.17763568394E-14  0.71054273576E-14  0.00000000000E+00  0.91188000000E+02  0.91188000000E+02 0.  0.
    9900012    2    3    3    0    0 -0.91107331224E+01  0.17640847078E+02  0.31009285072E+02  0.54367072468E+02  0.39999973305E+02 0.  0.
         12    1    3    3    0    0  0.91107331224E+01 -0.17640847078E+02 -0.31009285072E+02  0.36820927532E+02  0.00000000000E+00 0. -1.
         11    1    4    4    0    0 -0.96775090796E+01  0.12921564818E+02 -0.27097630319E+01  0.16369600951E+02  0.51100000000E-03 0. -1.
        -11    1    4    4    0    0 -0.30140018762E+01 -0.56811044410E+01  0.14299435355E+02  0.15679062686E+02  0.51100000000E-03 0.  1.
        -12    1    4    4    0    0  0.35807778334E+01  0.10400386700E+02  0.19419612749E+02  0.22318408831E+02  0.00000000000E+00 0.  1.
</event>
<event>
 8    1  0.1271559E-006  0.9118800E+02  0.7816164E-02  0.1184000E+00
        -11   -1    0    0    0    0  0.00000000000E+00  0.00000000000E+00  0.45593999997E+02  0.45594000000E+02  0.51100000000E-03 0. -1.
         11   -1    0    0    0    0 -0.00000000000E+00 -0.00000000000E+00 -0.45593999997E+02  0.45594000000E+02  0.51100000000E-03 0.  1.
         23    2    1    2    0    0  0.00000000000E+00  0.00000000000E+00  0.71054273576E-14  0.91188000000E+02  0.91188000000E+02 0.  0.
    9900012    2    3    3    0    0  0.37542243082E+01 -0.93255595653E+01  0.35422081276E+02  0.54367026313E+02  0.39999868085E+02 0.  0.
        -12    1    3    3    0    0 -0.37542243082E+01  0.93255595653E+01 -0.35422081276E+02  0.36820973687E+02  0.00000000000E+00 0.  1.
         11    1    4    4    0    0  0.66628467658E+01 -0.77239304392E+01  0.24019683325E+02  0.26095934851E+02  0.51100000000E-03 0. -1.
        -11    1    4    4    0    0 -0.14099920395E+02 -0.51432568536E+00  0.91129772935E+01  0.16796387751E+02  0.51100000000E-03 0.  1.
        -12    1    4    4    0    0  0.11191297938E+02 -0.10873034407E+01  0.22894206571E+01  0.11474703711E+02  0.00000000000E+00 0.  1.
</event>
<event>
 8    1  0.1271559E-006  0.9118800E+02  0.7816164E-02  0.1184000E+00
        -11   -1    0    0    0    0  0.00000000000E+00  0.00000000000E+00  0.45593999997E+02  0.45594000000E+02  0.51100000000E-03 0. -1.
         11   -1    0    0    0    0 -0.00000000000E+00 -0.00000000000E+00 -0.45593999997E+02  0.45594000000E+02  0.51100000000E-03 0.  1.
         23    2    1    2    0    0 -0.88817841970E-15  0.00000000000E+00  0.35527136788E-14  0.91188000000E+02  0.91188000000E+02 0.  0.
    9900012    2    3    3    0    0 -0.27775522911E+01 -0.30286189440E+02  0.20756024199E+02  0.54367073775E+02  0.39999976285E+02 0.  0.
        -12    1    3    3    0    0  0.27775522911E+01  0.30286189440E+02 -0.20756024199E+02  0.36820926225E+02  0.00000000000E+00 0.  1.
         11    1    4    4    0    0  0.18275220242E+00 -0.33530163006E+01  0.10359140181E+02  0.10889807263E+02  0.51100000000E-03 0. -1.
        -11    1    4    4    0    0  0.14653733197E+02 -0.10507180441E+02  0.59333836475E+01  0.18982565137E+02  0.51100000000E-03 0.  1.
         12    1    4    4    0    0 -0.17614037690E+02 -0.16425992699E+02  0.44635003699E+01  0.24494701375E+02  0.00000000000E+00 0. -1.
</event>
<event>
 8    1  0.1271559E-006  0.9118800E+02  0.7816164E-02  0.1184000E+00
        -11   -1    0    0    0    0  0.00000000000E+00  0.00000000000E+00  0.45593999997E+02  0.45594000000E+02  0.51100000000E-03 0. -1.
         11   -1    0    0    0    0 -0.00000000000E+00 -0.00000000000E+00 -0.45593999997E+02  0.45594000000E+02  0.51100000000E-03 0.  1.
         23    2    1    2    0    0 -0.17763568394E-14  0.00000000000E+00  0.00000000000E+00  0.91188000000E+02  0.91188000000E+02 0.  0.
    9900012    2    3    3    0    0  0.12935479384E+02  0.92595981131E+01  0.33207156314E+02  0.54367054676E+02  0.39999932744E+02 0.  0.
        -12    1    3    3    0    0 -0.12935479384E+02 -0.92595981131E+01 -0.33207156314E+02  0.36820945324E+02  0.00000000000E+00 0.  1.
         11    1    4    4    0    0 -0.34919475158E+01  0.37372155814E+01  0.76365258229E+01  0.91911372887E+01  0.51100000000E-03 0. -1.
        -11    1    4    4    0    0  0.21368171130E+02  0.85426545275E+01  0.30053879563E+02  0.37852494777E+02  0.51100000000E-03 0.  1.
        -12    1    4    4    0    0 -0.49407442305E+01 -0.30202719958E+01 -0.44832490715E+01  0.73234226095E+01  0.00000000000E+00 0.  1.
</event>
<event>
 8    1  0.1271559E-006  0.9118800E+02  0.7816164E-02  0.1184000E+00
        -11   -1    0    0    0    0  0.00000000000E+00  0.00000000000E+00  0.45593999997E+02  0.45594000000E+02  0.51100000000E-03 0.  1.
         11   -1    0    0    0    0 -0.00000000000E+00 -0.00000000000E+00 -0.45593999997E+02  0.45594000000E+02  0.51100000000E-03 0. -1.
         23    2    1    2    0    0  0.00000000000E+00  0.17763568394E-14  0.00000000000E+00  0.91188000000E+02  0.91188000000E+02 0.  0.
    9900012    2    3    3    0    0  0.25369225606E+02  0.14933445645E+02  0.22117201491E+02  0.54367136234E+02  0.40000118671E+02 0.  0.
         12    1    3    3    0    0 -0.25369225606E+02 -0.14933445645E+02 -0.22117201491E+02  0.36820863766E+02  0.00000000000E+00 0. -1.
         11    1    4    4    0    0  0.19021963307E+02  0.15868196141E+02 -0.39712948557E+01  0.25087963646E+02  0.51100000000E-03 0. -1.
        -11    1    4    4    0    0  0.40391805967E+01  0.50786897077E+01  0.16479279001E+02  0.17710864059E+02  0.51100000000E-03 0.  1.
         12    1    4    4    0    0  0.23080817022E+01 -0.60134402030E+01  0.96092173454E+01  0.11568308529E+02  0.00000000000E+00 0. -1.
</event>
<event>
 8    1  0.1271559E-006  0.9118800E+02  0.7816164E-02  0.1184000E+00
        -11   -1    0    0    0    0  0.00000000000E+00  0.00000000000E+00  0.45593999997E+02  0.45594000000E+02  0.51100000000E-03 0.  1.
         11   -1    0    0    0    0 -0.00000000000E+00 -0.00000000000E+00 -0.45593999997E+02  0.45594000000E+02  0.51100000000E-03 0. -1.
         23    2    1    2    0    0  0.17763568394E-14  0.00000000000E+00 -0.35527136788E-14  0.91188000000E+02  0.91188000000E+02 0.  0.
    9900012    2    3    3    0    0 -0.95825942432E+01  0.17538423103E+02 -0.30925028663E+02  0.54367084814E+02  0.40000001450E+02 0.  0.
        -12    1    3    3    0    0  0.95825942432E+01 -0.17538423103E+02  0.30925028663E+02  0.36820915186E+02  0.00000000000E+00 0.  1.
         11    1    4    4    0    0  0.13251363003E+01  0.22404554468E+02 -0.41332435498E+01  0.22821125074E+02  0.51100000000E-03 0. -1.
        -11    1    4    4    0    0 -0.82808682475E+00  0.30790028969E+01 -0.24253522008E+01  0.40060354700E+01  0.51100000000E-03 0.  1.
         12    1    4    4    0    0 -0.10079643719E+02 -0.79451342623E+01 -0.24366432912E+02  0.27539924270E+02  0.00000000000E+00 0. -1.
</event>
<event>
 8    1  0.1271559E-006  0.9118800E+02  0.7816164E-02  0.1184000E+00
        -11   -1    0    0    0    0  0.00000000000E+00  0.00000000000E+00  0.45593999997E+02  0.45594000000E+02  0.51100000000E-03 0.  1.
         11   -1    0    0    0    0 -0.00000000000E+00 -0.00000000000E+00 -0.45593999997E+02  0.45594000000E+02  0.51100000000E-03 0. -1.
         23    2    1    2    0    0  0.00000000000E+00  0.00000000000E+00  0.13322676296E-14  0.91188000000E+02  0.91188000000E+02 0.  0.
    9900012    2    3    3    0    0  0.28792385897E+02 -0.22929129618E+02  0.10161697615E+01  0.54367094638E+02  0.40000023847E+02 0.  0.
         12    1    3    3    0    0 -0.28792385897E+02  0.22929129618E+02 -0.10161697615E+01  0.36820905362E+02  0.00000000000E+00 0. -1.
         11    1    4    4    0    0  0.11369203247E+01 -0.48986968186E+01 -0.14763406607E+02  0.15596409627E+02  0.51100000000E-03 0. -1.
        -11    1    4    4    0    0  0.10931025670E+02 -0.26520973581E+01  0.25103775242E+00  0.11250953862E+02  0.51100000000E-03 0.  1.
         12    1    4    4    0    0  0.16724439903E+02 -0.15378335441E+02  0.15528538616E+02  0.27519731149E+02  0.00000000000E+00 0. -1.
</event>
<event>
 8    1  0.1271559E-006  0.9118800E+02  0.7816164E-02  0.1184000E+00
        -11   -1    0    0    0    0  0.00000000000E+00  0.00000000000E+00  0.45593999997E+02  0.45594000000E+02  0.51100000000E-03 0.  1.
         11   -1    0    0    0    0 -0.00000000000E+00 -0.00000000000E+00 -0.45593999997E+02  0.45594000000E+02  0.51100000000E-03 0. -1.
         23    2    1    2    0    0  0.00000000000E+00  0.88817841970E-15 -0.88817841970E-15  0.91188000000E+02  0.91188000000E+02 0.  0.
    9900012    2    3    3    0    0 -0.36111965148E+02 -0.40674640189E+01  0.59296695238E+01  0.54367091931E+02  0.40000017674E+02 0.  0.
        -12    1    3    3    0    0  0.36111965148E+02  0.40674640189E+01 -0.59296695238E+01  0.36820908069E+02  0.00000000000E+00 0.  1.
         11    1    4    4    0    0  0.46538876866E+01 -0.19640095320E+01  0.37883027761E+01  0.63140511738E+01  0.51100000000E-03 0. -1.
        -11    1    4    4    0    0 -0.20858215612E+02  0.35850761005E+01  0.12833184103E+02  0.24750930157E+02  0.51100000000E-03 0.  1.
         12    1    4    4    0    0 -0.19907637222E+02 -0.56885305874E+01 -0.10691817356E+02  0.23302110599E+02  0.00000000000E+00 0. -1.
</event>
<event>
 8    1  0.1271559E-006  0.9118800E+02  0.7816164E-02  0.1184000E+00
        -11   -1    0    0    0    0  0.00000000000E+00  0.00000000000E+00  0.45593999997E+02  0.45594000000E+02  0.51100000000E-03 0.  1.
         11   -1    0    0    0    0 -0.00000000000E+00 -0.00000000000E+00 -0.45593999997E+02  0.45594000000E+02  0.51100000000E-03 0. -1.
         23    2    1    2    0    0  0.35527136788E-14  0.00000000000E+00 -0.35527136788E-14  0.91188000000E+02  0.91188000000E+02 0.  0.
    9900012    2    3    3    0    0  0.26990763087E+02  0.89688589728E+01 -0.23384558058E+02  0.54367091824E+02  0.40000017431E+02 0.  0.
        -12    1    3    3    0    0 -0.26990763087E+02 -0.89688589728E+01  0.23384558058E+02  0.36820908176E+02  0.00000000000E+00 0.  1.
         11    1    4    4    0    0  0.12331552502E+02  0.32337529478E+00  0.22338969967E+01  0.12536429106E+02  0.51100000000E-03 0. -1.
        -11    1    4    4    0    0 -0.35220396824E+01 -0.65915618528E+01 -0.82844378214E+00  0.75192932212E+01  0.51100000000E-03 0.  1.
        -12    1    4    4    0    0  0.18181250268E+02  0.15237045531E+02 -0.24790011273E+02  0.34311369497E+02  0.00000000000E+00 0.  1.
</event>
<event>
 8    1  0.1271559E-006  0.9118800E+02  0.7816164E-02  0.1184000E+00
        -11   -1    0    0    0    0  0.00000000000E+00  0.00000000000E+00  0.45593999997E+02  0.45594000000E+02  0.51100000000E-03 0. -1.
         11   -1    0    0    0    0 -0.00000000000E+00 -0.00000000000E+00 -0.45593999997E+02  0.45594000000E+02  0.51100000000E-03 0.  1.
         23    2    1    2    0    0 -0.71054273576E-14 -0.35527136788E-14  0.88817841970E-15  0.91188000000E+02  0.91188000000E+02 0.  0.
    9900012    2    3    3    0    0 -0.32517721498E+02 -0.16786615498E+02  0.40727751957E+01  0.54367079736E+02  0.39999989874E+02 0.  0.
         12    1    3    3    0    0  0.32517721498E+02  0.16786615498E+02 -0.40727751957E+01  0.36820920264E+02  0.00000000000E+00 0. -1.
         11    1    4    4    0    0  0.90874259086E+00  0.38596688414E+01  0.58126166960E+01  0.70362894893E+01  0.51100000000E-03 0. -1.
        -11    1    4    4    0    0 -0.76534738630E+01 -0.66270670818E+01 -0.12495732591E+02  0.16082195544E+02  0.51100000000E-03 0.  1.
         12    1    4    4    0    0 -0.25772990226E+02 -0.14019217257E+02  0.10755891091E+02  0.31248594702E+02  0.00000000000E+00 0. -1.
</event>
<event>
 8    1  0.1271559E-006  0.9118800E+02  0.7816164E-02  0.1184000E+00
        -11   -1    0    0    0    0  0.00000000000E+00  0.00000000000E+00  0.45593999997E+02  0.45594000000E+02  0.51100000000E-03 0. -1.
         11   -1    0    0    0    0 -0.00000000000E+00 -0.00000000000E+00 -0.45593999997E+02  0.45594000000E+02  0.51100000000E-03 0.  1.
         23    2    1    2    0    0  0.00000000000E+00  0.00000000000E+00  0.19984014443E-14  0.91188000000E+02  0.91188000000E+02 0.  0.
    9900012    2    3    3    0    0 -0.25610129361E+02  0.26386645121E+02  0.19093575415E+01  0.54367090005E+02  0.40000013284E+02 0.  0.
         12    1    3    3    0    0  0.25610129361E+02 -0.26386645121E+02 -0.19093575415E+01  0.36820909995E+02  0.00000000000E+00 0. -1.
         11    1    4    4    0    0 -0.99414608291E+01  0.33201299082E+01 -0.58573685934E+01  0.12006859420E+02  0.51100000000E-03 0.  1.
        -11    1    4    4    0    0 -0.12859958899E+02  0.15697980602E+02  0.19552357732E+02  0.28179776987E+02  0.51100000000E-03 0. -1.
         12    1    4    4    0    0 -0.28087096330E+01  0.73685346104E+01 -0.11785631597E+02  0.14180453598E+02  0.00000000000E+00 0. -1.
</event>
<event>
 8    1  0.1271559E-006  0.9118800E+02  0.7816164E-02  0.1184000E+00
        -11   -1    0    0    0    0  0.00000000000E+00  0.00000000000E+00  0.45593999997E+02  0.45594000000E+02  0.51100000000E-03 0.  1.
         11   -1    0    0    0    0 -0.00000000000E+00 -0.00000000000E+00 -0.45593999997E+02  0.45594000000E+02  0.51100000000E-03 0. -1.
         23    2    1    2    0    0  0.00000000000E+00 -0.35527136788E-14  0.35527136788E-14  0.91188000000E+02  0.91188000000E+02 0.  0.
    9900012    2    3    3    0    0 -0.12016846611E+02 -0.30005775310E+02  0.17635983081E+02  0.54367094883E+02  0.40000024404E+02 0.  0.
        -12    1    3    3    0    0  0.12016846611E+02  0.30005775310E+02 -0.17635983081E+02  0.36820905117E+02  0.00000000000E+00 0.  1.
         11    1    4    4    0    0 -0.10877477782E+02  0.39253953961E+01  0.83131325664E+01  0.14242065343E+02  0.51100000000E-03 0. -1.
        -11    1    4    4    0    0 -0.87596030435E+01 -0.22021346171E+02  0.10531992510E+02  0.25934401847E+02  0.51100000000E-03 0.  1.
        -12    1    4    4    0    0  0.76202342141E+01 -0.11909824535E+02 -0.12091419956E+01  0.14190627692E+02  0.00000000000E+00 0.  1.
</event>
<event>
 8    1  0.1271559E-006  0.9118800E+02  0.7816164E-02  0.1184000E+00
        -11   -1    0    0    0    0  0.00000000000E+00  0.00000000000E+00  0.45593999997E+02  0.45594000000E+02  0.51100000000E-03 0.  1.
         11   -1    0    0    0    0 -0.00000000000E+00 -0.00000000000E+00 -0.45593999997E+02  0.45594000000E+02  0.51100000000E-03 0. -1.
         23    2    1    2    0    0  0.35527136788E-14  0.00000000000E+00 -0.35527136788E-14  0.91188000000E+02  0.91188000000E+02 0.  0.
    9900012    2    3    3    0    0  0.21252442068E+02 -0.21010635928E+02 -0.21509681727E+02  0.54367088497E+02  0.40000009846E+02 0.  0.
        -12    1    3    3    0    0 -0.21252442068E+02  0.21010635928E+02  0.21509681727E+02  0.36820911503E+02  0.00000000000E+00 0.  1.
         11    1    4    4    0    0 -0.41450375017E+01  0.48180273332E+01 -0.15494082518E+01  0.65418185137E+01  0.51100000000E-03 0. -1.
        -11    1    4    4    0    0  0.78954881891E+01 -0.15357873814E+02  0.25432097265E+01  0.17454825631E+02  0.51100000000E-03 0.  1.
        -12    1    4    4    0    0  0.17501991381E+02 -0.10470789447E+02 -0.22503483202E+02  0.30370444352E+02  0.00000000000E+00 0.  1.
</event>
<event>
 8    1  0.1271559E-006  0.9118800E+02  0.7816164E-02  0.1184000E+00
        -11   -1    0    0    0    0  0.00000000000E+00  0.00000000000E+00  0.45593999997E+02  0.45594000000E+02  0.51100000000E-03 0.  1.
         11   -1    0    0    0    0 -0.00000000000E+00 -0.00000000000E+00 -0.45593999997E+02  0.45594000000E+02  0.51100000000E-03 0. -1.
         23    2    1    2    0    0 -0.35527136788E-14  0.00000000000E+00 -0.27755575616E-15  0.91188000000E+02  0.91188000000E+02 0.  0.
    9900012    2    3    3    0    0  0.24086715883E+02  0.27847664886E+02  0.34410296570E+00  0.54367072140E+02  0.39999972557E+02 0.  0.
         12    1    3    3    0    0 -0.24086715883E+02 -0.27847664886E+02 -0.34410296570E+00  0.36820927860E+02  0.00000000000E+00 0. -1.
         11    1    4    4    0    0  0.52267986815E+01 -0.42917957245E+01 -0.30946429685E+01  0.74374559065E+01  0.51100000000E-03 0. -1.
        -11    1    4    4    0    0 -0.54318822062E+01 -0.11369492671E+01  0.11428434006E+01  0.56660470557E+01  0.51100000000E-03 0.  1.
        -12    1    4    4    0    0  0.24291799408E+02  0.33276409878E+02  0.22959025337E+01  0.41263569178E+02  0.00000000000E+00 0.  1.
</event>
<event>
 8    1  0.1271559E-006  0.9118800E+02  0.7816164E-02  0.1184000E+00
        -11   -1    0    0    0    0  0.00000000000E+00  0.00000000000E+00  0.45593999997E+02  0.45594000000E+02  0.51100000000E-03 0. -1.
         11   -1    0    0    0    0 -0.00000000000E+00 -0.00000000000E+00 -0.45593999997E+02  0.45594000000E+02  0.51100000000E-03 0.  1.
         23    2    1    2    0    0  0.35527136788E-14  0.00000000000E+00 -0.35527136788E-14  0.91188000000E+02  0.91188000000E+02 0.  0.
    9900012    2    3    3    0    0  0.27897586824E+02 -0.13510913176E+02 -0.19873565846E+02  0.54367099076E+02  0.40000033963E+02 0.  0.
         12    1    3    3    0    0 -0.27897586824E+02  0.13510913176E+02  0.19873565846E+02  0.36820900924E+02  0.00000000000E+00 0. -1.
         11    1    4    4    0    0  0.19737913352E+02 -0.15460415921E+02 -0.21157924389E+01  0.25161205493E+02  0.51100000000E-03 0. -1.
        -11    1    4    4    0    0  0.14232178396E+02  0.63128614026E+01 -0.10456200783E+02  0.18754712903E+02  0.51100000000E-03 0.  1.
         12    1    4    4    0    0 -0.60725049244E+01 -0.43633586571E+01 -0.73015726239E+01  0.10451180680E+02  0.00000000000E+00 0. -1.
</event>
<event>
 8    1  0.1271559E-006  0.9118800E+02  0.7816164E-02  0.1184000E+00
        -11   -1    0    0    0    0  0.00000000000E+00  0.00000000000E+00  0.45593999997E+02  0.45594000000E+02  0.51100000000E-03 0. -1.
         11   -1    0    0    0    0 -0.00000000000E+00 -0.00000000000E+00 -0.45593999997E+02  0.45594000000E+02  0.51100000000E-03 0.  1.
         23    2    1    2    0    0  0.00000000000E+00  0.00000000000E+00  0.00000000000E+00  0.91188000000E+02  0.91188000000E+02 0.  0.
    9900012    2    3    3    0    0  0.24218471918E+02 -0.19899324424E+02  0.19320049844E+02  0.54367057310E+02  0.39999938750E+02 0.  0.
        -12    1    3    3    0    0 -0.24218471918E+02  0.19899324424E+02 -0.19320049844E+02  0.36820942690E+02  0.00000000000E+00 0.  1.
         11    1    4    4    0    0  0.36616561320E+01 -0.18147672916E+02  0.14607692411E+01  0.18570934412E+02  0.51100000000E-03 0. -1.
        -11    1    4    4    0    0 -0.50516206859E+01  0.13337963344E+01  0.27860441808E+01  0.59211423436E+01  0.51100000000E-03 0.  1.
        -12    1    4    4    0    0  0.25608436472E+02 -0.30854478425E+01  0.15073236422E+02  0.29874980555E+02  0.00000000000E+00 0.  1.
</event>
<event>
 8    1  0.1271559E-006  0.9118800E+02  0.7816164E-02  0.1184000E+00
        -11   -1    0    0    0    0  0.00000000000E+00  0.00000000000E+00  0.45593999997E+02  0.45594000000E+02  0.51100000000E-03 0. -1.
         11   -1    0    0    0    0 -0.00000000000E+00 -0.00000000000E+00 -0.45593999997E+02  0.45594000000E+02  0.51100000000E-03 0.  1.
         23    2    1    2    0    0  0.21649348980E-14 -0.13322676296E-14  0.00000000000E+00  0.91188000000E+02  0.91188000000E+02 0.  0.
    9900012    2    3    3    0    0  0.34261493976E+00 -0.23031161472E+01  0.36747209171E+02  0.54367094106E+02  0.40000022634E+02 0.  0.
        -12    1    3    3    0    0 -0.34261493976E+00  0.23031161472E+01 -0.36747209171E+02  0.36820905894E+02  0.00000000000E+00 0.  1.
         11    1    4    4    0    0  0.11958429481E+02 -0.10680862192E+02  0.76492379320E+01  0.17765013201E+02  0.51100000000E-03 0. -1.
        -11    1    4    4    0    0  0.36707484654E+01 -0.95857878143E+00  0.25306887829E+01  0.45604444469E+01  0.51100000000E-03 0.  1.
         12    1    4    4    0    0 -0.15286563007E+02  0.93363248265E+01  0.26567282456E+02  0.32041636458E+02  0.00000000000E+00 0. -1.
</event>
<event>
 8    1  0.1271559E-006  0.9118800E+02  0.7816164E-02  0.1184000E+00
        -11   -1    0    0    0    0  0.00000000000E+00  0.00000000000E+00  0.45593999997E+02  0.45594000000E+02  0.51100000000E-03 0. -1.
         11   -1    0    0    0    0 -0.00000000000E+00 -0.00000000000E+00 -0.45593999997E+02  0.45594000000E+02  0.51100000000E-03 0.  1.
         23    2    1    2    0    0  0.71054273576E-14  0.00000000000E+00 -0.53290705182E-14  0.91188000000E+02  0.91188000000E+02 0.  0.
    9900012    2    3    3    0    0  0.33103285882E+02 -0.10805258945E+02 -0.11966578564E+02  0.54367079865E+02  0.39999990168E+02 0.  0.
         12    1    3    3    0    0 -0.33103285882E+02  0.10805258945E+02  0.11966578564E+02  0.36820920135E+02  0.00000000000E+00 0. -1.
         11    1    4    4    0    0  0.70500395184E+01 -0.11128845488E+02  0.72641661320E+01  0.15044014390E+02  0.51100000000E-03 0.  1.
        -11    1    4    4    0    0 -0.57319334067E+00  0.58491880239E+01  0.23251376823E+00  0.58818036399E+01  0.51100000000E-03 0. -1.
        -12    1    4    4    0    0  0.26626439705E+02 -0.55256014810E+01 -0.19463258464E+02  0.33441261835E+02  0.00000000000E+00 0.  1.
</event>
