<event>
 8    1  0.1278459E-006  0.9118800E+02  0.7816164E-02  0.1184000E+00
        -11   -1    0    0    0    0  0.00000000000E+00  0.00000000000E+00  0.45593999997E+02  0.45594000000E+02  0.51100000000E-03 0. -1.
         11   -1    0    0    0    0 -0.00000000000E+00 -0.00000000000E+00 -0.45593999997E+02  0.45594000000E+02  0.51100000000E-03 0.  1.
         23    2    1    2    0    0  0.00000000000E+00  0.00000000000E+00  0.17763568394E-14  0.91188000000E+02  0.91188000000E+02 0.  0.
    9900012    2    3    3    0    0 -0.10880361094E+02 -0.34040643970E+02  0.88674620178E+01  0.54367087707E+02  0.40000008046E+02 0.  0.
        -12    1    3    3    0    0  0.10880361094E+02  0.34040643970E+02 -0.88674620178E+01  0.36820912293E+02  0.00000000000E+00 0.  1.
         11    1    4    4    0    0 -0.56451550461E+00 -0.17350118078E+02  0.25794178930E+01  0.17549890940E+02  0.51100000000E-03 0. -1.
        -11    1    4    4    0    0 -0.55804736489E+01 -0.60727720206E+01  0.18317103426E+02  0.20088218545E+02  0.51100000000E-03 0.  1.
        -12    1    4    4    0    0 -0.47353719400E+01 -0.10617753872E+02 -0.12029059301E+02  0.16728978222E+02  0.00000000000E+00 0.  1.
</event>
<event>
 8    1  0.1278459E-006  0.9118800E+02  0.7816164E-02  0.1184000E+00
        -11   -1    0    0    0    0  0.00000000000E+00  0.00000000000E+00  0.45593999997E+02  0.45594000000E+02  0.51100000000E-03 0.  1.
         11   -1    0    0    0    0 -0.00000000000E+00 -0.00000000000E+00 -0.45593999997E+02  0.45594000000E+02  0.51100000000E-03 0. -1.
         23    2    1    2    0    0  0.44408920985E-15  0.22204460493E-15  0.00000000000E+00  0.91188000000E+02  0.91188000000E+02 0.  0.
    9900012    2    3    3    0    0  0.35336062392E-01 -0.13710645787E+01 -0.36795348610E+02  0.54367099059E+02  0.40000033926E+02 0.  0.
        -12    1    3    3    0    0 -0.35336062392E-01  0.13710645787E+01  0.36795348610E+02  0.36820900941E+02  0.00000000000E+00 0.  1.
         11    1    4    4    0    0  0.14767145005E+01 -0.47366570696E+01 -0.11257398747E+02  0.12302261284E+02  0.51100000000E-03 0. -1.
        -11    1    4    4    0    0  0.30380498098E+01 -0.13153488587E+02 -0.19895352921E+02  0.24043067125E+02  0.51100000000E-03 0.  1.
        -12    1    4    4    0    0 -0.44794282480E+01  0.16519081078E+02 -0.56425969424E+01  0.18021770650E+02  0.00000000000E+00 0.  1.
</event>
<event>
 8    1  0.1278459E-006  0.9118800E+02  0.7816164E-02  0.1184000E+00
        -11   -1    0    0    0    0  0.00000000000E+00  0.00000000000E+00  0.45593999997E+02  0.45594000000E+02  0.51100000000E-03 0.  1.
         11   -1    0    0    0    0 -0.00000000000E+00 -0.00000000000E+00 -0.45593999997E+02  0.45594000000E+02  0.51100000000E-03 0. -1.
         23    2    1    2    0    0  0.35527136788E-14  0.00000000000E+00  0.00000000000E+00  0.91188000000E+02  0.91188000000E+02 0.  0.
    9900012    2    3    3    0    0  0.27448138309E+02  0.23229961011E+02  0.79212888909E+01  0.54367106436E+02  0.40000050741E+02 0.  0.
         12    1    3    3    0    0 -0.27448138309E+02 -0.23229961011E+02 -0.79212888909E+01  0.36820893564E+02  0.00000000000E+00 0. -1.
         11    1    4    4    0    0 -0.70900340628E+01  0.12658774775E+02  0.10268179649E+02  0.17774945159E+02  0.51100000000E-03 0. -1.
        -11    1    4    4    0    0  0.19628279636E+02  0.53597038493E+01  0.12783796224E+01  0.20387006684E+02  0.51100000000E-03 0.  1.
         12    1    4    4    0    0  0.14909892736E+02  0.52114823863E+01 -0.36252703805E+01  0.16205154593E+02  0.00000000000E+00 0. -1.
</event>
<event>
 8    1  0.1278459E-006  0.9118800E+02  0.7816164E-02  0.1184000E+00
        -11   -1    0    0    0    0  0.00000000000E+00  0.00000000000E+00  0.45593999997E+02  0.45594000000E+02  0.51100000000E-03 0.  1.
         11   -1    0    0    0    0 -0.00000000000E+00 -0.00000000000E+00 -0.45593999997E+02  0.45594000000E+02  0.51100000000E-03 0. -1.
         23    2    1    2    0    0  0.11102230246E-15 -0.17763568394E-14  0.00000000000E+00  0.91188000000E+02  0.91188000000E+02 0.  0.
    9900012    2    3    3    0    0 -0.51572464816E+00 -0.15984293773E+02 -0.33166492941E+02  0.54367083752E+02  0.39999999029E+02 0.  0.
        -12    1    3    3    0    0  0.51572464816E+00  0.15984293773E+02  0.33166492941E+02  0.36820916248E+02  0.00000000000E+00 0.  1.
         11    1    4    4    0    0  0.12353731993E+01 -0.66743121246E+01 -0.12000797428E+02  0.13787375691E+02  0.51100000000E-03 0. -1.
        -11    1    4    4    0    0  0.24253385629E+01 -0.19876462668E+02 -0.46893777273E+01  0.20565658245E+02  0.51100000000E-03 0.  1.
         12    1    4    4    0    0 -0.41764364104E+01  0.10566481019E+02 -0.16476317786E+02  0.20014049815E+02  0.00000000000E+00 0. -1.
</event>
<event>
 8    1  0.1278459E-006  0.9118800E+02  0.7816164E-02  0.1184000E+00
        -11   -1    0    0    0    0  0.00000000000E+00  0.00000000000E+00  0.45593999997E+02  0.45594000000E+02  0.51100000000E-03 0.  1.
         11   -1    0    0    0    0 -0.00000000000E+00 -0.00000000000E+00 -0.45593999997E+02  0.45594000000E+02  0.51100000000E-03 0. -1.
         23    2    1    2    0    0  0.00000000000E+00  0.17763568394E-14  0.35527136788E-14  0.91188000000E+02  0.91188000000E+02 0.  0.
    9900012    2    3    3    0    0  0.22853253591E+02 -0.15227180489E+02 -0.24528361262E+02  0.54367099257E+02  0.40000034376E+02 0.  0.
        -12    1    3    3    0    0 -0.22853253591E+02  0.15227180489E+02  0.24528361262E+02  0.36820900743E+02  0.00000000000E+00 0.  1.
         11    1    4    4    0    0  0.18551443613E+02 -0.11185590270E+02 -0.49161833858E+01  0.22213562279E+02  0.51100000000E-03 0. -1.
        -11    1    4    4    0    0  0.17290818525E+01 -0.14335847661E+02 -0.14159302378E+02  0.20223553009E+02  0.51100000000E-03 0.  1.
         12    1    4    4    0    0  0.25727281254E+01  0.10294257442E+02 -0.54528754989E+01  0.11929983969E+02  0.00000000000E+00 0. -1.
</event>
<event>
 8    1  0.1278459E-006  0.9118800E+02  0.7816164E-02  0.1184000E+00
        -11   -1    0    0    0    0  0.00000000000E+00  0.00000000000E+00  0.45593999997E+02  0.45594000000E+02  0.51100000000E-03 0. -1.
         11   -1    0    0    0    0 -0.00000000000E+00 -0.00000000000E+00 -0.45593999997E+02  0.45594000000E+02  0.51100000000E-03 0.  1.
         23    2    1    2    0    0 -0.35527136788E-14  0.35527136788E-14  0.35527136788E-14  0.91188000000E+02  0.91188000000E+02 0.  0.
    9900012    2    3    3    0    0  0.17622645878E+02 -0.18312241386E+02 -0.26643646712E+02  0.54367085529E+02  0.40000003081E+02 0.  0.
         12    1    3    3    0    0 -0.17622645878E+02  0.18312241386E+02  0.26643646712E+02  0.36820914471E+02  0.00000000000E+00 0. -1.
         11    1    4    4    0    0  0.45913338831E+01  0.48447820539E+01  0.47499922412E+00  0.66916279409E+01  0.51100000000E-03 0. -1.
        -11    1    4    4    0    0  0.11627462766E+02 -0.39063433305E+01  0.23099164467E+01  0.12481711535E+02  0.51100000000E-03 0.  1.
        -12    1    4    4    0    0  0.14038492290E+01 -0.19250680110E+02 -0.29428562383E+02  0.35193746053E+02  0.00000000000E+00 0.  1.
</event>
<event>
 8    1  0.1278459E-006  0.9118800E+02  0.7816164E-02  0.1184000E+00
        -11   -1    0    0    0    0  0.00000000000E+00  0.00000000000E+00  0.45593999997E+02  0.45594000000E+02  0.51100000000E-03 0.  1.
         11   -1    0    0    0    0 -0.00000000000E+00 -0.00000000000E+00 -0.45593999997E+02  0.45594000000E+02  0.51100000000E-03 0. -1.
         23    2    1    2    0    0 -0.88817841970E-15  0.00000000000E+00  0.35527136788E-14  0.91188000000E+02  0.91188000000E+02 0.  0.
    9900012    2    3    3    0    0  0.70842292999E+01  0.30187675224E+02 -0.19856907593E+02  0.54367098064E+02  0.40000031658E+02 0.  0.
        -12    1    3    3    0    0 -0.70842292999E+01 -0.30187675224E+02  0.19856907593E+02  0.36820901936E+02  0.00000000000E+00 0.  1.
         11    1    4    4    0    0 -0.39935461753E+01 -0.28220124807E+01  0.40268249323E+01  0.63346258604E+01  0.51100000000E-03 0. -1.
        -11    1    4    4    0    0  0.69556711098E+00 -0.29459002571E+01 -0.56334366541E+01  0.63951349264E+01  0.51100000000E-03 0.  1.
         12    1    4    4    0    0  0.10382208364E+02  0.35955587962E+02 -0.18250295871E+02  0.41637337278E+02  0.00000000000E+00 0. -1.
</event>
<event>
 8    1  0.1278459E-006  0.9118800E+02  0.7816164E-02  0.1184000E+00
        -11   -1    0    0    0    0  0.00000000000E+00  0.00000000000E+00  0.45593999997E+02  0.45594000000E+02  0.51100000000E-03 0.  1.
         11   -1    0    0    0    0 -0.00000000000E+00 -0.00000000000E+00 -0.45593999997E+02  0.45594000000E+02  0.51100000000E-03 0. -1.
         23    2    1    2    0    0  0.00000000000E+00 -0.35527136788E-14  0.00000000000E+00  0.91188000000E+02  0.91188000000E+02 0.  0.
    9900012    2    3    3    0    0 -0.19512360821E+02  0.17684341840E+02 -0.25735343001E+02  0.54367135663E+02  0.40000117371E+02 0.  0.
        -12    1    3    3    0    0  0.19512360821E+02 -0.17684341840E+02  0.25735343001E+02  0.36820864337E+02  0.00000000000E+00 0.  1.
         11    1    4    4    0    0 -0.14872622565E+01  0.46897865747E+01  0.54618127553E+01  0.73510166624E+01  0.51100000000E-03 0. -1.
        -11    1    4    4    0    0 -0.20966795845E+01  0.30186898100E+01  0.50147468352E+01  0.62174142158E+01  0.51100000000E-03 0.  1.
         12    1    4    4    0    0 -0.15928418980E+02  0.99758654550E+01 -0.36211902592E+02  0.40798704785E+02  0.00000000000E+00 0. -1.
</event>
<event>
 8    1  0.1278459E-006  0.9118800E+02  0.7816164E-02  0.1184000E+00
        -11   -1    0    0    0    0  0.00000000000E+00  0.00000000000E+00  0.45593999997E+02  0.45594000000E+02  0.51100000000E-03 0. -1.
         11   -1    0    0    0    0 -0.00000000000E+00 -0.00000000000E+00 -0.45593999997E+02  0.45594000000E+02  0.51100000000E-03 0.  1.
         23    2    1    2    0    0 -0.35527136788E-14  0.11102230246E-14  0.00000000000E+00  0.91188000000E+02  0.91188000000E+02 0.  0.
    9900012    2    3    3    0    0 -0.17179050065E+02  0.10629465364E+01 -0.32550431057E+02  0.54367079608E+02  0.39999989583E+02 0.  0.
         12    1    3    3    0    0  0.17179050065E+02 -0.10629465364E+01  0.32550431057E+02  0.36820920392E+02  0.00000000000E+00 0. -1.
         11    1    4    4    0    0  0.38100205399E+01 -0.90888920992E+01 -0.20687148820E+02  0.22914675269E+02  0.51100000000E-03 0. -1.
        -11    1    4    4    0    0 -0.74046021522E+01  0.16999179233E+01 -0.13374909222E+02  0.15382004126E+02  0.51100000000E-03 0.  1.
        -12    1    4    4    0    0 -0.13584468453E+02  0.84519207123E+01  0.15116269845E+01  0.16070400213E+02  0.00000000000E+00 0.  1.
</event>
<event>
 8    1  0.1278459E-006  0.9118800E+02  0.7816164E-02  0.1184000E+00
        -11   -1    0    0    0    0  0.00000000000E+00  0.00000000000E+00  0.45593999997E+02  0.45594000000E+02  0.51100000000E-03 0. -1.
         11   -1    0    0    0    0 -0.00000000000E+00 -0.00000000000E+00 -0.45593999997E+02  0.45594000000E+02  0.51100000000E-03 0.  1.
         23    2    1    2    0    0  0.00000000000E+00 -0.35527136788E-14  0.00000000000E+00  0.91188000000E+02  0.91188000000E+02 0.  0.
    9900012    2    3    3    0    0 -0.16952467144E+02  0.30242296491E+02 -0.12401484777E+02  0.54367089311E+02  0.40000011701E+02 0.  0.
         12    1    3    3    0    0  0.16952467144E+02 -0.30242296491E+02  0.12401484777E+02  0.36820910689E+02  0.00000000000E+00 0. -1.
         11    1    4    4    0    0 -0.38100437618E+01 -0.78223751116E+01 -0.47466106294E+01  0.99114226316E+01  0.51100000000E-03 0. -1.
        -11    1    4    4    0    0 -0.92670797676E+01  0.74617951653E+01  0.21440692095E+01  0.12089424616E+02  0.51100000000E-03 0.  1.
        -12    1    4    4    0    0 -0.38753436147E+01  0.30602876437E+02 -0.97989433574E+01  0.32366242063E+02  0.00000000000E+00 0.  1.
</event>
<event>
 8    1  0.1278459E-006  0.9118800E+02  0.7816164E-02  0.1184000E+00
        -11   -1    0    0    0    0  0.00000000000E+00  0.00000000000E+00  0.45593999997E+02  0.45594000000E+02  0.51100000000E-03 0. -1.
         11   -1    0    0    0    0 -0.00000000000E+00 -0.00000000000E+00 -0.45593999997E+02  0.45594000000E+02  0.51100000000E-03 0.  1.
         23    2    1    2    0    0  0.88817841970E-15 -0.44408920985E-15  0.00000000000E+00  0.91188000000E+02  0.91188000000E+02 0.  0.
    9900012    2    3    3    0    0 -0.21915370049E+01  0.27337155542E+01 -0.36653841907E+02  0.54367079836E+02  0.39999990101E+02 0.  0.
         12    1    3    3    0    0  0.21915370049E+01 -0.27337155542E+01  0.36653841907E+02  0.36820920164E+02  0.00000000000E+00 0. -1.
         11    1    4    4    0    0  0.26118529430E+01  0.12092476915E+01 -0.23246597285E+01  0.36997430843E+01  0.51100000000E-03 0. -1.
        -11    1    4    4    0    0  0.15456218049E+02 -0.37126231398E+01 -0.18737375005E+02  0.24571680230E+02  0.51100000000E-03 0.  1.
        -12    1    4    4    0    0 -0.20259607997E+02  0.52370910025E+01 -0.15591807174E+02  0.26095656522E+02  0.00000000000E+00 0.  1.
</event>
<event>
 8    1  0.1278459E-006  0.9118800E+02  0.7816164E-02  0.1184000E+00
        -11   -1    0    0    0    0  0.00000000000E+00  0.00000000000E+00  0.45593999997E+02  0.45594000000E+02  0.51100000000E-03 0. -1.
         11   -1    0    0    0    0 -0.00000000000E+00 -0.00000000000E+00 -0.45593999997E+02  0.45594000000E+02  0.51100000000E-03 0.  1.
         23    2    1    2    0    0 -0.17763568394E-14  0.71054273576E-14  0.00000000000E+00  0.91188000000E+02  0.91188000000E+02 0.  0.
    9900012    2    3    3    0    0 -0.90480597547E+01  0.33854075958E+02 -0.11305545220E+02  0.54367065777E+02  0.39999958052E+02 0.  0.
        -12    1    3    3    0    0  0.90480597547E+01 -0.33854075958E+02  0.11305545220E+02  0.36820934223E+02  0.00000000000E+00 0.  1.
         11    1    4    4    0    0 -0.39839048307E+01 -0.23447671381E+01  0.93003566535E+01  0.10385858885E+02  0.51100000000E-03 0. -1.
        -11    1    4    4    0    0 -0.58493439795E+01  0.52599624604E+01 -0.33856461938E+01  0.85641479720E+01  0.51100000000E-03 0.  1.
        -12    1    4    4    0    0  0.78518905553E+00  0.30938880636E+02 -0.17220255680E+02  0.35417058920E+02  0.00000000000E+00 0.  1.
</event>
<event>
 8    1  0.1278459E-006  0.9118800E+02  0.7816164E-02  0.1184000E+00
        -11   -1    0    0    0    0  0.00000000000E+00  0.00000000000E+00  0.45593999997E+02  0.45594000000E+02  0.51100000000E-03 0. -1.
         11   -1    0    0    0    0 -0.00000000000E+00 -0.00000000000E+00 -0.45593999997E+02  0.45594000000E+02  0.51100000000E-03 0.  1.
         23    2    1    2    0    0  0.00000000000E+00 -0.11102230246E-15  0.00000000000E+00  0.91188000000E+02  0.91188000000E+02 0.  0.
    9900012    2    3    3    0    0 -0.36556334216E+02  0.32872726140E+00  0.43941016187E+01  0.54367058106E+02  0.39999940563E+02 0.  0.
        -12    1    3    3    0    0  0.36556334216E+02 -0.32872726140E+00 -0.43941016187E+01  0.36820941894E+02  0.00000000000E+00 0.  1.
         11    1    4    4    0    0 -0.15035111626E+02  0.39731947078E+01 -0.71539076657E+00  0.15567679403E+02  0.51100000000E-03 0. -1.
        -11    1    4    4    0    0  0.83620230761E+01 -0.15438847826E+01  0.12535634469E+01  0.85952563501E+01  0.51100000000E-03 0.  1.
        -12    1    4    4    0    0 -0.29883245666E+02 -0.21005826638E+01  0.38559289384E+01  0.30204122352E+02  0.00000000000E+00 0.  1.
</event>
<event>
 8    1  0.1278459E-006  0.9118800E+02  0.7816164E-02  0.1184000E+00
        -11   -1    0    0    0    0  0.00000000000E+00  0.00000000000E+00  0.45593999997E+02  0.45594000000E+02  0.51100000000E-03 0. -1.
         11   -1    0    0    0    0 -0.00000000000E+00 -0.00000000000E+00 -0.45593999997E+02  0.45594000000E+02  0.51100000000E-03 0.  1.
         23    2    1    2    0    0  0.00000000000E+00  0.00000000000E+00 -0.88817841970E-15  0.91188000000E+02  0.91188000000E+02 0.  0.
    9900012    2    3    3    0    0  0.61337586030E+01  0.36251066041E+02 -0.20008862854E+01  0.54367267666E+02  0.40000418295E+02 0.  0.
        -12    1    3    3    0    0 -0.61337586030E+01 -0.36251066041E+02  0.20008862854E+01  0.36820732334E+02  0.00000000000E+00 0.  1.
         11    1    4    4    0    0 -0.70522857383E+01  0.62687916526E+01  0.84367431711E+01  0.12657453082E+02  0.51100000000E-03 0. -1.
        -11    1    4    4    0    0  0.62349691498E+01  0.19803946427E+01 -0.11061640534E+02  0.12851330468E+02  0.51100000000E-03 0.  1.
         12    1    4    4    0    0  0.69510751915E+01  0.28001879746E+02  0.62401107773E+00  0.28858484115E+02  0.00000000000E+00 0. -1.
</event>
<event>
 8    1  0.1278459E-006  0.9118800E+02  0.7816164E-02  0.1184000E+00
        -11   -1    0    0    0    0  0.00000000000E+00  0.00000000000E+00  0.45593999997E+02  0.45594000000E+02  0.51100000000E-03 0. -1.
         11   -1    0    0    0    0 -0.00000000000E+00 -0.00000000000E+00 -0.45593999997E+02  0.45594000000E+02  0.51100000000E-03 0.  1.
         23    2    1    2    0    0 -0.17763568394E-14  0.00000000000E+00  0.17763568394E-14  0.91188000000E+02  0.91188000000E+02 0.  0.
    9900012    2    3    3    0    0  0.11971977352E+02 -0.32677172828E+02 -0.12027116102E+02  0.54367117509E+02  0.40000075984E+02 0.  0.
         12    1    3    3    0    0 -0.11971977352E+02  0.32677172828E+02  0.12027116102E+02  0.36820882491E+02  0.00000000000E+00 0. -1.
         11    1    4    4    0    0 -0.18607747834E+01 -0.38144686911E+01 -0.60633486848E+01  0.74011385425E+01  0.51100000000E-03 0. -1.
        -11    1    4    4    0    0  0.15966817917E+02 -0.50745310894E-01  0.39024657136E+01  0.16436881955E+02  0.51100000000E-03 0.  1.
        -12    1    4    4    0    0 -0.21340657822E+01 -0.28811958826E+02 -0.98662331307E+01  0.30529097011E+02  0.00000000000E+00 0.  1.
</event>
<event>
 8    1  0.1278459E-006  0.9118800E+02  0.7816164E-02  0.1184000E+00
        -11   -1    0    0    0    0  0.00000000000E+00  0.00000000000E+00  0.45593999997E+02  0.45594000000E+02  0.51100000000E-03 0. -1.
         11   -1    0    0    0    0 -0.00000000000E+00 -0.00000000000E+00 -0.45593999997E+02  0.45594000000E+02  0.51100000000E-03 0.  1.
         23    2    1    2    0    0 -0.17763568394E-14  0.17763568394E-14 -0.35527136788E-14  0.91188000000E+02  0.91188000000E+02 0.  0.
    9900012    2    3    3    0    0 -0.12217184535E+02 -0.15706165414E+02 -0.30981236141E+02  0.54367079007E+02  0.39999988211E+02 0.  0.
         12    1    3    3    0    0  0.12217184535E+02  0.15706165414E+02  0.30981236141E+02  0.36820920993E+02  0.00000000000E+00 0. -1.
         11    1    4    4    0    0 -0.21685370952E+02 -0.15299579801E+02 -0.23339705793E+02  0.35342245573E+02  0.51100000000E-03 0.  1.
        -11    1    4    4    0    0  0.51236252237E+01 -0.71942563433E+01 -0.63143977338E+01  0.10857277687E+02  0.51100000000E-03 0. -1.
         12    1    4    4    0    0  0.43445611928E+01  0.67876707304E+01 -0.13271326147E+01  0.81675557470E+01  0.00000000000E+00 0. -1.
</event>
<event>
 8    1  0.1278459E-006  0.9118800E+02  0.7816164E-02  0.1184000E+00
        -11   -1    0    0    0    0  0.00000000000E+00  0.00000000000E+00  0.45593999997E+02  0.45594000000E+02  0.51100000000E-03 0. -1.
         11   -1    0    0    0    0 -0.00000000000E+00 -0.00000000000E+00 -0.45593999997E+02  0.45594000000E+02  0.51100000000E-03 0.  1.
         23    2    1    2    0    0 -0.88817841970E-15  0.00000000000E+00  0.00000000000E+00  0.91188000000E+02  0.91188000000E+02 0.  0.
    9900012    2    3    3    0    0  0.44223638658E+01 -0.28449311244E+02  0.22953493036E+02  0.54367035117E+02  0.39999888155E+02 0.  0.
        -12    1    3    3    0    0 -0.44223638658E+01  0.28449311244E+02 -0.22953493036E+02  0.36820964883E+02  0.00000000000E+00 0.  1.
         11    1    4    4    0    0 -0.14616638603E+01 -0.83022345274E+01 -0.63159244488E+00  0.84535476970E+01  0.51100000000E-03 0. -1.
        -11    1    4    4    0    0 -0.36280991531E+01 -0.81274568050E+01  0.28467572390E+02  0.29826520676E+02  0.51100000000E-03 0.  1.
        -12    1    4    4    0    0  0.95121268792E+01 -0.12019619911E+02 -0.48824869099E+01  0.16086966744E+02  0.00000000000E+00 0.  1.
</event>
<event>
 8    1  0.1278459E-006  0.9118800E+02  0.7816164E-02  0.1184000E+00
        -11   -1    0    0    0    0  0.00000000000E+00  0.00000000000E+00  0.45593999997E+02  0.45594000000E+02  0.51100000000E-03 0. -1.
         11   -1    0    0    0    0 -0.00000000000E+00 -0.00000000000E+00 -0.45593999997E+02  0.45594000000E+02  0.51100000000E-03 0.  1.
         23    2    1    2    0    0  0.44408920985E-15  0.00000000000E+00 -0.71054273576E-14  0.91188000000E+02  0.91188000000E+02 0.  0.
    9900012    2    3    3    0    0 -0.27899246771E+01  0.64848588416E+01 -0.36137833711E+02  0.54367080685E+02  0.39999992037E+02 0.  0.
         12    1    3    3    0    0  0.27899246771E+01 -0.64848588416E+01  0.36137833711E+02  0.36820919315E+02  0.00000000000E+00 0. -1.
         11    1    4    4    0    0  0.43899156877E+01  0.14238665120E+01 -0.29265407602E+01  0.54647412264E+01  0.51100000000E-03 0. -1.
        -11    1    4    4    0    0 -0.41633609956E+01 -0.45428007911E+01  0.58911014064E+01  0.85250038035E+01  0.51100000000E-03 0.  1.
        -12    1    4    4    0    0 -0.30164793692E+01  0.96037931207E+01 -0.39102394357E+02  0.40377335655E+02  0.00000000000E+00 0.  1.
</event>
<event>
 8    1  0.1278459E-006  0.9118800E+02  0.7816164E-02  0.1184000E+00
        -11   -1    0    0    0    0  0.00000000000E+00  0.00000000000E+00  0.45593999997E+02  0.45594000000E+02  0.51100000000E-03 0.  1.
         11   -1    0    0    0    0 -0.00000000000E+00 -0.00000000000E+00 -0.45593999997E+02  0.45594000000E+02  0.51100000000E-03 0. -1.
         23    2    1    2    0    0  0.00000000000E+00 -0.35527136788E-14 -0.17763568394E-14  0.91188000000E+02  0.91188000000E+02 0.  0.
    9900012    2    3    3    0    0  0.18940118753E+02 -0.28619013784E+02 -0.13341889493E+02  0.54367054010E+02  0.39999931227E+02 0.  0.
         12    1    3    3    0    0 -0.18940118753E+02  0.28619013784E+02  0.13341889493E+02  0.36820945990E+02  0.00000000000E+00 0. -1.
         11    1    4    4    0    0 -0.22970240958E+01 -0.84321041074E+01 -0.14159761466E+02  0.16639577651E+02  0.51100000000E-03 0. -1.
        -11    1    4    4    0    0 -0.13205053908E+01 -0.73141139066E+01 -0.73980768325E+01  0.10486731512E+02  0.51100000000E-03 0.  1.
         12    1    4    4    0    0  0.22557648239E+02 -0.12872795770E+02  0.82159488058E+01  0.27240744847E+02  0.00000000000E+00 0. -1.
</event>
<event>
 8    1  0.1278459E-006  0.9118800E+02  0.7816164E-02  0.1184000E+00
        -11   -1    0    0    0    0  0.00000000000E+00  0.00000000000E+00  0.45593999997E+02  0.45594000000E+02  0.51100000000E-03 0.  1.
         11   -1    0    0    0    0 -0.00000000000E+00 -0.00000000000E+00 -0.45593999997E+02  0.45594000000E+02  0.51100000000E-03 0. -1.
         23    2    1    2    0    0  0.35527136788E-14  0.88817841970E-15 -0.71054273576E-14  0.91188000000E+02  0.91188000000E+02 0.  0.
    9900012    2    3    3    0    0  0.25632490864E+02  0.62311995487E+01 -0.25688923761E+02  0.54367173832E+02  0.40000204384E+02 0.  0.
        -12    1    3    3    0    0 -0.25632490864E+02 -0.62311995487E+01  0.25688923761E+02  0.36820826168E+02  0.00000000000E+00 0.  1.
         11    1    4    4    0    0  0.91106977610E+01  0.30263241560E+01  0.86549687178E+01  0.12925630946E+02  0.51100000000E-03 0.  1.
        -11    1    4    4    0    0  0.13389171884E+02  0.70811396036E+01 -0.32953013934E+02  0.36267252300E+02  0.51100000000E-03 0. -1.
         12    1    4    4    0    0  0.31326212194E+01 -0.38762642110E+01 -0.13908785455E+01  0.51742905857E+01  0.00000000000E+00 0. -1.
</event>
<event>
 8    1  0.1278459E-006  0.9118800E+02  0.7816164E-02  0.1184000E+00
        -11   -1    0    0    0    0  0.00000000000E+00  0.00000000000E+00  0.45593999997E+02  0.45594000000E+02  0.51100000000E-03 0. -1.
         11   -1    0    0    0    0 -0.00000000000E+00 -0.00000000000E+00 -0.45593999997E+02  0.45594000000E+02  0.51100000000E-03 0.  1.
         23    2    1    2    0    0  0.00000000000E+00 -0.44408920985E-15  0.00000000000E+00  0.91188000000E+02  0.91188000000E+02 0.  0.
    9900012    2    3    3    0    0 -0.29938987231E+02  0.25522521619E+01  0.21281987442E+02  0.54367082887E+02  0.39999997059E+02 0.  0.
        -12    1    3    3    0    0  0.29938987231E+02 -0.25522521619E+01 -0.21281987442E+02  0.36820917113E+02  0.00000000000E+00 0.  1.
         11    1    4    4    0    0 -0.14960779609E+02 -0.14279218370E+02  0.43025861758E+01  0.21124233757E+02  0.51100000000E-03 0. -1.
        -11    1    4    4    0    0 -0.17475495502E+02  0.79590503139E+01  0.97951279153E+01  0.21556529314E+02  0.51100000000E-03 0.  1.
        -12    1    4    4    0    0  0.24972878794E+01  0.88724202178E+01  0.71842733506E+01  0.11686319816E+02  0.00000000000E+00 0.  1.
</event>
<event>
 8    1  0.1278459E-006  0.9118800E+02  0.7816164E-02  0.1184000E+00
        -11   -1    0    0    0    0  0.00000000000E+00  0.00000000000E+00  0.45593999997E+02  0.45594000000E+02  0.51100000000E-03 0. -1.
         11   -1    0    0    0    0 -0.00000000000E+00 -0.00000000000E+00 -0.45593999997E+02  0.45594000000E+02  0.51100000000E-03 0.  1.
         23    2    1    2    0    0 -0.14210854715E-13  0.88817841970E-15  0.17763568394E-14  0.91188000000E+02  0.91188000000E+02 0.  0.
    9900012    2    3    3    0    0 -0.33735436399E+02  0.43342342419E+01  0.14103699656E+02  0.54367087471E+02  0.40000007507E+02 0.  0.
        -12    1    3    3    0    0  0.33735436399E+02 -0.43342342419E+01 -0.14103699656E+02  0.36820912529E+02  0.00000000000E+00 0.  1.
         11    1    4    4    0    0 -0.75513955278E+01 -0.24032172450E+01 -0.22128506212E+01  0.82277418334E+01  0.51100000000E-03 0. -1.
        -11    1    4    4    0    0 -0.65809823019E+01  0.80520646455E+01 -0.92347319229E+01  0.13907744140E+02  0.51100000000E-03 0.  1.
         12    1    4    4    0    0 -0.19603058569E+02 -0.13146131585E+01  0.25551282200E+02  0.32231601498E+02  0.00000000000E+00 0. -1.
</event>
<event>
 8    1  0.1278459E-006  0.9118800E+02  0.7816164E-02  0.1184000E+00
        -11   -1    0    0    0    0  0.00000000000E+00  0.00000000000E+00  0.45593999997E+02  0.45594000000E+02  0.51100000000E-03 0. -1.
         11   -1    0    0    0    0 -0.00000000000E+00 -0.00000000000E+00 -0.45593999997E+02  0.45594000000E+02  0.51100000000E-03 0.  1.
         23    2    1    2    0    0  0.88817841970E-15  0.17763568394E-14  0.00000000000E+00  0.91188000000E+02  0.91188000000E+02 0.  0.
    9900012    2    3    3    0    0 -0.50070132649E+01 -0.75513199037E+01  0.35688764567E+02  0.54367074829E+02  0.39999978688E+02 0.  0.
        -12    1    3    3    0    0  0.50070132649E+01  0.75513199037E+01 -0.35688764567E+02  0.36820925171E+02  0.00000000000E+00 0.  1.
         11    1    4    4    0    0 -0.10671741353E+02  0.29138914059E+01 -0.17582102698E+01  0.11201255744E+02  0.51100000000E-03 0. -1.
        -11    1    4    4    0    0 -0.16174690280E+01  0.32983032764E+01  0.14573483972E+01  0.39520722630E+01  0.51100000000E-03 0.  1.
         12    1    4    4    0    0  0.72821971159E+01 -0.13763514586E+02  0.35989626439E+02  0.39213746822E+02  0.00000000000E+00 0. -1.
</event>
<event>
 8    1  0.1278459E-006  0.9118800E+02  0.7816164E-02  0.1184000E+00
        -11   -1    0    0    0    0  0.00000000000E+00  0.00000000000E+00  0.45593999997E+02  0.45594000000E+02  0.51100000000E-03 0.  1.
         11   -1    0    0    0    0 -0.00000000000E+00 -0.00000000000E+00 -0.45593999997E+02  0.45594000000E+02  0.51100000000E-03 0. -1.
         23    2    1    2    0    0  0.00000000000E+00  0.35527136788E-14 -0.35527136788E-14  0.91188000000E+02  0.91188000000E+02 0.  0.
    9900012    2    3    3    0    0  0.16063768516E+02  0.21676685720E+02 -0.25057059610E+02  0.54367087477E+02  0.40000007520E+02 0.  0.
        -12    1    3    3    0    0 -0.16063768516E+02 -0.21676685720E+02  0.25057059610E+02  0.36820912523E+02  0.00000000000E+00 0.  1.
         11    1    4    4    0    0  0.27776426300E+01  0.12828229928E+01 -0.93329661277E+00  0.31987460417E+01  0.51100000000E-03 0. -1.
        -11    1    4    4    0    0 -0.42350024143E+01  0.26286697155E+02 -0.13620523051E+02  0.29907262349E+02  0.51100000000E-03 0.  1.
         12    1    4    4    0    0  0.17521128301E+02 -0.58928344279E+01 -0.10503239946E+02  0.21261079086E+02  0.00000000000E+00 0. -1.
</event>
<event>
 8    1  0.1278459E-006  0.9118800E+02  0.7816164E-02  0.1184000E+00
        -11   -1    0    0    0    0  0.00000000000E+00  0.00000000000E+00  0.45593999997E+02  0.45594000000E+02  0.51100000000E-03 0.  1.
         11   -1    0    0    0    0 -0.00000000000E+00 -0.00000000000E+00 -0.45593999997E+02  0.45594000000E+02  0.51100000000E-03 0. -1.
         23    2    1    2    0    0  0.00000000000E+00  0.00000000000E+00  0.00000000000E+00  0.91188000000E+02  0.91188000000E+02 0.  0.
    9900012    2    3    3    0    0 -0.19590024956E+02 -0.30741473474E+02 -0.51935099567E+01  0.54367084547E+02  0.40000000842E+02 0.  0.
         12    1    3    3    0    0  0.19590024956E+02  0.30741473474E+02  0.51935099567E+01  0.36820915453E+02  0.00000000000E+00 0. -1.
         11    1    4    4    0    0 -0.11498174490E+02 -0.42261194270E+01  0.30079457931E+01  0.12614112738E+02  0.51100000000E-03 0. -1.
        -11    1    4    4    0    0 -0.16738478881E+01 -0.14204425282E+02  0.11010307833E+02  0.18049774048E+02  0.51100000000E-03 0.  1.
         12    1    4    4    0    0 -0.64180025777E+01 -0.12310928764E+02 -0.19211763583E+02  0.23703197761E+02  0.00000000000E+00 0. -1.
</event>
<event>
 8    1  0.1278459E-006  0.9118800E+02  0.7816164E-02  0.1184000E+00
        -11   -1    0    0    0    0  0.00000000000E+00  0.00000000000E+00  0.45593999997E+02  0.45594000000E+02  0.51100000000E-03 0.  1.
         11   -1    0    0    0    0 -0.00000000000E+00 -0.00000000000E+00 -0.45593999997E+02  0.45594000000E+02  0.51100000000E-03 0. -1.
         23    2    1    2    0    0 -0.17763568394E-14  0.00000000000E+00  0.00000000000E+00  0.91188000000E+02  0.91188000000E+02 0.  0.
    9900012    2    3    3    0    0  0.15111297126E+02 -0.19446804079E+02  0.27372436065E+02  0.54367085484E+02  0.40000002977E+02 0.  0.
         12    1    3    3    0    0 -0.15111297126E+02  0.19446804079E+02 -0.27372436065E+02  0.36820914516E+02  0.00000000000E+00 0. -1.
         11    1    4    4    0    0 -0.73779041812E+01  0.21510322980E+01  0.56229680177E+01  0.95225091044E+01  0.51100000000E-03 0. -1.
        -11    1    4    4    0    0  0.12798213179E+02 -0.20814450368E+02  0.42153160702E+01  0.24795251451E+02  0.51100000000E-03 0.  1.
        -12    1    4    4    0    0  0.96909881283E+01 -0.78338600910E+00  0.17534151977E+02  0.20049324928E+02  0.00000000000E+00 0.  1.
</event>
<event>
 8    1  0.1278459E-006  0.9118800E+02  0.7816164E-02  0.1184000E+00
        -11   -1    0    0    0    0  0.00000000000E+00  0.00000000000E+00  0.45593999997E+02  0.45594000000E+02  0.51100000000E-03 0.  1.
         11   -1    0    0    0    0 -0.00000000000E+00 -0.00000000000E+00 -0.45593999997E+02  0.45594000000E+02  0.51100000000E-03 0. -1.
         23    2    1    2    0    0  0.00000000000E+00  0.00000000000E+00 -0.22204460493E-15  0.91188000000E+02  0.91188000000E+02 0.  0.
    9900012    2    3    3    0    0  0.96507537588E+01  0.35506409496E+02  0.13936476549E+01  0.54367022050E+02  0.39999858367E+02 0.  0.
        -12    1    3    3    0    0 -0.96507537588E+01 -0.35506409496E+02 -0.13936476549E+01  0.36820977950E+02  0.00000000000E+00 0.  1.
         11    1    4    4    0    0  0.11706481469E+02  0.28003977553E+00 -0.37239075077E+01  0.12287701903E+02  0.51100000000E-03 0. -1.
        -11    1    4    4    0    0 -0.10708977920E+02  0.11012265920E+02  0.56310699400E+01  0.16360353227E+02  0.51100000000E-03 0.  1.
         12    1    4    4    0    0  0.86532502096E+01  0.24214103800E+02 -0.51351477735E+00  0.25718966921E+02  0.00000000000E+00 0. -1.
</event>
<event>
 8    1  0.1278459E-006  0.9118800E+02  0.7816164E-02  0.1184000E+00
        -11   -1    0    0    0    0  0.00000000000E+00  0.00000000000E+00  0.45593999997E+02  0.45594000000E+02  0.51100000000E-03 0.  1.
         11   -1    0    0    0    0 -0.00000000000E+00 -0.00000000000E+00 -0.45593999997E+02  0.45594000000E+02  0.51100000000E-03 0. -1.
         23    2    1    2    0    0 -0.88817841970E-15  0.00000000000E+00  0.00000000000E+00  0.91188000000E+02  0.91188000000E+02 0.  0.
    9900012    2    3    3    0    0 -0.17255960969E+01 -0.35862387396E+02  0.81661697104E+01  0.54367152109E+02  0.40000154863E+02 0.  0.
         12    1    3    3    0    0  0.17255960969E+01  0.35862387396E+02 -0.81661697104E+01  0.36820847891E+02  0.00000000000E+00 0. -1.
         11    1    4    4    0    0 -0.65671489617E+01 -0.10095223922E+02  0.67832813540E+01  0.13822224775E+02  0.51100000000E-03 0. -1.
        -11    1    4    4    0    0  0.34269360782E+01 -0.88315831974E+01 -0.14476001797E+02  0.17300155518E+02  0.51100000000E-03 0.  1.
        -12    1    4    4    0    0  0.14146167867E+01 -0.16935580276E+02  0.15858890153E+02  0.23244771817E+02  0.00000000000E+00 0.  1.
</event>
<event>
 8    1  0.1278459E-006  0.9118800E+02  0.7816164E-02  0.1184000E+00
        -11   -1    0    0    0    0  0.00000000000E+00  0.00000000000E+00  0.45593999997E+02  0.45594000000E+02  0.51100000000E-03 0.  1.
         11   -1    0    0    0    0 -0.00000000000E+00 -0.00000000000E+00 -0.45593999997E+02  0.45594000000E+02  0.51100000000E-03 0. -1.
         23    2    1    2    0    0  0.17763568394E-14 -0.71054273576E-14 -0.12212453271E-14  0.91188000000E+02  0.91188000000E+02 0.  0.
    9900012    2    3    3    0    0  0.85213140495E+01  0.35819672804E+02  0.34358975460E+00  0.54367084655E+02  0.40000001088E+02 0.  0.
         12    1    3    3    0    0 -0.85213140495E+01 -0.35819672804E+02 -0.34358975460E+00  0.36820915345E+02  0.00000000000E+00 0. -1.
         11    1    4    4    0    0 -0.82608187916E+00  0.23705865030E+02 -0.15056261680E-01  0.23720258747E+02  0.51100000000E-03 0. -1.
        -11    1    4    4    0    0  0.16428448395E+02  0.99597941153E+01 -0.67709875233E+01  0.20370019337E+02  0.51100000000E-03 0.  1.
        -12    1    4    4    0    0 -0.70810524667E+01  0.21540136588E+01  0.71296335396E+01  0.10276806571E+02  0.00000000000E+00 0.  1.
</event>
<event>
 8    1  0.1278459E-006  0.9118800E+02  0.7816164E-02  0.1184000E+00
        -11   -1    0    0    0    0  0.00000000000E+00  0.00000000000E+00  0.45593999997E+02  0.45594000000E+02  0.51100000000E-03 0. -1.
         11   -1    0    0    0    0 -0.00000000000E+00 -0.00000000000E+00 -0.45593999997E+02  0.45594000000E+02  0.51100000000E-03 0.  1.
         23    2    1    2    0    0  0.00000000000E+00  0.35527136788E-14  0.00000000000E+00  0.91188000000E+02  0.91188000000E+02 0.  0.
    9900012    2    3    3    0    0  0.20159429950E+02  0.28933838298E+02 -0.10592956491E+02  0.54367077390E+02  0.39999984527E+02 0.  0.
         12    1    3    3    0    0 -0.20159429950E+02 -0.28933838298E+02  0.10592956491E+02  0.36820922610E+02  0.00000000000E+00 0. -1.
         11    1    4    4    0    0 -0.81950523629E+01  0.67086971652E+01  0.17808414268E+01  0.10739501727E+02  0.51100000000E-03 0. -1.
        -11    1    4    4    0    0  0.33500425276E+01  0.14580920231E+02 -0.65618080873E+00  0.14975199272E+02  0.51100000000E-03 0.  1.
        -12    1    4    4    0    0  0.25004439786E+02  0.76442209024E+01 -0.11717617109E+02  0.28652376392E+02  0.00000000000E+00 0.  1.
</event>
<event>
 8    1  0.1278459E-006  0.9118800E+02  0.7816164E-02  0.1184000E+00
        -11   -1    0    0    0    0  0.00000000000E+00  0.00000000000E+00  0.45593999997E+02  0.45594000000E+02  0.51100000000E-03 0.  1.
         11   -1    0    0    0    0 -0.00000000000E+00 -0.00000000000E+00 -0.45593999997E+02  0.45594000000E+02  0.51100000000E-03 0. -1.
         23    2    1    2    0    0  0.00000000000E+00  0.00000000000E+00 -0.35527136788E-14  0.91188000000E+02  0.91188000000E+02 0.  0.
    9900012    2    3    3    0    0  0.17835628434E+02 -0.12279214632E+02 -0.29780716332E+02  0.54367084492E+02  0.40000000716E+02 0.  0.
        -12    1    3    3    0    0 -0.17835628434E+02  0.12279214632E+02  0.29780716332E+02  0.36820915508E+02  0.00000000000E+00 0.  1.
         11    1    4    4    0    0  0.18050542344E+02  0.27367562772E+01 -0.84923393188E+01  0.20135335636E+02  0.51100000000E-03 0. -1.
        -11    1    4    4    0    0 -0.79361969000E+01 -0.16947746319E+02 -0.16458186855E+02  0.24921501587E+02  0.51100000000E-03 0.  1.
        -12    1    4    4    0    0  0.77212829899E+01  0.19317754095E+01 -0.48301901582E+01  0.93102472688E+01  0.00000000000E+00 0.  1.
</event>
<event>
 8    1  0.1278459E-006  0.9118800E+02  0.7816164E-02  0.1184000E+00
        -11   -1    0    0    0    0  0.00000000000E+00  0.00000000000E+00  0.45593999997E+02  0.45594000000E+02  0.51100000000E-03 0.  1.
         11   -1    0    0    0    0 -0.00000000000E+00 -0.00000000000E+00 -0.45593999997E+02  0.45594000000E+02  0.51100000000E-03 0. -1.
         23    2    1    2    0    0  0.00000000000E+00  0.00000000000E+00  0.00000000000E+00  0.91188000000E+02  0.91188000000E+02 0.  0.
    9900012    2    3    3    0    0  0.19655595433E+02  0.26481193847E+02 -0.16376328481E+02  0.54367079399E+02  0.39999989105E+02 0.  0.
        -12    1    3    3    0    0 -0.19655595433E+02 -0.26481193847E+02  0.16376328481E+02  0.36820920601E+02  0.00000000000E+00 0.  1.
         11    1    4    4    0    0  0.88919942050E+01  0.24138702204E+02  0.62278407505E+01  0.26467536827E+02  0.51100000000E-03 0.  1.
        -11    1    4    4    0    0  0.11589527414E+00  0.49463145718E+01 -0.42553964365E+01  0.65259373771E+01  0.51100000000E-03 0. -1.
        -12    1    4    4    0    0  0.10647705954E+02 -0.26038229283E+01 -0.18348772795E+02  0.21373605195E+02  0.00000000000E+00 0.  1.
</event>
<event>
 8    1  0.1278459E-006  0.9118800E+02  0.7816164E-02  0.1184000E+00
        -11   -1    0    0    0    0  0.00000000000E+00  0.00000000000E+00  0.45593999997E+02  0.45594000000E+02  0.51100000000E-03 0.  1.
         11   -1    0    0    0    0 -0.00000000000E+00 -0.00000000000E+00 -0.45593999997E+02  0.45594000000E+02  0.51100000000E-03 0. -1.
         23    2    1    2    0    0  0.00000000000E+00  0.53290705182E-14  0.00000000000E+00  0.91188000000E+02  0.91188000000E+02 0.  0.
    9900012    2    3    3    0    0 -0.31534537025E+02  0.13695081638E+02 -0.13183233327E+02  0.54367083018E+02  0.39999997356E+02 0.  0.
        -12    1    3    3    0    0  0.31534537025E+02 -0.13695081638E+02  0.13183233327E+02  0.36820916982E+02  0.00000000000E+00 0.  1.
         11    1    4    4    0    0 -0.14345792869E+02 -0.46045343336E+01 -0.30178853746E+01  0.15365908430E+02  0.51100000000E-03 0. -1.
        -11    1    4    4    0    0  0.19688168472E+01 -0.62093161605E+01 -0.23672406224E+01  0.69307774012E+01  0.51100000000E-03 0.  1.
        -12    1    4    4    0    0 -0.19157561003E+02  0.24508932132E+02 -0.77981073304E+01  0.32070397187E+02  0.00000000000E+00 0.  1.
</event>
<event>
 8    1  0.1278459E-006  0.9118800E+02  0.7816164E-02  0.1184000E+00
        -11   -1    0    0    0    0  0.00000000000E+00  0.00000000000E+00  0.45593999997E+02  0.45594000000E+02  0.51100000000E-03 0.  1.
         11   -1    0    0    0    0 -0.00000000000E+00 -0.00000000000E+00 -0.45593999997E+02  0.45594000000E+02  0.51100000000E-03 0. -1.
         23    2    1    2    0    0  0.17763568394E-14  0.35527136788E-14 -0.35527136788E-14  0.91188000000E+02  0.91188000000E+02 0.  0.
    9900012    2    3    3    0    0 -0.11455614224E+02 -0.22774199010E+02  0.26568489075E+02  0.54367084076E+02  0.39999999768E+02 0.  0.
         12    1    3    3    0    0  0.11455614224E+02  0.22774199010E+02 -0.26568489075E+02  0.36820915924E+02  0.00000000000E+00 0. -1.
         11    1    4    4    0    0 -0.12893469005E+02 -0.10681047376E+02 -0.46329590775E+00  0.16749356984E+02  0.51100000000E-03 0. -1.
        -11    1    4    4    0    0 -0.86118449544E+01 -0.11545505524E+02  0.90494876953E+01  0.17010461461E+02  0.51100000000E-03 0.  1.
         12    1    4    4    0    0  0.10049699736E+02 -0.54764611076E+00  0.17982297287E+02  0.20607265630E+02  0.00000000000E+00 0. -1.
</event>
<event>
 8    1  0.1278459E-006  0.9118800E+02  0.7816164E-02  0.1184000E+00
        -11   -1    0    0    0    0  0.00000000000E+00  0.00000000000E+00  0.45593999997E+02  0.45594000000E+02  0.51100000000E-03 0. -1.
         11   -1    0    0    0    0 -0.00000000000E+00 -0.00000000000E+00 -0.45593999997E+02  0.45594000000E+02  0.51100000000E-03 0.  1.
         23    2    1    2    0    0 -0.35527136788E-14  0.00000000000E+00 -0.71054273576E-14  0.91188000000E+02  0.91188000000E+02 0.  0.
    9900012    2    3    3    0    0  0.18264004084E+02  0.65431591593E+01  0.31295268596E+02  0.54367073702E+02  0.39999976118E+02 0.  0.
        -12    1    3    3    0    0 -0.18264004084E+02 -0.65431591593E+01 -0.31295268596E+02  0.36820926298E+02  0.00000000000E+00 0.  1.
         11    1    4    4    0    0  0.56509283948E+01 -0.47087448399E+01  0.18310713821E+02  0.19732904262E+02  0.51100000000E-03 0. -1.
        -11    1    4    4    0    0 -0.59890652836E+01  0.42080067143E+01 -0.41206505465E+01  0.83997609886E+01  0.51100000000E-03 0.  1.
         12    1    4    4    0    0  0.18602140973E+02  0.70438972849E+01  0.17105205321E+02  0.26234408452E+02  0.00000000000E+00 0. -1.
</event>
<event>
 8    1  0.1278459E-006  0.9118800E+02  0.7816164E-02  0.1184000E+00
        -11   -1    0    0    0    0  0.00000000000E+00  0.00000000000E+00  0.45593999997E+02  0.45594000000E+02  0.51100000000E-03 0.  1.
         11   -1    0    0    0    0 -0.00000000000E+00 -0.00000000000E+00 -0.45593999997E+02  0.45594000000E+02  0.51100000000E-03 0. -1.
         23    2    1    2    0    0  0.17763568394E-14  0.17763568394E-14 -0.35527136788E-14  0.91188000000E+02  0.91188000000E+02 0.  0.
    9900012    2    3    3    0    0  0.15350555851E+02  0.10963174522E+02 -0.31621992683E+02  0.54367065984E+02  0.39999958525E+02 0.  0.
        -12    1    3    3    0    0 -0.15350555851E+02 -0.10963174522E+02  0.31621992683E+02  0.36820934016E+02  0.00000000000E+00 0.  1.
         11    1    4    4    0    0  0.13071327861E+02  0.14937680358E+02 -0.36405942495E+02  0.41465486320E+02  0.51100000000E-03 0. -1.
        -11    1    4    4    0    0 -0.15319008823E+01  0.19549724259E+01 -0.19466063700E+01  0.31556162821E+01  0.51100000000E-03 0.  1.
        -12    1    4    4    0    0  0.38111288721E+01 -0.59294782622E+01  0.67305561816E+01  0.97459633826E+01  0.00000000000E+00 0.  1.
</event>
<event>
 8    1  0.1278459E-006  0.9118800E+02  0.7816164E-02  0.1184000E+00
        -11   -1    0    0    0    0  0.00000000000E+00  0.00000000000E+00  0.45593999997E+02  0.45594000000E+02  0.51100000000E-03 0. -1.
         11   -1    0    0    0    0 -0.00000000000E+00 -0.00000000000E+00 -0.45593999997E+02  0.45594000000E+02  0.51100000000E-03 0.  1.
         23    2    1    2    0    0  0.35527136788E-14 -0.35527136788E-14  0.00000000000E+00  0.91188000000E+02  0.91188000000E+02 0.  0.
    9900012    2    3    3    0    0  0.20842009503E+02 -0.13771957969E+02 -0.27050400540E+02  0.54367077200E+02  0.39999984093E+02 0.  0.
         12    1    3    3    0    0 -0.20842009503E+02  0.13771957969E+02  0.27050400540E+02  0.36820922800E+02  0.00000000000E+00 0. -1.
         11    1    4    4    0    0  0.16321420384E+02 -0.22775652525E+02 -0.26982471905E+02  0.38899523155E+02  0.51100000000E-03 0. -1.
        -11    1    4    4    0    0  0.71670678461E+01  0.85662559109E+01  0.28266620166E+01  0.11521181374E+02  0.51100000000E-03 0.  1.
         12    1    4    4    0    0 -0.26464787272E+01  0.43743864425E+00 -0.28945906515E+01  0.39463726713E+01  0.00000000000E+00 0. -1.
</event>
<event>
 8    1  0.1278459E-006  0.9118800E+02  0.7816164E-02  0.1184000E+00
        -11   -1    0    0    0    0  0.00000000000E+00  0.00000000000E+00  0.45593999997E+02  0.45594000000E+02  0.51100000000E-03 0. -1.
         11   -1    0    0    0    0 -0.00000000000E+00 -0.00000000000E+00 -0.45593999997E+02  0.45594000000E+02  0.51100000000E-03 0.  1.
         23    2    1    2    0    0  0.00000000000E+00  0.11102230246E-14  0.00000000000E+00  0.91188000000E+02  0.91188000000E+02 0.  0.
    9900012    2    3    3    0    0 -0.22870008129E+02  0.13577277640E+01 -0.28825322120E+02  0.54367083501E+02  0.39999998457E+02 0.  0.
         12    1    3    3    0    0  0.22870008129E+02 -0.13577277640E+01  0.28825322120E+02  0.36820916499E+02  0.00000000000E+00 0. -1.
         11    1    4    4    0    0  0.94325211142E+00  0.14917309313E+02 -0.14602175357E+02  0.20895917474E+02  0.51100000000E-03 0. -1.
        -11    1    4    4    0    0 -0.11196099495E+02 -0.13230063883E+02 -0.10694792548E+02  0.20365800307E+02  0.51100000000E-03 0.  1.
        -12    1    4    4    0    0 -0.12617160746E+02 -0.32951766576E+00 -0.35283542154E+01  0.13105365720E+02  0.00000000000E+00 0.  1.
</event>
<event>
 8    1  0.1278459E-006  0.9118800E+02  0.7816164E-02  0.1184000E+00
        -11   -1    0    0    0    0  0.00000000000E+00  0.00000000000E+00  0.45593999997E+02  0.45594000000E+02  0.51100000000E-03 0. -1.
         11   -1    0    0    0    0 -0.00000000000E+00 -0.00000000000E+00 -0.45593999997E+02  0.45594000000E+02  0.51100000000E-03 0.  1.
         23    2    1    2    0    0  0.35527136788E-14  0.00000000000E+00  0.00000000000E+00  0.91188000000E+02  0.91188000000E+02 0.  0.
    9900012    2    3    3    0    0  0.24283780157E+02  0.23009976235E+02 -0.15382251183E+02  0.54367154864E+02  0.40000161143E+02 0.  0.
         12    1    3    3    0    0 -0.24283780157E+02 -0.23009976235E+02  0.15382251183E+02  0.36820845136E+02  0.00000000000E+00 0. -1.
         11    1    4    4    0    0 -0.78517071389E+00  0.20090444286E+02 -0.62453928846E+01  0.21053440983E+02  0.51100000000E-03 0. -1.
        -11    1    4    4    0    0 -0.20650452402E+01 -0.19626026418E+01 -0.45452213479E+01  0.53642574823E+01  0.51100000000E-03 0.  1.
        -12    1    4    4    0    0  0.27133996111E+02  0.48821345912E+01 -0.45916369505E+01  0.27949456399E+02  0.00000000000E+00 0.  1.
</event>
<event>
 8    1  0.1278459E-006  0.9118800E+02  0.7816164E-02  0.1184000E+00
        -11   -1    0    0    0    0  0.00000000000E+00  0.00000000000E+00  0.45593999997E+02  0.45594000000E+02  0.51100000000E-03 0.  1.
         11   -1    0    0    0    0 -0.00000000000E+00 -0.00000000000E+00 -0.45593999997E+02  0.45594000000E+02  0.51100000000E-03 0. -1.
         23    2    1    2    0    0  0.00000000000E+00  0.88817841970E-15  0.00000000000E+00  0.91188000000E+02  0.91188000000E+02 0.  0.
    9900012    2    3    3    0    0  0.98873118871E+01  0.58167824382E+01 -0.34988280424E+02  0.54367168107E+02  0.40000191333E+02 0.  0.
        -12    1    3    3    0    0 -0.98873118871E+01 -0.58167824382E+01  0.34988280424E+02  0.36820831893E+02  0.00000000000E+00 0.  1.
         11    1    4    4    0    0  0.43558249905E+01  0.10477035315E+02 -0.77042889556E+00  0.11372556497E+02  0.51100000000E-03 0. -1.
        -11    1    4    4    0    0  0.12250365471E+02 -0.80034822808E+01 -0.10214783429E+02  0.17845699301E+02  0.51100000000E-03 0.  1.
         12    1    4    4    0    0 -0.67188785746E+01  0.33432294044E+01 -0.24003068099E+02  0.25148912309E+02  0.00000000000E+00 0. -1.
</event>
<event>
 8    1  0.1278459E-006  0.9118800E+02  0.7816164E-02  0.1184000E+00
        -11   -1    0    0    0    0  0.00000000000E+00  0.00000000000E+00  0.45593999997E+02  0.45594000000E+02  0.51100000000E-03 0. -1.
         11   -1    0    0    0    0 -0.00000000000E+00 -0.00000000000E+00 -0.45593999997E+02  0.45594000000E+02  0.51100000000E-03 0.  1.
         23    2    1    2    0    0  0.17763568394E-14  0.00000000000E+00  0.00000000000E+00  0.91188000000E+02  0.91188000000E+02 0.  0.
    9900012    2    3    3    0    0  0.13064839201E+02  0.56187228256E+01  0.33963422619E+02  0.54367161532E+02  0.40000176344E+02 0.  0.
        -12    1    3    3    0    0 -0.13064839201E+02 -0.56187228256E+01 -0.33963422619E+02  0.36820838468E+02  0.00000000000E+00 0.  1.
         11    1    4    4    0    0 -0.25251672355E+01  0.42590839165E+01  0.19672282231E+02  0.20285831356E+02  0.51100000000E-03 0. -1.
        -11    1    4    4    0    0  0.85836418224E+01 -0.89783146312E+01  0.17240694745E+02  0.21249249307E+02  0.51100000000E-03 0.  1.
        -12    1    4    4    0    0  0.70063646139E+01  0.10337953540E+02 -0.29495543578E+01  0.12832080868E+02  0.00000000000E+00 0.  1.
</event>
<event>
 8    1  0.1278459E-006  0.9118800E+02  0.7816164E-02  0.1184000E+00
        -11   -1    0    0    0    0  0.00000000000E+00  0.00000000000E+00  0.45593999997E+02  0.45594000000E+02  0.51100000000E-03 0.  1.
         11   -1    0    0    0    0 -0.00000000000E+00 -0.00000000000E+00 -0.45593999997E+02  0.45594000000E+02  0.51100000000E-03 0. -1.
         23    2    1    2    0    0 -0.35527136788E-14  0.00000000000E+00  0.99920072216E-15  0.91188000000E+02  0.91188000000E+02 0.  0.
    9900012    2    3    3    0    0 -0.29218200764E+02  0.22405326169E+02  0.28020304853E+00  0.54367076459E+02  0.39999982405E+02 0.  0.
         12    1    3    3    0    0  0.29218200764E+02 -0.22405326169E+02 -0.28020304853E+00  0.36820923541E+02  0.00000000000E+00 0. -1.
         11    1    4    4    0    0  0.13205407605E+01  0.39854919848E+01  0.14211348582E+00  0.42009725975E+01  0.51100000000E-03 0. -1.
        -11    1    4    4    0    0 -0.20673831520E+02  0.20378712180E+01 -0.15126676294E+02  0.25697792995E+02  0.51100000000E-03 0.  1.
        -12    1    4    4    0    0 -0.98649100048E+01  0.16381962966E+02  0.15264765857E+02  0.24468310867E+02  0.00000000000E+00 0.  1.
</event>
<event>
 8    1  0.1278459E-006  0.9118800E+02  0.7816164E-02  0.1184000E+00
        -11   -1    0    0    0    0  0.00000000000E+00  0.00000000000E+00  0.45593999997E+02  0.45594000000E+02  0.51100000000E-03 0.  1.
         11   -1    0    0    0    0 -0.00000000000E+00 -0.00000000000E+00 -0.45593999997E+02  0.45594000000E+02  0.51100000000E-03 0. -1.
         23    2    1    2    0    0  0.00000000000E+00  0.88817841970E-15  0.00000000000E+00  0.91188000000E+02  0.91188000000E+02 0.  0.
    9900012    2    3    3    0    0  0.32661577575E+02 -0.62367562265E+01  0.15814753875E+02  0.54367051913E+02  0.39999926445E+02 0.  0.
         12    1    3    3    0    0 -0.32661577575E+02  0.62367562265E+01 -0.15814753875E+02  0.36820948087E+02  0.00000000000E+00 0. -1.
         11    1    4    4    0    0  0.29050813789E+01 -0.25088660260E+01 -0.65565494400E+01  0.75975158687E+01  0.51100000000E-03 0. -1.
        -11    1    4    4    0    0 -0.54952305481E+01 -0.15641757252E+01  0.38505376385E+01  0.68899089140E+01  0.51100000000E-03 0.  1.
        -12    1    4    4    0    0  0.35251726744E+02 -0.21637144753E+01  0.18520765677E+02  0.39879627130E+02  0.00000000000E+00 0.  1.
</event>
<event>
 8    1  0.1278459E-006  0.9118800E+02  0.7816164E-02  0.1184000E+00
        -11   -1    0    0    0    0  0.00000000000E+00  0.00000000000E+00  0.45593999997E+02  0.45594000000E+02  0.51100000000E-03 0.  1.
         11   -1    0    0    0    0 -0.00000000000E+00 -0.00000000000E+00 -0.45593999997E+02  0.45594000000E+02  0.51100000000E-03 0. -1.
         23    2    1    2    0    0  0.00000000000E+00  0.00000000000E+00  0.17763568394E-14  0.91188000000E+02  0.91188000000E+02 0.  0.
    9900012    2    3    3    0    0 -0.22046065238E+02 -0.28672306218E+02 -0.69028670581E+01  0.54367085970E+02  0.40000004087E+02 0.  0.
        -12    1    3    3    0    0  0.22046065238E+02  0.28672306218E+02  0.69028670581E+01  0.36820914030E+02  0.00000000000E+00 0.  1.
         11    1    4    4    0    0 -0.22463127060E+02 -0.13730637601E+02 -0.82100925384E+01  0.27577674049E+02  0.51100000000E-03 0. -1.
        -11    1    4    4    0    0 -0.89617386054E+01  0.17981998142E+00  0.40327692165E+00  0.89726097983E+01  0.51100000000E-03 0.  1.
        -12    1    4    4    0    0  0.93788004267E+01 -0.15121488598E+02  0.90394855869E+00  0.17816802123E+02  0.00000000000E+00 0.  1.
</event>
<event>
 8    1  0.1278459E-006  0.9118800E+02  0.7816164E-02  0.1184000E+00
        -11   -1    0    0    0    0  0.00000000000E+00  0.00000000000E+00  0.45593999997E+02  0.45594000000E+02  0.51100000000E-03 0.  1.
         11   -1    0    0    0    0 -0.00000000000E+00 -0.00000000000E+00 -0.45593999997E+02  0.45594000000E+02  0.51100000000E-03 0. -1.
         23    2    1    2    0    0  0.00000000000E+00  0.00000000000E+00  0.22204460493E-15  0.91188000000E+02  0.91188000000E+02 0.  0.
    9900012    2    3    3    0    0  0.33861252473E+02  0.14427186905E+02 -0.10250078847E+01  0.54367098569E+02  0.40000032807E+02 0.  0.
         12    1    3    3    0    0 -0.33861252473E+02 -0.14427186905E+02  0.10250078847E+01  0.36820901431E+02  0.00000000000E+00 0. -1.
         11    1    4    4    0    0  0.15927476160E+02  0.43942971236E+01 -0.14978311489E+02  0.22301214303E+02  0.51100000000E-03 0.  1.
        -11    1    4    4    0    0 -0.43259878495E+01 -0.74933509058E-01  0.30727188513E+01  0.53067303780E+01  0.51100000000E-03 0. -1.
        -12    1    4    4    0    0  0.22259764163E+02  0.10107823290E+02  0.10880584753E+02  0.26759153888E+02  0.00000000000E+00 0.  1.
</event>
<event>
 8    1  0.1278459E-006  0.9118800E+02  0.7816164E-02  0.1184000E+00
        -11   -1    0    0    0    0  0.00000000000E+00  0.00000000000E+00  0.45593999997E+02  0.45594000000E+02  0.51100000000E-03 0. -1.
         11   -1    0    0    0    0 -0.00000000000E+00 -0.00000000000E+00 -0.45593999997E+02  0.45594000000E+02  0.51100000000E-03 0.  1.
         23    2    1    2    0    0  0.00000000000E+00  0.00000000000E+00  0.00000000000E+00  0.91188000000E+02  0.91188000000E+02 0.  0.
    9900012    2    3    3    0    0  0.29072716783E+02  0.12291852923E+02 -0.18959594804E+02  0.54367099080E+02  0.40000033974E+02 0.  0.
         12    1    3    3    0    0 -0.29072716783E+02 -0.12291852923E+02  0.18959594804E+02  0.36820900920E+02  0.00000000000E+00 0. -1.
         11    1    4    4    0    0  0.27029814569E+02  0.57487225527E+01 -0.14396437972E+02  0.31159526844E+02  0.51100000000E-03 0. -1.
        -11    1    4    4    0    0  0.31285631403E+01 -0.66843457808E+01 -0.64507367997E+01  0.98020605671E+01  0.51100000000E-03 0.  1.
         12    1    4    4    0    0 -0.10856609268E+01  0.13227476151E+02  0.18875799674E+01  0.13405511669E+02  0.00000000000E+00 0. -1.
</event>
<event>
 8    1  0.1278459E-006  0.9118800E+02  0.7816164E-02  0.1184000E+00
        -11   -1    0    0    0    0  0.00000000000E+00  0.00000000000E+00  0.45593999997E+02  0.45594000000E+02  0.51100000000E-03 0.  1.
         11   -1    0    0    0    0 -0.00000000000E+00 -0.00000000000E+00 -0.45593999997E+02  0.45594000000E+02  0.51100000000E-03 0. -1.
         23    2    1    2    0    0  0.88817841970E-15  0.00000000000E+00  0.71054273576E-14  0.91188000000E+02  0.91188000000E+02 0.  0.
    9900012    2    3    3    0    0  0.35349590812E+01  0.24340483736E+01 -0.36569928200E+02  0.54367079646E+02  0.39999989669E+02 0.  0.
        -12    1    3    3    0    0 -0.35349590812E+01 -0.24340483736E+01  0.36569928200E+02  0.36820920354E+02  0.00000000000E+00 0.  1.
         11    1    4    4    0    0  0.89040744026E+01  0.34481564601E+00 -0.14368652952E+02  0.16907383793E+02  0.51100000000E-03 0.  1.
        -11    1    4    4    0    0 -0.99194455508E+01  0.10196024542E+02 -0.24086959804E+02  0.27973844022E+02  0.51100000000E-03 0. -1.
        -12    1    4    4    0    0  0.45503302294E+01 -0.81067918142E+01  0.18856845570E+01  0.94858518312E+01  0.00000000000E+00 0.  1.
</event>
<event>
 8    1  0.1278459E-006  0.9118800E+02  0.7816164E-02  0.1184000E+00
        -11   -1    0    0    0    0  0.00000000000E+00  0.00000000000E+00  0.45593999997E+02  0.45594000000E+02  0.51100000000E-03 0.  1.
         11   -1    0    0    0    0 -0.00000000000E+00 -0.00000000000E+00 -0.45593999997E+02  0.45594000000E+02  0.51100000000E-03 0. -1.
         23    2    1    2    0    0  0.00000000000E+00  0.00000000000E+00  0.00000000000E+00  0.91188000000E+02  0.91188000000E+02 0.  0.
    9900012    2    3    3    0    0  0.13829426141E+02 -0.25354937196E+02 -0.22839731281E+02  0.54367092996E+02  0.40000020103E+02 0.  0.
         12    1    3    3    0    0 -0.13829426141E+02  0.25354937196E+02  0.22839731281E+02  0.36820907004E+02  0.00000000000E+00 0. -1.
         11    1    4    4    0    0 -0.69434315646E+01  0.57846814330E+01 -0.30502641102E+01  0.95382331999E+01  0.51100000000E-03 0. -1.
        -11    1    4    4    0    0  0.43237819541E+01 -0.53096574145E+01 -0.11021681522E+02  0.12975554558E+02  0.51100000000E-03 0.  1.
        -12    1    4    4    0    0  0.16449075752E+02 -0.25829961215E+02 -0.87677856485E+01  0.31853305239E+02  0.00000000000E+00 0.  1.
</event>
<event>
 8    1  0.1278459E-006  0.9118800E+02  0.7816164E-02  0.1184000E+00
        -11   -1    0    0    0    0  0.00000000000E+00  0.00000000000E+00  0.45593999997E+02  0.45594000000E+02  0.51100000000E-03 0. -1.
         11   -1    0    0    0    0 -0.00000000000E+00 -0.00000000000E+00 -0.45593999997E+02  0.45594000000E+02  0.51100000000E-03 0.  1.
         23    2    1    2    0    0  0.00000000000E+00 -0.71054273576E-14  0.00000000000E+00  0.91188000000E+02  0.91188000000E+02 0.  0.
    9900012    2    3    3    0    0 -0.10773692116E+02  0.33792479072E+02 -0.98881967764E+01  0.54367074983E+02  0.39999979038E+02 0.  0.
         12    1    3    3    0    0  0.10773692116E+02 -0.33792479072E+02  0.98881967764E+01  0.36820925017E+02  0.00000000000E+00 0. -1.
         11    1    4    4    0    0  0.12112866571E+01  0.12106596694E+02  0.10450023636E+02  0.16038699857E+02  0.51100000000E-03 0. -1.
        -11    1    4    4    0    0 -0.11799977483E+02  0.35339593280E+01 -0.14994668767E+02  0.19405371133E+02  0.51100000000E-03 0.  1.
        -12    1    4    4    0    0 -0.18500129025E+00  0.18151923050E+02 -0.53435516453E+01  0.18923003992E+02  0.00000000000E+00 0.  1.
</event>
<event>
 8    1  0.1278459E-006  0.9118800E+02  0.7816164E-02  0.1184000E+00
        -11   -1    0    0    0    0  0.00000000000E+00  0.00000000000E+00  0.45593999997E+02  0.45594000000E+02  0.51100000000E-03 0. -1.
         11   -1    0    0    0    0 -0.00000000000E+00 -0.00000000000E+00 -0.45593999997E+02  0.45594000000E+02  0.51100000000E-03 0.  1.
         23    2    1    2    0    0 -0.35527136788E-14 -0.35527136788E-14  0.00000000000E+00  0.91188000000E+02  0.91188000000E+02 0.  0.
    9900012    2    3    3    0    0 -0.18875190582E+02  0.25622538959E+02  0.18520067408E+02  0.54367079058E+02  0.39999988329E+02 0.  0.
        -12    1    3    3    0    0  0.18875190582E+02 -0.25622538959E+02 -0.18520067408E+02  0.36820920942E+02  0.00000000000E+00 0.  1.
         11    1    4    4    0    0 -0.17248097475E+02  0.22401252441E+02  0.35499356738E+01  0.28494122569E+02  0.51100000000E-03 0. -1.
        -11    1    4    4    0    0 -0.74180876530E+01 -0.25308647340E+01 -0.10356843291E+01  0.79060700111E+01  0.51100000000E-03 0.  1.
        -12    1    4    4    0    0  0.57909945464E+01  0.57521512524E+01  0.16005816063E+02  0.17966886478E+02  0.00000000000E+00 0.  1.
</event>
<event>
 8    1  0.1278459E-006  0.9118800E+02  0.7816164E-02  0.1184000E+00
        -11   -1    0    0    0    0  0.00000000000E+00  0.00000000000E+00  0.45593999997E+02  0.45594000000E+02  0.51100000000E-03 0.  1.
         11   -1    0    0    0    0 -0.00000000000E+00 -0.00000000000E+00 -0.45593999997E+02  0.45594000000E+02  0.51100000000E-03 0. -1.
         23    2    1    2    0    0  0.00000000000E+00  0.00000000000E+00 -0.17763568394E-14  0.91188000000E+02  0.91188000000E+02 0.  0.
    9900012    2    3    3    0    0 -0.12176607251E+02  0.31686315250E+02  0.14264865310E+02  0.54367099406E+02  0.40000034715E+02 0.  0.
         12    1    3    3    0    0  0.12176607251E+02 -0.31686315250E+02 -0.14264865310E+02  0.36820900594E+02  0.00000000000E+00 0. -1.
         11    1    4    4    0    0  0.27010525204E+01  0.62362457388E+01 -0.62455560123E+01  0.92300279413E+01  0.51100000000E-03 0. -1.
        -11    1    4    4    0    0 -0.22132435157E+01  0.13168463373E+02  0.23706281862E+02  0.27208356702E+02  0.51100000000E-03 0.  1.
        -12    1    4    4    0    0 -0.12664416256E+02  0.12281606138E+02 -0.31958605391E+01  0.17928714762E+02  0.00000000000E+00 0.  1.
</event>
<event>
 8    1  0.1278459E-006  0.9118800E+02  0.7816164E-02  0.1184000E+00
        -11   -1    0    0    0    0  0.00000000000E+00  0.00000000000E+00  0.45593999997E+02  0.45594000000E+02  0.51100000000E-03 0. -1.
         11   -1    0    0    0    0 -0.00000000000E+00 -0.00000000000E+00 -0.45593999997E+02  0.45594000000E+02  0.51100000000E-03 0.  1.
         23    2    1    2    0    0 -0.35527136788E-14 -0.35527136788E-14  0.88817841970E-15  0.91188000000E+02  0.91188000000E+02 0.  0.
    9900012    2    3    3    0    0 -0.19853658024E+02 -0.30300605823E+02  0.65942334319E+01  0.54367104238E+02  0.40000045731E+02 0.  0.
         12    1    3    3    0    0  0.19853658024E+02  0.30300605823E+02 -0.65942334319E+01  0.36820895762E+02  0.00000000000E+00 0. -1.
         11    1    4    4    0    0 -0.33525727854E+01 -0.36202698504E+01  0.93277780156E+01  0.10552418729E+02  0.51100000000E-03 0. -1.
        -11    1    4    4    0    0 -0.23802749216E+02 -0.27315186464E+02 -0.82240323639E+00  0.36240400511E+02  0.51100000000E-03 0.  1.
         12    1    4    4    0    0  0.73016639771E+01  0.63485049193E+00 -0.19111413473E+01  0.75742849980E+01  0.00000000000E+00 0. -1.
</event>
<event>
 8    1  0.1278459E-006  0.9118800E+02  0.7816164E-02  0.1184000E+00
        -11   -1    0    0    0    0  0.00000000000E+00  0.00000000000E+00  0.45593999997E+02  0.45594000000E+02  0.51100000000E-03 0. -1.
         11   -1    0    0    0    0 -0.00000000000E+00 -0.00000000000E+00 -0.45593999997E+02  0.45594000000E+02  0.51100000000E-03 0.  1.
         23    2    1    2    0    0  0.00000000000E+00  0.00000000000E+00  0.00000000000E+00  0.91188000000E+02  0.91188000000E+02 0.  0.
    9900012    2    3    3    0    0 -0.22259295418E+02 -0.27938553237E+02  0.89297482899E+01  0.54367090261E+02  0.40000013868E+02 0.  0.
        -12    1    3    3    0    0  0.22259295418E+02  0.27938553237E+02 -0.89297482899E+01  0.36820909739E+02  0.00000000000E+00 0.  1.
         11    1    4    4    0    0 -0.24766838321E+02 -0.15104241456E+02  0.13892870330E+02  0.32164362836E+02  0.51100000000E-03 0. -1.
        -11    1    4    4    0    0 -0.57377544213E+01 -0.18983077438E+01 -0.59372652336E+01  0.84721022659E+01  0.51100000000E-03 0.  1.
         12    1    4    4    0    0  0.82452973247E+01 -0.10936004038E+02  0.97414319306E+00  0.13730625159E+02  0.00000000000E+00 0. -1.
</event>
<event>
 8    1  0.1278459E-006  0.9118800E+02  0.7816164E-02  0.1184000E+00
        -11   -1    0    0    0    0  0.00000000000E+00  0.00000000000E+00  0.45593999997E+02  0.45594000000E+02  0.51100000000E-03 0. -1.
         11   -1    0    0    0    0 -0.00000000000E+00 -0.00000000000E+00 -0.45593999997E+02  0.45594000000E+02  0.51100000000E-03 0.  1.
         23    2    1    2    0    0  0.12212453271E-14  0.00000000000E+00  0.00000000000E+00  0.91188000000E+02  0.91188000000E+02 0.  0.
    9900012    2    3    3    0    0 -0.97201350657E+00  0.35292287707E+02 -0.10454250502E+02  0.54367058467E+02  0.39999941387E+02 0.  0.
        -12    1    3    3    0    0  0.97201350657E+00 -0.35292287707E+02  0.10454250502E+02  0.36820941533E+02  0.00000000000E+00 0.  1.
         11    1    4    4    0    0  0.71624305488E+01  0.55249835653E+01 -0.37062432913E+01  0.97755866504E+01  0.51100000000E-03 0. -1.
        -11    1    4    4    0    0 -0.19550723547E+02  0.21901372963E+02 -0.44342170357E+00  0.29361497781E+02  0.51100000000E-03 0.  1.
        -12    1    4    4    0    0  0.11416279491E+02  0.78659311786E+01 -0.63045855067E+01  0.15229974036E+02  0.00000000000E+00 0.  1.
</event>
<event>
 8    1  0.1278459E-006  0.9118800E+02  0.7816164E-02  0.1184000E+00
        -11   -1    0    0    0    0  0.00000000000E+00  0.00000000000E+00  0.45593999997E+02  0.45594000000E+02  0.51100000000E-03 0.  1.
         11   -1    0    0    0    0 -0.00000000000E+00 -0.00000000000E+00 -0.45593999997E+02  0.45594000000E+02  0.51100000000E-03 0. -1.
         23    2    1    2    0    0  0.00000000000E+00  0.00000000000E+00  0.00000000000E+00  0.91188000000E+02  0.91188000000E+02 0.  0.
    9900012    2    3    3    0    0  0.35526914558E+01  0.30768906324E+01  0.36519730584E+02  0.54367087539E+02  0.40000007663E+02 0.  0.
         12    1    3    3    0    0 -0.35526914558E+01 -0.30768906324E+01 -0.36519730584E+02  0.36820912461E+02  0.00000000000E+00 0. -1.
         11    1    4    4    0    0  0.20571791392E+02  0.80219246178E-01  0.21103513455E+02  0.29471398280E+02  0.51100000000E-03 0. -1.
        -11    1    4    4    0    0 -0.92711881676E+01  0.20140566859E+01  0.25157470649E+01  0.98153114026E+01  0.51100000000E-03 0.  1.
         12    1    4    4    0    0 -0.77479117683E+01  0.98261470032E+00  0.12900470064E+02  0.15080377856E+02  0.00000000000E+00 0. -1.
</event>
<event>
 8    1  0.1278459E-006  0.9118800E+02  0.7816164E-02  0.1184000E+00
        -11   -1    0    0    0    0  0.00000000000E+00  0.00000000000E+00  0.45593999997E+02  0.45594000000E+02  0.51100000000E-03 0.  1.
         11   -1    0    0    0    0 -0.00000000000E+00 -0.00000000000E+00 -0.45593999997E+02  0.45594000000E+02  0.51100000000E-03 0. -1.
         23    2    1    2    0    0 -0.35527136788E-14  0.00000000000E+00  0.35527136788E-14  0.91188000000E+02  0.91188000000E+02 0.  0.
    9900012    2    3    3    0    0  0.20460226889E+02  0.10681858042E+02 -0.28688976290E+02  0.54367077467E+02  0.39999984702E+02 0.  0.
        -12    1    3    3    0    0 -0.20460226889E+02 -0.10681858042E+02  0.28688976290E+02  0.36820922533E+02  0.00000000000E+00 0.  1.
         11    1    4    4    0    0  0.16454636591E+02  0.82525799344E+01 -0.32039517692E+02  0.36951195314E+02  0.51100000000E-03 0. -1.
        -11    1    4    4    0    0 -0.62391014503E+01  0.26667759441E+01  0.63529999454E+00  0.68148138043E+01  0.51100000000E-03 0.  1.
         12    1    4    4    0    0  0.10244691749E+02 -0.23749783668E+00  0.27152414075E+01  0.10601068350E+02  0.00000000000E+00 0. -1.
</event>
<event>
 8    1  0.1278459E-006  0.9118800E+02  0.7816164E-02  0.1184000E+00
        -11   -1    0    0    0    0  0.00000000000E+00  0.00000000000E+00  0.45593999997E+02  0.45594000000E+02  0.51100000000E-03 0. -1.
         11   -1    0    0    0    0 -0.00000000000E+00 -0.00000000000E+00 -0.45593999997E+02  0.45594000000E+02  0.51100000000E-03 0.  1.
         23    2    1    2    0    0  0.00000000000E+00  0.00000000000E+00  0.35527136788E-14  0.91188000000E+02  0.91188000000E+02 0.  0.
    9900012    2    3    3    0    0  0.17901603102E+02  0.19030493828E+02 -0.25945084688E+02  0.54367156604E+02  0.40000165109E+02 0.  0.
         12    1    3    3    0    0 -0.17901603102E+02 -0.19030493828E+02  0.25945084688E+02  0.36820843396E+02  0.00000000000E+00 0. -1.
         11    1    4    4    0    0 -0.51982350758E+01  0.10232817799E+02 -0.12584822924E+02  0.17032615075E+02  0.51100000000E-03 0. -1.
        -11    1    4    4    0    0  0.79326052876E+01  0.12800321113E+02  0.22243370856E+01  0.15222421718E+02  0.51100000000E-03 0.  1.
         12    1    4    4    0    0  0.15167232890E+02 -0.40026450837E+01 -0.15584598849E+02  0.22112119810E+02  0.00000000000E+00 0. -1.
</event>
<event>
 8    1  0.1278459E-006  0.9118800E+02  0.7816164E-02  0.1184000E+00
        -11   -1    0    0    0    0  0.00000000000E+00  0.00000000000E+00  0.45593999997E+02  0.45594000000E+02  0.51100000000E-03 0.  1.
         11   -1    0    0    0    0 -0.00000000000E+00 -0.00000000000E+00 -0.45593999997E+02  0.45594000000E+02  0.51100000000E-03 0. -1.
         23    2    1    2    0    0  0.00000000000E+00  0.00000000000E+00  0.17763568394E-14  0.91188000000E+02  0.91188000000E+02 0.  0.
    9900012    2    3    3    0    0 -0.16112844850E+02  0.31134155216E+02 -0.11261434687E+02  0.54367091519E+02  0.40000016736E+02 0.  0.
         12    1    3    3    0    0  0.16112844850E+02 -0.31134155216E+02  0.11261434687E+02  0.36820908481E+02  0.00000000000E+00 0. -1.
         11    1    4    4    0    0  0.35521966344E+01 -0.39515096732E+01  0.16054439867E+01  0.55506738584E+01  0.51100000000E-03 0. -1.
        -11    1    4    4    0    0 -0.72933013312E+01  0.24421672927E+01  0.54183151826E+01  0.94082179541E+01  0.51100000000E-03 0.  1.
        -12    1    4    4    0    0 -0.12371740154E+02  0.32643497596E+02 -0.18285193856E+02  0.39408199706E+02  0.00000000000E+00 0.  1.
</event>
<event>
 8    1  0.1278459E-006  0.9118800E+02  0.7816164E-02  0.1184000E+00
        -11   -1    0    0    0    0  0.00000000000E+00  0.00000000000E+00  0.45593999997E+02  0.45594000000E+02  0.51100000000E-03 0. -1.
         11   -1    0    0    0    0 -0.00000000000E+00 -0.00000000000E+00 -0.45593999997E+02  0.45594000000E+02  0.51100000000E-03 0.  1.
         23    2    1    2    0    0  0.17763568394E-14  0.00000000000E+00  0.00000000000E+00  0.91188000000E+02  0.91188000000E+02 0.  0.
    9900012    2    3    3    0    0 -0.13341930421E+02 -0.21634303970E+02  0.26640741172E+02  0.54367091458E+02  0.40000016597E+02 0.  0.
        -12    1    3    3    0    0  0.13341930421E+02  0.21634303970E+02 -0.26640741172E+02  0.36820908542E+02  0.00000000000E+00 0.  1.
         11    1    4    4    0    0 -0.16996828314E+02 -0.18907422563E+02  0.31428281133E+01  0.25617575403E+02  0.51100000000E-03 0. -1.
        -11    1    4    4    0    0  0.18249792664E+01 -0.13113814058E+01  0.25555069442E+02  0.25653690670E+02  0.51100000000E-03 0.  1.
        -12    1    4    4    0    0  0.18299186261E+01 -0.14155000011E+01 -0.20571563835E+01  0.30958253855E+01  0.00000000000E+00 0.  1.
</event>
<event>
 8    1  0.1278459E-006  0.9118800E+02  0.7816164E-02  0.1184000E+00
        -11   -1    0    0    0    0  0.00000000000E+00  0.00000000000E+00  0.45593999997E+02  0.45594000000E+02  0.51100000000E-03 0.  1.
         11   -1    0    0    0    0 -0.00000000000E+00 -0.00000000000E+00 -0.45593999997E+02  0.45594000000E+02  0.51100000000E-03 0. -1.
         23    2    1    2    0    0  0.71054273576E-14  0.00000000000E+00 -0.17763568394E-14  0.91188000000E+02  0.91188000000E+02 0.  0.
    9900012    2    3    3    0    0  0.35817722616E+02 -0.55002287852E+01 -0.65283840704E+01  0.54367060731E+02  0.39999946548E+02 0.  0.
         12    1    3    3    0    0 -0.35817722616E+02  0.55002287852E+01  0.65283840704E+01  0.36820939269E+02  0.00000000000E+00 0. -1.
         11    1    4    4    0    0  0.73767197142E+01  0.85226823540E+01 -0.17375361427E+01  0.11404873535E+02  0.51100000000E-03 0. -1.
        -11    1    4    4    0    0 -0.55386691356E+01 -0.35317608391E+00 -0.29607405079E+01  0.62902761272E+01  0.51100000000E-03 0.  1.
        -12    1    4    4    0    0  0.33979672037E+02 -0.13669735055E+02 -0.18301074198E+01  0.36671911068E+02  0.00000000000E+00 0.  1.
</event>
<event>
 8    1  0.1278459E-006  0.9118800E+02  0.7816164E-02  0.1184000E+00
        -11   -1    0    0    0    0  0.00000000000E+00  0.00000000000E+00  0.45593999997E+02  0.45594000000E+02  0.51100000000E-03 0.  1.
         11   -1    0    0    0    0 -0.00000000000E+00 -0.00000000000E+00 -0.45593999997E+02  0.45594000000E+02  0.51100000000E-03 0. -1.
         23    2    1    2    0    0  0.00000000000E+00  0.00000000000E+00  0.00000000000E+00  0.91188000000E+02  0.91188000000E+02 0.  0.
    9900012    2    3    3    0    0  0.97020264861E+01  0.19222262587E+02 -0.29868969349E+02  0.54367081667E+02  0.39999994277E+02 0.  0.
        -12    1    3    3    0    0 -0.97020264861E+01 -0.19222262587E+02  0.29868969349E+02  0.36820918333E+02  0.00000000000E+00 0.  1.
         11    1    4    4    0    0  0.13419152436E+01  0.19250666101E+02 -0.16092228039E+02  0.25126652889E+02  0.51100000000E-03 0. -1.
        -11    1    4    4    0    0 -0.26133379017E+01  0.77455464190E+01  0.20937614862E+01  0.84384158312E+01  0.51100000000E-03 0.  1.
         12    1    4    4    0    0  0.10973449144E+02 -0.77739499328E+01 -0.15870502795E+02  0.20802012947E+02  0.00000000000E+00 0. -1.
</event>
<event>
 8    1  0.1278459E-006  0.9118800E+02  0.7816164E-02  0.1184000E+00
        -11   -1    0    0    0    0  0.00000000000E+00  0.00000000000E+00  0.45593999997E+02  0.45594000000E+02  0.51100000000E-03 0. -1.
         11   -1    0    0    0    0 -0.00000000000E+00 -0.00000000000E+00 -0.45593999997E+02  0.45594000000E+02  0.51100000000E-03 0.  1.
         23    2    1    2    0    0  0.00000000000E+00  0.00000000000E+00  0.00000000000E+00  0.91188000000E+02  0.91188000000E+02 0.  0.
    9900012    2    3    3    0    0  0.87262616066E+01  0.29846423604E+02  0.19718602939E+02  0.54367082773E+02  0.39999996798E+02 0.  0.
        -12    1    3    3    0    0 -0.87262616066E+01 -0.29846423604E+02 -0.19718602939E+02  0.36820917227E+02  0.00000000000E+00 0.  1.
         11    1    4    4    0    0 -0.48241666600E+01  0.94944507212E+01  0.14898815588E+02  0.18313707562E+02  0.51100000000E-03 0. -1.
        -11    1    4    4    0    0 -0.57485793346E+01  0.14213261645E+02  0.36929294595E+01  0.15770247278E+02  0.51100000000E-03 0.  1.
         12    1    4    4    0    0  0.19299007601E+02  0.61387112378E+01  0.11268578912E+01  0.20283127933E+02  0.00000000000E+00 0. -1.
</event>
<event>
 8    1  0.1278459E-006  0.9118800E+02  0.7816164E-02  0.1184000E+00
        -11   -1    0    0    0    0  0.00000000000E+00  0.00000000000E+00  0.45593999997E+02  0.45594000000E+02  0.51100000000E-03 0.  1.
         11   -1    0    0    0    0 -0.00000000000E+00 -0.00000000000E+00 -0.45593999997E+02  0.45594000000E+02  0.51100000000E-03 0. -1.
         23    2    1    2    0    0  0.00000000000E+00  0.71054273576E-14  0.00000000000E+00  0.91188000000E+02  0.91188000000E+02 0.  0.
    9900012    2    3    3    0    0 -0.41460781900E+01 -0.35523663620E+02  0.87555969531E+01  0.54367066832E+02  0.39999960456E+02 0.  0.
        -12    1    3    3    0    0  0.41460781900E+01  0.35523663620E+02 -0.87555969531E+01  0.36820933168E+02  0.00000000000E+00 0.  1.
         11    1    4    4    0    0 -0.95510816448E+01  0.17633639952E+01  0.43101133873E+01  0.10625897178E+02  0.51100000000E-03 0. -1.
        -11    1    4    4    0    0 -0.80256177590E+01 -0.11810463694E+02 -0.14209961870E+01  0.14349802211E+02  0.51100000000E-03 0.  1.
         12    1    4    4    0    0  0.13430621214E+02 -0.25476563922E+02  0.58664797528E+01  0.29391367443E+02  0.00000000000E+00 0. -1.
</event>
<event>
 8    1  0.1278459E-006  0.9118800E+02  0.7816164E-02  0.1184000E+00
        -11   -1    0    0    0    0  0.00000000000E+00  0.00000000000E+00  0.45593999997E+02  0.45594000000E+02  0.51100000000E-03 0. -1.
         11   -1    0    0    0    0 -0.00000000000E+00 -0.00000000000E+00 -0.45593999997E+02  0.45594000000E+02  0.51100000000E-03 0.  1.
         23    2    1    2    0    0  0.00000000000E+00 -0.35527136788E-14  0.00000000000E+00  0.91188000000E+02  0.91188000000E+02 0.  0.
    9900012    2    3    3    0    0  0.14715234805E+02  0.30532763662E+02  0.14387305735E+02  0.54367050005E+02  0.39999922097E+02 0.  0.
        -12    1    3    3    0    0 -0.14715234805E+02 -0.30532763662E+02 -0.14387305735E+02  0.36820949995E+02  0.00000000000E+00 0.  1.
         11    1    4    4    0    0  0.34757440428E+01  0.21848377687E+02  0.36070021741E+01  0.22415237432E+02  0.51100000000E-03 0. -1.
        -11    1    4    4    0    0 -0.78666328878E+01  0.61254883298E+01  0.73155474719E+01  0.12366194053E+02  0.51100000000E-03 0.  1.
        -12    1    4    4    0    0  0.19106123650E+02  0.25588976452E+01  0.34647560892E+01  0.19585618521E+02  0.00000000000E+00 0.  1.
</event>
<event>
 8    1  0.1278459E-006  0.9118800E+02  0.7816164E-02  0.1184000E+00
        -11   -1    0    0    0    0  0.00000000000E+00  0.00000000000E+00  0.45593999997E+02  0.45594000000E+02  0.51100000000E-03 0. -1.
         11   -1    0    0    0    0 -0.00000000000E+00 -0.00000000000E+00 -0.45593999997E+02  0.45594000000E+02  0.51100000000E-03 0.  1.
         23    2    1    2    0    0  0.17763568394E-14  0.00000000000E+00  0.00000000000E+00  0.91188000000E+02  0.91188000000E+02 0.  0.
    9900012    2    3    3    0    0  0.14781848267E+02 -0.33301295465E+02  0.53199451334E+01  0.54367066632E+02  0.39999960002E+02 0.  0.
         12    1    3    3    0    0 -0.14781848267E+02  0.33301295465E+02 -0.53199451334E+01  0.36820933368E+02  0.00000000000E+00 0. -1.
         11    1    4    4    0    0 -0.12916743947E+01 -0.17724642445E+02  0.63589237285E+01  0.18875043941E+02  0.51100000000E-03 0. -1.
        -11    1    4    4    0    0  0.63329908113E+01 -0.15838098587E+02  0.10776949753E+02  0.20176590042E+02  0.51100000000E-03 0.  1.
        -12    1    4    4    0    0  0.97405318507E+01  0.26144556673E+00 -0.11815928348E+02  0.15315432650E+02  0.00000000000E+00 0.  1.
</event>
<event>
 8    1  0.1278459E-006  0.9118800E+02  0.7816164E-02  0.1184000E+00
        -11   -1    0    0    0    0  0.00000000000E+00  0.00000000000E+00  0.45593999997E+02  0.45594000000E+02  0.51100000000E-03 0. -1.
         11   -1    0    0    0    0 -0.00000000000E+00 -0.00000000000E+00 -0.45593999997E+02  0.45594000000E+02  0.51100000000E-03 0.  1.
         23    2    1    2    0    0  0.00000000000E+00  0.00000000000E+00  0.00000000000E+00  0.91188000000E+02  0.91188000000E+02 0.  0.
    9900012    2    3    3    0    0  0.19033251994E+02  0.19251887703E+02  0.24957699975E+02  0.54366991735E+02  0.39999789258E+02 0.  0.
        -12    1    3    3    0    0 -0.19033251994E+02 -0.19251887703E+02 -0.24957699975E+02  0.36821008265E+02  0.00000000000E+00 0.  1.
         11    1    4    4    0    0  0.93677215309E+01  0.14789892490E+02  0.17250988177E+02  0.24578277399E+02  0.51100000000E-03 0. -1.
        -11    1    4    4    0    0 -0.30979401861E+01  0.12540175919E+02  0.19428404283E+00  0.12918629650E+02  0.51100000000E-03 0.  1.
        -12    1    4    4    0    0  0.12763470649E+02 -0.80781807066E+01  0.75124277560E+01  0.16870084687E+02  0.00000000000E+00 0.  1.
</event>
<event>
 8    1  0.1278459E-006  0.9118800E+02  0.7816164E-02  0.1184000E+00
        -11   -1    0    0    0    0  0.00000000000E+00  0.00000000000E+00  0.45593999997E+02  0.45594000000E+02  0.51100000000E-03 0. -1.
         11   -1    0    0    0    0 -0.00000000000E+00 -0.00000000000E+00 -0.45593999997E+02  0.45594000000E+02  0.51100000000E-03 0.  1.
         23    2    1    2    0    0 -0.22204460493E-14  0.00000000000E+00  0.00000000000E+00  0.91188000000E+02  0.91188000000E+02 0.  0.
    9900012    2    3    3    0    0  0.41041699845E+00  0.18699047345E+02  0.31716837861E+02  0.54367073645E+02  0.39999975988E+02 0.  0.
        -12    1    3    3    0    0 -0.41041699845E+00 -0.18699047345E+02 -0.31716837861E+02  0.36820926355E+02  0.00000000000E+00 0.  1.
         11    1    4    4    0    0 -0.11922452697E+02  0.30920229172E+01  0.15061191436E+02  0.19456232209E+02  0.51100000000E-03 0. -1.
        -11    1    4    4    0    0  0.11478740358E+02  0.21557704639E+02  0.15051842522E+02  0.28688918995E+02  0.51100000000E-03 0.  1.
        -12    1    4    4    0    0  0.85412933750E+00 -0.59506802114E+01  0.16038039034E+01  0.62219224411E+01  0.00000000000E+00 0.  1.
</event>
<event>
 8    1  0.1278459E-006  0.9118800E+02  0.7816164E-02  0.1184000E+00
        -11   -1    0    0    0    0  0.00000000000E+00  0.00000000000E+00  0.45593999997E+02  0.45594000000E+02  0.51100000000E-03 0. -1.
         11   -1    0    0    0    0 -0.00000000000E+00 -0.00000000000E+00 -0.45593999997E+02  0.45594000000E+02  0.51100000000E-03 0.  1.
         23    2    1    2    0    0 -0.17763568394E-14  0.00000000000E+00 -0.35527136788E-14  0.91188000000E+02  0.91188000000E+02 0.  0.
    9900012    2    3    3    0    0 -0.15191343610E+02  0.17273239155E+02 -0.28751310481E+02  0.54367087926E+02  0.40000008545E+02 0.  0.
         12    1    3    3    0    0  0.15191343610E+02 -0.17273239155E+02  0.28751310481E+02  0.36820912074E+02  0.00000000000E+00 0. -1.
         11    1    4    4    0    0 -0.15606048186E+02 -0.19318786164E+01 -0.15875450977E+00  0.15725968912E+02  0.51100000000E-03 0. -1.
        -11    1    4    4    0    0 -0.81242255032E+01  0.10417956781E+02 -0.10939341881E+02  0.17152436112E+02  0.51100000000E-03 0.  1.
         12    1    4    4    0    0  0.85389300790E+01  0.87871609906E+01 -0.17653214090E+02  0.21488682902E+02  0.00000000000E+00 0. -1.
</event>
<event>
 8    1  0.1278459E-006  0.9118800E+02  0.7816164E-02  0.1184000E+00
        -11   -1    0    0    0    0  0.00000000000E+00  0.00000000000E+00  0.45593999997E+02  0.45594000000E+02  0.51100000000E-03 0.  1.
         11   -1    0    0    0    0 -0.00000000000E+00 -0.00000000000E+00 -0.45593999997E+02  0.45594000000E+02  0.51100000000E-03 0. -1.
         23    2    1    2    0    0  0.00000000000E+00 -0.88817841970E-15 -0.17763568394E-14  0.91188000000E+02  0.91188000000E+02 0.  0.
    9900012    2    3    3    0    0 -0.35669574547E+02  0.70147242592E+01  0.58527762269E+01  0.54367083467E+02  0.39999998380E+02 0.  0.
        -12    1    3    3    0    0  0.35669574547E+02 -0.70147242592E+01 -0.58527762269E+01  0.36820916533E+02  0.00000000000E+00 0.  1.
         11    1    4    4    0    0 -0.25443439394E+02  0.18126774343E+02 -0.39018405248E+01  0.31482898787E+02  0.51100000000E-03 0. -1.
        -11    1    4    4    0    0 -0.12588341316E+02 -0.11002284641E+02  0.47999796888E+01  0.17394148720E+02  0.51100000000E-03 0.  1.
         12    1    4    4    0    0  0.23622061643E+01 -0.10976544268E+00  0.49546370629E+01  0.54900359598E+01  0.00000000000E+00 0. -1.
</event>
<event>
 8    1  0.1278459E-006  0.9118800E+02  0.7816164E-02  0.1184000E+00
        -11   -1    0    0    0    0  0.00000000000E+00  0.00000000000E+00  0.45593999997E+02  0.45594000000E+02  0.51100000000E-03 0.  1.
         11   -1    0    0    0    0 -0.00000000000E+00 -0.00000000000E+00 -0.45593999997E+02  0.45594000000E+02  0.51100000000E-03 0. -1.
         23    2    1    2    0    0  0.00000000000E+00  0.00000000000E+00  0.00000000000E+00  0.91188000000E+02  0.91188000000E+02 0.  0.
    9900012    2    3    3    0    0  0.26399107763E+02 -0.24967075187E+02 -0.59591957474E+01  0.54367085454E+02  0.40000002908E+02 0.  0.
         12    1    3    3    0    0 -0.26399107763E+02  0.24967075187E+02  0.59591957474E+01  0.36820914546E+02  0.00000000000E+00 0. -1.
         11    1    4    4    0    0 -0.66511545346E+01 -0.99650814416E+00 -0.43650175123E+01  0.80177467701E+01  0.51100000000E-03 0. -1.
        -11    1    4    4    0    0  0.99189481944E+01 -0.20703345883E+02 -0.47765993703E+00  0.22961755667E+02  0.51100000000E-03 0.  1.
        -12    1    4    4    0    0  0.23131314103E+02 -0.32672211603E+01 -0.11165182980E+01  0.23387583017E+02  0.00000000000E+00 0.  1.
</event>
<event>
 8    1  0.1278459E-006  0.9118800E+02  0.7816164E-02  0.1184000E+00
        -11   -1    0    0    0    0  0.00000000000E+00  0.00000000000E+00  0.45593999997E+02  0.45594000000E+02  0.51100000000E-03 0. -1.
         11   -1    0    0    0    0 -0.00000000000E+00 -0.00000000000E+00 -0.45593999997E+02  0.45594000000E+02  0.51100000000E-03 0.  1.
         23    2    1    2    0    0  0.00000000000E+00  0.00000000000E+00  0.00000000000E+00  0.91188000000E+02  0.91188000000E+02 0.  0.
    9900012    2    3    3    0    0 -0.63727094307E+01  0.27405322317E+02 -0.23751119542E+02  0.54367098378E+02  0.40000032372E+02 0.  0.
        -12    1    3    3    0    0  0.63727094307E+01 -0.27405322317E+02  0.23751119542E+02  0.36820901622E+02  0.00000000000E+00 0.  1.
         11    1    4    4    0    0  0.63133192386E+01  0.14998558258E+02 -0.11484420697E+01  0.16313603804E+02  0.51100000000E-03 0. -1.
        -11    1    4    4    0    0  0.25759520102E+01  0.13105107470E+02 -0.17355466966E+02  0.21899580005E+02  0.51100000000E-03 0.  1.
        -12    1    4    4    0    0 -0.15261980679E+02 -0.69834341106E+00 -0.52472105063E+01  0.16153914568E+02  0.00000000000E+00 0.  1.
</event>
<event>
 8    1  0.1278459E-006  0.9118800E+02  0.7816164E-02  0.1184000E+00
        -11   -1    0    0    0    0  0.00000000000E+00  0.00000000000E+00  0.45593999997E+02  0.45594000000E+02  0.51100000000E-03 0.  1.
         11   -1    0    0    0    0 -0.00000000000E+00 -0.00000000000E+00 -0.45593999997E+02  0.45594000000E+02  0.51100000000E-03 0. -1.
         23    2    1    2    0    0  0.17763568394E-14  0.88817841970E-15  0.00000000000E+00  0.91188000000E+02  0.91188000000E+02 0.  0.
    9900012    2    3    3    0    0 -0.72948084374E+01 -0.57798020131E+01  0.35625267418E+02  0.54367081759E+02  0.39999994487E+02 0.  0.
         12    1    3    3    0    0  0.72948084374E+01  0.57798020131E+01 -0.35625267418E+02  0.36820918241E+02  0.00000000000E+00 0. -1.
         11    1    4    4    0    0 -0.28547548104E+01  0.45452146891E+01  0.21151389074E+02  0.21821774942E+02  0.51100000000E-03 0. -1.
        -11    1    4    4    0    0 -0.67767337828E+01  0.81086645949E+01  0.51266187742E+01  0.11745500525E+02  0.51100000000E-03 0.  1.
         12    1    4    4    0    0  0.23366801559E+01 -0.18433681297E+02  0.93472595706E+01  0.20799806292E+02  0.00000000000E+00 0. -1.
</event>
<event>
 8    1  0.1278459E-006  0.9118800E+02  0.7816164E-02  0.1184000E+00
        -11   -1    0    0    0    0  0.00000000000E+00  0.00000000000E+00  0.45593999997E+02  0.45594000000E+02  0.51100000000E-03 0. -1.
         11   -1    0    0    0    0 -0.00000000000E+00 -0.00000000000E+00 -0.45593999997E+02  0.45594000000E+02  0.51100000000E-03 0.  1.
         23    2    1    2    0    0  0.35527136788E-14  0.00000000000E+00  0.00000000000E+00  0.91188000000E+02  0.91188000000E+02 0.  0.
    9900012    2    3    3    0    0 -0.30468938202E+02 -0.11713528464E+02  0.17035854355E+02  0.54367037522E+02  0.39999893639E+02 0.  0.
        -12    1    3    3    0    0  0.30468938202E+02  0.11713528464E+02 -0.17035854355E+02  0.36820962478E+02  0.00000000000E+00 0.  1.
         11    1    4    4    0    0 -0.15222932732E+02 -0.28267694160E+01  0.21131928519E+02  0.26197074446E+02  0.51100000000E-03 0. -1.
        -11    1    4    4    0    0 -0.45168672372E+01  0.71772341886E+01 -0.31641114970E+00  0.84861591143E+01  0.51100000000E-03 0.  1.
         12    1    4    4    0    0 -0.10729138232E+02 -0.16063993236E+02 -0.37796630151E+01  0.19683803962E+02  0.00000000000E+00 0. -1.
</event>
<event>
 8    1  0.1278459E-006  0.9118800E+02  0.7816164E-02  0.1184000E+00
        -11   -1    0    0    0    0  0.00000000000E+00  0.00000000000E+00  0.45593999997E+02  0.45594000000E+02  0.51100000000E-03 0. -1.
         11   -1    0    0    0    0 -0.00000000000E+00 -0.00000000000E+00 -0.45593999997E+02  0.45594000000E+02  0.51100000000E-03 0.  1.
         23    2    1    2    0    0  0.88817841970E-15 -0.17763568394E-14  0.71054273576E-14  0.91188000000E+02  0.91188000000E+02 0.  0.
    9900012    2    3    3    0    0  0.67727152237E+01  0.15641852585E+02 -0.32638043773E+02  0.54367093912E+02  0.40000022192E+02 0.  0.
         12    1    3    3    0    0 -0.67727152237E+01 -0.15641852585E+02  0.32638043773E+02  0.36820906088E+02  0.00000000000E+00 0. -1.
         11    1    4    4    0    0 -0.45643901244E+01  0.44548322404E+01  0.44678965164E+01  0.77872515717E+01  0.51100000000E-03 0. -1.
        -11    1    4    4    0    0 -0.11558338326E+01 -0.44246381220E+01 -0.19206845463E+02  0.19743765782E+02  0.51100000000E-03 0.  1.
         12    1    4    4    0    0  0.12492939181E+02  0.15611658466E+02 -0.17899094827E+02  0.26836076559E+02  0.00000000000E+00 0. -1.
</event>
<event>
 8    1  0.1278459E-006  0.9118800E+02  0.7816164E-02  0.1184000E+00
        -11   -1    0    0    0    0  0.00000000000E+00  0.00000000000E+00  0.45593999997E+02  0.45594000000E+02  0.51100000000E-03 0. -1.
         11   -1    0    0    0    0 -0.00000000000E+00 -0.00000000000E+00 -0.45593999997E+02  0.45594000000E+02  0.51100000000E-03 0.  1.
         23    2    1    2    0    0  0.71054273576E-14 -0.17763568394E-14  0.35527136788E-14  0.91188000000E+02  0.91188000000E+02 0.  0.
    9900012    2    3    3    0    0 -0.32737211428E+02 -0.13041772322E+02  0.10675569067E+02  0.54367073718E+02  0.39999976155E+02 0.  0.
         12    1    3    3    0    0  0.32737211428E+02  0.13041772322E+02 -0.10675569067E+02  0.36820926282E+02  0.00000000000E+00 0. -1.
         11    1    4    4    0    0  0.10586998916E+01  0.15906352053E+01  0.85608128297E+01  0.87714583955E+01  0.51100000000E-03 0. -1.
        -11    1    4    4    0    0  0.22180834261E+01 -0.36302166852E+01 -0.57235236092E+01  0.71314157102E+01  0.51100000000E-03 0.  1.
        -12    1    4    4    0    0 -0.36013994746E+02 -0.11002190842E+02  0.78382798464E+01  0.38464199612E+02  0.00000000000E+00 0.  1.
</event>
<event>
 8    1  0.1278459E-006  0.9118800E+02  0.7816164E-02  0.1184000E+00
        -11   -1    0    0    0    0  0.00000000000E+00  0.00000000000E+00  0.45593999997E+02  0.45594000000E+02  0.51100000000E-03 0.  1.
         11   -1    0    0    0    0 -0.00000000000E+00 -0.00000000000E+00 -0.45593999997E+02  0.45594000000E+02  0.51100000000E-03 0. -1.
         23    2    1    2    0    0  0.00000000000E+00  0.00000000000E+00  0.00000000000E+00  0.91188000000E+02  0.91188000000E+02 0.  0.
    9900012    2    3    3    0    0  0.11412356846E+02 -0.92878865565E+01 -0.33753126194E+02  0.54367078592E+02  0.39999987267E+02 0.  0.
        -12    1    3    3    0    0 -0.11412356846E+02  0.92878865565E+01  0.33753126194E+02  0.36820921408E+02  0.00000000000E+00 0.  1.
         11    1    4    4    0    0  0.68410757008E+01  0.11422289034E+02 -0.13585058203E+02  0.19021640575E+02  0.51100000000E-03 0. -1.
        -11    1    4    4    0    0 -0.37380803287E+01 -0.95577603821E+01  0.67886866889E+00  0.10285178219E+02  0.51100000000E-03 0.  1.
         12    1    4    4    0    0  0.83093614743E+01 -0.11152415208E+02 -0.20846936660E+02  0.25060259799E+02  0.00000000000E+00 0. -1.
</event>
<event>
 8    1  0.1278459E-006  0.9118800E+02  0.7816164E-02  0.1184000E+00
        -11   -1    0    0    0    0  0.00000000000E+00  0.00000000000E+00  0.45593999997E+02  0.45594000000E+02  0.51100000000E-03 0. -1.
         11   -1    0    0    0    0 -0.00000000000E+00 -0.00000000000E+00 -0.45593999997E+02  0.45594000000E+02  0.51100000000E-03 0.  1.
         23    2    1    2    0    0 -0.35527136788E-14  0.88817841970E-15  0.00000000000E+00  0.91188000000E+02  0.91188000000E+02 0.  0.
    9900012    2    3    3    0    0  0.30178409732E+02 -0.69510247704E+01  0.19917977027E+02  0.54367096044E+02  0.40000027052E+02 0.  0.
         12    1    3    3    0    0 -0.30178409732E+02  0.69510247704E+01 -0.19917977027E+02  0.36820903956E+02  0.00000000000E+00 0. -1.
         11    1    4    4    0    0  0.21920532105E+02 -0.12766566680E+02  0.10414819016E+02  0.27421951206E+02  0.51100000000E-03 0. -1.
        -11    1    4    4    0    0  0.88763243715E+01  0.73289234375E+01 -0.48559270707E+01  0.12493289442E+02  0.51100000000E-03 0.  1.
         12    1    4    4    0    0 -0.61844674456E+00 -0.15133815279E+01  0.14359085081E+02  0.14451855396E+02  0.00000000000E+00 0. -1.
</event>
<event>
 8    1  0.1278459E-006  0.9118800E+02  0.7816164E-02  0.1184000E+00
        -11   -1    0    0    0    0  0.00000000000E+00  0.00000000000E+00  0.45593999997E+02  0.45594000000E+02  0.51100000000E-03 0.  1.
         11   -1    0    0    0    0 -0.00000000000E+00 -0.00000000000E+00 -0.45593999997E+02  0.45594000000E+02  0.51100000000E-03 0. -1.
         23    2    1    2    0    0  0.35527136788E-14  0.00000000000E+00  0.00000000000E+00  0.91188000000E+02  0.91188000000E+02 0.  0.
    9900012    2    3    3    0    0  0.27593382383E+02  0.53995819595E+01 -0.23774556331E+02  0.54367085218E+02  0.40000002371E+02 0.  0.
        -12    1    3    3    0    0 -0.27593382383E+02 -0.53995819595E+01  0.23774556331E+02  0.36820914782E+02  0.00000000000E+00 0.  1.
         11    1    4    4    0    0  0.11795517620E+02  0.50007374875E+01 -0.10028045736E+02  0.16269705372E+02  0.51100000000E-03 0. -1.
        -11    1    4    4    0    0  0.18410313654E+02 -0.18976059509E+01  0.48868517791E+01  0.19142149246E+02  0.51100000000E-03 0.  1.
        -12    1    4    4    0    0 -0.26124488902E+01  0.22964504229E+01 -0.18633362374E+02  0.18955230600E+02  0.00000000000E+00 0.  1.
</event>
<event>
 8    1  0.1278459E-006  0.9118800E+02  0.7816164E-02  0.1184000E+00
        -11   -1    0    0    0    0  0.00000000000E+00  0.00000000000E+00  0.45593999997E+02  0.45594000000E+02  0.51100000000E-03 0. -1.
         11   -1    0    0    0    0 -0.00000000000E+00 -0.00000000000E+00 -0.45593999997E+02  0.45594000000E+02  0.51100000000E-03 0.  1.
         23    2    1    2    0    0  0.00000000000E+00  0.00000000000E+00  0.00000000000E+00  0.91188000000E+02  0.91188000000E+02 0.  0.
    9900012    2    3    3    0    0 -0.26552270869E+02 -0.21793745825E+02  0.13258567216E+02  0.54367081353E+02  0.39999993560E+02 0.  0.
        -12    1    3    3    0    0  0.26552270869E+02  0.21793745825E+02 -0.13258567216E+02  0.36820918647E+02  0.00000000000E+00 0.  1.
         11    1    4    4    0    0 -0.12979406130E+02 -0.15217133244E+02  0.21825757636E+02  0.29603881913E+02  0.51100000000E-03 0. -1.
        -11    1    4    4    0    0 -0.10544459031E+02 -0.11399450302E+02 -0.13747389271E+01  0.15589194682E+02  0.51100000000E-03 0.  1.
         12    1    4    4    0    0 -0.30284057077E+01  0.48228377213E+01 -0.71924514930E+01  0.91740047577E+01  0.00000000000E+00 0. -1.
</event>
<event>
 8    1  0.1278459E-006  0.9118800E+02  0.7816164E-02  0.1184000E+00
        -11   -1    0    0    0    0  0.00000000000E+00  0.00000000000E+00  0.45593999997E+02  0.45594000000E+02  0.51100000000E-03 0. -1.
         11   -1    0    0    0    0 -0.00000000000E+00 -0.00000000000E+00 -0.45593999997E+02  0.45594000000E+02  0.51100000000E-03 0.  1.
         23    2    1    2    0    0  0.17763568394E-14  0.00000000000E+00  0.00000000000E+00  0.91188000000E+02  0.91188000000E+02 0.  0.
    9900012    2    3    3    0    0 -0.97333752613E+01 -0.29087402869E+02 -0.20370653423E+02  0.54367093974E+02  0.40000022333E+02 0.  0.
         12    1    3    3    0    0  0.97333752613E+01  0.29087402869E+02  0.20370653423E+02  0.36820906026E+02  0.00000000000E+00 0. -1.
         11    1    4    4    0    0  0.62704980403E+01 -0.11092079852E+02  0.52459333564E+01  0.13779448398E+02  0.51100000000E-03 0. -1.
        -11    1    4    4    0    0 -0.60561045975E+01 -0.18504061340E+02 -0.95549717931E+01  0.21688111380E+02  0.51100000000E-03 0.  1.
         12    1    4    4    0    0 -0.99477687041E+01  0.50873832336E+00 -0.16061614986E+02  0.18899534196E+02  0.00000000000E+00 0. -1.
</event>
<event>
 8    1  0.1278459E-006  0.9118800E+02  0.7816164E-02  0.1184000E+00
        -11   -1    0    0    0    0  0.00000000000E+00  0.00000000000E+00  0.45593999997E+02  0.45594000000E+02  0.51100000000E-03 0.  1.
         11   -1    0    0    0    0 -0.00000000000E+00 -0.00000000000E+00 -0.45593999997E+02  0.45594000000E+02  0.51100000000E-03 0. -1.
         23    2    1    2    0    0 -0.35527136788E-14  0.00000000000E+00  0.35527136788E-14  0.91188000000E+02  0.91188000000E+02 0.  0.
    9900012    2    3    3    0    0  0.25115799490E+02 -0.17212514535E+02 -0.20705214994E+02  0.54367082459E+02  0.39999996082E+02 0.  0.
        -12    1    3    3    0    0 -0.25115799490E+02  0.17212514535E+02  0.20705214994E+02  0.36820917541E+02  0.00000000000E+00 0.  1.
         11    1    4    4    0    0  0.25296359016E+02 -0.18630028387E+02 -0.21686686980E+02  0.38174548191E+02  0.51100000000E-03 0. -1.
        -11    1    4    4    0    0  0.72634666473E+00  0.46584980471E+01 -0.64762024167E+01  0.80106417680E+01  0.51100000000E-03 0.  1.
         12    1    4    4    0    0 -0.90690619083E+00 -0.32409841947E+01  0.74576744025E+01  0.81818925000E+01  0.00000000000E+00 0. -1.
</event>
<event>
 8    1  0.1278459E-006  0.9118800E+02  0.7816164E-02  0.1184000E+00
        -11   -1    0    0    0    0  0.00000000000E+00  0.00000000000E+00  0.45593999997E+02  0.45594000000E+02  0.51100000000E-03 0.  1.
         11   -1    0    0    0    0 -0.00000000000E+00 -0.00000000000E+00 -0.45593999997E+02  0.45594000000E+02  0.51100000000E-03 0. -1.
         23    2    1    2    0    0 -0.88817841970E-15  0.00000000000E+00  0.00000000000E+00  0.91188000000E+02  0.91188000000E+02 0.  0.
    9900012    2    3    3    0    0 -0.53600128368E+01 -0.15150567899E+02  0.33128696386E+02  0.54367082446E+02  0.39999996052E+02 0.  0.
         12    1    3    3    0    0  0.53600128368E+01  0.15150567899E+02 -0.33128696386E+02  0.36820917554E+02  0.00000000000E+00 0. -1.
         11    1    4    4    0    0  0.74460795940E+01  0.25763668381E+01 -0.25375944732E+01  0.82777505021E+01  0.51100000000E-03 0. -1.
        -11    1    4    4    0    0 -0.17496399831E+02 -0.14879015935E+02  0.32362573346E+02  0.39684320280E+02  0.51100000000E-03 0.  1.
        -12    1    4    4    0    0  0.46903074000E+01 -0.28479188017E+01  0.33037175132E+01  0.64050116639E+01  0.00000000000E+00 0.  1.
</event>
<event>
 8    1  0.1278459E-006  0.9118800E+02  0.7816164E-02  0.1184000E+00
        -11   -1    0    0    0    0  0.00000000000E+00  0.00000000000E+00  0.45593999997E+02  0.45594000000E+02  0.51100000000E-03 0. -1.
         11   -1    0    0    0    0 -0.00000000000E+00 -0.00000000000E+00 -0.45593999997E+02  0.45594000000E+02  0.51100000000E-03 0.  1.
         23    2    1    2    0    0 -0.44408920985E-15  0.00000000000E+00 -0.35527136788E-14  0.91188000000E+02  0.91188000000E+02 0.  0.
    9900012    2    3    3    0    0  0.31896397810E+01 -0.21356486160E+02  0.29824599725E+02  0.54367081329E+02  0.39999993505E+02 0.  0.
        -12    1    3    3    0    0 -0.31896397810E+01  0.21356486160E+02 -0.29824599725E+02  0.36820918671E+02  0.00000000000E+00 0.  1.
         11    1    4    4    0    0  0.14209786977E+02 -0.12318078779E+02  0.16686404570E+02  0.25141384378E+02  0.51100000000E-03 0. -1.
        -11    1    4    4    0    0 -0.10116046711E+02 -0.15816051557E+02  0.69998948918E+01  0.20036976235E+02  0.51100000000E-03 0.  1.
        -12    1    4    4    0    0 -0.90410048505E+00  0.67776441756E+01  0.61383002635E+01  0.91887207153E+01  0.00000000000E+00 0.  1.
</event>
<event>
 8    1  0.1278459E-006  0.9118800E+02  0.7816164E-02  0.1184000E+00
        -11   -1    0    0    0    0  0.00000000000E+00  0.00000000000E+00  0.45593999997E+02  0.45594000000E+02  0.51100000000E-03 0. -1.
         11   -1    0    0    0    0 -0.00000000000E+00 -0.00000000000E+00 -0.45593999997E+02  0.45594000000E+02  0.51100000000E-03 0.  1.
         23    2    1    2    0    0  0.17763568394E-14 -0.88817841970E-15  0.00000000000E+00  0.91188000000E+02  0.91188000000E+02 0.  0.
    9900012    2    3    3    0    0  0.13258146310E+02 -0.73166469589E+01 -0.33562930823E+02  0.54367053628E+02  0.39999930356E+02 0.  0.
         12    1    3    3    0    0 -0.13258146310E+02  0.73166469589E+01  0.33562930823E+02  0.36820946372E+02  0.00000000000E+00 0. -1.
         11    1    4    4    0    0  0.52327563762E+01  0.43205791099E+01  0.56288857862E-01  0.67861853669E+01  0.51100000000E-03 0. -1.
        -11    1    4    4    0    0  0.16114609120E+02 -0.48975207474E+01 -0.32980986408E+02  0.37032577567E+02  0.51100000000E-03 0.  1.
        -12    1    4    4    0    0 -0.80892191859E+01 -0.67397053214E+01 -0.63823327272E+00  0.10548290694E+02  0.00000000000E+00 0.  1.
</event>
<event>
 8    1  0.1278459E-006  0.9118800E+02  0.7816164E-02  0.1184000E+00
        -11   -1    0    0    0    0  0.00000000000E+00  0.00000000000E+00  0.45593999997E+02  0.45594000000E+02  0.51100000000E-03 0. -1.
         11   -1    0    0    0    0 -0.00000000000E+00 -0.00000000000E+00 -0.45593999997E+02  0.45594000000E+02  0.51100000000E-03 0.  1.
         23    2    1    2    0    0  0.00000000000E+00  0.00000000000E+00  0.35527136788E-14  0.91188000000E+02  0.91188000000E+02 0.  0.
    9900012    2    3    3    0    0  0.19058759445E+02  0.20537020671E+02  0.23890906853E+02  0.54367068998E+02  0.39999965394E+02 0.  0.
        -12    1    3    3    0    0 -0.19058759445E+02 -0.20537020671E+02 -0.23890906853E+02  0.36820931002E+02  0.00000000000E+00 0.  1.
         11    1    4    4    0    0  0.11445431861E+02 -0.12333754591E+01  0.17302662390E+02  0.20782234036E+02  0.51100000000E-03 0. -1.
        -11    1    4    4    0    0 -0.83072330225E+01  0.45210074140E+01  0.20109663689E+01  0.96692096122E+01  0.51100000000E-03 0.  1.
        -12    1    4    4    0    0  0.15920560606E+02  0.17249388716E+02  0.45772780944E+01  0.23915625349E+02  0.00000000000E+00 0.  1.
</event>
<event>
 8    1  0.1278459E-006  0.9118800E+02  0.7816164E-02  0.1184000E+00
        -11   -1    0    0    0    0  0.00000000000E+00  0.00000000000E+00  0.45593999997E+02  0.45594000000E+02  0.51100000000E-03 0.  1.
         11   -1    0    0    0    0 -0.00000000000E+00 -0.00000000000E+00 -0.45593999997E+02  0.45594000000E+02  0.51100000000E-03 0. -1.
         23    2    1    2    0    0  0.88817841970E-15  0.00000000000E+00  0.00000000000E+00  0.91188000000E+02  0.91188000000E+02 0.  0.
    9900012    2    3    3    0    0 -0.43163014474E+01  0.15085519443E+02  0.33310310036E+02  0.54367080542E+02  0.39999991711E+02 0.  0.
         12    1    3    3    0    0  0.43163014474E+01 -0.15085519443E+02 -0.33310310036E+02  0.36820919458E+02  0.00000000000E+00 0. -1.
         11    1    4    4    0    0  0.11822526679E+02  0.10992491678E+02  0.57907930197E+01  0.17150518780E+02  0.51100000000E-03 0. -1.
        -11    1    4    4    0    0  0.18926013346E+01 -0.10818012760E+01  0.13811580534E+02  0.13982560242E+02  0.51100000000E-03 0.  1.
        -12    1    4    4    0    0 -0.18031429461E+02  0.51748290411E+01  0.13707936482E+02  0.23234001519E+02  0.00000000000E+00 0.  1.
</event>
<event>
 8    1  0.1278459E-006  0.9118800E+02  0.7816164E-02  0.1184000E+00
        -11   -1    0    0    0    0  0.00000000000E+00  0.00000000000E+00  0.45593999997E+02  0.45594000000E+02  0.51100000000E-03 0.  1.
         11   -1    0    0    0    0 -0.00000000000E+00 -0.00000000000E+00 -0.45593999997E+02  0.45594000000E+02  0.51100000000E-03 0. -1.
         23    2    1    2    0    0  0.00000000000E+00  0.00000000000E+00  0.35527136788E-14  0.91188000000E+02  0.91188000000E+02 0.  0.
    9900012    2    3    3    0    0  0.21441133216E+02  0.56740840805E+01  0.29391530630E+02  0.54367088869E+02  0.40000010695E+02 0.  0.
         12    1    3    3    0    0 -0.21441133216E+02 -0.56740840805E+01 -0.29391530630E+02  0.36820911131E+02  0.00000000000E+00 0. -1.
         11    1    4    4    0    0  0.55287096042E+01  0.25335505480E+01  0.42264113011E+01  0.74059476783E+01  0.51100000000E-03 0.  1.
        -11    1    4    4    0    0 -0.33384317676E+01  0.93955124860E+01  0.24785597995E+02  0.26716037314E+02  0.51100000000E-03 0. -1.
         12    1    4    4    0    0  0.19250855379E+02 -0.62549789535E+01  0.37952133398E+00  0.20245103877E+02  0.00000000000E+00 0. -1.
</event>
<event>
 8    1  0.1278459E-006  0.9118800E+02  0.7816164E-02  0.1184000E+00
        -11   -1    0    0    0    0  0.00000000000E+00  0.00000000000E+00  0.45593999997E+02  0.45594000000E+02  0.51100000000E-03 0. -1.
         11   -1    0    0    0    0 -0.00000000000E+00 -0.00000000000E+00 -0.45593999997E+02  0.45594000000E+02  0.51100000000E-03 0.  1.
         23    2    1    2    0    0 -0.33306690739E-15  0.00000000000E+00 -0.71054273576E-14  0.91188000000E+02  0.91188000000E+02 0.  0.
    9900012    2    3    3    0    0 -0.95846183708E+00 -0.13096584407E+02 -0.34399753881E+02  0.54367051625E+02  0.39999925789E+02 0.  0.
         12    1    3    3    0    0  0.95846183708E+00  0.13096584407E+02  0.34399753881E+02  0.36820948375E+02  0.00000000000E+00 0. -1.
         11    1    4    4    0    0 -0.17296965189E+01 -0.12432889872E+02  0.37458866414E+01  0.13099628529E+02  0.51100000000E-03 0. -1.
        -11    1    4    4    0    0  0.43396699909E+01  0.41110991284E+01 -0.32540882311E+02  0.33085387915E+02  0.51100000000E-03 0.  1.
         12    1    4    4    0    0 -0.35684353091E+01 -0.47747936630E+01 -0.56047582111E+01  0.81820351799E+01  0.00000000000E+00 0. -1.
</event>
<event>
 8    1  0.1278459E-006  0.9118800E+02  0.7816164E-02  0.1184000E+00
        -11   -1    0    0    0    0  0.00000000000E+00  0.00000000000E+00  0.45593999997E+02  0.45594000000E+02  0.51100000000E-03 0.  1.
         11   -1    0    0    0    0 -0.00000000000E+00 -0.00000000000E+00 -0.45593999997E+02  0.45594000000E+02  0.51100000000E-03 0. -1.
         23    2    1    2    0    0  0.00000000000E+00 -0.88817841970E-15  0.00000000000E+00  0.91188000000E+02  0.91188000000E+02 0.  0.
    9900012    2    3    3    0    0  0.21762166023E+02 -0.43896212729E+01  0.29375469258E+02  0.54367097797E+02  0.40000031047E+02 0.  0.
         12    1    3    3    0    0 -0.21762166023E+02  0.43896212729E+01 -0.29375469258E+02  0.36820902203E+02  0.00000000000E+00 0. -1.
         11    1    4    4    0    0  0.33441044522E+01  0.68311765615E+01  0.11045740795E+01  0.76855768788E+01  0.51100000000E-03 0. -1.
        -11    1    4    4    0    0  0.25052526144E+01 -0.30445219800E+01  0.28518078364E+02  0.28789341753E+02  0.51100000000E-03 0.  1.
        -12    1    4    4    0    0  0.15912808957E+02 -0.81762758544E+01 -0.24718318526E+00  0.17892179165E+02  0.00000000000E+00 0.  1.
</event>
<event>
 8    1  0.1278459E-006  0.9118800E+02  0.7816164E-02  0.1184000E+00
        -11   -1    0    0    0    0  0.00000000000E+00  0.00000000000E+00  0.45593999997E+02  0.45594000000E+02  0.51100000000E-03 0.  1.
         11   -1    0    0    0    0 -0.00000000000E+00 -0.00000000000E+00 -0.45593999997E+02  0.45594000000E+02  0.51100000000E-03 0. -1.
         23    2    1    2    0    0 -0.35527136788E-14  0.00000000000E+00  0.00000000000E+00  0.91188000000E+02  0.91188000000E+02 0.  0.
    9900012    2    3    3    0    0 -0.23285863925E+02  0.13685033735E+02 -0.25025362456E+02  0.54367076965E+02  0.39999983558E+02 0.  0.
        -12    1    3    3    0    0  0.23285863925E+02 -0.13685033735E+02  0.25025362456E+02  0.36820923035E+02  0.00000000000E+00 0.  1.
         11    1    4    4    0    0 -0.20641919715E+02  0.56812589670E+01 -0.25650479982E+02  0.33411265713E+02  0.51100000000E-03 0. -1.
        -11    1    4    4    0    0  0.13763645539E+01  0.51157423775E+01 -0.88219672498E+01  0.10290398723E+02  0.51100000000E-03 0.  1.
         12    1    4    4    0    0 -0.40203087640E+01  0.28880323906E+01  0.94470847763E+01  0.10665412529E+02  0.00000000000E+00 0. -1.
</event>
<event>
 8    1  0.1278459E-006  0.9118800E+02  0.7816164E-02  0.1184000E+00
        -11   -1    0    0    0    0  0.00000000000E+00  0.00000000000E+00  0.45593999997E+02  0.45594000000E+02  0.51100000000E-03 0. -1.
         11   -1    0    0    0    0 -0.00000000000E+00 -0.00000000000E+00 -0.45593999997E+02  0.45594000000E+02  0.51100000000E-03 0.  1.
         23    2    1    2    0    0  0.00000000000E+00 -0.36082248300E-15  0.00000000000E+00  0.91188000000E+02  0.91188000000E+02 0.  0.
    9900012    2    3    3    0    0 -0.11580778000E+02 -0.12862882274E+00 -0.34952088849E+02  0.54367089102E+02  0.40000011226E+02 0.  0.
         12    1    3    3    0    0  0.11580778000E+02  0.12862882274E+00  0.34952088849E+02  0.36820910898E+02  0.00000000000E+00 0. -1.
         11    1    4    4    0    0  0.45751364542E+01  0.28495644637E+01  0.35702415658E+01  0.64651772060E+01  0.51100000000E-03 0. -1.
        -11    1    4    4    0    0  0.50173152777E+01  0.11904304105E+00 -0.16285748540E+02  0.17041514886E+02  0.51100000000E-03 0.  1.
        -12    1    4    4    0    0 -0.21173229732E+02 -0.30972363274E+01 -0.22236581875E+02  0.30860397010E+02  0.00000000000E+00 0.  1.
</event>
<event>
 8    1  0.1278459E-006  0.9118800E+02  0.7816164E-02  0.1184000E+00
        -11   -1    0    0    0    0  0.00000000000E+00  0.00000000000E+00  0.45593999997E+02  0.45594000000E+02  0.51100000000E-03 0.  1.
         11   -1    0    0    0    0 -0.00000000000E+00 -0.00000000000E+00 -0.45593999997E+02  0.45594000000E+02  0.51100000000E-03 0. -1.
         23    2    1    2    0    0  0.35527136788E-14  0.00000000000E+00  0.00000000000E+00  0.91188000000E+02  0.91188000000E+02 0.  0.
    9900012    2    3    3    0    0 -0.19431047404E+02  0.27772348470E+01  0.31152855567E+02  0.54367094978E+02  0.40000024621E+02 0.  0.
         12    1    3    3    0    0  0.19431047404E+02 -0.27772348470E+01 -0.31152855567E+02  0.36820905022E+02  0.00000000000E+00 0. -1.
         11    1    4    4    0    0  0.27713961517E+00  0.81572363815E+00 -0.35866224346E+01  0.36886409651E+01  0.51100000000E-03 0. -1.
        -11    1    4    4    0    0  0.54341675923E+01  0.81275024004E+01  0.15885366947E+02  0.18652918163E+02  0.51100000000E-03 0.  1.
        -12    1    4    4    0    0 -0.25142354612E+02 -0.61659911915E+01  0.18854111055E+02  0.32025535850E+02  0.00000000000E+00 0.  1.
</event>
<event>
 8    1  0.1278459E-006  0.9118800E+02  0.7816164E-02  0.1184000E+00
        -11   -1    0    0    0    0  0.00000000000E+00  0.00000000000E+00  0.45593999997E+02  0.45594000000E+02  0.51100000000E-03 0.  1.
         11   -1    0    0    0    0 -0.00000000000E+00 -0.00000000000E+00 -0.45593999997E+02  0.45594000000E+02  0.51100000000E-03 0. -1.
         23    2    1    2    0    0  0.00000000000E+00  0.00000000000E+00  0.00000000000E+00  0.91188000000E+02  0.91188000000E+02 0.  0.
    9900012    2    3    3    0    0  0.15037571441E+02  0.74603974164E+01 -0.32771793911E+02  0.54367128737E+02  0.40000101581E+02 0.  0.
        -12    1    3    3    0    0 -0.15037571441E+02 -0.74603974164E+01  0.32771793911E+02  0.36820871263E+02  0.00000000000E+00 0.  1.
         11    1    4    4    0    0  0.17956160223E+02  0.17048346346E+02 -0.96134493733E+01  0.26561028071E+02  0.51100000000E-03 0. -1.
        -11    1    4    4    0    0  0.39144738974E+01 -0.24821646845E+01 -0.34784182651E+01  0.57951394549E+01  0.51100000000E-03 0.  1.
         12    1    4    4    0    0 -0.68330626794E+01 -0.71057842451E+01 -0.19679926272E+02  0.22010961210E+02  0.00000000000E+00 0. -1.
</event>
<event>
 8    1  0.1278459E-006  0.9118800E+02  0.7816164E-02  0.1184000E+00
        -11   -1    0    0    0    0  0.00000000000E+00  0.00000000000E+00  0.45593999997E+02  0.45594000000E+02  0.51100000000E-03 0.  1.
         11   -1    0    0    0    0 -0.00000000000E+00 -0.00000000000E+00 -0.45593999997E+02  0.45594000000E+02  0.51100000000E-03 0. -1.
         23    2    1    2    0    0 -0.88817841970E-15  0.00000000000E+00  0.17763568394E-14  0.91188000000E+02  0.91188000000E+02 0.  0.
    9900012    2    3    3    0    0 -0.66089346468E+01  0.34197812338E+02 -0.11941880318E+02  0.54367124244E+02  0.40000091340E+02 0.  0.
        -12    1    3    3    0    0  0.66089346468E+01 -0.34197812338E+02  0.11941880318E+02  0.36820875756E+02  0.00000000000E+00 0.  1.
         11    1    4    4    0    0 -0.15418021178E+02  0.12540132286E+02 -0.23639112158E+01  0.20013954414E+02  0.51100000000E-03 0. -1.
        -11    1    4    4    0    0 -0.36405740677E+01  0.34867026922E+01 -0.11184388518E+02  0.12267902102E+02  0.51100000000E-03 0.  1.
        -12    1    4    4    0    0  0.12449660599E+02  0.18170977360E+02  0.16064194163E+01  0.22085267728E+02  0.00000000000E+00 0.  1.
</event>
<event>
 8    1  0.1278459E-006  0.9118800E+02  0.7816164E-02  0.1184000E+00
        -11   -1    0    0    0    0  0.00000000000E+00  0.00000000000E+00  0.45593999997E+02  0.45594000000E+02  0.51100000000E-03 0. -1.
         11   -1    0    0    0    0 -0.00000000000E+00 -0.00000000000E+00 -0.45593999997E+02  0.45594000000E+02  0.51100000000E-03 0.  1.
         23    2    1    2    0    0  0.71054273576E-14  0.00000000000E+00  0.00000000000E+00  0.91188000000E+02  0.91188000000E+02 0.  0.
    9900012    2    3    3    0    0 -0.31040727872E+02 -0.18606889524E+02 -0.67850097565E+01  0.54367089066E+02  0.40000011144E+02 0.  0.
        -12    1    3    3    0    0  0.31040727872E+02  0.18606889524E+02  0.67850097565E+01  0.36820910934E+02  0.00000000000E+00 0.  1.
         11    1    4    4    0    0 -0.13899928532E+02 -0.14356175025E+02  0.64276230644E+00  0.19993021737E+02  0.51100000000E-03 0. -1.
        -11    1    4    4    0    0  0.70577268378E+01 -0.59791110918E+01 -0.29095757915E+01  0.96967473470E+01  0.51100000000E-03 0.  1.
        -12    1    4    4    0    0 -0.24198526177E+02  0.17283965923E+01 -0.45181962715E+01  0.24677319982E+02  0.00000000000E+00 0.  1.
</event>
<event>
 8    1  0.1278459E-006  0.9118800E+02  0.7816164E-02  0.1184000E+00
        -11   -1    0    0    0    0  0.00000000000E+00  0.00000000000E+00  0.45593999997E+02  0.45594000000E+02  0.51100000000E-03 0.  1.
         11   -1    0    0    0    0 -0.00000000000E+00 -0.00000000000E+00 -0.45593999997E+02  0.45594000000E+02  0.51100000000E-03 0. -1.
         23    2    1    2    0    0  0.17763568394E-14 -0.22204460493E-14  0.71054273576E-14  0.91188000000E+02  0.91188000000E+02 0.  0.
    9900012    2    3    3    0    0  0.50350639638E+01  0.17692837021E+01  0.36432105869E+02  0.54367074265E+02  0.39999977401E+02 0.  0.
         12    1    3    3    0    0 -0.50350639638E+01 -0.17692837021E+01 -0.36432105869E+02  0.36820925735E+02  0.00000000000E+00 0. -1.
         11    1    4    4    0    0  0.80081447215E+01  0.17261193777E+02  0.18116700755E+02  0.26273447414E+02  0.51100000000E-03 0. -1.
        -11    1    4    4    0    0  0.67903081191E+00  0.23370784779E+01  0.49432858519E+01  0.55099087044E+01  0.51100000000E-03 0.  1.
        -12    1    4    4    0    0 -0.36521115696E+01 -0.17828988553E+02  0.13372119262E+02  0.22583718146E+02  0.00000000000E+00 0.  1.
</event>
<event>
 8    1  0.1278459E-006  0.9118800E+02  0.7816164E-02  0.1184000E+00
        -11   -1    0    0    0    0  0.00000000000E+00  0.00000000000E+00  0.45593999997E+02  0.45594000000E+02  0.51100000000E-03 0.  1.
         11   -1    0    0    0    0 -0.00000000000E+00 -0.00000000000E+00 -0.45593999997E+02  0.45594000000E+02  0.51100000000E-03 0. -1.
         23    2    1    2    0    0  0.00000000000E+00  0.35527136788E-14  0.35527136788E-14  0.91188000000E+02  0.91188000000E+02 0.  0.
    9900012    2    3    3    0    0 -0.16034082466E+02 -0.26082233088E+02 -0.20454967557E+02  0.54367076856E+02  0.39999983309E+02 0.  0.
        -12    1    3    3    0    0  0.16034082466E+02  0.26082233088E+02  0.20454967557E+02  0.36820923144E+02  0.00000000000E+00 0.  1.
         11    1    4    4    0    0  0.38852248358E+01 -0.16902131297E+02 -0.15182082959E+02  0.23049352651E+02  0.51100000000E-03 0. -1.
        -11    1    4    4    0    0  0.12062951195E+01 -0.40804296508E+01 -0.83470046315E+01  0.93689668923E+01  0.51100000000E-03 0.  1.
        -12    1    4    4    0    0 -0.21125602421E+02 -0.50996721407E+01  0.30741200333E+01  0.21948757313E+02  0.00000000000E+00 0.  1.
</event>
<event>
 8    1  0.1278459E-006  0.9118800E+02  0.7816164E-02  0.1184000E+00
        -11   -1    0    0    0    0  0.00000000000E+00  0.00000000000E+00  0.45593999997E+02  0.45594000000E+02  0.51100000000E-03 0. -1.
         11   -1    0    0    0    0 -0.00000000000E+00 -0.00000000000E+00 -0.45593999997E+02  0.45594000000E+02  0.51100000000E-03 0.  1.
         23    2    1    2    0    0  0.17763568394E-14  0.00000000000E+00  0.00000000000E+00  0.91188000000E+02  0.91188000000E+02 0.  0.
    9900012    2    3    3    0    0  0.13710496580E+02  0.99613950540E+01 -0.32689019883E+02  0.54367093862E+02  0.40000022078E+02 0.  0.
         12    1    3    3    0    0 -0.13710496580E+02 -0.99613950540E+01  0.32689019883E+02  0.36820906138E+02  0.00000000000E+00 0. -1.
         11    1    4    4    0    0 -0.20930341072E+01 -0.52898314182E+01 -0.10695103899E+02  0.12113973579E+02  0.51100000000E-03 0. -1.
        -11    1    4    4    0    0 -0.22357935318E+00  0.29018628301E+01  0.66066463785E+01  0.72193193754E+01  0.51100000000E-03 0.  1.
        -12    1    4    4    0    0  0.16027110041E+02  0.12349363642E+02 -0.28600562362E+02  0.35033800908E+02  0.00000000000E+00 0.  1.
</event>
<event>
 8    1  0.1278459E-006  0.9118800E+02  0.7816164E-02  0.1184000E+00
        -11   -1    0    0    0    0  0.00000000000E+00  0.00000000000E+00  0.45593999997E+02  0.45594000000E+02  0.51100000000E-03 0.  1.
         11   -1    0    0    0    0 -0.00000000000E+00 -0.00000000000E+00 -0.45593999997E+02  0.45594000000E+02  0.51100000000E-03 0. -1.
         23    2    1    2    0    0  0.88817841970E-15  0.00000000000E+00  0.00000000000E+00  0.91188000000E+02  0.91188000000E+02 0.  0.
    9900012    2    3    3    0    0 -0.59451611248E+01 -0.47932053780E+01  0.36020270249E+02  0.54367087092E+02  0.40000006643E+02 0.  0.
         12    1    3    3    0    0  0.59451611248E+01  0.47932053780E+01 -0.36020270249E+02  0.36820912908E+02  0.00000000000E+00 0. -1.
         11    1    4    4    0    0  0.59417548926E+01  0.88496206375E+01  0.49033356724E+01  0.11732985026E+02  0.51100000000E-03 0. -1.
        -11    1    4    4    0    0 -0.15970458772E+02 -0.45515168723E+01  0.10265052587E+02  0.19522888211E+02  0.51100000000E-03 0.  1.
        -12    1    4    4    0    0  0.40835427546E+01 -0.90913091432E+01  0.20851881989E+02  0.23111213855E+02  0.00000000000E+00 0.  1.
</event>
<event>
 8    1  0.1278459E-006  0.9118800E+02  0.7816164E-02  0.1184000E+00
        -11   -1    0    0    0    0  0.00000000000E+00  0.00000000000E+00  0.45593999997E+02  0.45594000000E+02  0.51100000000E-03 0.  1.
         11   -1    0    0    0    0 -0.00000000000E+00 -0.00000000000E+00 -0.45593999997E+02  0.45594000000E+02  0.51100000000E-03 0. -1.
         23    2    1    2    0    0 -0.35527136788E-14  0.00000000000E+00  0.00000000000E+00  0.91188000000E+02  0.91188000000E+02 0.  0.
    9900012    2    3    3    0    0  0.23032237243E+02  0.27367818592E+02  0.87349191312E+01  0.54367078513E+02  0.39999987086E+02 0.  0.
         12    1    3    3    0    0 -0.23032237243E+02 -0.27367818592E+02 -0.87349191312E+01  0.36820921487E+02  0.00000000000E+00 0. -1.
         11    1    4    4    0    0 -0.96784043250E+00  0.11588264898E+02  0.38955215464E+00  0.11635134275E+02  0.51100000000E-03 0. -1.
        -11    1    4    4    0    0  0.29576469028E+02  0.17487766485E+02  0.24621036226E+01  0.34447807641E+02  0.51100000000E-03 0.  1.
        -12    1    4    4    0    0 -0.55763913527E+01 -0.17082127907E+01  0.58832633540E+01  0.82841365965E+01  0.00000000000E+00 0.  1.
</event>
<event>
 8    1  0.1278459E-006  0.9118800E+02  0.7816164E-02  0.1184000E+00
        -11   -1    0    0    0    0  0.00000000000E+00  0.00000000000E+00  0.45593999997E+02  0.45594000000E+02  0.51100000000E-03 0. -1.
         11   -1    0    0    0    0 -0.00000000000E+00 -0.00000000000E+00 -0.45593999997E+02  0.45594000000E+02  0.51100000000E-03 0.  1.
         23    2    1    2    0    0  0.00000000000E+00 -0.71054273576E-14 -0.15543122345E-14  0.91188000000E+02  0.91188000000E+02 0.  0.
    9900012    2    3    3    0    0 -0.58637082104E+01  0.36329938875E+02  0.12376692830E+01  0.54367090751E+02  0.40000014985E+02 0.  0.
        -12    1    3    3    0    0  0.58637082104E+01 -0.36329938875E+02 -0.12376692830E+01  0.36820909249E+02  0.00000000000E+00 0.  1.
         11    1    4    4    0    0 -0.77743211545E+01  0.26779101574E+01  0.91347126900E+00  0.82731917810E+01  0.51100000000E-03 0. -1.
        -11    1    4    4    0    0  0.55196914889E+01 -0.69418397023E+00 -0.87660074733E+01  0.10382281676E+02  0.51100000000E-03 0.  1.
        -12    1    4    4    0    0 -0.36090785447E+01  0.34346212688E+02  0.90902054872E+01  0.35711617294E+02  0.00000000000E+00 0.  1.
</event>
<event>
 8    1  0.1278459E-006  0.9118800E+02  0.7816164E-02  0.1184000E+00
        -11   -1    0    0    0    0  0.00000000000E+00  0.00000000000E+00  0.45593999997E+02  0.45594000000E+02  0.51100000000E-03 0.  1.
         11   -1    0    0    0    0 -0.00000000000E+00 -0.00000000000E+00 -0.45593999997E+02  0.45594000000E+02  0.51100000000E-03 0. -1.
         23    2    1    2    0    0  0.17763568394E-14  0.00000000000E+00  0.00000000000E+00  0.91188000000E+02  0.91188000000E+02 0.  0.
    9900012    2    3    3    0    0 -0.14630969065E+02  0.24644450426E+02 -0.23116328874E+02  0.54367097604E+02  0.40000030608E+02 0.  0.
        -12    1    3    3    0    0  0.14630969065E+02 -0.24644450426E+02  0.23116328874E+02  0.36820902396E+02  0.00000000000E+00 0.  1.
         11    1    4    4    0    0 -0.17423735734E+02  0.11521398693E+02 -0.29397819448E+02  0.36063291355E+02  0.51100000000E-03 0. -1.
        -11    1    4    4    0    0 -0.18786377027E+01  0.12303832015E+02  0.47030154764E+01  0.13305334145E+02  0.51100000000E-03 0.  1.
         12    1    4    4    0    0  0.46714043712E+01  0.81921971763E+00  0.15784750973E+01  0.49984721043E+01  0.00000000000E+00 0. -1.
</event>
<event>
 8    1  0.1278459E-006  0.9118800E+02  0.7816164E-02  0.1184000E+00
        -11   -1    0    0    0    0  0.00000000000E+00  0.00000000000E+00  0.45593999997E+02  0.45594000000E+02  0.51100000000E-03 0.  1.
         11   -1    0    0    0    0 -0.00000000000E+00 -0.00000000000E+00 -0.45593999997E+02  0.45594000000E+02  0.51100000000E-03 0. -1.
         23    2    1    2    0    0  0.00000000000E+00  0.00000000000E+00 -0.17763568394E-14  0.91188000000E+02  0.91188000000E+02 0.  0.
    9900012    2    3    3    0    0 -0.32256911086E+02 -0.95795981103E+01  0.14950004501E+02  0.54367086820E+02  0.40000006024E+02 0.  0.
         12    1    3    3    0    0  0.32256911086E+02  0.95795981103E+01 -0.14950004501E+02  0.36820913180E+02  0.00000000000E+00 0. -1.
         11    1    4    4    0    0 -0.10717329337E+02  0.82564143399E+01  0.85012769509E+01  0.15978148702E+02  0.51100000000E-03 0.  1.
        -11    1    4    4    0    0 -0.62587975645E+01  0.58948990096E+01 -0.21882165586E+01  0.88719035869E+01  0.51100000000E-03 0. -1.
        -12    1    4    4    0    0 -0.15280784185E+02 -0.23730911460E+02  0.86369441088E+01  0.29517034532E+02  0.00000000000E+00 0.  1.
</event>
<event>
 8    1  0.1278459E-006  0.9118800E+02  0.7816164E-02  0.1184000E+00
        -11   -1    0    0    0    0  0.00000000000E+00  0.00000000000E+00  0.45593999997E+02  0.45594000000E+02  0.51100000000E-03 0. -1.
         11   -1    0    0    0    0 -0.00000000000E+00 -0.00000000000E+00 -0.45593999997E+02  0.45594000000E+02  0.51100000000E-03 0.  1.
         23    2    1    2    0    0  0.17763568394E-14  0.17763568394E-14  0.71054273576E-14  0.91188000000E+02  0.91188000000E+02 0.  0.
    9900012    2    3    3    0    0  0.15118262984E+02  0.44695569471E+01  0.33275221717E+02  0.54367092959E+02  0.40000020019E+02 0.  0.
        -12    1    3    3    0    0 -0.15118262984E+02 -0.44695569471E+01 -0.33275221717E+02  0.36820907041E+02  0.00000000000E+00 0.  1.
         11    1    4    4    0    0  0.28839320272E+01 -0.17432499504E+01  0.12231585203E+02  0.12687303148E+02  0.51100000000E-03 0. -1.
        -11    1    4    4    0    0 -0.48973741929E+01  0.14922002283E+02  0.45412398389E+01  0.16348494905E+02  0.51100000000E-03 0.  1.
         12    1    4    4    0    0  0.17131705150E+02 -0.87091953852E+01  0.16502396675E+02  0.25331294906E+02  0.00000000000E+00 0. -1.
</event>
<event>
 8    1  0.1278459E-006  0.9118800E+02  0.7816164E-02  0.1184000E+00
        -11   -1    0    0    0    0  0.00000000000E+00  0.00000000000E+00  0.45593999997E+02  0.45594000000E+02  0.51100000000E-03 0.  1.
         11   -1    0    0    0    0 -0.00000000000E+00 -0.00000000000E+00 -0.45593999997E+02  0.45594000000E+02  0.51100000000E-03 0. -1.
         23    2    1    2    0    0  0.35527136788E-14 -0.35527136788E-14  0.35527136788E-14  0.91188000000E+02  0.91188000000E+02 0.  0.
    9900012    2    3    3    0    0  0.27768288869E+02 -0.97519169553E+01  0.22126953336E+02  0.54367084545E+02  0.40000000837E+02 0.  0.
         12    1    3    3    0    0 -0.27768288869E+02  0.97519169553E+01 -0.22126953336E+02  0.36820915455E+02  0.00000000000E+00 0. -1.
         11    1    4    4    0    0  0.38831553627E+01  0.51148906354E+01  0.47566225476E+01  0.79916493982E+01  0.51100000000E-03 0. -1.
        -11    1    4    4    0    0  0.21697190216E+02 -0.17251110620E+02  0.25475600108E+02  0.37648042207E+02  0.51100000000E-03 0.  1.
         12    1    4    4    0    0  0.21879432907E+01  0.23843030290E+01 -0.81052693199E+01  0.87273929398E+01  0.00000000000E+00 0. -1.
</event>
<event>
 8    1  0.1278459E-006  0.9118800E+02  0.7816164E-02  0.1184000E+00
        -11   -1    0    0    0    0  0.00000000000E+00  0.00000000000E+00  0.45593999997E+02  0.45594000000E+02  0.51100000000E-03 0. -1.
         11   -1    0    0    0    0 -0.00000000000E+00 -0.00000000000E+00 -0.45593999997E+02  0.45594000000E+02  0.51100000000E-03 0.  1.
         23    2    1    2    0    0 -0.17763568394E-14 -0.71054273576E-14  0.00000000000E+00  0.91188000000E+02  0.91188000000E+02 0.  0.
    9900012    2    3    3    0    0 -0.10441409729E+02 -0.25022907174E+02  0.24912098611E+02  0.54367060607E+02  0.39999946266E+02 0.  0.
        -12    1    3    3    0    0  0.10441409729E+02  0.25022907174E+02 -0.24912098611E+02  0.36820939393E+02  0.00000000000E+00 0.  1.
         11    1    4    4    0    0 -0.23113723490E+01  0.60679974541E+01 -0.91830556316E+00  0.65579204483E+01  0.51100000000E-03 0.  1.
        -11    1    4    4    0    0  0.57219131640E+01 -0.23545422953E+02  0.18089603192E+02  0.30238402342E+02  0.51100000000E-03 0. -1.
         12    1    4    4    0    0 -0.13851950544E+02 -0.75454816747E+01  0.77408009824E+01  0.17570737817E+02  0.00000000000E+00 0. -1.
</event>
<event>
 8    1  0.1278459E-006  0.9118800E+02  0.7816164E-02  0.1184000E+00
        -11   -1    0    0    0    0  0.00000000000E+00  0.00000000000E+00  0.45593999997E+02  0.45594000000E+02  0.51100000000E-03 0.  1.
         11   -1    0    0    0    0 -0.00000000000E+00 -0.00000000000E+00 -0.45593999997E+02  0.45594000000E+02  0.51100000000E-03 0. -1.
         23    2    1    2    0    0  0.00000000000E+00  0.00000000000E+00  0.00000000000E+00  0.91188000000E+02  0.91188000000E+02 0.  0.
    9900012    2    3    3    0    0 -0.16206512093E+02  0.32403040336E+02 -0.65705084715E+01  0.54367086936E+02  0.40000006289E+02 0.  0.
        -12    1    3    3    0    0  0.16206512093E+02 -0.32403040336E+02  0.65705084715E+01  0.36820913064E+02  0.00000000000E+00 0.  1.
         11    1    4    4    0    0 -0.17619059360E+02  0.15624501296E+02 -0.22030313487E+01  0.23651842230E+02  0.51100000000E-03 0. -1.
        -11    1    4    4    0    0 -0.93885033508E+01  0.16233822996E+02 -0.61892303275E+01  0.19748103112E+02  0.51100000000E-03 0.  1.
        -12    1    4    4    0    0  0.10801050618E+02  0.54471604439E+00  0.18217532047E+01  0.10967141594E+02  0.00000000000E+00 0.  1.
</event>
<event>
 8    1  0.1278459E-006  0.9118800E+02  0.7816164E-02  0.1184000E+00
        -11   -1    0    0    0    0  0.00000000000E+00  0.00000000000E+00  0.45593999997E+02  0.45594000000E+02  0.51100000000E-03 0.  1.
         11   -1    0    0    0    0 -0.00000000000E+00 -0.00000000000E+00 -0.45593999997E+02  0.45594000000E+02  0.51100000000E-03 0. -1.
         23    2    1    2    0    0  0.00000000000E+00 -0.35527136788E-14  0.00000000000E+00  0.91188000000E+02  0.91188000000E+02 0.  0.
    9900012    2    3    3    0    0  0.18436886082E+02  0.31079276295E+02  0.70672539836E+01  0.54366996995E+02  0.39999801249E+02 0.  0.
         12    1    3    3    0    0 -0.18436886082E+02 -0.31079276295E+02 -0.70672539836E+01  0.36821003005E+02  0.00000000000E+00 0. -1.
         11    1    4    4    0    0  0.50040486200E+01  0.13178361262E+01  0.32040674336E+01  0.60863160473E+01  0.51100000000E-03 0. -1.
        -11    1    4    4    0    0  0.26821455046E+01  0.54476675279E+01  0.17413611639E+02  0.18441932018E+02  0.51100000000E-03 0.  1.
         12    1    4    4    0    0  0.10750691958E+02  0.24313772641E+02 -0.13550425089E+02  0.29838748929E+02  0.00000000000E+00 0. -1.
</event>
<event>
 8    1  0.1278459E-006  0.9118800E+02  0.7816164E-02  0.1184000E+00
        -11   -1    0    0    0    0  0.00000000000E+00  0.00000000000E+00  0.45593999997E+02  0.45594000000E+02  0.51100000000E-03 0. -1.
         11   -1    0    0    0    0 -0.00000000000E+00 -0.00000000000E+00 -0.45593999997E+02  0.45594000000E+02  0.51100000000E-03 0.  1.
         23    2    1    2    0    0  0.00000000000E+00  0.00000000000E+00 -0.44408920985E-15  0.91188000000E+02  0.91188000000E+02 0.  0.
    9900012    2    3    3    0    0  0.78033393773E+01  0.35877167908E+02  0.27779921697E+01  0.54367074930E+02  0.39999978917E+02 0.  0.
        -12    1    3    3    0    0 -0.78033393773E+01 -0.35877167908E+02 -0.27779921697E+01  0.36820925070E+02  0.00000000000E+00 0.  1.
         11    1    4    4    0    0  0.37092191564E+01  0.15726934506E+02  0.91581530755E+01  0.18573274987E+02  0.51100000000E-03 0. -1.
        -11    1    4    4    0    0  0.73241582400E+01 -0.55763081214E+01 -0.57453388437E+00  0.92232638277E+01  0.51100000000E-03 0.  1.
        -12    1    4    4    0    0 -0.32300380191E+01  0.25726541523E+02 -0.58056270215E+01  0.26570536115E+02  0.00000000000E+00 0.  1.
</event>
<event>
 8    1  0.1278459E-006  0.9118800E+02  0.7816164E-02  0.1184000E+00
        -11   -1    0    0    0    0  0.00000000000E+00  0.00000000000E+00  0.45593999997E+02  0.45594000000E+02  0.51100000000E-03 0.  1.
         11   -1    0    0    0    0 -0.00000000000E+00 -0.00000000000E+00 -0.45593999997E+02  0.45594000000E+02  0.51100000000E-03 0. -1.
         23    2    1    2    0    0  0.00000000000E+00 -0.35527136788E-14 -0.35527136788E-14  0.91188000000E+02  0.91188000000E+02 0.  0.
    9900012    2    3    3    0    0 -0.15962059104E+02 -0.22668390752E+02 -0.24230913956E+02  0.54367075768E+02  0.39999980829E+02 0.  0.
        -12    1    3    3    0    0  0.15962059104E+02  0.22668390752E+02  0.24230913956E+02  0.36820924232E+02  0.00000000000E+00 0.  1.
         11    1    4    4    0    0  0.91289651953E+01 -0.66694504362E+01 -0.44635846320E+01  0.12154964528E+02  0.51100000000E-03 0. -1.
        -11    1    4    4    0    0 -0.94787985419E+01 -0.18997910108E+02 -0.93061293684E+01  0.23181291042E+02  0.51100000000E-03 0.  1.
        -12    1    4    4    0    0 -0.15612225758E+02  0.29989697923E+01 -0.10461199956E+02  0.19030820199E+02  0.00000000000E+00 0.  1.
</event>
<event>
 8    1  0.1278459E-006  0.9118800E+02  0.7816164E-02  0.1184000E+00
        -11   -1    0    0    0    0  0.00000000000E+00  0.00000000000E+00  0.45593999997E+02  0.45594000000E+02  0.51100000000E-03 0. -1.
         11   -1    0    0    0    0 -0.00000000000E+00 -0.00000000000E+00 -0.45593999997E+02  0.45594000000E+02  0.51100000000E-03 0.  1.
         23    2    1    2    0    0 -0.10658141036E-13  0.00000000000E+00 -0.35527136788E-14  0.91188000000E+02  0.91188000000E+02 0.  0.
    9900012    2    3    3    0    0  0.31282426078E+02 -0.20088026709E+01  0.19317177866E+02  0.54367097917E+02  0.40000031322E+02 0.  0.
        -12    1    3    3    0    0 -0.31282426078E+02  0.20088026709E+01 -0.19317177866E+02  0.36820902083E+02  0.00000000000E+00 0.  1.
         11    1    4    4    0    0 -0.20947969089E+01 -0.16569846876E+01  0.56412377537E+01  0.62415812099E+01  0.51100000000E-03 0. -1.
        -11    1    4    4    0    0  0.14425454163E+01 -0.15209835688E+01 -0.88068765902E+01  0.90529223918E+01  0.51100000000E-03 0.  1.
         12    1    4    4    0    0  0.31934677570E+02  0.11691655855E+01  0.22482816702E+02  0.39072594316E+02  0.00000000000E+00 0. -1.
</event>
<event>
 8    1  0.1278459E-006  0.9118800E+02  0.7816164E-02  0.1184000E+00
        -11   -1    0    0    0    0  0.00000000000E+00  0.00000000000E+00  0.45593999997E+02  0.45594000000E+02  0.51100000000E-03 0.  1.
         11   -1    0    0    0    0 -0.00000000000E+00 -0.00000000000E+00 -0.45593999997E+02  0.45594000000E+02  0.51100000000E-03 0. -1.
         23    2    1    2    0    0  0.00000000000E+00 -0.35527136788E-14  0.17763568394E-14  0.91188000000E+02  0.91188000000E+02 0.  0.
    9900012    2    3    3    0    0  0.33273504540E+02  0.14712764852E+02 -0.56733636933E+01  0.54367100913E+02  0.40000038152E+02 0.  0.
        -12    1    3    3    0    0 -0.33273504540E+02 -0.14712764852E+02  0.56733636933E+01  0.36820899087E+02  0.00000000000E+00 0.  1.
         11    1    4    4    0    0  0.15346913938E+02 -0.53114570651E+01 -0.10388913456E+02  0.19278715378E+02  0.51100000000E-03 0. -1.
        -11    1    4    4    0    0  0.76312929656E+01 -0.69078321502E+00  0.87240434851E+01  0.11611319855E+02  0.51100000000E-03 0.  1.
         12    1    4    4    0    0  0.10295297637E+02  0.20715005132E+02 -0.40084937219E+01  0.23477065680E+02  0.00000000000E+00 0. -1.
</event>
<event>
 8    1  0.1278459E-006  0.9118800E+02  0.7816164E-02  0.1184000E+00
        -11   -1    0    0    0    0  0.00000000000E+00  0.00000000000E+00  0.45593999997E+02  0.45594000000E+02  0.51100000000E-03 0.  1.
         11   -1    0    0    0    0 -0.00000000000E+00 -0.00000000000E+00 -0.45593999997E+02  0.45594000000E+02  0.51100000000E-03 0. -1.
         23    2    1    2    0    0  0.00000000000E+00 -0.71054273576E-14  0.71054273576E-14  0.91188000000E+02  0.91188000000E+02 0.  0.
    9900012    2    3    3    0    0  0.16147458737E+02  0.29394065567E+02 -0.15199632722E+02  0.54367077291E+02  0.39999984301E+02 0.  0.
        -12    1    3    3    0    0 -0.16147458737E+02 -0.29394065567E+02  0.15199632722E+02  0.36820922709E+02  0.00000000000E+00 0.  1.
         11    1    4    4    0    0  0.80555072835E+00  0.80027888906E+01  0.29674672213E+01  0.85731793388E+01  0.51100000000E-03 0. -1.
        -11    1    4    4    0    0  0.13448539096E+02  0.94284775434E+00  0.54106409539E+01  0.14526775331E+02  0.51100000000E-03 0.  1.
         12    1    4    4    0    0  0.18933689122E+01  0.20448428923E+02 -0.23577740897E+02  0.31267122622E+02  0.00000000000E+00 0. -1.
</event>
<event>
 8    1  0.1278459E-006  0.9118800E+02  0.7816164E-02  0.1184000E+00
        -11   -1    0    0    0    0  0.00000000000E+00  0.00000000000E+00  0.45593999997E+02  0.45594000000E+02  0.51100000000E-03 0. -1.
         11   -1    0    0    0    0 -0.00000000000E+00 -0.00000000000E+00 -0.45593999997E+02  0.45594000000E+02  0.51100000000E-03 0.  1.
         23    2    1    2    0    0 -0.44408920985E-15  0.00000000000E+00  0.00000000000E+00  0.91188000000E+02  0.91188000000E+02 0.  0.
    9900012    2    3    3    0    0 -0.24368682967E+01 -0.35361610855E+02  0.99700966154E+01  0.54367018537E+02  0.39999850358E+02 0.  0.
        -12    1    3    3    0    0  0.24368682967E+01  0.35361610855E+02 -0.99700966154E+01  0.36820981463E+02  0.00000000000E+00 0.  1.
         11    1    4    4    0    0  0.46308874092E+01 -0.18933660227E+02 -0.22243847337E+01  0.19618269432E+02  0.51100000000E-03 0. -1.
        -11    1    4    4    0    0 -0.39614837902E+01 -0.23280536716E+02  0.13364442813E+02  0.27134573436E+02  0.51100000000E-03 0.  1.
        -12    1    4    4    0    0 -0.31062719157E+01  0.68525860870E+01 -0.11699614641E+01  0.76141756692E+01  0.00000000000E+00 0.  1.
</event>
<event>
 8    1  0.1278459E-006  0.9118800E+02  0.7816164E-02  0.1184000E+00
        -11   -1    0    0    0    0  0.00000000000E+00  0.00000000000E+00  0.45593999997E+02  0.45594000000E+02  0.51100000000E-03 0. -1.
         11   -1    0    0    0    0 -0.00000000000E+00 -0.00000000000E+00 -0.45593999997E+02  0.45594000000E+02  0.51100000000E-03 0.  1.
         23    2    1    2    0    0  0.35527136788E-14 -0.35527136788E-14  0.00000000000E+00  0.91188000000E+02  0.91188000000E+02 0.  0.
    9900012    2    3    3    0    0  0.23016461324E+02 -0.21703542490E+02 -0.18841020150E+02  0.54367010214E+02  0.39999831385E+02 0.  0.
         12    1    3    3    0    0 -0.23016461324E+02  0.21703542490E+02  0.18841020150E+02  0.36820989786E+02  0.00000000000E+00 0. -1.
         11    1    4    4    0    0 -0.10950897231E+01  0.53696153708E+01  0.25286491490E+01  0.60354003605E+01  0.51100000000E-03 0. -1.
        -11    1    4    4    0    0  0.20521216369E+02 -0.12572171550E+02 -0.23995247336E+01  0.24185481967E+02  0.51100000000E-03 0.  1.
        -12    1    4    4    0    0  0.35903346780E+01 -0.14500986311E+02 -0.18970144565E+02  0.24146127887E+02  0.00000000000E+00 0.  1.
</event>
<event>
 8    1  0.1278459E-006  0.9118800E+02  0.7816164E-02  0.1184000E+00
        -11   -1    0    0    0    0  0.00000000000E+00  0.00000000000E+00  0.45593999997E+02  0.45594000000E+02  0.51100000000E-03 0. -1.
         11   -1    0    0    0    0 -0.00000000000E+00 -0.00000000000E+00 -0.45593999997E+02  0.45594000000E+02  0.51100000000E-03 0.  1.
         23    2    1    2    0    0  0.00000000000E+00 -0.17763568394E-14 -0.35527136788E-14  0.91188000000E+02  0.91188000000E+02 0.  0.
    9900012    2    3    3    0    0  0.12964455396E+02 -0.14346905679E+02  0.31334795408E+02  0.54367079186E+02  0.39999988621E+02 0.  0.
        -12    1    3    3    0    0 -0.12964455396E+02  0.14346905679E+02 -0.31334795408E+02  0.36820920814E+02  0.00000000000E+00 0.  1.
         11    1    4    4    0    0  0.26714676874E+01 -0.15769720908E+02  0.11129124654E+02  0.19485334304E+02  0.51100000000E-03 0. -1.
        -11    1    4    4    0    0  0.10297762131E+02  0.81506476451E+01 -0.46750706769E+00  0.13141366940E+02  0.51100000000E-03 0.  1.
        -12    1    4    4    0    0 -0.47744219011E-02 -0.67278324168E+01  0.20673177822E+02  0.21740377942E+02  0.00000000000E+00 0.  1.
</event>
<event>
 8    1  0.1278459E-006  0.9118800E+02  0.7816164E-02  0.1184000E+00
        -11   -1    0    0    0    0  0.00000000000E+00  0.00000000000E+00  0.45593999997E+02  0.45594000000E+02  0.51100000000E-03 0. -1.
         11   -1    0    0    0    0 -0.00000000000E+00 -0.00000000000E+00 -0.45593999997E+02  0.45594000000E+02  0.51100000000E-03 0.  1.
         23    2    1    2    0    0 -0.17763568394E-14 -0.17763568394E-14  0.00000000000E+00  0.91188000000E+02  0.91188000000E+02 0.  0.
    9900012    2    3    3    0    0 -0.48822945344E+01 -0.10745347991E+02  0.34878063776E+02  0.54367100552E+02  0.40000037329E+02 0.  0.
        -12    1    3    3    0    0  0.48822945344E+01  0.10745347991E+02 -0.34878063776E+02  0.36820899448E+02  0.00000000000E+00 0.  1.
         11    1    4    4    0    0 -0.13906284713E+02 -0.11990741674E+02  0.29098494762E+02  0.34407630522E+02  0.51100000000E-03 0. -1.
        -11    1    4    4    0    0  0.30658660648E+00 -0.70444985740E+01  0.26146823335E+01  0.75203403827E+01  0.51100000000E-03 0.  1.
         12    1    4    4    0    0  0.87174035727E+01  0.82898922577E+01  0.31648866808E+01  0.12439129648E+02  0.00000000000E+00 0. -1.
</event>
<event>
 8    1  0.1278459E-006  0.9118800E+02  0.7816164E-02  0.1184000E+00
        -11   -1    0    0    0    0  0.00000000000E+00  0.00000000000E+00  0.45593999997E+02  0.45594000000E+02  0.51100000000E-03 0.  1.
         11   -1    0    0    0    0 -0.00000000000E+00 -0.00000000000E+00 -0.45593999997E+02  0.45594000000E+02  0.51100000000E-03 0. -1.
         23    2    1    2    0    0  0.00000000000E+00  0.00000000000E+00 -0.88817841970E-15  0.91188000000E+02  0.91188000000E+02 0.  0.
    9900012    2    3    3    0    0 -0.82170171161E+01 -0.35628763251E+02 -0.43417078052E+01  0.54367101481E+02  0.40000039445E+02 0.  0.
         12    1    3    3    0    0  0.82170171161E+01  0.35628763251E+02  0.43417078052E+01  0.36820898519E+02  0.00000000000E+00 0. -1.
         11    1    4    4    0    0 -0.60690985737E+01 -0.29055689145E+02 -0.19694225829E+02  0.35622037567E+02  0.51100000000E-03 0. -1.
        -11    1    4    4    0    0  0.19418172387E+01 -0.22622424679E+01  0.10952960930E+02  0.11351464601E+02  0.51100000000E-03 0.  1.
         12    1    4    4    0    0 -0.40897357812E+01 -0.43108316385E+01  0.43995570935E+01  0.73935993126E+01  0.00000000000E+00 0. -1.
</event>
<event>
 8    1  0.1278459E-006  0.9118800E+02  0.7816164E-02  0.1184000E+00
        -11   -1    0    0    0    0  0.00000000000E+00  0.00000000000E+00  0.45593999997E+02  0.45594000000E+02  0.51100000000E-03 0.  1.
         11   -1    0    0    0    0 -0.00000000000E+00 -0.00000000000E+00 -0.45593999997E+02  0.45594000000E+02  0.51100000000E-03 0. -1.
         23    2    1    2    0    0  0.00000000000E+00 -0.88817841970E-15  0.71054273576E-14  0.91188000000E+02  0.91188000000E+02 0.  0.
    9900012    2    3    3    0    0  0.17538761338E+02  0.12362436853E+01  0.32351863153E+02  0.54367088860E+02  0.40000010674E+02 0.  0.
         12    1    3    3    0    0 -0.17538761338E+02 -0.12362436853E+01 -0.32351863153E+02  0.36820911140E+02  0.00000000000E+00 0. -1.
         11    1    4    4    0    0  0.69604436235E+01 -0.18708240506E+01 -0.28830605778E+01  0.77627183783E+01  0.51100000000E-03 0. -1.
        -11    1    4    4    0    0  0.13968467621E+02 -0.67645251247E+01  0.32182958148E+02  0.35729815046E+02  0.51100000000E-03 0.  1.
         12    1    4    4    0    0 -0.33901499063E+01  0.98715928606E+01  0.30519655831E+01  0.10874555435E+02  0.00000000000E+00 0. -1.
</event>
<event>
 8    1  0.1278459E-006  0.9118800E+02  0.7816164E-02  0.1184000E+00
        -11   -1    0    0    0    0  0.00000000000E+00  0.00000000000E+00  0.45593999997E+02  0.45594000000E+02  0.51100000000E-03 0.  1.
         11   -1    0    0    0    0 -0.00000000000E+00 -0.00000000000E+00 -0.45593999997E+02  0.45594000000E+02  0.51100000000E-03 0. -1.
         23    2    1    2    0    0 -0.17763568394E-14 -0.35527136788E-14  0.35527136788E-14  0.91188000000E+02  0.91188000000E+02 0.  0.
    9900012    2    3    3    0    0 -0.12241522207E+02 -0.23901936773E+02 -0.25191710887E+02  0.54367085497E+02  0.40000003008E+02 0.  0.
        -12    1    3    3    0    0  0.12241522207E+02  0.23901936773E+02  0.25191710887E+02  0.36820914503E+02  0.00000000000E+00 0.  1.
         11    1    4    4    0    0  0.33844589797E+01 -0.88341318681E+01 -0.25990772213E+02  0.27658935065E+02  0.51100000000E-03 0. -1.
        -11    1    4    4    0    0 -0.11014114854E+02 -0.95727080446E+01  0.79171614722E+01  0.16602075513E+02  0.51100000000E-03 0.  1.
         12    1    4    4    0    0 -0.46118663327E+01 -0.54950968600E+01 -0.71181001464E+01  0.10106074919E+02  0.00000000000E+00 0. -1.
</event>
<event>
 8    1  0.1278459E-006  0.9118800E+02  0.7816164E-02  0.1184000E+00
        -11   -1    0    0    0    0  0.00000000000E+00  0.00000000000E+00  0.45593999997E+02  0.45594000000E+02  0.51100000000E-03 0.  1.
         11   -1    0    0    0    0 -0.00000000000E+00 -0.00000000000E+00 -0.45593999997E+02  0.45594000000E+02  0.51100000000E-03 0. -1.
         23    2    1    2    0    0 -0.88817841970E-15  0.00000000000E+00 -0.71054273576E-14  0.91188000000E+02  0.91188000000E+02 0.  0.
    9900012    2    3    3    0    0  0.78987499955E+01 -0.88583324212E+01 -0.34855717077E+02  0.54367064139E+02  0.39999954317E+02 0.  0.
        -12    1    3    3    0    0 -0.78987499955E+01  0.88583324212E+01  0.34855717077E+02  0.36820935861E+02  0.00000000000E+00 0.  1.
         11    1    4    4    0    0  0.37854412559E+01 -0.32080607770E+01 -0.19026812606E+02  0.19663184322E+02  0.51100000000E-03 0. -1.
        -11    1    4    4    0    0  0.21047324032E+01 -0.16355033337E+02 -0.12934288061E+01  0.16540555380E+02  0.51100000000E-03 0.  1.
        -12    1    4    4    0    0  0.20085763364E+01  0.10704761693E+02 -0.14535475664E+02  0.18163324437E+02  0.00000000000E+00 0.  1.
</event>
<event>
 8    1  0.1278459E-006  0.9118800E+02  0.7816164E-02  0.1184000E+00
        -11   -1    0    0    0    0  0.00000000000E+00  0.00000000000E+00  0.45593999997E+02  0.45594000000E+02  0.51100000000E-03 0.  1.
         11   -1    0    0    0    0 -0.00000000000E+00 -0.00000000000E+00 -0.45593999997E+02  0.45594000000E+02  0.51100000000E-03 0. -1.
         23    2    1    2    0    0 -0.35527136788E-14  0.00000000000E+00 -0.35527136788E-14  0.91188000000E+02  0.91188000000E+02 0.  0.
    9900012    2    3    3    0    0  0.20892850001E+02 -0.15263625761E+02  0.26197152616E+02  0.54367078532E+02  0.39999987130E+02 0.  0.
         12    1    3    3    0    0 -0.20892850001E+02  0.15263625761E+02 -0.26197152616E+02  0.36820921468E+02  0.00000000000E+00 0. -1.
         11    1    4    4    0    0  0.14723310685E+02 -0.11680570796E+02 -0.27185867558E+00  0.18795891015E+02  0.51100000000E-03 0. -1.
        -11    1    4    4    0    0  0.56157238406E+01  0.52707627018E+01  0.25511296783E+02  0.26648518862E+02  0.51100000000E-03 0.  1.
         12    1    4    4    0    0  0.55381547527E+00 -0.88538176669E+01  0.95771450878E+00  0.89226686558E+01  0.00000000000E+00 0. -1.
</event>
<event>
 8    1  0.1278459E-006  0.9118800E+02  0.7816164E-02  0.1184000E+00
        -11   -1    0    0    0    0  0.00000000000E+00  0.00000000000E+00  0.45593999997E+02  0.45594000000E+02  0.51100000000E-03 0. -1.
         11   -1    0    0    0    0 -0.00000000000E+00 -0.00000000000E+00 -0.45593999997E+02  0.45594000000E+02  0.51100000000E-03 0.  1.
         23    2    1    2    0    0  0.00000000000E+00  0.00000000000E+00  0.00000000000E+00  0.91188000000E+02  0.91188000000E+02 0.  0.
    9900012    2    3    3    0    0 -0.36398099941E+02  0.13149429704E+01 -0.54063928767E+01  0.54367084229E+02  0.40000000116E+02 0.  0.
         12    1    3    3    0    0  0.36398099941E+02 -0.13149429704E+01  0.54063928767E+01  0.36820915771E+02  0.00000000000E+00 0. -1.
         11    1    4    4    0    0 -0.16559888934E+02  0.13845806129E+01  0.70215892018E+01  0.18040224504E+02  0.51100000000E-03 0. -1.
        -11    1    4    4    0    0 -0.26370311346E+02  0.24605464683E+01 -0.12578869972E+02  0.29320224751E+02  0.51100000000E-03 0.  1.
        -12    1    4    4    0    0  0.65321003400E+01 -0.25301841108E+01  0.15088789373E+00  0.70066349728E+01  0.00000000000E+00 0.  1.
</event>
<event>
 8    1  0.1278459E-006  0.9118800E+02  0.7816164E-02  0.1184000E+00
        -11   -1    0    0    0    0  0.00000000000E+00  0.00000000000E+00  0.45593999997E+02  0.45594000000E+02  0.51100000000E-03 0.  1.
         11   -1    0    0    0    0 -0.00000000000E+00 -0.00000000000E+00 -0.45593999997E+02  0.45594000000E+02  0.51100000000E-03 0. -1.
         23    2    1    2    0    0  0.00000000000E+00 -0.88817841970E-15  0.00000000000E+00  0.91188000000E+02  0.91188000000E+02 0.  0.
    9900012    2    3    3    0    0 -0.36321841837E+02 -0.48759227491E+01  0.35681796088E+01  0.54367045058E+02  0.39999910820E+02 0.  0.
         12    1    3    3    0    0  0.36321841837E+02  0.48759227491E+01 -0.35681796088E+01  0.36820954942E+02  0.00000000000E+00 0. -1.
         11    1    4    4    0    0 -0.56301393950E+01  0.73050835572E+01  0.86434143480E+01  0.12640068324E+02  0.51100000000E-03 0. -1.
        -11    1    4    4    0    0 -0.16471922382E+02 -0.17282776786E+02  0.38450473073E+01  0.24182700210E+02  0.51100000000E-03 0.  1.
        -12    1    4    4    0    0 -0.14219780060E+02  0.51017704793E+01 -0.89202820465E+01  0.17544276525E+02  0.00000000000E+00 0.  1.
</event>
<event>
 8    1  0.1278459E-006  0.9118800E+02  0.7816164E-02  0.1184000E+00
        -11   -1    0    0    0    0  0.00000000000E+00  0.00000000000E+00  0.45593999997E+02  0.45594000000E+02  0.51100000000E-03 0.  1.
         11   -1    0    0    0    0 -0.00000000000E+00 -0.00000000000E+00 -0.45593999997E+02  0.45594000000E+02  0.51100000000E-03 0. -1.
         23    2    1    2    0    0  0.00000000000E+00  0.00000000000E+00 -0.17763568394E-14  0.91188000000E+02  0.91188000000E+02 0.  0.
    9900012    2    3    3    0    0  0.33491457268E+02  0.85162685770E+01 -0.12711321032E+02  0.54367051849E+02  0.39999926299E+02 0.  0.
         12    1    3    3    0    0 -0.33491457268E+02 -0.85162685770E+01  0.12711321032E+02  0.36820948151E+02  0.00000000000E+00 0. -1.
         11    1    4    4    0    0  0.15754983639E+02  0.20575788453E+00 -0.97547415698E+01  0.18531509089E+02  0.51100000000E-03 0. -1.
        -11    1    4    4    0    0  0.22350529196E+02 -0.34253301418E+01 -0.47307346618E+01  0.23101058257E+02  0.51100000000E-03 0.  1.
        -12    1    4    4    0    0 -0.46140555667E+01  0.11735840834E+02  0.17741551999E+01  0.12734484502E+02  0.00000000000E+00 0.  1.
</event>
<event>
 8    1  0.1278459E-006  0.9118800E+02  0.7816164E-02  0.1184000E+00
        -11   -1    0    0    0    0  0.00000000000E+00  0.00000000000E+00  0.45593999997E+02  0.45594000000E+02  0.51100000000E-03 0.  1.
         11   -1    0    0    0    0 -0.00000000000E+00 -0.00000000000E+00 -0.45593999997E+02  0.45594000000E+02  0.51100000000E-03 0. -1.
         23    2    1    2    0    0 -0.17763568394E-14  0.00000000000E+00  0.00000000000E+00  0.91188000000E+02  0.91188000000E+02 0.  0.
    9900012    2    3    3    0    0  0.13427460403E+02 -0.53608094498E+01 -0.33863616028E+02  0.54367089347E+02  0.40000011784E+02 0.  0.
        -12    1    3    3    0    0 -0.13427460403E+02  0.53608094498E+01  0.33863616028E+02  0.36820910653E+02  0.00000000000E+00 0.  1.
         11    1    4    4    0    0  0.43462996943E+01 -0.69902902013E+01 -0.18421676500E+02  0.20177032573E+02  0.51100000000E-03 0. -1.
        -11    1    4    4    0    0  0.13128236437E+02 -0.32125530385E+01  0.37179684376E+01  0.14017645256E+02  0.51100000000E-03 0.  1.
         12    1    4    4    0    0 -0.40470757284E+01  0.48420337900E+01 -0.19159907966E+02  0.20172411517E+02  0.00000000000E+00 0. -1.
</event>
<event>
 8    1  0.1278459E-006  0.9118800E+02  0.7816164E-02  0.1184000E+00
        -11   -1    0    0    0    0  0.00000000000E+00  0.00000000000E+00  0.45593999997E+02  0.45594000000E+02  0.51100000000E-03 0.  1.
         11   -1    0    0    0    0 -0.00000000000E+00 -0.00000000000E+00 -0.45593999997E+02  0.45594000000E+02  0.51100000000E-03 0. -1.
         23    2    1    2    0    0 -0.35527136788E-14 -0.35527136788E-14  0.17763568394E-14  0.91188000000E+02  0.91188000000E+02 0.  0.
    9900012    2    3    3    0    0  0.31290329325E+02  0.13611494031E+02 -0.13835523109E+02  0.54367093185E+02  0.40000020533E+02 0.  0.
        -12    1    3    3    0    0 -0.31290329325E+02 -0.13611494031E+02  0.13835523109E+02  0.36820906815E+02  0.00000000000E+00 0.  1.
         11    1    4    4    0    0  0.10750967443E+01  0.16314208525E+01 -0.19914664471E+01  0.27898576807E+01  0.51100000000E-03 0. -1.
        -11    1    4    4    0    0  0.24663448138E+02  0.23978458638E+02 -0.15691205523E+02  0.37808280624E+02  0.51100000000E-03 0.  1.
        -12    1    4    4    0    0  0.55517844423E+01 -0.11998385460E+02  0.38471488614E+01  0.13768954880E+02  0.00000000000E+00 0.  1.
</event>
<event>
 8    1  0.1278459E-006  0.9118800E+02  0.7816164E-02  0.1184000E+00
        -11   -1    0    0    0    0  0.00000000000E+00  0.00000000000E+00  0.45593999997E+02  0.45594000000E+02  0.51100000000E-03 0.  1.
         11   -1    0    0    0    0 -0.00000000000E+00 -0.00000000000E+00 -0.45593999997E+02  0.45594000000E+02  0.51100000000E-03 0. -1.
         23    2    1    2    0    0  0.44408920985E-15  0.00000000000E+00  0.12767564783E-14  0.91188000000E+02  0.91188000000E+02 0.  0.
    9900012    2    3    3    0    0  0.30747123513E+01 -0.36690499274E+02 -0.36517446883E+00  0.54367082773E+02  0.39999996798E+02 0.  0.
         12    1    3    3    0    0 -0.30747123513E+01  0.36690499274E+02  0.36517446883E+00  0.36820917227E+02  0.00000000000E+00 0. -1.
         11    1    4    4    0    0 -0.11874071645E+01 -0.28320074836E+02 -0.73661373010E+01  0.29286456827E+02  0.51100000000E-03 0. -1.
        -11    1    4    4    0    0  0.13225485597E+02 -0.41699483491E+01  0.60718324190E+01  0.15138331734E+02  0.51100000000E-03 0.  1.
         12    1    4    4    0    0 -0.89633660810E+01 -0.42004760893E+01  0.92913041316E+00  0.99422942123E+01  0.00000000000E+00 0. -1.
</event>
<event>
 8    1  0.1278459E-006  0.9118800E+02  0.7816164E-02  0.1184000E+00
        -11   -1    0    0    0    0  0.00000000000E+00  0.00000000000E+00  0.45593999997E+02  0.45594000000E+02  0.51100000000E-03 0.  1.
         11   -1    0    0    0    0 -0.00000000000E+00 -0.00000000000E+00 -0.45593999997E+02  0.45594000000E+02  0.51100000000E-03 0. -1.
         23    2    1    2    0    0  0.35527136788E-14  0.17763568394E-14  0.00000000000E+00  0.91188000000E+02  0.91188000000E+02 0.  0.
    9900012    2    3    3    0    0  0.17612165587E+02 -0.13113431845E+02  0.29557252809E+02  0.54367059422E+02  0.39999943564E+02 0.  0.
         12    1    3    3    0    0 -0.17612165587E+02  0.13113431845E+02 -0.29557252809E+02  0.36820940578E+02  0.00000000000E+00 0. -1.
         11    1    4    4    0    0 -0.46974928550E+01 -0.10965672069E+02  0.27769461786E+01  0.12248421669E+02  0.51100000000E-03 0. -1.
        -11    1    4    4    0    0  0.33276478279E+01 -0.51509354857E+01  0.21255108147E+02  0.22122047804E+02  0.51100000000E-03 0.  1.
         12    1    4    4    0    0  0.18982010614E+02  0.30031757095E+01  0.55251984843E+01  0.19996589949E+02  0.00000000000E+00 0. -1.
</event>
<event>
 8    1  0.1278459E-006  0.9118800E+02  0.7816164E-02  0.1184000E+00
        -11   -1    0    0    0    0  0.00000000000E+00  0.00000000000E+00  0.45593999997E+02  0.45594000000E+02  0.51100000000E-03 0.  1.
         11   -1    0    0    0    0 -0.00000000000E+00 -0.00000000000E+00 -0.45593999997E+02  0.45594000000E+02  0.51100000000E-03 0. -1.
         23    2    1    2    0    0  0.17763568394E-14  0.00000000000E+00  0.00000000000E+00  0.91188000000E+02  0.91188000000E+02 0.  0.
    9900012    2    3    3    0    0  0.13913702539E+02 -0.21146718900E+02 -0.26739580112E+02  0.54367082260E+02  0.39999995629E+02 0.  0.
        -12    1    3    3    0    0 -0.13913702539E+02  0.21146718900E+02  0.26739580112E+02  0.36820917740E+02  0.00000000000E+00 0.  1.
         11    1    4    4    0    0  0.41567116913E+01 -0.21046546153E+02  0.29352965622E+01  0.21652974927E+02  0.51100000000E-03 0. -1.
        -11    1    4    4    0    0 -0.41616688673E+00 -0.27817840309E+01 -0.10181743939E+02  0.10563116357E+02  0.51100000000E-03 0.  1.
         12    1    4    4    0    0  0.10173157735E+02  0.26816112831E+01 -0.19493132735E+02  0.22150990976E+02  0.00000000000E+00 0. -1.
</event>
<event>
 8    1  0.1278459E-006  0.9118800E+02  0.7816164E-02  0.1184000E+00
        -11   -1    0    0    0    0  0.00000000000E+00  0.00000000000E+00  0.45593999997E+02  0.45594000000E+02  0.51100000000E-03 0. -1.
         11   -1    0    0    0    0 -0.00000000000E+00 -0.00000000000E+00 -0.45593999997E+02  0.45594000000E+02  0.51100000000E-03 0.  1.
         23    2    1    2    0    0  0.00000000000E+00 -0.88817841970E-15 -0.35527136788E-14  0.91188000000E+02  0.91188000000E+02 0.  0.
    9900012    2    3    3    0    0  0.34402121459E+02 -0.26208379335E+01 -0.12860926913E+02  0.54367106565E+02  0.40000051035E+02 0.  0.
         12    1    3    3    0    0 -0.34402121459E+02  0.26208379335E+01  0.12860926913E+02  0.36820893435E+02  0.00000000000E+00 0. -1.
         11    1    4    4    0    0  0.48042348911E+01 -0.95547215941E+01 -0.14906303495E+01  0.10797932984E+02  0.51100000000E-03 0. -1.
        -11    1    4    4    0    0 -0.12576339435E+01 -0.66852029212E+01  0.22939866469E+01  0.71788547994E+01  0.51100000000E-03 0.  1.
        -12    1    4    4    0    0  0.30855520511E+02  0.13619086582E+02 -0.13664283210E+02  0.36390318781E+02  0.00000000000E+00 0.  1.
</event>
<event>
 8    1  0.1278459E-006  0.9118800E+02  0.7816164E-02  0.1184000E+00
        -11   -1    0    0    0    0  0.00000000000E+00  0.00000000000E+00  0.45593999997E+02  0.45594000000E+02  0.51100000000E-03 0. -1.
         11   -1    0    0    0    0 -0.00000000000E+00 -0.00000000000E+00 -0.45593999997E+02  0.45594000000E+02  0.51100000000E-03 0.  1.
         23    2    1    2    0    0  0.35527136788E-14  0.00000000000E+00 -0.44408920985E-15  0.91188000000E+02  0.91188000000E+02 0.  0.
    9900012    2    3    3    0    0 -0.24462435145E+02  0.27330055130E+02  0.32313681114E+01  0.54367022467E+02  0.39999859318E+02 0.  0.
        -12    1    3    3    0    0  0.24462435145E+02 -0.27330055130E+02 -0.32313681114E+01  0.36820977533E+02  0.00000000000E+00 0.  1.
         11    1    4    4    0    0 -0.22650426397E+02  0.13577867315E+02  0.17186787774E+02  0.31508506328E+02  0.51100000000E-03 0. -1.
        -11    1    4    4    0    0 -0.24745277065E+01  0.65032908960E+01  0.17833514304E+00  0.69604513886E+01  0.51100000000E-03 0.  1.
         12    1    4    4    0    0  0.66251895898E+00  0.72488969192E+01 -0.14133754805E+02  0.15898064750E+02  0.00000000000E+00 0. -1.
</event>
<event>
 8    1  0.1278459E-006  0.9118800E+02  0.7816164E-02  0.1184000E+00
        -11   -1    0    0    0    0  0.00000000000E+00  0.00000000000E+00  0.45593999997E+02  0.45594000000E+02  0.51100000000E-03 0.  1.
         11   -1    0    0    0    0 -0.00000000000E+00 -0.00000000000E+00 -0.45593999997E+02  0.45594000000E+02  0.51100000000E-03 0. -1.
         23    2    1    2    0    0  0.35527136788E-14 -0.35527136788E-14  0.17763568394E-14  0.91188000000E+02  0.91188000000E+02 0.  0.
    9900012    2    3    3    0    0 -0.29505277081E+02 -0.17002322850E+02  0.14004992958E+02  0.54367079511E+02  0.39999989361E+02 0.  0.
         12    1    3    3    0    0  0.29505277081E+02  0.17002322850E+02 -0.14004992958E+02  0.36820920489E+02  0.00000000000E+00 0. -1.
         11    1    4    4    0    0 -0.19930973622E+02 -0.81269543083E+01 -0.40507285737E+01  0.21902043240E+02  0.51100000000E-03 0. -1.
        -11    1    4    4    0    0  0.44565650349E+01  0.28922899761E+01 -0.16509411810E+01  0.55634449993E+01  0.51100000000E-03 0.  1.
        -12    1    4    4    0    0 -0.14030868493E+02 -0.11767658518E+02  0.19706662712E+02  0.26901591271E+02  0.00000000000E+00 0.  1.
</event>
<event>
 8    1  0.1278459E-006  0.9118800E+02  0.7816164E-02  0.1184000E+00
        -11   -1    0    0    0    0  0.00000000000E+00  0.00000000000E+00  0.45593999997E+02  0.45594000000E+02  0.51100000000E-03 0. -1.
         11   -1    0    0    0    0 -0.00000000000E+00 -0.00000000000E+00 -0.45593999997E+02  0.45594000000E+02  0.51100000000E-03 0.  1.
         23    2    1    2    0    0  0.00000000000E+00 -0.35527136788E-14  0.00000000000E+00  0.91188000000E+02  0.91188000000E+02 0.  0.
    9900012    2    3    3    0    0  0.53339151742E+01 -0.30486806314E+02  0.19946877454E+02  0.54367164452E+02  0.40000183000E+02 0.  0.
        -12    1    3    3    0    0 -0.53339151742E+01  0.30486806314E+02 -0.19946877454E+02  0.36820835548E+02  0.00000000000E+00 0.  1.
         11    1    4    4    0    0 -0.68771811133E+01 -0.29917858226E+01  0.25160933123E+01  0.79105706678E+01  0.51100000000E-03 0. -1.
        -11    1    4    4    0    0  0.11474266281E+02 -0.55342010906E+01 -0.62176346829E+01  0.14175512326E+02  0.51100000000E-03 0.  1.
         12    1    4    4    0    0  0.73683000683E+00 -0.21960819401E+02  0.23648418824E+02  0.32281081458E+02  0.00000000000E+00 0. -1.
</event>
<event>
 8    1  0.1278459E-006  0.9118800E+02  0.7816164E-02  0.1184000E+00
        -11   -1    0    0    0    0  0.00000000000E+00  0.00000000000E+00  0.45593999997E+02  0.45594000000E+02  0.51100000000E-03 0.  1.
         11   -1    0    0    0    0 -0.00000000000E+00 -0.00000000000E+00 -0.45593999997E+02  0.45594000000E+02  0.51100000000E-03 0. -1.
         23    2    1    2    0    0 -0.35527136788E-14  0.35527136788E-14  0.17763568394E-14  0.91188000000E+02  0.91188000000E+02 0.  0.
    9900012    2    3    3    0    0  0.19172731651E+02 -0.30096622447E+02  0.90756876637E+01  0.54367239168E+02  0.40000353330E+02 0.  0.
        -12    1    3    3    0    0 -0.19172731651E+02  0.30096622447E+02 -0.90756876637E+01  0.36820760832E+02  0.00000000000E+00 0.  1.
         11    1    4    4    0    0  0.11897091278E+02  0.11987660435E+01 -0.63464419213E+01  0.13537176450E+02  0.51100000000E-03 0. -1.
        -11    1    4    4    0    0 -0.34317797911E+01 -0.79781890869E+00  0.63441580051E+01  0.72568566612E+01  0.51100000000E-03 0.  1.
        -12    1    4    4    0    0  0.10707420164E+02 -0.30497569582E+02  0.90779715799E+01  0.33573206057E+02  0.00000000000E+00 0.  1.
</event>
<event>
 8    1  0.1278459E-006  0.9118800E+02  0.7816164E-02  0.1184000E+00
        -11   -1    0    0    0    0  0.00000000000E+00  0.00000000000E+00  0.45593999997E+02  0.45594000000E+02  0.51100000000E-03 0.  1.
         11   -1    0    0    0    0 -0.00000000000E+00 -0.00000000000E+00 -0.45593999997E+02  0.45594000000E+02  0.51100000000E-03 0. -1.
         23    2    1    2    0    0  0.88817841970E-15  0.00000000000E+00 -0.71054273576E-14  0.91188000000E+02  0.91188000000E+02 0.  0.
    9900012    2    3    3    0    0  0.21592822413E+01 -0.24607102114E+02 -0.27305815035E+02  0.54367088699E+02  0.40000010308E+02 0.  0.
        -12    1    3    3    0    0 -0.21592822413E+01  0.24607102114E+02  0.27305815035E+02  0.36820911301E+02  0.00000000000E+00 0.  1.
         11    1    4    4    0    0 -0.67295362768E+01 -0.85898338332E+01 -0.10829395932E+02  0.15373604661E+02  0.51100000000E-03 0. -1.
        -11    1    4    4    0    0  0.24227693986E+01  0.85168339262E+01 -0.21431176357E+00  0.88573247360E+01  0.51100000000E-03 0.  1.
         12    1    4    4    0    0  0.64660491195E+01 -0.24534102207E+02 -0.16262107340E+02  0.30136159302E+02  0.00000000000E+00 0. -1.
</event>
<event>
 8    1  0.1278459E-006  0.9118800E+02  0.7816164E-02  0.1184000E+00
        -11   -1    0    0    0    0  0.00000000000E+00  0.00000000000E+00  0.45593999997E+02  0.45594000000E+02  0.51100000000E-03 0. -1.
         11   -1    0    0    0    0 -0.00000000000E+00 -0.00000000000E+00 -0.45593999997E+02  0.45594000000E+02  0.51100000000E-03 0.  1.
         23    2    1    2    0    0 -0.44408920985E-15 -0.71054273576E-14  0.17763568394E-14  0.91188000000E+02  0.91188000000E+02 0.  0.
    9900012    2    3    3    0    0 -0.73290227650E+00  0.34398856349E+02 -0.13113411263E+02  0.54367081777E+02  0.39999994526E+02 0.  0.
        -12    1    3    3    0    0  0.73290227650E+00 -0.34398856349E+02  0.13113411263E+02  0.36820918223E+02  0.00000000000E+00 0.  1.
         11    1    4    4    0    0  0.82804585836E+01  0.20679066475E+02  0.66465214063E+01  0.23245774491E+02  0.51100000000E-03 0. -1.
        -11    1    4    4    0    0 -0.11167239924E+02  0.71800851740E+01 -0.39094495876E+01  0.13839966292E+02  0.51100000000E-03 0.  1.
        -12    1    4    4    0    0  0.21538790643E+01  0.65397046997E+01 -0.15850483082E+02  0.17281340993E+02  0.00000000000E+00 0.  1.
</event>
<event>
 8    1  0.1278459E-006  0.9118800E+02  0.7816164E-02  0.1184000E+00
        -11   -1    0    0    0    0  0.00000000000E+00  0.00000000000E+00  0.45593999997E+02  0.45594000000E+02  0.51100000000E-03 0.  1.
         11   -1    0    0    0    0 -0.00000000000E+00 -0.00000000000E+00 -0.45593999997E+02  0.45594000000E+02  0.51100000000E-03 0. -1.
         23    2    1    2    0    0  0.00000000000E+00 -0.17763568394E-14  0.00000000000E+00  0.91188000000E+02  0.91188000000E+02 0.  0.
    9900012    2    3    3    0    0 -0.33887270736E+02 -0.14104563746E+02  0.29143835041E+01  0.54367089261E+02  0.40000011589E+02 0.  0.
         12    1    3    3    0    0  0.33887270736E+02  0.14104563746E+02 -0.29143835041E+01  0.36820910739E+02  0.00000000000E+00 0. -1.
         11    1    4    4    0    0 -0.29413614100E+02  0.48311702989E+01 -0.64401332425E+01  0.30495511429E+02  0.51100000000E-03 0. -1.
        -11    1    4    4    0    0 -0.59121761733E+01 -0.45822561164E+01  0.23870951152E+01  0.78516954583E+01  0.51100000000E-03 0.  1.
         12    1    4    4    0    0  0.14385195363E+01 -0.14353477928E+02  0.69674216315E+01  0.16019882374E+02  0.00000000000E+00 0. -1.
</event>
<event>
 8    1  0.1278459E-006  0.9118800E+02  0.7816164E-02  0.1184000E+00
        -11   -1    0    0    0    0  0.00000000000E+00  0.00000000000E+00  0.45593999997E+02  0.45594000000E+02  0.51100000000E-03 0.  1.
         11   -1    0    0    0    0 -0.00000000000E+00 -0.00000000000E+00 -0.45593999997E+02  0.45594000000E+02  0.51100000000E-03 0. -1.
         23    2    1    2    0    0  0.88817841970E-15  0.00000000000E+00  0.00000000000E+00  0.91188000000E+02  0.91188000000E+02 0.  0.
    9900012    2    3    3    0    0 -0.20695303877E+01  0.26482267099E+02 -0.25498735531E+02  0.54367096421E+02  0.40000027910E+02 0.  0.
        -12    1    3    3    0    0  0.20695303877E+01 -0.26482267099E+02  0.25498735531E+02  0.36820903579E+02  0.00000000000E+00 0.  1.
         11    1    4    4    0    0  0.87270059022E+01  0.14583273495E+02 -0.13880369316E+02  0.21943043327E+02  0.51100000000E-03 0. -1.
        -11    1    4    4    0    0 -0.68057700766E+01  0.18629265652E+02 -0.13963268412E+02  0.24255739735E+02  0.51100000000E-03 0.  1.
        -12    1    4    4    0    0 -0.39907662132E+01 -0.67302720476E+01  0.23449021978E+01  0.81683133584E+01  0.00000000000E+00 0.  1.
</event>
<event>
 8    1  0.1278459E-006  0.9118800E+02  0.7816164E-02  0.1184000E+00
        -11   -1    0    0    0    0  0.00000000000E+00  0.00000000000E+00  0.45593999997E+02  0.45594000000E+02  0.51100000000E-03 0.  1.
         11   -1    0    0    0    0 -0.00000000000E+00 -0.00000000000E+00 -0.45593999997E+02  0.45594000000E+02  0.51100000000E-03 0. -1.
         23    2    1    2    0    0 -0.22204460493E-15  0.00000000000E+00  0.35527136788E-14  0.91188000000E+02  0.91188000000E+02 0.  0.
    9900012    2    3    3    0    0  0.50228577700E+00 -0.27381558745E+02 -0.24612631715E+02  0.54367031922E+02  0.39999880871E+02 0.  0.
        -12    1    3    3    0    0 -0.50228577700E+00  0.27381558745E+02  0.24612631715E+02  0.36820968078E+02  0.00000000000E+00 0.  1.
         11    1    4    4    0    0  0.21836405509E+00 -0.24589900128E+02  0.37230088412E+01  0.24871101026E+02  0.51100000000E-03 0. -1.
        -11    1    4    4    0    0 -0.14270754688E+01  0.19593981450E+01 -0.15742949675E+02  0.15928472941E+02  0.51100000000E-03 0.  1.
         12    1    4    4    0    0  0.17109971907E+01 -0.47510567626E+01 -0.12592690880E+02  0.13567457955E+02  0.00000000000E+00 0. -1.
</event>
<event>
 8    1  0.1278459E-006  0.9118800E+02  0.7816164E-02  0.1184000E+00
        -11   -1    0    0    0    0  0.00000000000E+00  0.00000000000E+00  0.45593999997E+02  0.45594000000E+02  0.51100000000E-03 0.  1.
         11   -1    0    0    0    0 -0.00000000000E+00 -0.00000000000E+00 -0.45593999997E+02  0.45594000000E+02  0.51100000000E-03 0. -1.
         23    2    1    2    0    0  0.00000000000E+00  0.00000000000E+00  0.00000000000E+00  0.91188000000E+02  0.91188000000E+02 0.  0.
    9900012    2    3    3    0    0  0.22376920343E+02 -0.34986631147E+01 -0.29031230703E+02  0.54367087956E+02  0.40000008612E+02 0.  0.
        -12    1    3    3    0    0 -0.22376920343E+02  0.34986631147E+01  0.29031230703E+02  0.36820912044E+02  0.00000000000E+00 0.  1.
         11    1    4    4    0    0  0.10767652207E+02 -0.19391327296E+02 -0.22789868724E+02  0.31801635572E+02  0.51100000000E-03 0. -1.
        -11    1    4    4    0    0  0.98026547340E+01  0.65866995424E+01 -0.55822660671E+01  0.13062861302E+02  0.51100000000E-03 0.  1.
         12    1    4    4    0    0  0.18066134029E+01  0.93059646385E+01 -0.65909591199E+00  0.95025910815E+01  0.00000000000E+00 0. -1.
</event>
<event>
 8    1  0.1278459E-006  0.9118800E+02  0.7816164E-02  0.1184000E+00
        -11   -1    0    0    0    0  0.00000000000E+00  0.00000000000E+00  0.45593999997E+02  0.45594000000E+02  0.51100000000E-03 0.  1.
         11   -1    0    0    0    0 -0.00000000000E+00 -0.00000000000E+00 -0.45593999997E+02  0.45594000000E+02  0.51100000000E-03 0. -1.
         23    2    1    2    0    0  0.35527136788E-14 -0.44408920985E-15 -0.35527136788E-14  0.91188000000E+02  0.91188000000E+02 0.  0.
    9900012    2    3    3    0    0  0.19180071243E+02 -0.39455308169E+01 -0.31182324347E+02  0.54367086133E+02  0.40000004458E+02 0.  0.
        -12    1    3    3    0    0 -0.19180071243E+02  0.39455308169E+01  0.31182324347E+02  0.36820913867E+02  0.00000000000E+00 0.  1.
         11    1    4    4    0    0  0.17055878678E+02  0.58652153493E+01 -0.97529677148E+01  0.20504246586E+02  0.51100000000E-03 0. -1.
        -11    1    4    4    0    0  0.96979182584E+01  0.36650745026E+01 -0.11534305968E+02  0.15508791187E+02  0.51100000000E-03 0.  1.
         12    1    4    4    0    0 -0.75737256930E+01 -0.13475820669E+02 -0.98950506635E+01  0.18354048360E+02  0.00000000000E+00 0. -1.
</event>
<event>
 8    1  0.1278459E-006  0.9118800E+02  0.7816164E-02  0.1184000E+00
        -11   -1    0    0    0    0  0.00000000000E+00  0.00000000000E+00  0.45593999997E+02  0.45594000000E+02  0.51100000000E-03 0. -1.
         11   -1    0    0    0    0 -0.00000000000E+00 -0.00000000000E+00 -0.45593999997E+02  0.45594000000E+02  0.51100000000E-03 0.  1.
         23    2    1    2    0    0  0.35527136788E-14 -0.16653345369E-14  0.35527136788E-14  0.91188000000E+02  0.91188000000E+02 0.  0.
    9900012    2    3    3    0    0 -0.24009756911E+02 -0.94721630001E+00 -0.27900169181E+02  0.54367012968E+02  0.39999837664E+02 0.  0.
         12    1    3    3    0    0  0.24009756911E+02  0.94721630001E+00  0.27900169181E+02  0.36820987032E+02  0.00000000000E+00 0. -1.
         11    1    4    4    0    0 -0.13037765391E+02 -0.19661926958E+01  0.49819214903E+01  0.14094991384E+02  0.51100000000E-03 0. -1.
        -11    1    4    4    0    0 -0.44977549716E+01 -0.90027635590E+01 -0.86844371600E+01  0.13292817629E+02  0.51100000000E-03 0.  1.
        -12    1    4    4    0    0 -0.64742365483E+01  0.10021739955E+02 -0.24197653511E+02  0.26979203955E+02  0.00000000000E+00 0.  1.
</event>
<event>
 8    1  0.1278459E-006  0.9118800E+02  0.7816164E-02  0.1184000E+00
        -11   -1    0    0    0    0  0.00000000000E+00  0.00000000000E+00  0.45593999997E+02  0.45594000000E+02  0.51100000000E-03 0.  1.
         11   -1    0    0    0    0 -0.00000000000E+00 -0.00000000000E+00 -0.45593999997E+02  0.45594000000E+02  0.51100000000E-03 0. -1.
         23    2    1    2    0    0  0.00000000000E+00  0.35527136788E-14  0.44408920985E-15  0.91188000000E+02  0.91188000000E+02 0.  0.
    9900012    2    3    3    0    0  0.18493119843E+02 -0.31677508466E+02  0.32125177167E+01  0.54367078036E+02  0.39999985999E+02 0.  0.
        -12    1    3    3    0    0 -0.18493119843E+02  0.31677508466E+02 -0.32125177167E+01  0.36820921964E+02  0.00000000000E+00 0.  1.
         11    1    4    4    0    0  0.19448933411E+02 -0.11881072992E+02 -0.21044246286E+00  0.22791779056E+02  0.51100000000E-03 0. -1.
        -11    1    4    4    0    0 -0.37820241512E+01  0.11249869137E+01 -0.69966135886E+01  0.80325527827E+01  0.51100000000E-03 0.  1.
         12    1    4    4    0    0  0.28262105837E+01 -0.20921422388E+02  0.10419573768E+02  0.23542746198E+02  0.00000000000E+00 0. -1.
</event>
<event>
 8    1  0.1278459E-006  0.9118800E+02  0.7816164E-02  0.1184000E+00
        -11   -1    0    0    0    0  0.00000000000E+00  0.00000000000E+00  0.45593999997E+02  0.45594000000E+02  0.51100000000E-03 0. -1.
         11   -1    0    0    0    0 -0.00000000000E+00 -0.00000000000E+00 -0.45593999997E+02  0.45594000000E+02  0.51100000000E-03 0.  1.
         23    2    1    2    0    0  0.35527136788E-14 -0.35527136788E-14  0.00000000000E+00  0.91188000000E+02  0.91188000000E+02 0.  0.
    9900012    2    3    3    0    0  0.20916431164E+02 -0.14175158477E+02 -0.26783315733E+02  0.54367106310E+02  0.40000050455E+02 0.  0.
         12    1    3    3    0    0 -0.20916431164E+02  0.14175158477E+02  0.26783315733E+02  0.36820893690E+02  0.00000000000E+00 0. -1.
         11    1    4    4    0    0  0.86788928806E+01  0.69419597133E+01  0.61872970357E+01  0.12719930470E+02  0.51100000000E-03 0. -1.
        -11    1    4    4    0    0  0.94904531557E+01 -0.12013574709E+02 -0.15682897003E+02  0.21916841402E+02  0.51100000000E-03 0.  1.
         12    1    4    4    0    0  0.27470851275E+01 -0.91035434816E+01 -0.17287715766E+02  0.19730334438E+02  0.00000000000E+00 0. -1.
</event>
<event>
 8    1  0.1278459E-006  0.9118800E+02  0.7816164E-02  0.1184000E+00
        -11   -1    0    0    0    0  0.00000000000E+00  0.00000000000E+00  0.45593999997E+02  0.45594000000E+02  0.51100000000E-03 0.  1.
         11   -1    0    0    0    0 -0.00000000000E+00 -0.00000000000E+00 -0.45593999997E+02  0.45594000000E+02  0.51100000000E-03 0. -1.
         23    2    1    2    0    0  0.00000000000E+00 -0.35527136788E-14  0.00000000000E+00  0.91188000000E+02  0.91188000000E+02 0.  0.
    9900012    2    3    3    0    0 -0.27025519388E+02 -0.18403589842E+02  0.16932477846E+02  0.54367087147E+02  0.40000006770E+02 0.  0.
         12    1    3    3    0    0  0.27025519388E+02  0.18403589842E+02 -0.16932477846E+02  0.36820912853E+02  0.00000000000E+00 0. -1.
         11    1    4    4    0    0 -0.23497749796E+02 -0.66660360818E+01 -0.32017679352E+01  0.24633952194E+02  0.51100000000E-03 0. -1.
        -11    1    4    4    0    0  0.29856686902E+01  0.28667726351E+01  0.99445426418E+01  0.10771561237E+02  0.51100000000E-03 0.  1.
        -12    1    4    4    0    0 -0.65134382823E+01 -0.14604326396E+02  0.10189703140E+02  0.18961573716E+02  0.00000000000E+00 0.  1.
</event>
<event>
 8    1  0.1278459E-006  0.9118800E+02  0.7816164E-02  0.1184000E+00
        -11   -1    0    0    0    0  0.00000000000E+00  0.00000000000E+00  0.45593999997E+02  0.45594000000E+02  0.51100000000E-03 0.  1.
         11   -1    0    0    0    0 -0.00000000000E+00 -0.00000000000E+00 -0.45593999997E+02  0.45594000000E+02  0.51100000000E-03 0. -1.
         23    2    1    2    0    0  0.17763568394E-14 -0.71054273576E-14 -0.17763568394E-14  0.91188000000E+02  0.91188000000E+02 0.  0.
    9900012    2    3    3    0    0  0.13356502520E+01 -0.34696459564E+02 -0.12253563271E+02  0.54367108095E+02  0.40000054523E+02 0.  0.
        -12    1    3    3    0    0 -0.13356502520E+01  0.34696459564E+02  0.12253563271E+02  0.36820891905E+02  0.00000000000E+00 0.  1.
         11    1    4    4    0    0 -0.35928098631E+01 -0.70838452334E+01  0.38979670459E+01  0.88477846580E+01  0.51100000000E-03 0. -1.
        -11    1    4    4    0    0  0.94009010595E+01 -0.28322768645E+02 -0.22744050499E+02  0.37521300587E+02  0.51100000000E-03 0.  1.
        -12    1    4    4    0    0 -0.44724409445E+01  0.71015431409E+00  0.65925201815E+01  0.79980228491E+01  0.00000000000E+00 0.  1.
</event>
<event>
 8    1  0.1278459E-006  0.9118800E+02  0.7816164E-02  0.1184000E+00
        -11   -1    0    0    0    0  0.00000000000E+00  0.00000000000E+00  0.45593999997E+02  0.45594000000E+02  0.51100000000E-03 0.  1.
         11   -1    0    0    0    0 -0.00000000000E+00 -0.00000000000E+00 -0.45593999997E+02  0.45594000000E+02  0.51100000000E-03 0. -1.
         23    2    1    2    0    0 -0.88817841970E-15  0.00000000000E+00  0.35527136788E-14  0.91188000000E+02  0.91188000000E+02 0.  0.
    9900012    2    3    3    0    0  0.20959065545E+01 -0.18474962456E+02 -0.31781477569E+02  0.54367090471E+02  0.40000014348E+02 0.  0.
        -12    1    3    3    0    0 -0.20959065545E+01  0.18474962456E+02  0.31781477569E+02  0.36820909529E+02  0.00000000000E+00 0.  1.
         11    1    4    4    0    0 -0.42304707379E+01 -0.87030467894E+01 -0.32566971199E+02  0.33974218452E+02  0.51100000000E-03 0. -1.
        -11    1    4    4    0    0  0.86516143618E+01 -0.12934546738E+02 -0.18410164253E+01  0.15669788515E+02  0.51100000000E-03 0.  1.
        -12    1    4    4    0    0 -0.23252370694E+01  0.31626310714E+01  0.26265100547E+01  0.47230835044E+01  0.00000000000E+00 0.  1.
</event>
<event>
 8    1  0.1278459E-006  0.9118800E+02  0.7816164E-02  0.1184000E+00
        -11   -1    0    0    0    0  0.00000000000E+00  0.00000000000E+00  0.45593999997E+02  0.45594000000E+02  0.51100000000E-03 0.  1.
         11   -1    0    0    0    0 -0.00000000000E+00 -0.00000000000E+00 -0.45593999997E+02  0.45594000000E+02  0.51100000000E-03 0. -1.
         23    2    1    2    0    0  0.35527136788E-14 -0.71054273576E-14  0.00000000000E+00  0.91188000000E+02  0.91188000000E+02 0.  0.
    9900012    2    3    3    0    0 -0.20681223189E+02  0.28863511358E+02 -0.97449999796E+01  0.54367077889E+02  0.39999985664E+02 0.  0.
        -12    1    3    3    0    0  0.20681223189E+02 -0.28863511358E+02  0.97449999796E+01  0.36820922111E+02  0.00000000000E+00 0.  1.
         11    1    4    4    0    0 -0.57681938807E+01 -0.55738872726E+01 -0.16669316448E+01  0.81926150491E+01  0.51100000000E-03 0. -1.
        -11    1    4    4    0    0 -0.22283770736E+01  0.11323335695E+02 -0.14989820856E+02  0.18917672298E+02  0.51100000000E-03 0.  1.
        -12    1    4    4    0    0 -0.12684652235E+02  0.23114062935E+02  0.69117525212E+01  0.27256790542E+02  0.00000000000E+00 0.  1.
</event>
<event>
 8    1  0.1278459E-006  0.9118800E+02  0.7816164E-02  0.1184000E+00
        -11   -1    0    0    0    0  0.00000000000E+00  0.00000000000E+00  0.45593999997E+02  0.45594000000E+02  0.51100000000E-03 0.  1.
         11   -1    0    0    0    0 -0.00000000000E+00 -0.00000000000E+00 -0.45593999997E+02  0.45594000000E+02  0.51100000000E-03 0. -1.
         23    2    1    2    0    0  0.26645352591E-14  0.00000000000E+00  0.35527136788E-14  0.91188000000E+02  0.91188000000E+02 0.  0.
    9900012    2    3    3    0    0 -0.43389558406E+01 -0.19842934777E+02  0.30711750492E+02  0.54367079090E+02  0.39999988402E+02 0.  0.
         12    1    3    3    0    0  0.43389558406E+01  0.19842934777E+02 -0.30711750492E+02  0.36820920910E+02  0.00000000000E+00 0. -1.
         11    1    4    4    0    0  0.60014006619E+01 -0.22339954897E+01  0.70438986145E+01  0.95196666804E+01  0.51100000000E-03 0.  1.
        -11    1    4    4    0    0  0.10168847520E+02  0.12197928478E+01  0.59038870899E+01  0.11821558168E+02  0.51100000000E-03 0. -1.
        -12    1    4    4    0    0 -0.20509204023E+02 -0.18828732135E+02  0.17763964788E+02  0.33025854242E+02  0.00000000000E+00 0.  1.
</event>
<event>
 8    1  0.1278459E-006  0.9118800E+02  0.7816164E-02  0.1184000E+00
        -11   -1    0    0    0    0  0.00000000000E+00  0.00000000000E+00  0.45593999997E+02  0.45594000000E+02  0.51100000000E-03 0.  1.
         11   -1    0    0    0    0 -0.00000000000E+00 -0.00000000000E+00 -0.45593999997E+02  0.45594000000E+02  0.51100000000E-03 0. -1.
         23    2    1    2    0    0  0.88817841970E-15  0.10130785100E-14 -0.71054273576E-14  0.91188000000E+02  0.91188000000E+02 0.  0.
    9900012    2    3    3    0    0  0.37506663228E+01  0.11714326296E+00  0.36629188954E+02  0.54367099633E+02  0.40000035234E+02 0.  0.
         12    1    3    3    0    0 -0.37506663228E+01 -0.11714326296E+00 -0.36629188954E+02  0.36820900367E+02  0.00000000000E+00 0. -1.
         11    1    4    4    0    0 -0.16000700700E+01 -0.10602520163E+02  0.52665530450E+00  0.10735502974E+02  0.51100000000E-03 0. -1.
        -11    1    4    4    0    0  0.93560215283E+00  0.16888497503E+02  0.24735239691E+02  0.29965459819E+02  0.51100000000E-03 0.  1.
         12    1    4    4    0    0  0.44151342400E+01 -0.61688340777E+01  0.11367293958E+02  0.13666136841E+02  0.00000000000E+00 0. -1.
</event>
<event>
 8    1  0.1278459E-006  0.9118800E+02  0.7816164E-02  0.1184000E+00
        -11   -1    0    0    0    0  0.00000000000E+00  0.00000000000E+00  0.45593999997E+02  0.45594000000E+02  0.51100000000E-03 0.  1.
         11   -1    0    0    0    0 -0.00000000000E+00 -0.00000000000E+00 -0.45593999997E+02  0.45594000000E+02  0.51100000000E-03 0. -1.
         23    2    1    2    0    0 -0.17763568394E-14  0.35527136788E-14 -0.35527136788E-14  0.91188000000E+02  0.91188000000E+02 0.  0.
    9900012    2    3    3    0    0 -0.10717539827E+02  0.30288758439E+02 -0.17986336334E+02  0.54367043434E+02  0.39999907117E+02 0.  0.
         12    1    3    3    0    0  0.10717539827E+02 -0.30288758439E+02  0.17986336334E+02  0.36820956566E+02  0.00000000000E+00 0. -1.
         11    1    4    4    0    0 -0.89509940192E+00 -0.37009616995E+01 -0.28996013485E+01  0.47860222191E+01  0.51100000000E-03 0. -1.
        -11    1    4    4    0    0  0.16541008282E+01  0.29508458175E+02 -0.20658689542E+02  0.36059209742E+02  0.51100000000E-03 0.  1.
         12    1    4    4    0    0 -0.11476541253E+02  0.44812619636E+01  0.55719545563E+01  0.13521811473E+02  0.00000000000E+00 0. -1.
</event>
<event>
 8    1  0.1278459E-006  0.9118800E+02  0.7816164E-02  0.1184000E+00
        -11   -1    0    0    0    0  0.00000000000E+00  0.00000000000E+00  0.45593999997E+02  0.45594000000E+02  0.51100000000E-03 0.  1.
         11   -1    0    0    0    0 -0.00000000000E+00 -0.00000000000E+00 -0.45593999997E+02  0.45594000000E+02  0.51100000000E-03 0. -1.
         23    2    1    2    0    0 -0.66613381478E-15 -0.88817841970E-15  0.00000000000E+00  0.91188000000E+02  0.91188000000E+02 0.  0.
    9900012    2    3    3    0    0 -0.74400343577E+00 -0.67585703607E+01 -0.36187559446E+02  0.54367200537E+02  0.40000265264E+02 0.  0.
        -12    1    3    3    0    0  0.74400343577E+00  0.67585703607E+01  0.36187559446E+02  0.36820799463E+02  0.00000000000E+00 0.  1.
         11    1    4    4    0    0  0.60055843544E+01 -0.18466331432E+02 -0.27058679301E+02  0.33305323385E+02  0.51100000000E-03 0. -1.
        -11    1    4    4    0    0 -0.43840710608E+00  0.73025852666E+01 -0.10934757159E+02  0.13156324211E+02  0.51100000000E-03 0.  1.
        -12    1    4    4    0    0 -0.63111806841E+01  0.44051758050E+01  0.18058770144E+01  0.79055529403E+01  0.00000000000E+00 0.  1.
</event>
<event>
 8    1  0.1278459E-006  0.9118800E+02  0.7816164E-02  0.1184000E+00
        -11   -1    0    0    0    0  0.00000000000E+00  0.00000000000E+00  0.45593999997E+02  0.45594000000E+02  0.51100000000E-03 0.  1.
         11   -1    0    0    0    0 -0.00000000000E+00 -0.00000000000E+00 -0.45593999997E+02  0.45594000000E+02  0.51100000000E-03 0. -1.
         23    2    1    2    0    0  0.17763568394E-14 -0.35527136788E-14 -0.35527136788E-14  0.91188000000E+02  0.91188000000E+02 0.  0.
    9900012    2    3    3    0    0 -0.12191336759E+02 -0.29622677634E+02  0.18156221003E+02  0.54367080901E+02  0.39999992531E+02 0.  0.
         12    1    3    3    0    0  0.12191336759E+02  0.29622677634E+02 -0.18156221003E+02  0.36820919099E+02  0.00000000000E+00 0. -1.
         11    1    4    4    0    0 -0.12856496346E+01 -0.24197201326E+02 -0.49596974849E+01  0.24733702642E+02  0.51100000000E-03 0. -1.
        -11    1    4    4    0    0  0.24782727765E+00 -0.55805306868E+01  0.23480397204E+01  0.60594580530E+01  0.51100000000E-03 0.  1.
         12    1    4    4    0    0 -0.11153514402E+02  0.15505437918E+00  0.20767878768E+02  0.23573920206E+02  0.00000000000E+00 0. -1.
</event>
<event>
 8    1  0.1278459E-006  0.9118800E+02  0.7816164E-02  0.1184000E+00
        -11   -1    0    0    0    0  0.00000000000E+00  0.00000000000E+00  0.45593999997E+02  0.45594000000E+02  0.51100000000E-03 0.  1.
         11   -1    0    0    0    0 -0.00000000000E+00 -0.00000000000E+00 -0.45593999997E+02  0.45594000000E+02  0.51100000000E-03 0. -1.
         23    2    1    2    0    0  0.00000000000E+00  0.17763568394E-14  0.00000000000E+00  0.91188000000E+02  0.91188000000E+02 0.  0.
    9900012    2    3    3    0    0  0.32530535921E+02 -0.12650702610E+02 -0.11726186014E+02  0.54367089063E+02  0.40000011137E+02 0.  0.
        -12    1    3    3    0    0 -0.32530535921E+02  0.12650702610E+02  0.11726186014E+02  0.36820910937E+02  0.00000000000E+00 0.  1.
         11    1    4    4    0    0  0.12495755520E+02 -0.90278287330E+01  0.18353446103E+01  0.15524628426E+02  0.51100000000E-03 0. -1.
        -11    1    4    4    0    0  0.29176907287E+01 -0.12874860633E+02 -0.14181647094E+02  0.19375088904E+02  0.51100000000E-03 0.  1.
        -12    1    4    4    0    0  0.17117089672E+02  0.92519867554E+01  0.62011646974E+00  0.19467371733E+02  0.00000000000E+00 0.  1.
</event>
<event>
 8    1  0.1278459E-006  0.9118800E+02  0.7816164E-02  0.1184000E+00
        -11   -1    0    0    0    0  0.00000000000E+00  0.00000000000E+00  0.45593999997E+02  0.45594000000E+02  0.51100000000E-03 0.  1.
         11   -1    0    0    0    0 -0.00000000000E+00 -0.00000000000E+00 -0.45593999997E+02  0.45594000000E+02  0.51100000000E-03 0. -1.
         23    2    1    2    0    0  0.00000000000E+00  0.00000000000E+00  0.35527136788E-14  0.91188000000E+02  0.91188000000E+02 0.  0.
    9900012    2    3    3    0    0 -0.29739513857E+02  0.12441990334E+02  0.17791427908E+02  0.54367126641E+02  0.40000096803E+02 0.  0.
         12    1    3    3    0    0  0.29739513857E+02 -0.12441990334E+02 -0.17791427908E+02  0.36820873359E+02  0.00000000000E+00 0. -1.
         11    1    4    4    0    0 -0.80783682130E+01  0.66618548821E+01 -0.56213899068E+01  0.11884459104E+02  0.51100000000E-03 0. -1.
        -11    1    4    4    0    0 -0.20669336689E+02 -0.43095604668E+01  0.24434477683E+02  0.32292994449E+02  0.51100000000E-03 0.  1.
        -12    1    4    4    0    0 -0.99180895495E+00  0.10089695919E+02 -0.10216598680E+01  0.10189673087E+02  0.00000000000E+00 0.  1.
</event>
<event>
 8    1  0.1278459E-006  0.9118800E+02  0.7816164E-02  0.1184000E+00
        -11   -1    0    0    0    0  0.00000000000E+00  0.00000000000E+00  0.45593999997E+02  0.45594000000E+02  0.51100000000E-03 0. -1.
         11   -1    0    0    0    0 -0.00000000000E+00 -0.00000000000E+00 -0.45593999997E+02  0.45594000000E+02  0.51100000000E-03 0.  1.
         23    2    1    2    0    0  0.00000000000E+00  0.17763568394E-14  0.00000000000E+00  0.91188000000E+02  0.91188000000E+02 0.  0.
    9900012    2    3    3    0    0 -0.43609264330E+01 -0.96846041721E+01 -0.35255761116E+02  0.54367110152E+02  0.40000059213E+02 0.  0.
         12    1    3    3    0    0  0.43609264330E+01  0.96846041721E+01  0.35255761116E+02  0.36820889848E+02  0.00000000000E+00 0. -1.
         11    1    4    4    0    0  0.17041744284E+01 -0.82599467714E+01  0.16684280436E+01  0.85973591031E+01  0.51100000000E-03 0. -1.
        -11    1    4    4    0    0 -0.11250602812E+02  0.81668291709E+01 -0.29402550731E+02  0.32523578402E+02  0.51100000000E-03 0.  1.
        -12    1    4    4    0    0  0.51855019502E+01 -0.95914865716E+01 -0.75216384294E+01  0.13246172647E+02  0.00000000000E+00 0.  1.
</event>
<event>
 8    1  0.1278459E-006  0.9118800E+02  0.7816164E-02  0.1184000E+00
        -11   -1    0    0    0    0  0.00000000000E+00  0.00000000000E+00  0.45593999997E+02  0.45594000000E+02  0.51100000000E-03 0. -1.
         11   -1    0    0    0    0 -0.00000000000E+00 -0.00000000000E+00 -0.45593999997E+02  0.45594000000E+02  0.51100000000E-03 0.  1.
         23    2    1    2    0    0  0.00000000000E+00  0.00000000000E+00  0.00000000000E+00  0.91188000000E+02  0.91188000000E+02 0.  0.
    9900012    2    3    3    0    0 -0.88045244385E+01 -0.30153444127E+02  0.19210133558E+02  0.54367094598E+02  0.40000023755E+02 0.  0.
         12    1    3    3    0    0  0.88045244385E+01  0.30153444127E+02 -0.19210133558E+02  0.36820905402E+02  0.00000000000E+00 0. -1.
         11    1    4    4    0    0  0.19777318744E+01  0.38060438449E+01 -0.31646925375E+01  0.53303538564E+01  0.51100000000E-03 0. -1.
        -11    1    4    4    0    0 -0.59568935339E+01 -0.95600265777E+01  0.21355219906E+02  0.24143821285E+02  0.51100000000E-03 0.  1.
        -12    1    4    4    0    0 -0.48253627790E+01 -0.24399461394E+02  0.10196061891E+01  0.24892919456E+02  0.00000000000E+00 0.  1.
</event>
<event>
 8    1  0.1278459E-006  0.9118800E+02  0.7816164E-02  0.1184000E+00
        -11   -1    0    0    0    0  0.00000000000E+00  0.00000000000E+00  0.45593999997E+02  0.45594000000E+02  0.51100000000E-03 0. -1.
         11   -1    0    0    0    0 -0.00000000000E+00 -0.00000000000E+00 -0.45593999997E+02  0.45594000000E+02  0.51100000000E-03 0.  1.
         23    2    1    2    0    0  0.35527136788E-14 -0.13322676296E-14  0.71054273576E-14  0.91188000000E+02  0.91188000000E+02 0.  0.
    9900012    2    3    3    0    0 -0.17534398257E+02 -0.23922726048E+01 -0.32289218716E+02  0.54367194254E+02  0.40000250941E+02 0.  0.
         12    1    3    3    0    0  0.17534398257E+02  0.23922726048E+01  0.32289218716E+02  0.36820805746E+02  0.00000000000E+00 0. -1.
         11    1    4    4    0    0 -0.14414656117E+01 -0.13962664512E+02  0.91081428386E+00  0.14066392797E+02  0.51100000000E-03 0. -1.
        -11    1    4    4    0    0 -0.43740310910E+01  0.43171856805E+01 -0.21046817662E+02  0.21925755954E+02  0.51100000000E-03 0.  1.
         12    1    4    4    0    0 -0.11718901554E+02  0.72532062272E+01 -0.12153215338E+02  0.18375045503E+02  0.00000000000E+00 0. -1.
</event>
<event>
 8    1  0.1278459E-006  0.9118800E+02  0.7816164E-02  0.1184000E+00
        -11   -1    0    0    0    0  0.00000000000E+00  0.00000000000E+00  0.45593999997E+02  0.45594000000E+02  0.51100000000E-03 0.  1.
         11   -1    0    0    0    0 -0.00000000000E+00 -0.00000000000E+00 -0.45593999997E+02  0.45594000000E+02  0.51100000000E-03 0. -1.
         23    2    1    2    0    0  0.00000000000E+00  0.00000000000E+00  0.00000000000E+00  0.91188000000E+02  0.91188000000E+02 0.  0.
    9900012    2    3    3    0    0  0.25218092255E+02  0.12368759758E+02 -0.23808425440E+02  0.54367088593E+02  0.40000010065E+02 0.  0.
        -12    1    3    3    0    0 -0.25218092255E+02 -0.12368759758E+02  0.23808425440E+02  0.36820911407E+02  0.00000000000E+00 0.  1.
         11    1    4    4    0    0  0.12200565604E+02  0.47594575007E+01  0.18806823773E+01  0.13230389383E+02  0.51100000000E-03 0. -1.
        -11    1    4    4    0    0  0.14156074936E+02  0.12422699647E+02 -0.44813229755E+01  0.19359756713E+02  0.51100000000E-03 0.  1.
         12    1    4    4    0    0 -0.11385482857E+01 -0.48133973890E+01 -0.21207784842E+02  0.21776942497E+02  0.00000000000E+00 0. -1.
</event>
<event>
 8    1  0.1278459E-006  0.9118800E+02  0.7816164E-02  0.1184000E+00
        -11   -1    0    0    0    0  0.00000000000E+00  0.00000000000E+00  0.45593999997E+02  0.45594000000E+02  0.51100000000E-03 0.  1.
         11   -1    0    0    0    0 -0.00000000000E+00 -0.00000000000E+00 -0.45593999997E+02  0.45594000000E+02  0.51100000000E-03 0. -1.
         23    2    1    2    0    0  0.00000000000E+00  0.00000000000E+00  0.00000000000E+00  0.91188000000E+02  0.91188000000E+02 0.  0.
    9900012    2    3    3    0    0 -0.17746023472E+02 -0.26419314787E+02  0.18516951592E+02  0.54367095080E+02  0.40000024854E+02 0.  0.
         12    1    3    3    0    0  0.17746023472E+02  0.26419314787E+02 -0.18516951592E+02  0.36820904920E+02  0.00000000000E+00 0. -1.
         11    1    4    4    0    0 -0.19921547711E+02 -0.16230548120E+02  0.51016597902E+01  0.26197818389E+02  0.51100000000E-03 0. -1.
        -11    1    4    4    0    0  0.58587278514E+01  0.12099197595E+00 -0.43523925001E+01  0.72994966834E+01  0.51100000000E-03 0.  1.
        -12    1    4    4    0    0 -0.36832036122E+01 -0.10309758642E+02  0.17767684302E+02  0.20869780008E+02  0.00000000000E+00 0.  1.
</event>
<event>
 8    1  0.1278459E-006  0.9118800E+02  0.7816164E-02  0.1184000E+00
        -11   -1    0    0    0    0  0.00000000000E+00  0.00000000000E+00  0.45593999997E+02  0.45594000000E+02  0.51100000000E-03 0.  1.
         11   -1    0    0    0    0 -0.00000000000E+00 -0.00000000000E+00 -0.45593999997E+02  0.45594000000E+02  0.51100000000E-03 0. -1.
         23    2    1    2    0    0  0.00000000000E+00  0.00000000000E+00  0.00000000000E+00  0.91188000000E+02  0.91188000000E+02 0.  0.
    9900012    2    3    3    0    0 -0.19817664396E+02  0.18056671196E+02 -0.25238821269E+02  0.54367064436E+02  0.39999954994E+02 0.  0.
        -12    1    3    3    0    0  0.19817664396E+02 -0.18056671196E+02  0.25238821269E+02  0.36820935564E+02  0.00000000000E+00 0.  1.
         11    1    4    4    0    0 -0.47042753402E+01  0.79814132514E+01 -0.83086161501E+01  0.12444527575E+02  0.51100000000E-03 0. -1.
        -11    1    4    4    0    0  0.14356674003E+01  0.17353646704E+02 -0.38743356935E+00  0.17417241453E+02  0.51100000000E-03 0.  1.
        -12    1    4    4    0    0 -0.16549056456E+02 -0.72783887589E+01 -0.16542771549E+02  0.24505295408E+02  0.00000000000E+00 0.  1.
</event>
<event>
 8    1  0.1278459E-006  0.9118800E+02  0.7816164E-02  0.1184000E+00
        -11   -1    0    0    0    0  0.00000000000E+00  0.00000000000E+00  0.45593999997E+02  0.45594000000E+02  0.51100000000E-03 0.  1.
         11   -1    0    0    0    0 -0.00000000000E+00 -0.00000000000E+00 -0.45593999997E+02  0.45594000000E+02  0.51100000000E-03 0. -1.
         23    2    1    2    0    0  0.35527136788E-14  0.17763568394E-14 -0.35527136788E-14  0.91188000000E+02  0.91188000000E+02 0.  0.
    9900012    2    3    3    0    0  0.28241152872E+02 -0.10728781595E+02 -0.21050175676E+02  0.54367090641E+02  0.40000014734E+02 0.  0.
        -12    1    3    3    0    0 -0.28241152872E+02  0.10728781595E+02  0.21050175676E+02  0.36820909359E+02  0.00000000000E+00 0.  1.
         11    1    4    4    0    0  0.92151780661E+01  0.86387540806E+01 -0.14066354184E+02  0.18905287597E+02  0.51100000000E-03 0. -1.
        -11    1    4    4    0    0 -0.29278439692E+01 -0.22316464587E+01 -0.66604946261E+01  0.76101711643E+01  0.51100000000E-03 0.  1.
        -12    1    4    4    0    0  0.21953818775E+02 -0.17135889217E+02 -0.32332686591E+00  0.27851631879E+02  0.00000000000E+00 0.  1.
</event>
<event>
 8    1  0.1278459E-006  0.9118800E+02  0.7816164E-02  0.1184000E+00
        -11   -1    0    0    0    0  0.00000000000E+00  0.00000000000E+00  0.45593999997E+02  0.45594000000E+02  0.51100000000E-03 0.  1.
         11   -1    0    0    0    0 -0.00000000000E+00 -0.00000000000E+00 -0.45593999997E+02  0.45594000000E+02  0.51100000000E-03 0. -1.
         23    2    1    2    0    0  0.00000000000E+00 -0.17763568394E-14  0.44408920985E-15  0.91188000000E+02  0.91188000000E+02 0.  0.
    9900012    2    3    3    0    0 -0.35757828768E+02  0.84063878379E+01  0.25479771303E+01  0.54367056746E+02  0.39999937463E+02 0.  0.
        -12    1    3    3    0    0  0.35757828768E+02 -0.84063878379E+01 -0.25479771303E+01  0.36820943254E+02  0.00000000000E+00 0.  1.
         11    1    4    4    0    0 -0.17816937478E+02 -0.96372050711E+01  0.93463072809E+01  0.22308573301E+02  0.51100000000E-03 0.  1.
        -11    1    4    4    0    0 -0.14258672279E+02  0.16087302282E+01 -0.16322353100E+01  0.14441673742E+02  0.51100000000E-03 0. -1.
        -12    1    4    4    0    0 -0.36822190112E+01  0.16434862681E+02 -0.51660948406E+01  0.17616809702E+02  0.00000000000E+00 0.  1.
</event>
<event>
 8    1  0.1278459E-006  0.9118800E+02  0.7816164E-02  0.1184000E+00
        -11   -1    0    0    0    0  0.00000000000E+00  0.00000000000E+00  0.45593999997E+02  0.45594000000E+02  0.51100000000E-03 0.  1.
         11   -1    0    0    0    0 -0.00000000000E+00 -0.00000000000E+00 -0.45593999997E+02  0.45594000000E+02  0.51100000000E-03 0. -1.
         23    2    1    2    0    0  0.88817841970E-15  0.35527136788E-14 -0.35527136788E-14  0.91188000000E+02  0.91188000000E+02 0.  0.
    9900012    2    3    3    0    0 -0.46804951835E+00  0.22499453245E+02 -0.29143387859E+02  0.54367061356E+02  0.39999947974E+02 0.  0.
        -12    1    3    3    0    0  0.46804951835E+00 -0.22499453245E+02  0.29143387859E+02  0.36820938644E+02  0.00000000000E+00 0.  1.
         11    1    4    4    0    0  0.82255944098E+01  0.96235682105E+01 -0.16513808192E+02  0.20808155367E+02  0.51100000000E-03 0.  1.
        -11    1    4    4    0    0 -0.16659660327E+02  0.14976811281E+02 -0.11685512840E+02  0.25266586017E+02  0.51100000000E-03 0. -1.
         12    1    4    4    0    0  0.79660163984E+01 -0.21009262467E+01 -0.94406682709E+00  0.82923199726E+01  0.00000000000E+00 0. -1.
</event>
<event>
 8    1  0.1278459E-006  0.9118800E+02  0.7816164E-02  0.1184000E+00
        -11   -1    0    0    0    0  0.00000000000E+00  0.00000000000E+00  0.45593999997E+02  0.45594000000E+02  0.51100000000E-03 0.  1.
         11   -1    0    0    0    0 -0.00000000000E+00 -0.00000000000E+00 -0.45593999997E+02  0.45594000000E+02  0.51100000000E-03 0. -1.
         23    2    1    2    0    0 -0.22204460493E-15  0.17763568394E-14  0.71054273576E-14  0.91188000000E+02  0.91188000000E+02 0.  0.
    9900012    2    3    3    0    0 -0.10766517065E+01  0.97907683324E+01  0.35479203253E+02  0.54366916543E+02  0.39999617842E+02 0.  0.
         12    1    3    3    0    0  0.10766517065E+01 -0.97907683324E+01 -0.35479203253E+02  0.36821083457E+02  0.00000000000E+00 0. -1.
         11    1    4    4    0    0  0.19919658833E+01  0.17380933165E+02  0.19525628115E+02  0.26216691617E+02  0.51100000000E-03 0. -1.
        -11    1    4    4    0    0 -0.79387034572E+01  0.49455250114E+01  0.91266943907E+01  0.13068197312E+02  0.51100000000E-03 0.  1.
         12    1    4    4    0    0  0.48700858674E+01 -0.12535689844E+02  0.68268807473E+01  0.15082027614E+02  0.00000000000E+00 0. -1.
</event>
<event>
 8    1  0.1278459E-006  0.9118800E+02  0.7816164E-02  0.1184000E+00
        -11   -1    0    0    0    0  0.00000000000E+00  0.00000000000E+00  0.45593999997E+02  0.45594000000E+02  0.51100000000E-03 0.  1.
         11   -1    0    0    0    0 -0.00000000000E+00 -0.00000000000E+00 -0.45593999997E+02  0.45594000000E+02  0.51100000000E-03 0. -1.
         23    2    1    2    0    0 -0.35527136788E-14  0.00000000000E+00  0.35527136788E-14  0.91188000000E+02  0.91188000000E+02 0.  0.
    9900012    2    3    3    0    0 -0.26112414192E+02  0.18805283995E+02  0.17896435853E+02  0.54367091574E+02  0.40000016862E+02 0.  0.
         12    1    3    3    0    0  0.26112414192E+02 -0.18805283995E+02 -0.17896435853E+02  0.36820908426E+02  0.00000000000E+00 0. -1.
         11    1    4    4    0    0 -0.14128958255E+02 -0.59500684482E+01 -0.48489278358E+01  0.16079268557E+02  0.51100000000E-03 0. -1.
        -11    1    4    4    0    0 -0.11810080277E+02  0.97919679306E+01  0.80963650858E+01  0.17346808351E+02  0.51100000000E-03 0.  1.
         12    1    4    4    0    0 -0.17337565975E+00  0.14963384513E+02  0.14648998603E+02  0.20941014667E+02  0.00000000000E+00 0. -1.
</event>
<event>
 8    1  0.1278459E-006  0.9118800E+02  0.7816164E-02  0.1184000E+00
        -11   -1    0    0    0    0  0.00000000000E+00  0.00000000000E+00  0.45593999997E+02  0.45594000000E+02  0.51100000000E-03 0. -1.
         11   -1    0    0    0    0 -0.00000000000E+00 -0.00000000000E+00 -0.45593999997E+02  0.45594000000E+02  0.51100000000E-03 0.  1.
         23    2    1    2    0    0 -0.35527136788E-14  0.88817841970E-15  0.35527136788E-14  0.91188000000E+02  0.91188000000E+02 0.  0.
    9900012    2    3    3    0    0 -0.30454057043E+02  0.78029212321E+01  0.19168843666E+02  0.54367085594E+02  0.40000003230E+02 0.  0.
         12    1    3    3    0    0  0.30454057043E+02 -0.78029212321E+01 -0.19168843666E+02  0.36820914406E+02  0.00000000000E+00 0. -1.
         11    1    4    4    0    0 -0.19552859745E+02  0.15816532314E+02  0.16342923810E+02  0.29992802096E+02  0.51100000000E-03 0. -1.
        -11    1    4    4    0    0  0.57617668634E+01 -0.10184117242E+00  0.78305272940E+00  0.58156255769E+01  0.51100000000E-03 0.  1.
        -12    1    4    4    0    0 -0.16662964162E+02 -0.79117699095E+01  0.20428671271E+01  0.18558657922E+02  0.00000000000E+00 0.  1.
</event>
<event>
 8    1  0.1278459E-006  0.9118800E+02  0.7816164E-02  0.1184000E+00
        -11   -1    0    0    0    0  0.00000000000E+00  0.00000000000E+00  0.45593999997E+02  0.45594000000E+02  0.51100000000E-03 0. -1.
         11   -1    0    0    0    0 -0.00000000000E+00 -0.00000000000E+00 -0.45593999997E+02  0.45594000000E+02  0.51100000000E-03 0.  1.
         23    2    1    2    0    0  0.00000000000E+00  0.22204460493E-15 -0.15543122345E-14  0.91188000000E+02  0.91188000000E+02 0.  0.
    9900012    2    3    3    0    0 -0.36779154603E+02 -0.89748273142E+00 -0.15060487425E+01  0.54367083778E+02  0.39999999090E+02 0.  0.
         12    1    3    3    0    0  0.36779154603E+02  0.89748273142E+00  0.15060487425E+01  0.36820916222E+02  0.00000000000E+00 0. -1.
         11    1    4    4    0    0  0.81118397244E+00 -0.62674040955E+01  0.15018445723E+01  0.64956840220E+01  0.51100000000E-03 0. -1.
        -11    1    4    4    0    0 -0.21075974896E+02  0.24478127148E+01  0.12837440085E+02  0.24798959113E+02  0.51100000000E-03 0.  1.
        -12    1    4    4    0    0 -0.16514363680E+02  0.29221086492E+01 -0.15845333399E+02  0.23072440644E+02  0.00000000000E+00 0.  1.
</event>
<event>
 8    1  0.1278459E-006  0.9118800E+02  0.7816164E-02  0.1184000E+00
        -11   -1    0    0    0    0  0.00000000000E+00  0.00000000000E+00  0.45593999997E+02  0.45594000000E+02  0.51100000000E-03 0.  1.
         11   -1    0    0    0    0 -0.00000000000E+00 -0.00000000000E+00 -0.45593999997E+02  0.45594000000E+02  0.51100000000E-03 0. -1.
         23    2    1    2    0    0  0.17763568394E-14 -0.88817841970E-15  0.00000000000E+00  0.91188000000E+02  0.91188000000E+02 0.  0.
    9900012    2    3    3    0    0  0.85934296061E+01 -0.40124965525E+01  0.35578526701E+02  0.54367099370E+02  0.40000034634E+02 0.  0.
         12    1    3    3    0    0 -0.85934296061E+01  0.40124965525E+01 -0.35578526701E+02  0.36820900630E+02  0.00000000000E+00 0. -1.
         11    1    4    4    0    0  0.86483435639E+01 -0.28069390692E+01  0.76108693886E+01  0.11857406396E+02  0.51100000000E-03 0. -1.
        -11    1    4    4    0    0 -0.84410940045E+00 -0.14729449880E+02  0.24378706787E+02  0.28495448046E+02  0.51100000000E-03 0.  1.
         12    1    4    4    0    0  0.78919544258E+00  0.13523892397E+02  0.35889505253E+01  0.14014244927E+02  0.00000000000E+00 0. -1.
</event>
<event>
 8    1  0.1278459E-006  0.9118800E+02  0.7816164E-02  0.1184000E+00
        -11   -1    0    0    0    0  0.00000000000E+00  0.00000000000E+00  0.45593999997E+02  0.45594000000E+02  0.51100000000E-03 0. -1.
         11   -1    0    0    0    0 -0.00000000000E+00 -0.00000000000E+00 -0.45593999997E+02  0.45594000000E+02  0.51100000000E-03 0.  1.
         23    2    1    2    0    0  0.00000000000E+00  0.00000000000E+00 -0.88817841970E-15  0.91188000000E+02  0.91188000000E+02 0.  0.
    9900012    2    3    3    0    0 -0.27212797416E+02 -0.23501643107E+02  0.79319219422E+01  0.54367096187E+02  0.40000027378E+02 0.  0.
        -12    1    3    3    0    0  0.27212797416E+02  0.23501643107E+02 -0.79319219422E+01  0.36820903813E+02  0.00000000000E+00 0.  1.
         11    1    4    4    0    0  0.15386138551E+01 -0.42045988943E+01  0.39859425018E+01  0.59944743177E+01  0.51100000000E-03 0. -1.
        -11    1    4    4    0    0 -0.17688709343E+02 -0.21404670462E+02  0.15860388468E+02  0.31978153143E+02  0.51100000000E-03 0.  1.
        -12    1    4    4    0    0 -0.11062701928E+02  0.21076262493E+01 -0.11914409028E+02  0.16394468727E+02  0.00000000000E+00 0.  1.
</event>
<event>
 8    1  0.1278459E-006  0.9118800E+02  0.7816164E-02  0.1184000E+00
        -11   -1    0    0    0    0  0.00000000000E+00  0.00000000000E+00  0.45593999997E+02  0.45594000000E+02  0.51100000000E-03 0. -1.
         11   -1    0    0    0    0 -0.00000000000E+00 -0.00000000000E+00 -0.45593999997E+02  0.45594000000E+02  0.51100000000E-03 0.  1.
         23    2    1    2    0    0  0.71054273576E-14  0.00000000000E+00 -0.26645352591E-14  0.91188000000E+02  0.91188000000E+02 0.  0.
    9900012    2    3    3    0    0 -0.23197149892E+02  0.27550599120E+02  0.76574788244E+01  0.54367078543E+02  0.39999987155E+02 0.  0.
        -12    1    3    3    0    0  0.23197149892E+02 -0.27550599120E+02 -0.76574788244E+01  0.36820921457E+02  0.00000000000E+00 0.  1.
         11    1    4    4    0    0 -0.53070530840E+01 -0.44684625751E+01 -0.40121590671E+01  0.80143241051E+01  0.51100000000E-03 0. -1.
        -11    1    4    4    0    0  0.32996310791E+01  0.15793938050E+02  0.11234764497E+02  0.19661026879E+02  0.51100000000E-03 0.  1.
         12    1    4    4    0    0 -0.21189727887E+02  0.16225123645E+02  0.43487339479E+00  0.26691727559E+02  0.00000000000E+00 0. -1.
</event>
<event>
 8    1  0.1278459E-006  0.9118800E+02  0.7816164E-02  0.1184000E+00
        -11   -1    0    0    0    0  0.00000000000E+00  0.00000000000E+00  0.45593999997E+02  0.45594000000E+02  0.51100000000E-03 0.  1.
         11   -1    0    0    0    0 -0.00000000000E+00 -0.00000000000E+00 -0.45593999997E+02  0.45594000000E+02  0.51100000000E-03 0. -1.
         23    2    1    2    0    0  0.00000000000E+00  0.00000000000E+00  0.00000000000E+00  0.91188000000E+02  0.91188000000E+02 0.  0.
    9900012    2    3    3    0    0  0.16229227581E+02 -0.24041832759E+02 -0.22679999430E+02  0.54367083058E+02  0.39999997448E+02 0.  0.
        -12    1    3    3    0    0 -0.16229227581E+02  0.24041832759E+02  0.22679999430E+02  0.36820916942E+02  0.00000000000E+00 0.  1.
         11    1    4    4    0    0  0.92639837623E+01  0.24732633668E+01 -0.12498611792E+02  0.15752895728E+02  0.51100000000E-03 0. -1.
        -11    1    4    4    0    0  0.36584848055E+01 -0.21485414044E+02  0.49324142074E+01  0.22345832674E+02  0.51100000000E-03 0.  1.
         12    1    4    4    0    0  0.33067590129E+01 -0.50296820825E+01 -0.15113801845E+02  0.16268354656E+02  0.00000000000E+00 0. -1.
</event>
<event>
 8    1  0.1278459E-006  0.9118800E+02  0.7816164E-02  0.1184000E+00
        -11   -1    0    0    0    0  0.00000000000E+00  0.00000000000E+00  0.45593999997E+02  0.45594000000E+02  0.51100000000E-03 0. -1.
         11   -1    0    0    0    0 -0.00000000000E+00 -0.00000000000E+00 -0.45593999997E+02  0.45594000000E+02  0.51100000000E-03 0.  1.
         23    2    1    2    0    0  0.88817841970E-15  0.00000000000E+00  0.00000000000E+00  0.91188000000E+02  0.91188000000E+02 0.  0.
    9900012    2    3    3    0    0  0.42321885043E+01  0.16548763978E+02 -0.32619097741E+02  0.54367101774E+02  0.40000040115E+02 0.  0.
         12    1    3    3    0    0 -0.42321885043E+01 -0.16548763978E+02  0.32619097741E+02  0.36820898226E+02  0.00000000000E+00 0. -1.
         11    1    4    4    0    0  0.84723783344E+01  0.13352510733E+02 -0.11186996157E+02  0.19370586486E+02  0.51100000000E-03 0. -1.
        -11    1    4    4    0    0 -0.14064820558E+02  0.53544403702E+01 -0.19698211165E+02  0.24789286645E+02  0.51100000000E-03 0.  1.
         12    1    4    4    0    0  0.98246307276E+01 -0.21581871254E+01 -0.17338904187E+01  0.10207228644E+02  0.00000000000E+00 0. -1.
</event>
<event>
 8    1  0.1278459E-006  0.9118800E+02  0.7816164E-02  0.1184000E+00
        -11   -1    0    0    0    0  0.00000000000E+00  0.00000000000E+00  0.45593999997E+02  0.45594000000E+02  0.51100000000E-03 0.  1.
         11   -1    0    0    0    0 -0.00000000000E+00 -0.00000000000E+00 -0.45593999997E+02  0.45594000000E+02  0.51100000000E-03 0. -1.
         23    2    1    2    0    0  0.00000000000E+00  0.00000000000E+00 -0.35527136788E-14  0.91188000000E+02  0.91188000000E+02 0.  0.
    9900012    2    3    3    0    0 -0.14972110967E+02  0.17004601626E+02  0.29025152750E+02  0.54367081008E+02  0.39999992774E+02 0.  0.
         12    1    3    3    0    0  0.14972110967E+02 -0.17004601626E+02 -0.29025152750E+02  0.36820918992E+02  0.00000000000E+00 0. -1.
         11    1    4    4    0    0  0.31153929187E+01  0.33996539592E+01  0.25759707991E+01  0.52819452760E+01  0.51100000000E-03 0. -1.
        -11    1    4    4    0    0 -0.74447874632E+01 -0.79775045536E+01  0.22078262589E+02  0.24627527657E+02  0.51100000000E-03 0.  1.
        -12    1    4    4    0    0 -0.10642716423E+02  0.21582452220E+02  0.43709193619E+01  0.24457608075E+02  0.00000000000E+00 0.  1.
</event>
<event>
 8    1  0.1278459E-006  0.9118800E+02  0.7816164E-02  0.1184000E+00
        -11   -1    0    0    0    0  0.00000000000E+00  0.00000000000E+00  0.45593999997E+02  0.45594000000E+02  0.51100000000E-03 0. -1.
         11   -1    0    0    0    0 -0.00000000000E+00 -0.00000000000E+00 -0.45593999997E+02  0.45594000000E+02  0.51100000000E-03 0.  1.
         23    2    1    2    0    0  0.00000000000E+00  0.00000000000E+00 -0.17763568394E-14  0.91188000000E+02  0.91188000000E+02 0.  0.
    9900012    2    3    3    0    0 -0.22626746349E+02 -0.27839861564E+02  0.82916058115E+01  0.54367105535E+02  0.40000048689E+02 0.  0.
        -12    1    3    3    0    0  0.22626746349E+02  0.27839861564E+02 -0.82916058115E+01  0.36820894465E+02  0.00000000000E+00 0.  1.
         11    1    4    4    0    0 -0.29515018858E+01 -0.15009124780E+02 -0.26366672491E+01  0.15522152057E+02  0.51100000000E-03 0. -1.
        -11    1    4    4    0    0  0.19476308767E+01  0.10664014118E+01 -0.71065481831E+01  0.74453680462E+01  0.51100000000E-03 0.  1.
         12    1    4    4    0    0 -0.21622875340E+02 -0.13897138196E+02  0.18034821244E+02  0.31399585432E+02  0.00000000000E+00 0. -1.
</event>
<event>
 8    1  0.1278459E-006  0.9118800E+02  0.7816164E-02  0.1184000E+00
        -11   -1    0    0    0    0  0.00000000000E+00  0.00000000000E+00  0.45593999997E+02  0.45594000000E+02  0.51100000000E-03 0.  1.
         11   -1    0    0    0    0 -0.00000000000E+00 -0.00000000000E+00 -0.45593999997E+02  0.45594000000E+02  0.51100000000E-03 0. -1.
         23    2    1    2    0    0  0.00000000000E+00 -0.13322676296E-14  0.00000000000E+00  0.91188000000E+02  0.91188000000E+02 0.  0.
    9900012    2    3    3    0    0  0.28637079099E+02  0.19668450719E+01 -0.23061417118E+02  0.54367085585E+02  0.40000003207E+02 0.  0.
         12    1    3    3    0    0 -0.28637079099E+02 -0.19668450719E+01  0.23061417118E+02  0.36820914415E+02  0.00000000000E+00 0. -1.
         11    1    4    4    0    0  0.25870144826E+02 -0.42019402311E+01  0.94737364321E+00  0.26226288569E+02  0.51100000000E-03 0. -1.
        -11    1    4    4    0    0  0.73510625629E+01  0.44436796635E+01 -0.94038780727E+01  0.12736456839E+02  0.51100000000E-03 0.  1.
         12    1    4    4    0    0 -0.45841282890E+01  0.17251056395E+01 -0.14604912689E+02  0.15404340177E+02  0.00000000000E+00 0. -1.
</event>
<event>
 8    1  0.1278459E-006  0.9118800E+02  0.7816164E-02  0.1184000E+00
        -11   -1    0    0    0    0  0.00000000000E+00  0.00000000000E+00  0.45593999997E+02  0.45594000000E+02  0.51100000000E-03 0.  1.
         11   -1    0    0    0    0 -0.00000000000E+00 -0.00000000000E+00 -0.45593999997E+02  0.45594000000E+02  0.51100000000E-03 0. -1.
         23    2    1    2    0    0 -0.71054273576E-14 -0.35527136788E-14  0.00000000000E+00  0.91188000000E+02  0.91188000000E+02 0.  0.
    9900012    2    3    3    0    0 -0.26019455993E+02 -0.16182841664E+02  0.20417712031E+02  0.54367089920E+02  0.40000013092E+02 0.  0.
         12    1    3    3    0    0  0.26019455993E+02  0.16182841664E+02 -0.20417712031E+02  0.36820910080E+02  0.00000000000E+00 0. -1.
         11    1    4    4    0    0 -0.42863620391E+01  0.51330550489E+01  0.81735842432E+00  0.67371528645E+01  0.51100000000E-03 0. -1.
        -11    1    4    4    0    0 -0.60912156427E-01 -0.21393982493E+02  0.67469952982E+01  0.22432747112E+02  0.51100000000E-03 0.  1.
         12    1    4    4    0    0 -0.21672181798E+02  0.78085779483E-01  0.12853358308E+02  0.25197189944E+02  0.00000000000E+00 0. -1.
</event>
<event>
 8    1  0.1278459E-006  0.9118800E+02  0.7816164E-02  0.1184000E+00
        -11   -1    0    0    0    0  0.00000000000E+00  0.00000000000E+00  0.45593999997E+02  0.45594000000E+02  0.51100000000E-03 0.  1.
         11   -1    0    0    0    0 -0.00000000000E+00 -0.00000000000E+00 -0.45593999997E+02  0.45594000000E+02  0.51100000000E-03 0. -1.
         23    2    1    2    0    0  0.17763568394E-14  0.35527136788E-14 -0.35527136788E-14  0.91188000000E+02  0.91188000000E+02 0.  0.
    9900012    2    3    3    0    0  0.14491244400E+02 -0.29177988273E+02  0.17158948744E+02  0.54367072718E+02  0.39999973875E+02 0.  0.
         12    1    3    3    0    0 -0.14491244400E+02  0.29177988273E+02 -0.17158948744E+02  0.36820927282E+02  0.00000000000E+00 0. -1.
         11    1    4    4    0    0 -0.30366870072E+01 -0.40149305068E+01  0.11374236253E+02  0.12438423757E+02  0.51100000000E-03 0. -1.
        -11    1    4    4    0    0  0.21091323721E+02 -0.60189204817E+01  0.46622305773E+01  0.22423374730E+02  0.51100000000E-03 0.  1.
         12    1    4    4    0    0 -0.35633923141E+01 -0.19144137284E+02  0.11224819136E+01  0.19505274230E+02  0.00000000000E+00 0. -1.
</event>
<event>
 8    1  0.1278459E-006  0.9118800E+02  0.7816164E-02  0.1184000E+00
        -11   -1    0    0    0    0  0.00000000000E+00  0.00000000000E+00  0.45593999997E+02  0.45594000000E+02  0.51100000000E-03 0.  1.
         11   -1    0    0    0    0 -0.00000000000E+00 -0.00000000000E+00 -0.45593999997E+02  0.45594000000E+02  0.51100000000E-03 0. -1.
         23    2    1    2    0    0  0.00000000000E+00  0.00000000000E+00  0.00000000000E+00  0.91188000000E+02  0.91188000000E+02 0.  0.
    9900012    2    3    3    0    0  0.18567135835E+02  0.27103219187E+02 -0.16627025430E+02  0.54367068479E+02  0.39999964213E+02 0.  0.
         12    1    3    3    0    0 -0.18567135835E+02 -0.27103219187E+02  0.16627025430E+02  0.36820931521E+02  0.00000000000E+00 0. -1.
         11    1    4    4    0    0 -0.31713284589E+01  0.20316353471E+02 -0.10109979461E+02  0.22913385335E+02  0.51100000000E-03 0. -1.
        -11    1    4    4    0    0  0.18628050559E+02  0.42899114634E+00  0.37271907812E+01  0.19002111788E+02  0.51100000000E-03 0.  1.
         12    1    4    4    0    0  0.31104137351E+01  0.63578745692E+01 -0.10244236750E+02  0.12451571356E+02  0.00000000000E+00 0. -1.
</event>
<event>
 8    1  0.1278459E-006  0.9118800E+02  0.7816164E-02  0.1184000E+00
        -11   -1    0    0    0    0  0.00000000000E+00  0.00000000000E+00  0.45593999997E+02  0.45594000000E+02  0.51100000000E-03 0.  1.
         11   -1    0    0    0    0 -0.00000000000E+00 -0.00000000000E+00 -0.45593999997E+02  0.45594000000E+02  0.51100000000E-03 0. -1.
         23    2    1    2    0    0  0.13322676296E-14  0.17763568394E-14  0.00000000000E+00  0.91188000000E+02  0.91188000000E+02 0.  0.
    9900012    2    3    3    0    0 -0.35528884270E+01  0.15913679395E+02  0.33013822965E+02  0.54367072326E+02  0.39999972981E+02 0.  0.
         12    1    3    3    0    0  0.35528884270E+01 -0.15913679395E+02 -0.33013822965E+02  0.36820927674E+02  0.00000000000E+00 0. -1.
         11    1    4    4    0    0 -0.14822453395E+02  0.19720030243E+02  0.16319324669E+02  0.29578794352E+02  0.51100000000E-03 0. -1.
        -11    1    4    4    0    0 -0.14461332990E+01 -0.52679581096E+01  0.59443238764E+01  0.80732689025E+01  0.51100000000E-03 0.  1.
         12    1    4    4    0    0  0.12715698267E+02  0.14616072614E+01  0.10750174420E+02  0.16715009071E+02  0.00000000000E+00 0. -1.
</event>
<event>
 8    1  0.1278459E-006  0.9118800E+02  0.7816164E-02  0.1184000E+00
        -11   -1    0    0    0    0  0.00000000000E+00  0.00000000000E+00  0.45593999997E+02  0.45594000000E+02  0.51100000000E-03 0.  1.
         11   -1    0    0    0    0 -0.00000000000E+00 -0.00000000000E+00 -0.45593999997E+02  0.45594000000E+02  0.51100000000E-03 0. -1.
         23    2    1    2    0    0  0.35527136788E-14  0.00000000000E+00 -0.53290705182E-14  0.91188000000E+02  0.91188000000E+02 0.  0.
    9900012    2    3    3    0    0 -0.29315944963E+02 -0.16240167348E+02  0.15251414039E+02  0.54367173084E+02  0.40000202679E+02 0.  0.
         12    1    3    3    0    0  0.29315944963E+02  0.16240167348E+02 -0.15251414039E+02  0.36820826916E+02  0.00000000000E+00 0. -1.
         11    1    4    4    0    0 -0.32748169472E+01  0.35497477719E+01 -0.12482460026E+01  0.49883117010E+01  0.51100000000E-03 0. -1.
        -11    1    4    4    0    0 -0.94536950342E+01 -0.84372615412E+01 -0.99834350251E+01  0.16131605849E+02  0.51100000000E-03 0.  1.
         12    1    4    4    0    0 -0.16587432982E+02 -0.11352653579E+02  0.26483095067E+02  0.33247255534E+02  0.00000000000E+00 0. -1.
</event>
<event>
 8    1  0.1278459E-006  0.9118800E+02  0.7816164E-02  0.1184000E+00
        -11   -1    0    0    0    0  0.00000000000E+00  0.00000000000E+00  0.45593999997E+02  0.45594000000E+02  0.51100000000E-03 0.  1.
         11   -1    0    0    0    0 -0.00000000000E+00 -0.00000000000E+00 -0.45593999997E+02  0.45594000000E+02  0.51100000000E-03 0. -1.
         23    2    1    2    0    0  0.00000000000E+00  0.00000000000E+00  0.00000000000E+00  0.91188000000E+02  0.91188000000E+02 0.  0.
    9900012    2    3    3    0    0  0.13048530751E+02  0.14531581193E+02  0.31214553375E+02  0.54367090870E+02  0.40000015257E+02 0.  0.
         12    1    3    3    0    0 -0.13048530751E+02 -0.14531581193E+02 -0.31214553375E+02  0.36820909130E+02  0.00000000000E+00 0. -1.
         11    1    4    4    0    0  0.52731550372E+01 -0.11032545399E+02  0.20838096196E+01  0.12404252691E+02  0.51100000000E-03 0. -1.
        -11    1    4    4    0    0  0.42066171751E+01  0.22236648849E+02  0.15355022379E+02  0.27348508051E+02  0.51100000000E-03 0.  1.
        -12    1    4    4    0    0  0.35687585388E+01  0.33274777429E+01  0.13775721377E+02  0.14614330128E+02  0.00000000000E+00 0.  1.
</event>
<event>
 8    1  0.1278459E-006  0.9118800E+02  0.7816164E-02  0.1184000E+00
        -11   -1    0    0    0    0  0.00000000000E+00  0.00000000000E+00  0.45593999997E+02  0.45594000000E+02  0.51100000000E-03 0.  1.
         11   -1    0    0    0    0 -0.00000000000E+00 -0.00000000000E+00 -0.45593999997E+02  0.45594000000E+02  0.51100000000E-03 0. -1.
         23    2    1    2    0    0  0.00000000000E+00  0.00000000000E+00  0.00000000000E+00  0.91188000000E+02  0.91188000000E+02 0.  0.
    9900012    2    3    3    0    0  0.22922739308E+01 -0.35794159170E+02 -0.83248527207E+01  0.54367088505E+02  0.40000009866E+02 0.  0.
        -12    1    3    3    0    0 -0.22922739308E+01  0.35794159170E+02  0.83248527207E+01  0.36820911495E+02  0.00000000000E+00 0.  1.
         11    1    4    4    0    0 -0.51774441360E+01 -0.17306474092E+02 -0.86587925913E+01  0.20032340419E+02  0.51100000000E-03 0. -1.
        -11    1    4    4    0    0 -0.10404427459E+02 -0.36418115010E+01  0.11628261266E+01  0.11084541787E+02  0.51100000000E-03 0.  1.
         12    1    4    4    0    0  0.17874145526E+02 -0.14845873578E+02 -0.82888625600E+00  0.23250206300E+02  0.00000000000E+00 0. -1.
</event>
<event>
 8    1  0.1278459E-006  0.9118800E+02  0.7816164E-02  0.1184000E+00
        -11   -1    0    0    0    0  0.00000000000E+00  0.00000000000E+00  0.45593999997E+02  0.45594000000E+02  0.51100000000E-03 0. -1.
         11   -1    0    0    0    0 -0.00000000000E+00 -0.00000000000E+00 -0.45593999997E+02  0.45594000000E+02  0.51100000000E-03 0.  1.
         23    2    1    2    0    0  0.00000000000E+00  0.00000000000E+00 -0.71054273576E-14  0.91188000000E+02  0.91188000000E+02 0.  0.
    9900012    2    3    3    0    0  0.10739294587E+02  0.13557403302E+02 -0.32506064460E+02  0.54367083944E+02  0.39999999468E+02 0.  0.
         12    1    3    3    0    0 -0.10739294587E+02 -0.13557403302E+02  0.32506064460E+02  0.36820916056E+02  0.00000000000E+00 0. -1.
         11    1    4    4    0    0  0.87801727149E+01  0.60130929680E+01 -0.34403915008E+01  0.11184141178E+02  0.51100000000E-03 0. -1.
        -11    1    4    4    0    0  0.11128202149E+02  0.81164876032E+01 -0.30885448277E+02  0.33817527551E+02  0.51100000000E-03 0.  1.
         12    1    4    4    0    0 -0.91690802771E+01 -0.57217726923E+00  0.18197753182E+01  0.93654152158E+01  0.00000000000E+00 0. -1.
</event>
<event>
 8    1  0.1278459E-006  0.9118800E+02  0.7816164E-02  0.1184000E+00
        -11   -1    0    0    0    0  0.00000000000E+00  0.00000000000E+00  0.45593999997E+02  0.45594000000E+02  0.51100000000E-03 0. -1.
         11   -1    0    0    0    0 -0.00000000000E+00 -0.00000000000E+00 -0.45593999997E+02  0.45594000000E+02  0.51100000000E-03 0.  1.
         23    2    1    2    0    0  0.00000000000E+00 -0.35527136788E-14  0.35527136788E-14  0.91188000000E+02  0.91188000000E+02 0.  0.
    9900012    2    3    3    0    0 -0.17988936804E+02 -0.20559958027E+02 -0.24687412059E+02  0.54367054390E+02  0.39999932093E+02 0.  0.
         12    1    3    3    0    0  0.17988936804E+02  0.20559958027E+02  0.24687412059E+02  0.36820945610E+02  0.00000000000E+00 0. -1.
         11    1    4    4    0    0 -0.12308497082E+02  0.53666093639E+00 -0.73136474538E+01  0.14327475169E+02  0.51100000000E-03 0. -1.
        -11    1    4    4    0    0 -0.16542047535E+02 -0.13357888934E+02 -0.16045644997E+02  0.26637103016E+02  0.51100000000E-03 0.  1.
         12    1    4    4    0    0  0.10861607813E+02 -0.77387300294E+01 -0.13281196079E+01  0.13402476205E+02  0.00000000000E+00 0. -1.
</event>
<event>
 8    1  0.1278459E-006  0.9118800E+02  0.7816164E-02  0.1184000E+00
        -11   -1    0    0    0    0  0.00000000000E+00  0.00000000000E+00  0.45593999997E+02  0.45594000000E+02  0.51100000000E-03 0. -1.
         11   -1    0    0    0    0 -0.00000000000E+00 -0.00000000000E+00 -0.45593999997E+02  0.45594000000E+02  0.51100000000E-03 0.  1.
         23    2    1    2    0    0  0.00000000000E+00  0.00000000000E+00  0.00000000000E+00  0.91188000000E+02  0.91188000000E+02 0.  0.
    9900012    2    3    3    0    0 -0.35743734305E+02 -0.67167459282E+01  0.57483703415E+01  0.54367177365E+02  0.40000212439E+02 0.  0.
         12    1    3    3    0    0  0.35743734305E+02  0.67167459282E+01 -0.57483703415E+01  0.36820822635E+02  0.00000000000E+00 0. -1.
         11    1    4    4    0    0  0.11289799980E+01 -0.28669240192E+01  0.10050340466E+02  0.10512049891E+02  0.51100000000E-03 0. -1.
        -11    1    4    4    0    0 -0.37038428614E+02  0.75284317634E+00  0.70403665915E+00  0.37052768249E+02  0.51100000000E-03 0.  1.
         12    1    4    4    0    0  0.16571431115E+00 -0.46026650854E+01 -0.50060067833E+01  0.68023592257E+01  0.00000000000E+00 0. -1.
</event>
<event>
 8    1  0.1278459E-006  0.9118800E+02  0.7816164E-02  0.1184000E+00
        -11   -1    0    0    0    0  0.00000000000E+00  0.00000000000E+00  0.45593999997E+02  0.45594000000E+02  0.51100000000E-03 0. -1.
         11   -1    0    0    0    0 -0.00000000000E+00 -0.00000000000E+00 -0.45593999997E+02  0.45594000000E+02  0.51100000000E-03 0.  1.
         23    2    1    2    0    0  0.00000000000E+00 -0.35527136788E-14 -0.13322676296E-14  0.91188000000E+02  0.91188000000E+02 0.  0.
    9900012    2    3    3    0    0 -0.19219942806E+02 -0.31157503258E+02 -0.39476024033E+01  0.54367085081E+02  0.40000002059E+02 0.  0.
        -12    1    3    3    0    0  0.19219942806E+02  0.31157503258E+02  0.39476024033E+01  0.36820914919E+02  0.00000000000E+00 0.  1.
         11    1    4    4    0    0 -0.47423095676E+01 -0.76774860626E+01 -0.12292929909E+02  0.15249571085E+02  0.51100000000E-03 0.  1.
        -11    1    4    4    0    0 -0.23233499546E+01 -0.42959219396E+01 -0.92021295612E+01  0.10417873538E+02  0.51100000000E-03 0. -1.
         12    1    4    4    0    0 -0.12154283284E+02 -0.19184095256E+02  0.17547457067E+02  0.28699640458E+02  0.00000000000E+00 0. -1.
</event>
<event>
 8    1  0.1278459E-006  0.9118800E+02  0.7816164E-02  0.1184000E+00
        -11   -1    0    0    0    0  0.00000000000E+00  0.00000000000E+00  0.45593999997E+02  0.45594000000E+02  0.51100000000E-03 0.  1.
         11   -1    0    0    0    0 -0.00000000000E+00 -0.00000000000E+00 -0.45593999997E+02  0.45594000000E+02  0.51100000000E-03 0. -1.
         23    2    1    2    0    0  0.35527136788E-14  0.26645352591E-14  0.00000000000E+00  0.91188000000E+02  0.91188000000E+02 0.  0.
    9900012    2    3    3    0    0 -0.16421478315E+02  0.52219510185E+01  0.32539907050E+02  0.54367091900E+02  0.40000017605E+02 0.  0.
         12    1    3    3    0    0  0.16421478315E+02 -0.52219510185E+01 -0.32539907050E+02  0.36820908100E+02  0.00000000000E+00 0. -1.
         11    1    4    4    0    0  0.73495689139E+00 -0.72419948189E+01  0.94438231266E+01  0.11923608770E+02  0.51100000000E-03 0. -1.
        -11    1    4    4    0    0 -0.20455739460E+02  0.18979437093E+02  0.20746081652E+02  0.34771485637E+02  0.51100000000E-03 0.  1.
        -12    1    4    4    0    0  0.32993042540E+01 -0.65154912558E+01  0.23500022711E+01  0.76719974934E+01  0.00000000000E+00 0.  1.
</event>
<event>
 8    1  0.1278459E-006  0.9118800E+02  0.7816164E-02  0.1184000E+00
        -11   -1    0    0    0    0  0.00000000000E+00  0.00000000000E+00  0.45593999997E+02  0.45594000000E+02  0.51100000000E-03 0. -1.
         11   -1    0    0    0    0 -0.00000000000E+00 -0.00000000000E+00 -0.45593999997E+02  0.45594000000E+02  0.51100000000E-03 0.  1.
         23    2    1    2    0    0  0.00000000000E+00 -0.35527136788E-14  0.00000000000E+00  0.91188000000E+02  0.91188000000E+02 0.  0.
    9900012    2    3    3    0    0 -0.16687030553E+02 -0.22156162013E+02 -0.24216265108E+02  0.54367082037E+02  0.39999995120E+02 0.  0.
         12    1    3    3    0    0  0.16687030553E+02  0.22156162013E+02  0.24216265108E+02  0.36820917963E+02  0.00000000000E+00 0. -1.
         11    1    4    4    0    0 -0.55614331535E+01 -0.32840801930E+01 -0.91388464415E+01  0.11190765656E+02  0.51100000000E-03 0.  1.
        -11    1    4    4    0    0 -0.62293580546E+01 -0.11046195115E+02  0.10194488835E+02  0.16271168709E+02  0.51100000000E-03 0. -1.
         12    1    4    4    0    0 -0.48962393454E+01 -0.78258867054E+01 -0.25271907502E+02  0.26905147672E+02  0.00000000000E+00 0. -1.
</event>
<event>
 8    1  0.1278459E-006  0.9118800E+02  0.7816164E-02  0.1184000E+00
        -11   -1    0    0    0    0  0.00000000000E+00  0.00000000000E+00  0.45593999997E+02  0.45594000000E+02  0.51100000000E-03 0. -1.
         11   -1    0    0    0    0 -0.00000000000E+00 -0.00000000000E+00 -0.45593999997E+02  0.45594000000E+02  0.51100000000E-03 0.  1.
         23    2    1    2    0    0  0.71054273576E-14  0.17763568394E-14 -0.17763568394E-14  0.91188000000E+02  0.91188000000E+02 0.  0.
    9900012    2    3    3    0    0 -0.33533555766E+02 -0.14867996104E+02  0.31973934400E+01  0.54367082096E+02  0.39999995255E+02 0.  0.
        -12    1    3    3    0    0  0.33533555766E+02  0.14867996104E+02 -0.31973934400E+01  0.36820917904E+02  0.00000000000E+00 0.  1.
         11    1    4    4    0    0 -0.23291257848E+02  0.50221841751E+01  0.61137030722E+01  0.24598422542E+02  0.51100000000E-03 0. -1.
        -11    1    4    4    0    0 -0.45077972713E+01 -0.12835839179E+02 -0.11083493440E+02  0.17547730074E+02  0.51100000000E-03 0.  1.
        -12    1    4    4    0    0 -0.57345006467E+01 -0.70543411001E+01  0.81671838077E+01  0.12220929481E+02  0.00000000000E+00 0.  1.
</event>
<event>
 8    1  0.1278459E-006  0.9118800E+02  0.7816164E-02  0.1184000E+00
        -11   -1    0    0    0    0  0.00000000000E+00  0.00000000000E+00  0.45593999997E+02  0.45594000000E+02  0.51100000000E-03 0. -1.
         11   -1    0    0    0    0 -0.00000000000E+00 -0.00000000000E+00 -0.45593999997E+02  0.45594000000E+02  0.51100000000E-03 0.  1.
         23    2    1    2    0    0  0.11102230246E-14  0.17763568394E-14  0.00000000000E+00  0.91188000000E+02  0.91188000000E+02 0.  0.
    9900012    2    3    3    0    0 -0.19571921520E+01  0.32488534560E+01 -0.36625040898E+02  0.54367091935E+02  0.40000017685E+02 0.  0.
         12    1    3    3    0    0  0.19571921520E+01 -0.32488534560E+01  0.36625040898E+02  0.36820908065E+02  0.00000000000E+00 0. -1.
         11    1    4    4    0    0 -0.58261428547E+01 -0.15675476662E+01  0.93401620851E+00  0.61052053846E+01  0.51100000000E-03 0. -1.
        -11    1    4    4    0    0  0.10046821422E+02 -0.37093103085E+01 -0.16437369405E+01  0.10835103832E+02  0.51100000000E-03 0.  1.
        -12    1    4    4    0    0 -0.61778707196E+01  0.85257114306E+01 -0.35915320166E+02  0.37426782719E+02  0.00000000000E+00 0.  1.
</event>
<event>
 8    1  0.1278459E-006  0.9118800E+02  0.7816164E-02  0.1184000E+00
        -11   -1    0    0    0    0  0.00000000000E+00  0.00000000000E+00  0.45593999997E+02  0.45594000000E+02  0.51100000000E-03 0. -1.
         11   -1    0    0    0    0 -0.00000000000E+00 -0.00000000000E+00 -0.45593999997E+02  0.45594000000E+02  0.51100000000E-03 0.  1.
         23    2    1    2    0    0  0.00000000000E+00  0.00000000000E+00  0.00000000000E+00  0.91188000000E+02  0.91188000000E+02 0.  0.
    9900012    2    3    3    0    0  0.11722103404E+02  0.34426635854E+02 -0.57601102301E+01  0.54367084282E+02  0.40000000239E+02 0.  0.
         12    1    3    3    0    0 -0.11722103404E+02 -0.34426635854E+02  0.57601102301E+01  0.36820915718E+02  0.00000000000E+00 0. -1.
         11    1    4    4    0    0  0.90102236336E+01  0.21040276646E+01  0.42587125183E+01  0.10185661241E+02  0.51100000000E-03 0. -1.
        -11    1    4    4    0    0  0.10823625754E+02  0.29603623701E+02 -0.14302744284E+02  0.34613493106E+02  0.51100000000E-03 0.  1.
        -12    1    4    4    0    0 -0.81117459829E+01  0.27189844881E+01  0.42839215351E+01  0.95679299358E+01  0.00000000000E+00 0.  1.
</event>
<event>
 8    1  0.1278459E-006  0.9118800E+02  0.7816164E-02  0.1184000E+00
        -11   -1    0    0    0    0  0.00000000000E+00  0.00000000000E+00  0.45593999997E+02  0.45594000000E+02  0.51100000000E-03 0.  1.
         11   -1    0    0    0    0 -0.00000000000E+00 -0.00000000000E+00 -0.45593999997E+02  0.45594000000E+02  0.51100000000E-03 0. -1.
         23    2    1    2    0    0  0.00000000000E+00  0.00000000000E+00  0.00000000000E+00  0.91188000000E+02  0.91188000000E+02 0.  0.
    9900012    2    3    3    0    0 -0.86662009044E+01 -0.24293994837E+02  0.26276949179E+02  0.54367091790E+02  0.40000017353E+02 0.  0.
         12    1    3    3    0    0  0.86662009044E+01  0.24293994837E+02 -0.26276949179E+02  0.36820908210E+02  0.00000000000E+00 0. -1.
         11    1    4    4    0    0  0.61671732342E+01 -0.11056677628E+02 -0.69054813689E+01  0.14421158729E+02  0.51100000000E-03 0. -1.
        -11    1    4    4    0    0 -0.14851623539E+02 -0.11233597371E+02  0.23123720402E+02  0.29689575226E+02  0.51100000000E-03 0.  1.
        -12    1    4    4    0    0  0.18249400187E-01 -0.20037198382E+01  0.10058710146E+02  0.10256357835E+02  0.00000000000E+00 0.  1.
</event>
<event>
 8    1  0.1278459E-006  0.9118800E+02  0.7816164E-02  0.1184000E+00
        -11   -1    0    0    0    0  0.00000000000E+00  0.00000000000E+00  0.45593999997E+02  0.45594000000E+02  0.51100000000E-03 0.  1.
         11   -1    0    0    0    0 -0.00000000000E+00 -0.00000000000E+00 -0.45593999997E+02  0.45594000000E+02  0.51100000000E-03 0. -1.
         23    2    1    2    0    0  0.17763568394E-14  0.88817841970E-15  0.71054273576E-14  0.91188000000E+02  0.91188000000E+02 0.  0.
    9900012    2    3    3    0    0  0.12890529698E+02  0.55959906188E+01  0.34033799323E+02  0.54367077099E+02  0.39999983862E+02 0.  0.
         12    1    3    3    0    0 -0.12890529698E+02 -0.55959906188E+01 -0.34033799323E+02  0.36820922901E+02  0.00000000000E+00 0. -1.
         11    1    4    4    0    0  0.11231638359E+01  0.89503877890E+01  0.10277129201E+02  0.13674440517E+02  0.51100000000E-03 0. -1.
        -11    1    4    4    0    0  0.56123261141E+01  0.76125924822E+01  0.26223444951E+02  0.27876851222E+02  0.51100000000E-03 0.  1.
        -12    1    4    4    0    0  0.61550397482E+01 -0.10966989652E+02 -0.24667748280E+01  0.12815785360E+02  0.00000000000E+00 0.  1.
</event>
<event>
 8    1  0.1278459E-006  0.9118800E+02  0.7816164E-02  0.1184000E+00
        -11   -1    0    0    0    0  0.00000000000E+00  0.00000000000E+00  0.45593999997E+02  0.45594000000E+02  0.51100000000E-03 0.  1.
         11   -1    0    0    0    0 -0.00000000000E+00 -0.00000000000E+00 -0.45593999997E+02  0.45594000000E+02  0.51100000000E-03 0. -1.
         23    2    1    2    0    0 -0.44408920985E-15  0.00000000000E+00 -0.17763568394E-14  0.91188000000E+02  0.91188000000E+02 0.  0.
    9900012    2    3    3    0    0 -0.30894910880E+01  0.33903691811E+02 -0.14027648210E+02  0.54367079481E+02  0.39999989293E+02 0.  0.
         12    1    3    3    0    0  0.30894910880E+01 -0.33903691811E+02  0.14027648210E+02  0.36820920519E+02  0.00000000000E+00 0. -1.
         11    1    4    4    0    0 -0.91850443902E+01  0.13202232841E+01 -0.95074193668E+01  0.13285294624E+02  0.51100000000E-03 0. -1.
        -11    1    4    4    0    0 -0.42240539002E+01  0.24059603107E+02 -0.10289996259E+02  0.26506436130E+02  0.51100000000E-03 0.  1.
         12    1    4    4    0    0  0.10319607202E+02  0.85238654192E+01  0.57697674153E+01  0.14575348727E+02  0.00000000000E+00 0. -1.
</event>
<event>
 8    1  0.1278459E-006  0.9118800E+02  0.7816164E-02  0.1184000E+00
        -11   -1    0    0    0    0  0.00000000000E+00  0.00000000000E+00  0.45593999997E+02  0.45594000000E+02  0.51100000000E-03 0. -1.
         11   -1    0    0    0    0 -0.00000000000E+00 -0.00000000000E+00 -0.45593999997E+02  0.45594000000E+02  0.51100000000E-03 0.  1.
         23    2    1    2    0    0  0.17763568394E-14  0.26645352591E-14  0.00000000000E+00  0.91188000000E+02  0.91188000000E+02 0.  0.
    9900012    2    3    3    0    0  0.63444183748E+01 -0.22266468266E+01 -0.36201808284E+02  0.54367074921E+02  0.39999978898E+02 0.  0.
         12    1    3    3    0    0 -0.63444183748E+01  0.22266468266E+01  0.36201808284E+02  0.36820925079E+02  0.00000000000E+00 0. -1.
         11    1    4    4    0    0 -0.39295290465E+01 -0.13441747398E+01 -0.14780588332E+02  0.15352973521E+02  0.51100000000E-03 0. -1.
        -11    1    4    4    0    0 -0.13984626083E+01 -0.14016367073E+02 -0.49512141944E+01  0.14930799237E+02  0.51100000000E-03 0.  1.
        -12    1    4    4    0    0  0.11672410030E+02  0.13133894986E+02 -0.16470005758E+02  0.24083302163E+02  0.00000000000E+00 0.  1.
</event>
<event>
 8    1  0.1278459E-006  0.9118800E+02  0.7816164E-02  0.1184000E+00
        -11   -1    0    0    0    0  0.00000000000E+00  0.00000000000E+00  0.45593999997E+02  0.45594000000E+02  0.51100000000E-03 0.  1.
         11   -1    0    0    0    0 -0.00000000000E+00 -0.00000000000E+00 -0.45593999997E+02  0.45594000000E+02  0.51100000000E-03 0. -1.
         23    2    1    2    0    0  0.35527136788E-14  0.00000000000E+00  0.17763568394E-14  0.91188000000E+02  0.91188000000E+02 0.  0.
    9900012    2    3    3    0    0 -0.11338106205E+02 -0.32215129942E+02 -0.13762826551E+02  0.54367046126E+02  0.39999913253E+02 0.  0.
        -12    1    3    3    0    0  0.11338106205E+02  0.32215129942E+02  0.13762826551E+02  0.36820953874E+02  0.00000000000E+00 0.  1.
         11    1    4    4    0    0 -0.28885037479E+01 -0.31444579029E+01 -0.18049793139E+01  0.46356250915E+01  0.51100000000E-03 0. -1.
        -11    1    4    4    0    0  0.11198334036E+02  0.61066322089E+00  0.21913854418E+01  0.11427062840E+02  0.51100000000E-03 0.  1.
        -12    1    4    4    0    0 -0.19647936493E+02 -0.29681335260E+02 -0.14149232679E+02  0.38304358194E+02  0.00000000000E+00 0.  1.
</event>
<event>
 8    1  0.1278459E-006  0.9118800E+02  0.7816164E-02  0.1184000E+00
        -11   -1    0    0    0    0  0.00000000000E+00  0.00000000000E+00  0.45593999997E+02  0.45594000000E+02  0.51100000000E-03 0. -1.
         11   -1    0    0    0    0 -0.00000000000E+00 -0.00000000000E+00 -0.45593999997E+02  0.45594000000E+02  0.51100000000E-03 0.  1.
         23    2    1    2    0    0  0.00000000000E+00  0.13322676296E-14  0.00000000000E+00  0.91188000000E+02  0.91188000000E+02 0.  0.
    9900012    2    3    3    0    0 -0.22568150128E+02  0.39146922715E+01  0.28829398758E+02  0.54367075941E+02  0.39999981224E+02 0.  0.
        -12    1    3    3    0    0  0.22568150128E+02 -0.39146922715E+01 -0.28829398758E+02  0.36820924059E+02  0.00000000000E+00 0.  1.
         11    1    4    4    0    0  0.35261987355E+01  0.85983737264E+01  0.68133934030E+01  0.11523386576E+02  0.51100000000E-03 0. -1.
        -11    1    4    4    0    0 -0.20572159452E+02 -0.12048644987E+02  0.63477068880E+01  0.24671379644E+02  0.51100000000E-03 0.  1.
        -12    1    4    4    0    0 -0.55221894106E+01  0.73649635324E+01  0.15668298467E+02  0.18172309721E+02  0.00000000000E+00 0.  1.
</event>
<event>
 8    1  0.1278459E-006  0.9118800E+02  0.7816164E-02  0.1184000E+00
        -11   -1    0    0    0    0  0.00000000000E+00  0.00000000000E+00  0.45593999997E+02  0.45594000000E+02  0.51100000000E-03 0.  1.
         11   -1    0    0    0    0 -0.00000000000E+00 -0.00000000000E+00 -0.45593999997E+02  0.45594000000E+02  0.51100000000E-03 0. -1.
         23    2    1    2    0    0  0.00000000000E+00  0.35527136788E-14  0.00000000000E+00  0.91188000000E+02  0.91188000000E+02 0.  0.
    9900012    2    3    3    0    0  0.97299675343E+01  0.23539921489E+02  0.26589143861E+02  0.54367044782E+02  0.39999910189E+02 0.  0.
         12    1    3    3    0    0 -0.97299675343E+01 -0.23539921489E+02 -0.26589143861E+02  0.36820955218E+02  0.00000000000E+00 0. -1.
         11    1    4    4    0    0  0.11476131766E+02  0.16103409251E+02  0.32702346755E+01  0.20042849721E+02  0.51100000000E-03 0. -1.
        -11    1    4    4    0    0 -0.12791830239E+02  0.53629282653E+01  0.11534236108E+02  0.18039692994E+02  0.51100000000E-03 0.  1.
         12    1    4    4    0    0  0.11045666007E+02  0.20735839722E+01  0.11784673078E+02  0.16284502067E+02  0.00000000000E+00 0. -1.
</event>
<event>
 8    1  0.1278459E-006  0.9118800E+02  0.7816164E-02  0.1184000E+00
        -11   -1    0    0    0    0  0.00000000000E+00  0.00000000000E+00  0.45593999997E+02  0.45594000000E+02  0.51100000000E-03 0.  1.
         11   -1    0    0    0    0 -0.00000000000E+00 -0.00000000000E+00 -0.45593999997E+02  0.45594000000E+02  0.51100000000E-03 0. -1.
         23    2    1    2    0    0  0.00000000000E+00  0.00000000000E+00 -0.35527136788E-14  0.91188000000E+02  0.91188000000E+02 0.  0.
    9900012    2    3    3    0    0  0.19804504971E+02  0.95853575724E+01 -0.29524330108E+02  0.54367033619E+02  0.39999884740E+02 0.  0.
        -12    1    3    3    0    0 -0.19804504971E+02 -0.95853575724E+01  0.29524330108E+02  0.36820966381E+02  0.00000000000E+00 0.  1.
         11    1    4    4    0    0  0.21455763831E+00  0.37645364782E+01 -0.74664304610E+00  0.38438582148E+01  0.51100000000E-03 0.  1.
        -11    1    4    4    0    0 -0.70129980250E+01 -0.87140870325E+01 -0.69707108091E+01  0.13179843078E+02  0.51100000000E-03 0. -1.
         12    1    4    4    0    0  0.26602945357E+02  0.14534908127E+02 -0.21806976253E+02  0.37343332326E+02  0.00000000000E+00 0. -1.
</event>
<event>
 8    1  0.1278459E-006  0.9118800E+02  0.7816164E-02  0.1184000E+00
        -11   -1    0    0    0    0  0.00000000000E+00  0.00000000000E+00  0.45593999997E+02  0.45594000000E+02  0.51100000000E-03 0.  1.
         11   -1    0    0    0    0 -0.00000000000E+00 -0.00000000000E+00 -0.45593999997E+02  0.45594000000E+02  0.51100000000E-03 0. -1.
         23    2    1    2    0    0  0.35527136788E-14 -0.44408920985E-15  0.00000000000E+00  0.91188000000E+02  0.91188000000E+02 0.  0.
    9900012    2    3    3    0    0  0.30183240572E+02 -0.12254270251E+01  0.21053515133E+02  0.54367079557E+02  0.39999989467E+02 0.  0.
         12    1    3    3    0    0 -0.30183240572E+02  0.12254270251E+01 -0.21053515133E+02  0.36820920443E+02  0.00000000000E+00 0. -1.
         11    1    4    4    0    0  0.27265736781E+01 -0.14454718654E+01  0.19892672773E+02  0.20130624015E+02  0.51100000000E-03 0. -1.
        -11    1    4    4    0    0  0.18226021813E+02  0.30876232429E+01  0.10105004814E+02  0.21067330418E+02  0.51100000000E-03 0.  1.
         12    1    4    4    0    0  0.92306450811E+01 -0.28675784026E+01 -0.89441624544E+01  0.13169125124E+02  0.00000000000E+00 0. -1.
</event>
<event>
 8    1  0.1278459E-006  0.9118800E+02  0.7816164E-02  0.1184000E+00
        -11   -1    0    0    0    0  0.00000000000E+00  0.00000000000E+00  0.45593999997E+02  0.45594000000E+02  0.51100000000E-03 0. -1.
         11   -1    0    0    0    0 -0.00000000000E+00 -0.00000000000E+00 -0.45593999997E+02  0.45594000000E+02  0.51100000000E-03 0.  1.
         23    2    1    2    0    0  0.00000000000E+00  0.00000000000E+00  0.00000000000E+00  0.91188000000E+02  0.91188000000E+02 0.  0.
    9900012    2    3    3    0    0 -0.44208512233E+01 -0.21157819409E+02  0.29809094009E+02  0.54367091085E+02  0.40000015748E+02 0.  0.
        -12    1    3    3    0    0  0.44208512233E+01  0.21157819409E+02 -0.29809094009E+02  0.36820908915E+02  0.00000000000E+00 0.  1.
         11    1    4    4    0    0  0.28673605042E+01  0.87778411923E+01  0.33717086841E+01  0.98305987595E+01  0.51100000000E-03 0.  1.
        -11    1    4    4    0    0  0.24489367856E+00 -0.27507636314E+02  0.17523909740E+02  0.32616214394E+02  0.51100000000E-03 0. -1.
        -12    1    4    4    0    0 -0.75331054061E+01 -0.24280242865E+01  0.89134755844E+01  0.11920277933E+02  0.00000000000E+00 0.  1.
</event>
<event>
 8    1  0.1278459E-006  0.9118800E+02  0.7816164E-02  0.1184000E+00
        -11   -1    0    0    0    0  0.00000000000E+00  0.00000000000E+00  0.45593999997E+02  0.45594000000E+02  0.51100000000E-03 0. -1.
         11   -1    0    0    0    0 -0.00000000000E+00 -0.00000000000E+00 -0.45593999997E+02  0.45594000000E+02  0.51100000000E-03 0.  1.
         23    2    1    2    0    0 -0.35527136788E-14 -0.35527136788E-14  0.00000000000E+00  0.91188000000E+02  0.91188000000E+02 0.  0.
    9900012    2    3    3    0    0 -0.81122292397E+01 -0.28700448391E+02 -0.21592992834E+02  0.54367063828E+02  0.39999953608E+02 0.  0.
         12    1    3    3    0    0  0.81122292397E+01  0.28700448391E+02  0.21592992834E+02  0.36820936172E+02  0.00000000000E+00 0. -1.
         11    1    4    4    0    0  0.29671085688E+01  0.12447656916E+01 -0.13694435239E+02  0.14067364062E+02  0.51100000000E-03 0. -1.
        -11    1    4    4    0    0 -0.15562734755E+02 -0.31189926166E+02 -0.67039003182E+01  0.35495809429E+02  0.51100000000E-03 0.  1.
         12    1    4    4    0    0  0.44833969464E+01  0.12447120842E+01 -0.11946572776E+01  0.48038903363E+01  0.00000000000E+00 0. -1.
</event>
<event>
 8    1  0.1278459E-006  0.9118800E+02  0.7816164E-02  0.1184000E+00
        -11   -1    0    0    0    0  0.00000000000E+00  0.00000000000E+00  0.45593999997E+02  0.45594000000E+02  0.51100000000E-03 0. -1.
         11   -1    0    0    0    0 -0.00000000000E+00 -0.00000000000E+00 -0.45593999997E+02  0.45594000000E+02  0.51100000000E-03 0.  1.
         23    2    1    2    0    0 -0.44408920985E-15  0.26645352591E-14  0.00000000000E+00  0.91188000000E+02  0.91188000000E+02 0.  0.
    9900012    2    3    3    0    0 -0.20521292190E+01  0.36967157911E+01 -0.36577366728E+02  0.54367072544E+02  0.39999973479E+02 0.  0.
         12    1    3    3    0    0  0.20521292190E+01 -0.36967157911E+01  0.36577366728E+02  0.36820927456E+02  0.00000000000E+00 0. -1.
         11    1    4    4    0    0  0.17897693455E+01 -0.10654882214E+02 -0.11810724304E+02  0.16006967175E+02  0.51100000000E-03 0. -1.
        -11    1    4    4    0    0  0.10157483523E+01  0.19138652805E+02 -0.25042098449E+02  0.31534528233E+02  0.51100000000E-03 0.  1.
        -12    1    4    4    0    0 -0.48576469167E+01 -0.47870547995E+01  0.27545602438E+00  0.68255771362E+01  0.00000000000E+00 0.  1.
</event>
<event>
 8    1  0.1278459E-006  0.9118800E+02  0.7816164E-02  0.1184000E+00
        -11   -1    0    0    0    0  0.00000000000E+00  0.00000000000E+00  0.45593999997E+02  0.45594000000E+02  0.51100000000E-03 0.  1.
         11   -1    0    0    0    0 -0.00000000000E+00 -0.00000000000E+00 -0.45593999997E+02  0.45594000000E+02  0.51100000000E-03 0. -1.
         23    2    1    2    0    0  0.00000000000E+00  0.35527136788E-14  0.00000000000E+00  0.91188000000E+02  0.91188000000E+02 0.  0.
    9900012    2    3    3    0    0 -0.28398575731E+02 -0.23044395588E+02 -0.42718886892E+01  0.54367186530E+02  0.40000233332E+02 0.  0.
        -12    1    3    3    0    0  0.28398575731E+02  0.23044395588E+02  0.42718886892E+01  0.36820813470E+02  0.00000000000E+00 0.  1.
         11    1    4    4    0    0 -0.31957738380E+02 -0.16281794440E+02 -0.50494882259E+01  0.36220038710E+02  0.51100000000E-03 0. -1.
        -11    1    4    4    0    0  0.17159475744E+01 -0.11607081773E+02  0.35637388998E+01  0.12262506211E+02  0.51100000000E-03 0.  1.
         12    1    4    4    0    0  0.18432150738E+01  0.48444806244E+01 -0.27861393631E+01  0.58846416101E+01  0.00000000000E+00 0. -1.
</event>
<event>
 8    1  0.1278459E-006  0.9118800E+02  0.7816164E-02  0.1184000E+00
        -11   -1    0    0    0    0  0.00000000000E+00  0.00000000000E+00  0.45593999997E+02  0.45594000000E+02  0.51100000000E-03 0. -1.
         11   -1    0    0    0    0 -0.00000000000E+00 -0.00000000000E+00 -0.45593999997E+02  0.45594000000E+02  0.51100000000E-03 0.  1.
         23    2    1    2    0    0  0.17763568394E-14  0.00000000000E+00  0.00000000000E+00  0.91188000000E+02  0.91188000000E+02 0.  0.
    9900012    2    3    3    0    0  0.76697930941E+01  0.26984049865E+02 -0.23849856658E+02  0.54367077472E+02  0.39999984712E+02 0.  0.
         12    1    3    3    0    0 -0.76697930941E+01 -0.26984049865E+02  0.23849856658E+02  0.36820922528E+02  0.00000000000E+00 0. -1.
         11    1    4    4    0    0  0.20831913488E+02  0.12272505593E+02 -0.96347216756E+01  0.26027118072E+02  0.51100000000E-03 0. -1.
        -11    1    4    4    0    0 -0.20988066852E+01  0.12877210967E+02 -0.96681065537E+01  0.16238837286E+02  0.51100000000E-03 0.  1.
         12    1    4    4    0    0 -0.11063313709E+02  0.18343333050E+01 -0.45470284287E+01  0.12101122114E+02  0.00000000000E+00 0. -1.
</event>
<event>
 8    1  0.1278459E-006  0.9118800E+02  0.7816164E-02  0.1184000E+00
        -11   -1    0    0    0    0  0.00000000000E+00  0.00000000000E+00  0.45593999997E+02  0.45594000000E+02  0.51100000000E-03 0.  1.
         11   -1    0    0    0    0 -0.00000000000E+00 -0.00000000000E+00 -0.45593999997E+02  0.45594000000E+02  0.51100000000E-03 0. -1.
         23    2    1    2    0    0 -0.88817841970E-15  0.00000000000E+00  0.71054273576E-14  0.91188000000E+02  0.91188000000E+02 0.  0.
    9900012    2    3    3    0    0 -0.63701200725E+01  0.73918655124E+01  0.35504375924E+02  0.54367098120E+02  0.40000031784E+02 0.  0.
         12    1    3    3    0    0  0.63701200725E+01 -0.73918655124E+01 -0.35504375924E+02  0.36820901880E+02  0.00000000000E+00 0. -1.
         11    1    4    4    0    0  0.12070422202E+02 -0.66793764313E+01  0.12335156600E+02  0.18505816660E+02  0.51100000000E-03 0. -1.
        -11    1    4    4    0    0 -0.59315080006E+01 -0.14281804975E+01  0.12193134492E+01  0.62216727849E+01  0.51100000000E-03 0.  1.
        -12    1    4    4    0    0 -0.12509034274E+02  0.15499422441E+02  0.21949905875E+02  0.29639608675E+02  0.00000000000E+00 0.  1.
</event>
<event>
 8    1  0.1278459E-006  0.9118800E+02  0.7816164E-02  0.1184000E+00
        -11   -1    0    0    0    0  0.00000000000E+00  0.00000000000E+00  0.45593999997E+02  0.45594000000E+02  0.51100000000E-03 0.  1.
         11   -1    0    0    0    0 -0.00000000000E+00 -0.00000000000E+00 -0.45593999997E+02  0.45594000000E+02  0.51100000000E-03 0. -1.
         23    2    1    2    0    0  0.00000000000E+00 -0.17763568394E-14  0.17763568394E-14  0.91188000000E+02  0.91188000000E+02 0.  0.
    9900012    2    3    3    0    0  0.32423172655E+02  0.69807354372E+01 -0.15993357752E+02  0.54367078169E+02  0.39999986302E+02 0.  0.
        -12    1    3    3    0    0 -0.32423172655E+02 -0.69807354372E+01  0.15993357752E+02  0.36820921831E+02  0.00000000000E+00 0.  1.
         11    1    4    4    0    0  0.34307255657E+02  0.12290365831E+02 -0.11752393970E+02  0.38290464181E+02  0.51100000000E-03 0. -1.
        -11    1    4    4    0    0 -0.22742652414E+01 -0.40241762616E+01  0.49589182079E+01  0.67791700839E+01  0.51100000000E-03 0.  1.
        -12    1    4    4    0    0  0.39018224035E+00 -0.12854541326E+01 -0.91998819904E+01  0.92974439038E+01  0.00000000000E+00 0.  1.
</event>
<event>
 8    1  0.1278459E-006  0.9118800E+02  0.7816164E-02  0.1184000E+00
        -11   -1    0    0    0    0  0.00000000000E+00  0.00000000000E+00  0.45593999997E+02  0.45594000000E+02  0.51100000000E-03 0.  1.
         11   -1    0    0    0    0 -0.00000000000E+00 -0.00000000000E+00 -0.45593999997E+02  0.45594000000E+02  0.51100000000E-03 0. -1.
         23    2    1    2    0    0 -0.17763568394E-14  0.26645352591E-14  0.00000000000E+00  0.91188000000E+02  0.91188000000E+02 0.  0.
    9900012    2    3    3    0    0 -0.82586416113E+01  0.31885778000E+01  0.35740840582E+02  0.54367083728E+02  0.39999998974E+02 0.  0.
         12    1    3    3    0    0  0.82586416113E+01 -0.31885778000E+01 -0.35740840582E+02  0.36820916272E+02  0.00000000000E+00 0. -1.
         11    1    4    4    0    0 -0.40444191136E+01  0.10110747271E+02 -0.19465347519E+01  0.11062257190E+02  0.51100000000E-03 0.  1.
        -11    1    4    4    0    0  0.35556246314E+00 -0.12616503862E+02  0.30723650955E+02  0.33215136950E+02  0.51100000000E-03 0. -1.
        -12    1    4    4    0    0 -0.45697849609E+01  0.56943343913E+01  0.69637243787E+01  0.10089689587E+02  0.00000000000E+00 0.  1.
</event>
<event>
 8    1  0.1278459E-006  0.9118800E+02  0.7816164E-02  0.1184000E+00
        -11   -1    0    0    0    0  0.00000000000E+00  0.00000000000E+00  0.45593999997E+02  0.45594000000E+02  0.51100000000E-03 0.  1.
         11   -1    0    0    0    0 -0.00000000000E+00 -0.00000000000E+00 -0.45593999997E+02  0.45594000000E+02  0.51100000000E-03 0. -1.
         23    2    1    2    0    0  0.00000000000E+00 -0.17763568394E-14  0.00000000000E+00  0.91188000000E+02  0.91188000000E+02 0.  0.
    9900012    2    3    3    0    0 -0.19335787177E+02  0.15500857095E+02 -0.27232902896E+02  0.54367078819E+02  0.39999987784E+02 0.  0.
        -12    1    3    3    0    0  0.19335787177E+02 -0.15500857095E+02  0.27232902896E+02  0.36820921181E+02  0.00000000000E+00 0.  1.
         11    1    4    4    0    0 -0.18942143246E+02  0.42102766547E+01 -0.10142205886E+02  0.21895103579E+02  0.51100000000E-03 0. -1.
        -11    1    4    4    0    0 -0.79027041915E+01  0.16551921919E+02 -0.10072620549E+02  0.20925499702E+02  0.51100000000E-03 0.  1.
        -12    1    4    4    0    0  0.75090602603E+01 -0.52613414790E+01 -0.70180764614E+01  0.11546475539E+02  0.00000000000E+00 0.  1.
</event>
<event>
 8    1  0.1278459E-006  0.9118800E+02  0.7816164E-02  0.1184000E+00
        -11   -1    0    0    0    0  0.00000000000E+00  0.00000000000E+00  0.45593999997E+02  0.45594000000E+02  0.51100000000E-03 0.  1.
         11   -1    0    0    0    0 -0.00000000000E+00 -0.00000000000E+00 -0.45593999997E+02  0.45594000000E+02  0.51100000000E-03 0. -1.
         23    2    1    2    0    0  0.00000000000E+00 -0.35527136788E-14  0.88817841970E-15  0.91188000000E+02  0.91188000000E+02 0.  0.
    9900012    2    3    3    0    0  0.30255655650E+02  0.20635809171E+02  0.38129665303E+01  0.54367081588E+02  0.39999994096E+02 0.  0.
        -12    1    3    3    0    0 -0.30255655650E+02 -0.20635809171E+02 -0.38129665303E+01  0.36820918412E+02  0.00000000000E+00 0.  1.
         11    1    4    4    0    0 -0.30332419214E+01  0.71529205713E+01 -0.95965503751E+01  0.12347413033E+02  0.51100000000E-03 0. -1.
        -11    1    4    4    0    0  0.16528042579E+02 -0.12500783503E+01  0.12899486566E+01  0.16625367820E+02  0.51100000000E-03 0.  1.
        -12    1    4    4    0    0  0.16760854993E+02  0.14732966950E+02  0.12119568249E+02  0.25394300734E+02  0.00000000000E+00 0.  1.
</event>
<event>
 8    1  0.1278459E-006  0.9118800E+02  0.7816164E-02  0.1184000E+00
        -11   -1    0    0    0    0  0.00000000000E+00  0.00000000000E+00  0.45593999997E+02  0.45594000000E+02  0.51100000000E-03 0. -1.
         11   -1    0    0    0    0 -0.00000000000E+00 -0.00000000000E+00 -0.45593999997E+02  0.45594000000E+02  0.51100000000E-03 0.  1.
         23    2    1    2    0    0  0.17763568394E-14  0.00000000000E+00  0.00000000000E+00  0.91188000000E+02  0.91188000000E+02 0.  0.
    9900012    2    3    3    0    0  0.71556061329E+01  0.33802514020E+02 -0.12726675355E+02  0.54367069556E+02  0.39999966666E+02 0.  0.
         12    1    3    3    0    0 -0.71556061329E+01 -0.33802514020E+02  0.12726675355E+02  0.36820930444E+02  0.00000000000E+00 0. -1.
         11    1    4    4    0    0  0.58315391506E+01  0.20751401297E+01 -0.40997926240E+01  0.74243757478E+01  0.51100000000E-03 0. -1.
        -11    1    4    4    0    0 -0.31352181432E+01  0.12683205328E+02 -0.20317735087E+02  0.24155820199E+02  0.51100000000E-03 0.  1.
         12    1    4    4    0    0  0.44592851255E+01  0.19044168562E+02  0.11690852356E+02  0.22786873609E+02  0.00000000000E+00 0. -1.
</event>
<event>
 8    1  0.1278459E-006  0.9118800E+02  0.7816164E-02  0.1184000E+00
        -11   -1    0    0    0    0  0.00000000000E+00  0.00000000000E+00  0.45593999997E+02  0.45594000000E+02  0.51100000000E-03 0.  1.
         11   -1    0    0    0    0 -0.00000000000E+00 -0.00000000000E+00 -0.45593999997E+02  0.45594000000E+02  0.51100000000E-03 0. -1.
         23    2    1    2    0    0  0.00000000000E+00  0.00000000000E+00  0.00000000000E+00  0.91188000000E+02  0.91188000000E+02 0.  0.
    9900012    2    3    3    0    0  0.16060973639E+02  0.11471962438E+02 -0.31084037885E+02  0.54367106371E+02  0.40000050594E+02 0.  0.
        -12    1    3    3    0    0 -0.16060973639E+02 -0.11471962438E+02  0.31084037885E+02  0.36820893629E+02  0.00000000000E+00 0.  1.
         11    1    4    4    0    0  0.90427468582E+01  0.14800956792E+02 -0.70835888753E+01  0.18735442997E+02  0.51100000000E-03 0. -1.
        -11    1    4    4    0    0 -0.91143452082E+01 -0.13393156968E+00 -0.12878722876E+02  0.15778172563E+02  0.51100000000E-03 0.  1.
         12    1    4    4    0    0  0.16132571989E+02 -0.31950627845E+01 -0.11121726134E+02  0.19853490810E+02  0.00000000000E+00 0. -1.
</event>
<event>
 8    1  0.1278459E-006  0.9118800E+02  0.7816164E-02  0.1184000E+00
        -11   -1    0    0    0    0  0.00000000000E+00  0.00000000000E+00  0.45593999997E+02  0.45594000000E+02  0.51100000000E-03 0.  1.
         11   -1    0    0    0    0 -0.00000000000E+00 -0.00000000000E+00 -0.45593999997E+02  0.45594000000E+02  0.51100000000E-03 0. -1.
         23    2    1    2    0    0  0.00000000000E+00  0.35527136788E-14 -0.35527136788E-14  0.91188000000E+02  0.91188000000E+02 0.  0.
    9900012    2    3    3    0    0  0.44935623168E+01  0.30716323911E+02  0.19801369267E+02  0.54367097217E+02  0.40000029726E+02 0.  0.
         12    1    3    3    0    0 -0.44935623168E+01 -0.30716323911E+02 -0.19801369267E+02  0.36820902783E+02  0.00000000000E+00 0. -1.
         11    1    4    4    0    0 -0.25756934836E+01 -0.16079094834E+00  0.66077181865E+01  0.70937994434E+01  0.51100000000E-03 0. -1.
        -11    1    4    4    0    0  0.12964574855E+02  0.18990363697E+01  0.11857204366E+02  0.17671441252E+02  0.51100000000E-03 0.  1.
        -12    1    4    4    0    0 -0.58953190541E+01  0.28978078490E+02  0.13364467139E+01  0.29601856521E+02  0.00000000000E+00 0.  1.
</event>
<event>
 8    1  0.1278459E-006  0.9118800E+02  0.7816164E-02  0.1184000E+00
        -11   -1    0    0    0    0  0.00000000000E+00  0.00000000000E+00  0.45593999997E+02  0.45594000000E+02  0.51100000000E-03 0. -1.
         11   -1    0    0    0    0 -0.00000000000E+00 -0.00000000000E+00 -0.45593999997E+02  0.45594000000E+02  0.51100000000E-03 0.  1.
         23    2    1    2    0    0  0.00000000000E+00  0.71054273576E-14 -0.88817841970E-15  0.91188000000E+02  0.91188000000E+02 0.  0.
    9900012    2    3    3    0    0 -0.41510613146E+01 -0.36455872856E+02 -0.30871974540E+01  0.54366908709E+02  0.39999599982E+02 0.  0.
        -12    1    3    3    0    0  0.41510613146E+01  0.36455872856E+02  0.30871974540E+01  0.36821091291E+02  0.00000000000E+00 0.  1.
         11    1    4    4    0    0  0.11733294463E+02 -0.17920825788E+02 -0.83622911596E+01  0.22994653935E+02  0.51100000000E-03 0. -1.
        -11    1    4    4    0    0 -0.79999706667E+01 -0.17359003685E+02 -0.35923773012E+01  0.19448385911E+02  0.51100000000E-03 0.  1.
        -12    1    4    4    0    0 -0.78843851107E+01 -0.11760433823E+01  0.88674710068E+01  0.11923868863E+02  0.00000000000E+00 0.  1.
</event>
<event>
 8    1  0.1278459E-006  0.9118800E+02  0.7816164E-02  0.1184000E+00
        -11   -1    0    0    0    0  0.00000000000E+00  0.00000000000E+00  0.45593999997E+02  0.45594000000E+02  0.51100000000E-03 0.  1.
         11   -1    0    0    0    0 -0.00000000000E+00 -0.00000000000E+00 -0.45593999997E+02  0.45594000000E+02  0.51100000000E-03 0. -1.
         23    2    1    2    0    0 -0.35527136788E-14 -0.35527136788E-14  0.00000000000E+00  0.91188000000E+02  0.91188000000E+02 0.  0.
    9900012    2    3    3    0    0 -0.26358262986E+02 -0.17734849969E+02  0.18614429715E+02  0.54367083054E+02  0.39999997439E+02 0.  0.
         12    1    3    3    0    0  0.26358262986E+02  0.17734849969E+02 -0.18614429715E+02  0.36820916946E+02  0.00000000000E+00 0. -1.
         11    1    4    4    0    0 -0.32143220613E+01  0.13935409060E+01 -0.31456159856E+01  0.47083673137E+01  0.51100000000E-03 0. -1.
        -11    1    4    4    0    0 -0.14281950294E+02  0.52824195975E+01 -0.81397786643E+00  0.15249282646E+02  0.51100000000E-03 0.  1.
        -12    1    4    4    0    0 -0.88619906315E+01 -0.24410810472E+02  0.22574023567E+02  0.34409433095E+02  0.00000000000E+00 0.  1.
</event>
<event>
 8    1  0.1278459E-006  0.9118800E+02  0.7816164E-02  0.1184000E+00
        -11   -1    0    0    0    0  0.00000000000E+00  0.00000000000E+00  0.45593999997E+02  0.45594000000E+02  0.51100000000E-03 0.  1.
         11   -1    0    0    0    0 -0.00000000000E+00 -0.00000000000E+00 -0.45593999997E+02  0.45594000000E+02  0.51100000000E-03 0. -1.
         23    2    1    2    0    0  0.00000000000E+00 -0.44408920985E-15  0.17763568394E-14  0.91188000000E+02  0.91188000000E+02 0.  0.
    9900012    2    3    3    0    0 -0.35371496001E+02  0.20814974990E+01  0.10015281035E+02  0.54367065528E+02  0.39999957485E+02 0.  0.
         12    1    3    3    0    0  0.35371496001E+02 -0.20814974990E+01 -0.10015281035E+02  0.36820934472E+02  0.00000000000E+00 0. -1.
         11    1    4    4    0    0 -0.16419737538E+02 -0.38719201461E+01  0.14331411154E+01  0.16930842866E+02  0.51100000000E-03 0. -1.
        -11    1    4    4    0    0 -0.22764423837E+02  0.13717554124E+02  0.10499115169E+02  0.28576593628E+02  0.51100000000E-03 0.  1.
        -12    1    4    4    0    0  0.38126653743E+01 -0.77641364791E+01 -0.19169752500E+01  0.88596290346E+01  0.00000000000E+00 0.  1.
</event>
<event>
 8    1  0.1278459E-006  0.9118800E+02  0.7816164E-02  0.1184000E+00
        -11   -1    0    0    0    0  0.00000000000E+00  0.00000000000E+00  0.45593999997E+02  0.45594000000E+02  0.51100000000E-03 0. -1.
         11   -1    0    0    0    0 -0.00000000000E+00 -0.00000000000E+00 -0.45593999997E+02  0.45594000000E+02  0.51100000000E-03 0.  1.
         23    2    1    2    0    0  0.17763568394E-14  0.00000000000E+00  0.00000000000E+00  0.91188000000E+02  0.91188000000E+02 0.  0.
    9900012    2    3    3    0    0  0.95927997918E+01  0.31418378368E+02  0.16632619539E+02  0.54367077417E+02  0.39999984587E+02 0.  0.
        -12    1    3    3    0    0 -0.95927997918E+01 -0.31418378368E+02 -0.16632619539E+02  0.36820922583E+02  0.00000000000E+00 0.  1.
         11    1    4    4    0    0 -0.53390884001E+01  0.21265320822E+01 -0.12662074022E+01  0.58848351793E+01  0.51100000000E-03 0. -1.
        -11    1    4    4    0    0  0.23239396141E+02  0.21461094910E+02  0.19180965500E+02  0.36994020673E+02  0.51100000000E-03 0.  1.
        -12    1    4    4    0    0 -0.83075079491E+01  0.78307513762E+01 -0.12821385588E+01  0.11488221565E+02  0.00000000000E+00 0.  1.
</event>
<event>
 8    1  0.1278459E-006  0.9118800E+02  0.7816164E-02  0.1184000E+00
        -11   -1    0    0    0    0  0.00000000000E+00  0.00000000000E+00  0.45593999997E+02  0.45594000000E+02  0.51100000000E-03 0.  1.
         11   -1    0    0    0    0 -0.00000000000E+00 -0.00000000000E+00 -0.45593999997E+02  0.45594000000E+02  0.51100000000E-03 0. -1.
         23    2    1    2    0    0 -0.35527136788E-14  0.00000000000E+00  0.00000000000E+00  0.91188000000E+02  0.91188000000E+02 0.  0.
    9900012    2    3    3    0    0  0.28408188638E+02 -0.21444215939E+02  0.94286816391E+01  0.54367087241E+02  0.40000006984E+02 0.  0.
        -12    1    3    3    0    0 -0.28408188638E+02  0.21444215939E+02 -0.94286816391E+01  0.36820912759E+02  0.00000000000E+00 0.  1.
         11    1    4    4    0    0  0.23419601131E+02 -0.24422185333E+01  0.11151005029E+02  0.26053542214E+02  0.51100000000E-03 0. -1.
        -11    1    4    4    0    0 -0.13368011253E+01  0.37561647698E+01 -0.24534746918E+01  0.46813832733E+01  0.51100000000E-03 0.  1.
         12    1    4    4    0    0  0.63253886330E+01 -0.22758162175E+02  0.73115130184E+00  0.23632161754E+02  0.00000000000E+00 0. -1.
</event>
<event>
 8    1  0.1278459E-006  0.9118800E+02  0.7816164E-02  0.1184000E+00
        -11   -1    0    0    0    0  0.00000000000E+00  0.00000000000E+00  0.45593999997E+02  0.45594000000E+02  0.51100000000E-03 0.  1.
         11   -1    0    0    0    0 -0.00000000000E+00 -0.00000000000E+00 -0.45593999997E+02  0.45594000000E+02  0.51100000000E-03 0. -1.
         23    2    1    2    0    0  0.00000000000E+00  0.00000000000E+00  0.00000000000E+00  0.91188000000E+02  0.91188000000E+02 0.  0.
    9900012    2    3    3    0    0 -0.93757764888E+01 -0.35200115821E+02  0.53690797967E+01  0.54367077192E+02  0.39999984074E+02 0.  0.
        -12    1    3    3    0    0  0.93757764888E+01  0.35200115821E+02 -0.53690797967E+01  0.36820922808E+02  0.00000000000E+00 0.  1.
         11    1    4    4    0    0  0.64805638087E+01 -0.19337443858E+02  0.19363734160E+01  0.20486190092E+02  0.51100000000E-03 0. -1.
        -11    1    4    4    0    0 -0.12311206276E+02  0.36207556304E+01  0.55167764820E+01  0.13968195814E+02  0.51100000000E-03 0.  1.
        -12    1    4    4    0    0 -0.35451340220E+01 -0.19483427594E+02 -0.20840701012E+01  0.19912691285E+02  0.00000000000E+00 0.  1.
</event>
<event>
 8    1  0.1278459E-006  0.9118800E+02  0.7816164E-02  0.1184000E+00
        -11   -1    0    0    0    0  0.00000000000E+00  0.00000000000E+00  0.45593999997E+02  0.45594000000E+02  0.51100000000E-03 0.  1.
         11   -1    0    0    0    0 -0.00000000000E+00 -0.00000000000E+00 -0.45593999997E+02  0.45594000000E+02  0.51100000000E-03 0. -1.
         23    2    1    2    0    0 -0.35527136788E-14  0.00000000000E+00  0.35527136788E-14  0.91188000000E+02  0.91188000000E+02 0.  0.
    9900012    2    3    3    0    0 -0.25742155498E+02 -0.18893752931E+02  0.18334315085E+02  0.54367087747E+02  0.40000008136E+02 0.  0.
         12    1    3    3    0    0  0.25742155498E+02  0.18893752931E+02 -0.18334315085E+02  0.36820912253E+02  0.00000000000E+00 0. -1.
         11    1    4    4    0    0 -0.18639341093E+02  0.48453527224E+01  0.66231945677E+01  0.20365882891E+02  0.51100000000E-03 0. -1.
        -11    1    4    4    0    0  0.64661275903E+01 -0.50151737210E+01  0.23507911156E+00  0.81864544167E+01  0.51100000000E-03 0.  1.
         12    1    4    4    0    0 -0.13568941996E+02 -0.18723931933E+02  0.11476041406E+02  0.25814750439E+02  0.00000000000E+00 0. -1.
</event>
<event>
 8    1  0.1278459E-006  0.9118800E+02  0.7816164E-02  0.1184000E+00
        -11   -1    0    0    0    0  0.00000000000E+00  0.00000000000E+00  0.45593999997E+02  0.45594000000E+02  0.51100000000E-03 0. -1.
         11   -1    0    0    0    0 -0.00000000000E+00 -0.00000000000E+00 -0.45593999997E+02  0.45594000000E+02  0.51100000000E-03 0.  1.
         23    2    1    2    0    0  0.35527136788E-14  0.00000000000E+00  0.00000000000E+00  0.91188000000E+02  0.91188000000E+02 0.  0.
    9900012    2    3    3    0    0 -0.23051867978E+02  0.27454386823E+02  0.84052960616E+01  0.54367068793E+02  0.39999964926E+02 0.  0.
        -12    1    3    3    0    0  0.23051867978E+02 -0.27454386823E+02 -0.84052960616E+01  0.36820931207E+02  0.00000000000E+00 0.  1.
         11    1    4    4    0    0 -0.20035974846E+02  0.13652546761E+02  0.23438963510E+02  0.33722653096E+02  0.51100000000E-03 0. -1.
        -11    1    4    4    0    0 -0.17681378907E+01  0.66593454981E+01 -0.76675530506E+01  0.10308470503E+02  0.51100000000E-03 0.  1.
         12    1    4    4    0    0 -0.12477552415E+01  0.71424945633E+01 -0.73661143981E+01  0.10335945194E+02  0.00000000000E+00 0. -1.
</event>
<event>
 8    1  0.1278459E-006  0.9118800E+02  0.7816164E-02  0.1184000E+00
        -11   -1    0    0    0    0  0.00000000000E+00  0.00000000000E+00  0.45593999997E+02  0.45594000000E+02  0.51100000000E-03 0. -1.
         11   -1    0    0    0    0 -0.00000000000E+00 -0.00000000000E+00 -0.45593999997E+02  0.45594000000E+02  0.51100000000E-03 0.  1.
         23    2    1    2    0    0  0.35527136788E-14  0.00000000000E+00 -0.35527136788E-14  0.91188000000E+02  0.91188000000E+02 0.  0.
    9900012    2    3    3    0    0 -0.24036287832E+02 -0.19600730831E+02  0.19845627653E+02  0.54367072271E+02  0.39999972857E+02 0.  0.
        -12    1    3    3    0    0  0.24036287832E+02  0.19600730831E+02 -0.19845627653E+02  0.36820927729E+02  0.00000000000E+00 0.  1.
         11    1    4    4    0    0 -0.10844885136E+01 -0.15963673382E+02  0.29492457890E+01  0.16270004123E+02  0.51100000000E-03 0. -1.
        -11    1    4    4    0    0  0.98993185979E+00 -0.67601833059E+01 -0.23447527569E+01  0.72234277991E+01  0.51100000000E-03 0.  1.
        -12    1    4    4    0    0 -0.23941731178E+02  0.31231258562E+01  0.19241134621E+02  0.30873640349E+02  0.00000000000E+00 0.  1.
</event>
<event>
 8    1  0.1278459E-006  0.9118800E+02  0.7816164E-02  0.1184000E+00
        -11   -1    0    0    0    0  0.00000000000E+00  0.00000000000E+00  0.45593999997E+02  0.45594000000E+02  0.51100000000E-03 0. -1.
         11   -1    0    0    0    0 -0.00000000000E+00 -0.00000000000E+00 -0.45593999997E+02  0.45594000000E+02  0.51100000000E-03 0.  1.
         23    2    1    2    0    0  0.35527136788E-14  0.00000000000E+00 -0.88817841970E-15  0.91188000000E+02  0.91188000000E+02 0.  0.
    9900012    2    3    3    0    0 -0.29956828528E+02  0.19948959502E+02 -0.77722113840E+01  0.54367084334E+02  0.40000000357E+02 0.  0.
        -12    1    3    3    0    0  0.29956828528E+02 -0.19948959502E+02  0.77722113840E+01  0.36820915666E+02  0.00000000000E+00 0.  1.
         11    1    4    4    0    0 -0.55563463837E+01 -0.32808200419E+01  0.39534344611E+01  0.75674572732E+01  0.51100000000E-03 0. -1.
        -11    1    4    4    0    0  0.51264845995E+01  0.10844655662E+02 -0.83231846000E+01  0.14600095990E+02  0.51100000000E-03 0.  1.
         12    1    4    4    0    0 -0.29526966744E+02  0.12385123882E+02 -0.34024612451E+01  0.32199531071E+02  0.00000000000E+00 0. -1.
</event>
<event>
 8    1  0.1278459E-006  0.9118800E+02  0.7816164E-02  0.1184000E+00
        -11   -1    0    0    0    0  0.00000000000E+00  0.00000000000E+00  0.45593999997E+02  0.45594000000E+02  0.51100000000E-03 0. -1.
         11   -1    0    0    0    0 -0.00000000000E+00 -0.00000000000E+00 -0.45593999997E+02  0.45594000000E+02  0.51100000000E-03 0.  1.
         23    2    1    2    0    0  0.00000000000E+00  0.00000000000E+00  0.00000000000E+00  0.91188000000E+02  0.91188000000E+02 0.  0.
    9900012    2    3    3    0    0 -0.27345033266E+02  0.22769013747E+02 -0.94658088724E+01  0.54367077022E+02  0.39999983687E+02 0.  0.
         12    1    3    3    0    0  0.27345033266E+02 -0.22769013747E+02  0.94658088724E+01  0.36820922978E+02  0.00000000000E+00 0. -1.
         11    1    4    4    0    0 -0.17054173794E+01  0.34184872228E+01  0.58991737335E+01  0.70281401757E+01  0.51100000000E-03 0. -1.
        -11    1    4    4    0    0 -0.31534707878E+02  0.10100312297E+02 -0.15031674483E+02  0.36364891688E+02  0.51100000000E-03 0.  1.
        -12    1    4    4    0    0  0.58950919916E+01  0.92502142270E+01 -0.33330812311E+00  0.10974045158E+02  0.00000000000E+00 0.  1.
</event>
<event>
 8    1  0.1278459E-006  0.9118800E+02  0.7816164E-02  0.1184000E+00
        -11   -1    0    0    0    0  0.00000000000E+00  0.00000000000E+00  0.45593999997E+02  0.45594000000E+02  0.51100000000E-03 0.  1.
         11   -1    0    0    0    0 -0.00000000000E+00 -0.00000000000E+00 -0.45593999997E+02  0.45594000000E+02  0.51100000000E-03 0. -1.
         23    2    1    2    0    0  0.00000000000E+00  0.35527136788E-14  0.00000000000E+00  0.91188000000E+02  0.91188000000E+02 0.  0.
    9900012    2    3    3    0    0 -0.76235754494E+01 -0.27565968878E+02 -0.23190042422E+02  0.54367087324E+02  0.40000007172E+02 0.  0.
         12    1    3    3    0    0  0.76235754494E+01  0.27565968878E+02  0.23190042422E+02  0.36820912676E+02  0.00000000000E+00 0. -1.
         11    1    4    4    0    0 -0.11632729840E+01  0.25255536240E+01 -0.87394659178E+01  0.91711444178E+01  0.51100000000E-03 0. -1.
        -11    1    4    4    0    0 -0.17612022500E+02 -0.12091319872E+02 -0.98627712604E+01  0.23529930089E+02  0.51100000000E-03 0.  1.
         12    1    4    4    0    0  0.11151720035E+02 -0.18000202629E+02 -0.45878052437E+01  0.21666012817E+02  0.00000000000E+00 0. -1.
</event>
<event>
 8    1  0.1278459E-006  0.9118800E+02  0.7816164E-02  0.1184000E+00
        -11   -1    0    0    0    0  0.00000000000E+00  0.00000000000E+00  0.45593999997E+02  0.45594000000E+02  0.51100000000E-03 0.  1.
         11   -1    0    0    0    0 -0.00000000000E+00 -0.00000000000E+00 -0.45593999997E+02  0.45594000000E+02  0.51100000000E-03 0. -1.
         23    2    1    2    0    0  0.35527136788E-14  0.00000000000E+00 -0.35527136788E-14  0.91188000000E+02  0.91188000000E+02 0.  0.
    9900012    2    3    3    0    0 -0.17703789506E+02 -0.17276156617E+02 -0.27274330092E+02  0.54367097889E+02  0.40000031257E+02 0.  0.
        -12    1    3    3    0    0  0.17703789506E+02  0.17276156617E+02  0.27274330092E+02  0.36820902111E+02  0.00000000000E+00 0.  1.
         11    1    4    4    0    0 -0.88781626847E+01 -0.14633489089E+00 -0.24522537511E+02  0.26080606450E+02  0.51100000000E-03 0. -1.
        -11    1    4    4    0    0  0.19658848451E+00 -0.61432805811E+01  0.82658222051E+01  0.10300599998E+02  0.51100000000E-03 0.  1.
        -12    1    4    4    0    0 -0.90222153061E+01 -0.10986541145E+02 -0.11017614786E+02  0.17985891441E+02  0.00000000000E+00 0.  1.
</event>
<event>
 8    1  0.1278459E-006  0.9118800E+02  0.7816164E-02  0.1184000E+00
        -11   -1    0    0    0    0  0.00000000000E+00  0.00000000000E+00  0.45593999997E+02  0.45594000000E+02  0.51100000000E-03 0. -1.
         11   -1    0    0    0    0 -0.00000000000E+00 -0.00000000000E+00 -0.45593999997E+02  0.45594000000E+02  0.51100000000E-03 0.  1.
         23    2    1    2    0    0 -0.44408920985E-15  0.00000000000E+00  0.35527136788E-14  0.91188000000E+02  0.91188000000E+02 0.  0.
    9900012    2    3    3    0    0 -0.20098132688E+01  0.29940968372E+02  0.21337224559E+02  0.54367107992E+02  0.40000054288E+02 0.  0.
        -12    1    3    3    0    0  0.20098132688E+01 -0.29940968372E+02 -0.21337224559E+02  0.36820892008E+02  0.00000000000E+00 0.  1.
         11    1    4    4    0    0 -0.52234097625E+00  0.70181636490E+01  0.31342771509E+01  0.77039700557E+01  0.51100000000E-03 0. -1.
        -11    1    4    4    0    0 -0.81188565626E+01  0.11251332992E+02 -0.88540877671E+01  0.16459137172E+02  0.51100000000E-03 0.  1.
         12    1    4    4    0    0  0.66313842701E+01  0.11671471731E+02  0.27057035175E+02  0.30204000764E+02  0.00000000000E+00 0. -1.
</event>
<event>
 8    1  0.1278459E-006  0.9118800E+02  0.7816164E-02  0.1184000E+00
        -11   -1    0    0    0    0  0.00000000000E+00  0.00000000000E+00  0.45593999997E+02  0.45594000000E+02  0.51100000000E-03 0. -1.
         11   -1    0    0    0    0 -0.00000000000E+00 -0.00000000000E+00 -0.45593999997E+02  0.45594000000E+02  0.51100000000E-03 0.  1.
         23    2    1    2    0    0  0.00000000000E+00  0.00000000000E+00  0.00000000000E+00  0.91188000000E+02  0.91188000000E+02 0.  0.
    9900012    2    3    3    0    0  0.29896253149E+02 -0.14874318181E+02 -0.15516052249E+02  0.54367093288E+02  0.40000020768E+02 0.  0.
         12    1    3    3    0    0 -0.29896253149E+02  0.14874318181E+02  0.15516052249E+02  0.36820906712E+02  0.00000000000E+00 0. -1.
         11    1    4    4    0    0  0.11270851369E+02 -0.48891923970E+01  0.12359809627E+02  0.17427024622E+02  0.51100000000E-03 0. -1.
        -11    1    4    4    0    0  0.10194771469E+02 -0.37425359112E+01 -0.22868135635E+02  0.25315836309E+02  0.51100000000E-03 0.  1.
         12    1    4    4    0    0  0.84306303120E+01 -0.62425898728E+01 -0.50077262419E+01  0.11624232357E+02  0.00000000000E+00 0. -1.
</event>
<event>
 8    1  0.1278459E-006  0.9118800E+02  0.7816164E-02  0.1184000E+00
        -11   -1    0    0    0    0  0.00000000000E+00  0.00000000000E+00  0.45593999997E+02  0.45594000000E+02  0.51100000000E-03 0. -1.
         11   -1    0    0    0    0 -0.00000000000E+00 -0.00000000000E+00 -0.45593999997E+02  0.45594000000E+02  0.51100000000E-03 0.  1.
         23    2    1    2    0    0  0.17763568394E-14  0.35527136788E-14  0.00000000000E+00  0.91188000000E+02  0.91188000000E+02 0.  0.
    9900012    2    3    3    0    0  0.91267280980E+01  0.30947599154E+02 -0.17740590519E+02  0.54367087313E+02  0.40000007147E+02 0.  0.
         12    1    3    3    0    0 -0.91267280980E+01 -0.30947599154E+02  0.17740590519E+02  0.36820912687E+02  0.00000000000E+00 0. -1.
         11    1    4    4    0    0  0.43795982793E+01 -0.58689039805E+01 -0.11196035662E+02  0.13378196060E+02  0.51100000000E-03 0. -1.
        -11    1    4    4    0    0  0.58769819639E+01  0.33469386508E+02 -0.10613524183E+02  0.35600360196E+02  0.51100000000E-03 0.  1.
        -12    1    4    4    0    0 -0.11298521452E+01  0.33471166262E+01  0.40689693255E+01  0.53885310569E+01  0.00000000000E+00 0.  1.
</event>
<event>
 8    1  0.1278459E-006  0.9118800E+02  0.7816164E-02  0.1184000E+00
        -11   -1    0    0    0    0  0.00000000000E+00  0.00000000000E+00  0.45593999997E+02  0.45594000000E+02  0.51100000000E-03 0.  1.
         11   -1    0    0    0    0 -0.00000000000E+00 -0.00000000000E+00 -0.45593999997E+02  0.45594000000E+02  0.51100000000E-03 0. -1.
         23    2    1    2    0    0  0.00000000000E+00  0.00000000000E+00 -0.71054273576E-14  0.91188000000E+02  0.91188000000E+02 0.  0.
    9900012    2    3    3    0    0  0.14369589771E+02 -0.88893189023E+01 -0.32715016195E+02  0.54367117537E+02  0.40000076049E+02 0.  0.
        -12    1    3    3    0    0 -0.14369589771E+02  0.88893189023E+01  0.32715016195E+02  0.36820882463E+02  0.00000000000E+00 0.  1.
         11    1    4    4    0    0 -0.68085698939E+01 -0.12506308200E+02 -0.20349797461E+02  0.24837041405E+02  0.51100000000E-03 0. -1.
        -11    1    4    4    0    0 -0.92498294806E+00 -0.33015076674E+01 -0.37290697477E+00  0.34488557820E+01  0.51100000000E-03 0.  1.
        -12    1    4    4    0    0  0.22103142613E+02  0.69184969651E+01 -0.11992311759E+02  0.26081220350E+02  0.00000000000E+00 0.  1.
</event>
<event>
 8    1  0.1278459E-006  0.9118800E+02  0.7816164E-02  0.1184000E+00
        -11   -1    0    0    0    0  0.00000000000E+00  0.00000000000E+00  0.45593999997E+02  0.45594000000E+02  0.51100000000E-03 0.  1.
         11   -1    0    0    0    0 -0.00000000000E+00 -0.00000000000E+00 -0.45593999997E+02  0.45594000000E+02  0.51100000000E-03 0. -1.
         23    2    1    2    0    0  0.00000000000E+00 -0.11102230246E-15  0.88817841970E-15  0.91188000000E+02  0.91188000000E+02 0.  0.
    9900012    2    3    3    0    0 -0.36578352068E+02  0.34332642889E+00  0.42055181111E+01  0.54367080733E+02  0.39999992148E+02 0.  0.
         12    1    3    3    0    0  0.36578352068E+02 -0.34332642889E+00 -0.42055181111E+01  0.36820919267E+02  0.00000000000E+00 0. -1.
         11    1    4    4    0    0 -0.30887059557E+02 -0.44282447710E+00 -0.10852559171E+02  0.32741175642E+02  0.51100000000E-03 0. -1.
        -11    1    4    4    0    0 -0.32518411387E+01  0.76072562288E+01  0.77620597293E+01  0.11344354967E+02  0.51100000000E-03 0.  1.
        -12    1    4    4    0    0 -0.24394513722E+01 -0.68211053228E+01  0.72960175525E+01  0.10281550124E+02  0.00000000000E+00 0.  1.
</event>
<event>
 8    1  0.1278459E-006  0.9118800E+02  0.7816164E-02  0.1184000E+00
        -11   -1    0    0    0    0  0.00000000000E+00  0.00000000000E+00  0.45593999997E+02  0.45594000000E+02  0.51100000000E-03 0.  1.
         11   -1    0    0    0    0 -0.00000000000E+00 -0.00000000000E+00 -0.45593999997E+02  0.45594000000E+02  0.51100000000E-03 0. -1.
         23    2    1    2    0    0  0.71054273576E-14  0.00000000000E+00  0.00000000000E+00  0.91188000000E+02  0.91188000000E+02 0.  0.
    9900012    2    3    3    0    0  0.34888348082E+02  0.82509967336E+01  0.83964690424E+01  0.54367129948E+02  0.40000104342E+02 0.  0.
        -12    1    3    3    0    0 -0.34888348082E+02 -0.82509967336E+01 -0.83964690424E+01  0.36820870052E+02  0.00000000000E+00 0.  1.
         11    1    4    4    0    0  0.20903240876E+02 -0.31478352196E+01 -0.26168143718E+01  0.21300283177E+02  0.51100000000E-03 0. -1.
        -11    1    4    4    0    0 -0.67771227765E+01  0.64548052106E+01  0.76293084328E+00  0.93902059172E+01  0.51100000000E-03 0.  1.
        -12    1    4    4    0    0  0.20762229983E+02  0.49440267426E+01  0.10250352571E+02  0.23676640854E+02  0.00000000000E+00 0.  1.
</event>
<event>
 8    1  0.1278459E-006  0.9118800E+02  0.7816164E-02  0.1184000E+00
        -11   -1    0    0    0    0  0.00000000000E+00  0.00000000000E+00  0.45593999997E+02  0.45594000000E+02  0.51100000000E-03 0. -1.
         11   -1    0    0    0    0 -0.00000000000E+00 -0.00000000000E+00 -0.45593999997E+02  0.45594000000E+02  0.51100000000E-03 0.  1.
         23    2    1    2    0    0  0.00000000000E+00  0.00000000000E+00  0.00000000000E+00  0.91188000000E+02  0.91188000000E+02 0.  0.
    9900012    2    3    3    0    0 -0.20349081193E+02 -0.23451571683E+02 -0.19791846331E+02  0.54367102387E+02  0.40000041512E+02 0.  0.
         12    1    3    3    0    0  0.20349081193E+02  0.23451571683E+02  0.19791846331E+02  0.36820897613E+02  0.00000000000E+00 0. -1.
         11    1    4    4    0    0 -0.30353360770E+00 -0.66213625418E+01  0.41264519961E+01  0.78078281807E+01  0.51100000000E-03 0. -1.
        -11    1    4    4    0    0 -0.19438286971E+02 -0.15920504923E+02 -0.26526437109E+01  0.25265510015E+02  0.51100000000E-03 0.  1.
        -12    1    4    4    0    0 -0.60726061418E+00 -0.90970421823E+00 -0.21265654616E+02  0.21293764192E+02  0.00000000000E+00 0.  1.
</event>
<event>
 8    1  0.1278459E-006  0.9118800E+02  0.7816164E-02  0.1184000E+00
        -11   -1    0    0    0    0  0.00000000000E+00  0.00000000000E+00  0.45593999997E+02  0.45594000000E+02  0.51100000000E-03 0.  1.
         11   -1    0    0    0    0 -0.00000000000E+00 -0.00000000000E+00 -0.45593999997E+02  0.45594000000E+02  0.51100000000E-03 0. -1.
         23    2    1    2    0    0 -0.26645352591E-14  0.00000000000E+00  0.77715611724E-15  0.91188000000E+02  0.91188000000E+02 0.  0.
    9900012    2    3    3    0    0 -0.62090920761E+01  0.36287322977E+02  0.67702147165E+00  0.54367068571E+02  0.39999964422E+02 0.  0.
        -12    1    3    3    0    0  0.62090920761E+01 -0.36287322977E+02 -0.67702147165E+00  0.36820931429E+02  0.00000000000E+00 0.  1.
         11    1    4    4    0    0 -0.21616228385E+01  0.20890100916E+02 -0.63227747290E+01  0.21932770234E+02  0.51100000000E-03 0. -1.
        -11    1    4    4    0    0  0.63741079586E+01 -0.38161164039E+01 -0.34686472017E+01  0.81989944717E+01  0.51100000000E-03 0.  1.
        -12    1    4    4    0    0 -0.10421577196E+02  0.19213338464E+02  0.10468443402E+02  0.24235303866E+02  0.00000000000E+00 0.  1.
</event>
<event>
 8    1  0.1278459E-006  0.9118800E+02  0.7816164E-02  0.1184000E+00
        -11   -1    0    0    0    0  0.00000000000E+00  0.00000000000E+00  0.45593999997E+02  0.45594000000E+02  0.51100000000E-03 0. -1.
         11   -1    0    0    0    0 -0.00000000000E+00 -0.00000000000E+00 -0.45593999997E+02  0.45594000000E+02  0.51100000000E-03 0.  1.
         23    2    1    2    0    0 -0.71054273576E-14  0.00000000000E+00 -0.17763568394E-14  0.91188000000E+02  0.91188000000E+02 0.  0.
    9900012    2    3    3    0    0 -0.32824922794E+02 -0.10891923420E+02 -0.12636046625E+02  0.54367092535E+02  0.40000019051E+02 0.  0.
         12    1    3    3    0    0  0.32824922794E+02  0.10891923420E+02  0.12636046625E+02  0.36820907465E+02  0.00000000000E+00 0. -1.
         11    1    4    4    0    0 -0.12322166538E+02 -0.15443696307E+02  0.10062524041E+02  0.22172007896E+02  0.51100000000E-03 0. -1.
        -11    1    4    4    0    0 -0.13007626564E+02 -0.90528886453E+00 -0.98051322296E+01  0.16314365297E+02  0.51100000000E-03 0.  1.
         12    1    4    4    0    0 -0.74951296927E+01  0.54570617514E+01 -0.12893438437E+02  0.15880719341E+02  0.00000000000E+00 0. -1.
</event>
<event>
 8    1  0.1278459E-006  0.9118800E+02  0.7816164E-02  0.1184000E+00
        -11   -1    0    0    0    0  0.00000000000E+00  0.00000000000E+00  0.45593999997E+02  0.45594000000E+02  0.51100000000E-03 0. -1.
         11   -1    0    0    0    0 -0.00000000000E+00 -0.00000000000E+00 -0.45593999997E+02  0.45594000000E+02  0.51100000000E-03 0.  1.
         23    2    1    2    0    0  0.00000000000E+00  0.00000000000E+00  0.17763568394E-14  0.91188000000E+02  0.91188000000E+02 0.  0.
    9900012    2    3    3    0    0  0.35726394104E+02 -0.33789538516E+01  0.82453706161E+01  0.54367099666E+02  0.40000035308E+02 0.  0.
         12    1    3    3    0    0 -0.35726394104E+02  0.33789538516E+01 -0.82453706161E+01  0.36820900334E+02  0.00000000000E+00 0. -1.
         11    1    4    4    0    0  0.15087281356E+02  0.92315175103E+00  0.91948840585E+01  0.17692488830E+02  0.51100000000E-03 0. -1.
        -11    1    4    4    0    0  0.24258170858E+02 -0.10250134247E+02  0.58127145473E+01  0.26968718103E+02  0.51100000000E-03 0.  1.
         12    1    4    4    0    0 -0.36190581101E+01  0.59480286445E+01 -0.67622279897E+01  0.97058927330E+01  0.00000000000E+00 0. -1.
</event>
<event>
 8    1  0.1278459E-006  0.9118800E+02  0.7816164E-02  0.1184000E+00
        -11   -1    0    0    0    0  0.00000000000E+00  0.00000000000E+00  0.45593999997E+02  0.45594000000E+02  0.51100000000E-03 0. -1.
         11   -1    0    0    0    0 -0.00000000000E+00 -0.00000000000E+00 -0.45593999997E+02  0.45594000000E+02  0.51100000000E-03 0.  1.
         23    2    1    2    0    0  0.00000000000E+00 -0.13322676296E-14  0.17763568394E-14  0.91188000000E+02  0.91188000000E+02 0.  0.
    9900012    2    3    3    0    0 -0.35539493970E+02 -0.26836130277E+01  0.92478416210E+01  0.54367082234E+02  0.39999995569E+02 0.  0.
        -12    1    3    3    0    0  0.35539493970E+02  0.26836130277E+01 -0.92478416210E+01  0.36820917766E+02  0.00000000000E+00 0.  1.
         11    1    4    4    0    0 -0.26468694487E+02 -0.16225372039E+02  0.67353148535E+01  0.31768206624E+02  0.51100000000E-03 0. -1.
        -11    1    4    4    0    0 -0.36147380767E+01  0.69649937203E+01 -0.64923957229E+01  0.10184727359E+02  0.51100000000E-03 0.  1.
         12    1    4    4    0    0 -0.54560614057E+01  0.65767652907E+01  0.90049224904E+01  0.12414148251E+02  0.00000000000E+00 0. -1.
</event>
<event>
 8    1  0.1278459E-006  0.9118800E+02  0.7816164E-02  0.1184000E+00
        -11   -1    0    0    0    0  0.00000000000E+00  0.00000000000E+00  0.45593999997E+02  0.45594000000E+02  0.51100000000E-03 0. -1.
         11   -1    0    0    0    0 -0.00000000000E+00 -0.00000000000E+00 -0.45593999997E+02  0.45594000000E+02  0.51100000000E-03 0.  1.
         23    2    1    2    0    0  0.00000000000E+00  0.00000000000E+00  0.17763568394E-14  0.91188000000E+02  0.91188000000E+02 0.  0.
    9900012    2    3    3    0    0  0.24217315676E+02  0.26680273099E+02 -0.75805527942E+01  0.54367080242E+02  0.39999991027E+02 0.  0.
        -12    1    3    3    0    0 -0.24217315676E+02 -0.26680273099E+02  0.75805527942E+01  0.36820919758E+02  0.00000000000E+00 0.  1.
         11    1    4    4    0    0 -0.89702885865E+01  0.44457439216E+01 -0.18772229993E-01  0.10011546784E+02  0.51100000000E-03 0. -1.
        -11    1    4    4    0    0  0.27307304385E+02  0.16018807845E+02 -0.12992350347E+02  0.34221225071E+02  0.51100000000E-03 0.  1.
         12    1    4    4    0    0  0.58802998772E+01  0.62157213324E+01  0.54305697827E+01  0.10134308387E+02  0.00000000000E+00 0. -1.
</event>
<event>
 8    1  0.1278459E-006  0.9118800E+02  0.7816164E-02  0.1184000E+00
        -11   -1    0    0    0    0  0.00000000000E+00  0.00000000000E+00  0.45593999997E+02  0.45594000000E+02  0.51100000000E-03 0.  1.
         11   -1    0    0    0    0 -0.00000000000E+00 -0.00000000000E+00 -0.45593999997E+02  0.45594000000E+02  0.51100000000E-03 0. -1.
         23    2    1    2    0    0  0.00000000000E+00  0.00000000000E+00  0.71054273576E-14  0.91188000000E+02  0.91188000000E+02 0.  0.
    9900012    2    3    3    0    0 -0.94333266146E+01  0.28177350188E+02 -0.21744660754E+02  0.54367068644E+02  0.39999964588E+02 0.  0.
        -12    1    3    3    0    0  0.94333266146E+01 -0.28177350188E+02  0.21744660754E+02  0.36820931356E+02  0.00000000000E+00 0.  1.
         11    1    4    4    0    0  0.96508709125E+01  0.50903591615E+01  0.31296864944E+01  0.11351035353E+02  0.51100000000E-03 0.  1.
        -11    1    4    4    0    0 -0.10262950121E+02  0.49296994629E-01 -0.54679245798E+01  0.11628790774E+02  0.51100000000E-03 0. -1.
        -12    1    4    4    0    0 -0.88212474059E+01  0.23037694032E+02 -0.19406422668E+02  0.31387242518E+02  0.00000000000E+00 0.  1.
</event>
<event>
 8    1  0.1278459E-006  0.9118800E+02  0.7816164E-02  0.1184000E+00
        -11   -1    0    0    0    0  0.00000000000E+00  0.00000000000E+00  0.45593999997E+02  0.45594000000E+02  0.51100000000E-03 0. -1.
         11   -1    0    0    0    0 -0.00000000000E+00 -0.00000000000E+00 -0.45593999997E+02  0.45594000000E+02  0.51100000000E-03 0.  1.
         23    2    1    2    0    0  0.00000000000E+00 -0.71054273576E-14 -0.88817841970E-15  0.91188000000E+02  0.91188000000E+02 0.  0.
    9900012    2    3    3    0    0  0.11193880159E+02  0.34509517236E+02  0.62905529114E+01  0.54367071320E+02  0.39999970689E+02 0.  0.
        -12    1    3    3    0    0 -0.11193880159E+02 -0.34509517236E+02 -0.62905529114E+01  0.36820928680E+02  0.00000000000E+00 0.  1.
         11    1    4    4    0    0 -0.54992815665E+01  0.17923428159E+02  0.47149276742E+01  0.19331888628E+02  0.51100000000E-03 0. -1.
        -11    1    4    4    0    0  0.15234532090E+00 -0.56743246887E+01 -0.37393943249E+01  0.67973700758E+01  0.51100000000E-03 0.  1.
        -12    1    4    4    0    0  0.16540816405E+02  0.22260413766E+02  0.53150195621E+01  0.28237812616E+02  0.00000000000E+00 0.  1.
</event>
<event>
 8    1  0.1278459E-006  0.9118800E+02  0.7816164E-02  0.1184000E+00
        -11   -1    0    0    0    0  0.00000000000E+00  0.00000000000E+00  0.45593999997E+02  0.45594000000E+02  0.51100000000E-03 0.  1.
         11   -1    0    0    0    0 -0.00000000000E+00 -0.00000000000E+00 -0.45593999997E+02  0.45594000000E+02  0.51100000000E-03 0. -1.
         23    2    1    2    0    0  0.00000000000E+00 -0.22204460493E-15  0.00000000000E+00  0.91188000000E+02  0.91188000000E+02 0.  0.
    9900012    2    3    3    0    0 -0.13394112354E+02  0.14193682518E+01  0.34268980580E+02  0.54367083635E+02  0.39999998763E+02 0.  0.
         12    1    3    3    0    0  0.13394112354E+02 -0.14193682518E+01 -0.34268980580E+02  0.36820916365E+02  0.00000000000E+00 0. -1.
         11    1    4    4    0    0 -0.16551496489E+02  0.12708399746E+02  0.64456263404E+01  0.21840365366E+02  0.51100000000E-03 0. -1.
        -11    1    4    4    0    0  0.71481253448E+01 -0.40746305304E+01  0.10484639793E+02  0.13327639766E+02  0.51100000000E-03 0.  1.
         12    1    4    4    0    0 -0.39907412090E+01 -0.72144009642E+01  0.17338714447E+02  0.19199078502E+02  0.00000000000E+00 0. -1.
</event>
<event>
 8    1  0.1278459E-006  0.9118800E+02  0.7816164E-02  0.1184000E+00
        -11   -1    0    0    0    0  0.00000000000E+00  0.00000000000E+00  0.45593999997E+02  0.45594000000E+02  0.51100000000E-03 0. -1.
         11   -1    0    0    0    0 -0.00000000000E+00 -0.00000000000E+00 -0.45593999997E+02  0.45594000000E+02  0.51100000000E-03 0.  1.
         23    2    1    2    0    0  0.00000000000E+00  0.00000000000E+00  0.00000000000E+00  0.91188000000E+02  0.91188000000E+02 0.  0.
    9900012    2    3    3    0    0  0.46467603092E+01  0.20186350738E+02 -0.30441848081E+02  0.54366983555E+02  0.39999770609E+02 0.  0.
         12    1    3    3    0    0 -0.46467603092E+01 -0.20186350738E+02  0.30441848081E+02  0.36821016445E+02  0.00000000000E+00 0. -1.
         11    1    4    4    0    0 -0.23107969541E+01 -0.23082009500E+01  0.73496990900E+01  0.80427390337E+01  0.51100000000E-03 0. -1.
        -11    1    4    4    0    0  0.43444537704E+01  0.38488098732E+00 -0.82598660609E+01  0.93406530577E+01  0.51100000000E-03 0.  1.
         12    1    4    4    0    0  0.26131034929E+01  0.22109670700E+02 -0.29531681110E+02  0.36983591463E+02  0.00000000000E+00 0. -1.
</event>
<event>
 8    1  0.1278459E-006  0.9118800E+02  0.7816164E-02  0.1184000E+00
        -11   -1    0    0    0    0  0.00000000000E+00  0.00000000000E+00  0.45593999997E+02  0.45594000000E+02  0.51100000000E-03 0.  1.
         11   -1    0    0    0    0 -0.00000000000E+00 -0.00000000000E+00 -0.45593999997E+02  0.45594000000E+02  0.51100000000E-03 0. -1.
         23    2    1    2    0    0 -0.71054273576E-14 -0.17763568394E-14  0.35527136788E-14  0.91188000000E+02  0.91188000000E+02 0.  0.
    9900012    2    3    3    0    0 -0.31008981355E+02 -0.73097476051E+01  0.18460502538E+02  0.54367088976E+02  0.40000010938E+02 0.  0.
         12    1    3    3    0    0  0.31008981355E+02  0.73097476051E+01 -0.18460502538E+02  0.36820911024E+02  0.00000000000E+00 0. -1.
         11    1    4    4    0    0 -0.31175651209E+02 -0.23494322372E+01 -0.14893808562E+01  0.31299509833E+02  0.51100000000E-03 0. -1.
        -11    1    4    4    0    0 -0.41396673342E+01 -0.45310637209E+01  0.16262329291E+02  0.17381908362E+02  0.51100000000E-03 0.  1.
        -12    1    4    4    0    0  0.43063371889E+01 -0.42925164697E+00  0.36875541035E+01  0.56856707808E+01  0.00000000000E+00 0.  1.
</event>
<event>
 8    1  0.1278459E-006  0.9118800E+02  0.7816164E-02  0.1184000E+00
        -11   -1    0    0    0    0  0.00000000000E+00  0.00000000000E+00  0.45593999997E+02  0.45594000000E+02  0.51100000000E-03 0.  1.
         11   -1    0    0    0    0 -0.00000000000E+00 -0.00000000000E+00 -0.45593999997E+02  0.45594000000E+02  0.51100000000E-03 0. -1.
         23    2    1    2    0    0  0.71054273576E-14  0.88817841970E-15  0.00000000000E+00  0.91188000000E+02  0.91188000000E+02 0.  0.
    9900012    2    3    3    0    0  0.35924585446E+02  0.63036894792E+01 -0.50465808618E+01  0.54367077701E+02  0.39999985235E+02 0.  0.
        -12    1    3    3    0    0 -0.35924585446E+02 -0.63036894792E+01  0.50465808618E+01  0.36820922299E+02  0.00000000000E+00 0.  1.
         11    1    4    4    0    0  0.98526476848E+01  0.49725477909E+01  0.12688063773E+02  0.16816297467E+02  0.51100000000E-03 0. -1.
        -11    1    4    4    0    0  0.15870146762E+02 -0.47865783490E+01 -0.46761685792E+00  0.16582869363E+02  0.51100000000E-03 0.  1.
        -12    1    4    4    0    0  0.10201791000E+02  0.61177200372E+01 -0.17267027777E+02  0.20967910871E+02  0.00000000000E+00 0.  1.
</event>
<event>
 8    1  0.1278459E-006  0.9118800E+02  0.7816164E-02  0.1184000E+00
        -11   -1    0    0    0    0  0.00000000000E+00  0.00000000000E+00  0.45593999997E+02  0.45594000000E+02  0.51100000000E-03 0. -1.
         11   -1    0    0    0    0 -0.00000000000E+00 -0.00000000000E+00 -0.45593999997E+02  0.45594000000E+02  0.51100000000E-03 0.  1.
         23    2    1    2    0    0 -0.44408920985E-15  0.00000000000E+00  0.00000000000E+00  0.91188000000E+02  0.91188000000E+02 0.  0.
    9900012    2    3    3    0    0  0.38648074783E+01  0.48673041622E+01 -0.36292465977E+02  0.54367211397E+02  0.40000290020E+02 0.  0.
         12    1    3    3    0    0 -0.38648074783E+01 -0.48673041622E+01  0.36292465977E+02  0.36820788603E+02  0.00000000000E+00 0. -1.
         11    1    4    4    0    0  0.13811103906E+02  0.41825318372E+01 -0.25128761378E+02  0.28977488026E+02  0.51100000000E-03 0. -1.
        -11    1    4    4    0    0  0.20802123484E+01  0.65087337419E+01 -0.98150789734E+01  0.11959375981E+02  0.51100000000E-03 0.  1.
         12    1    4    4    0    0 -0.12026508776E+02 -0.58239614169E+01 -0.13486256262E+01  0.13430347390E+02  0.00000000000E+00 0. -1.
</event>
<event>
 8    1  0.1278459E-006  0.9118800E+02  0.7816164E-02  0.1184000E+00
        -11   -1    0    0    0    0  0.00000000000E+00  0.00000000000E+00  0.45593999997E+02  0.45594000000E+02  0.51100000000E-03 0.  1.
         11   -1    0    0    0    0 -0.00000000000E+00 -0.00000000000E+00 -0.45593999997E+02  0.45594000000E+02  0.51100000000E-03 0. -1.
         23    2    1    2    0    0  0.00000000000E+00  0.00000000000E+00  0.00000000000E+00  0.91188000000E+02  0.91188000000E+02 0.  0.
    9900012    2    3    3    0    0  0.13465041687E+02  0.34043137423E+02 -0.39409822852E+01  0.54367164939E+02  0.40000184111E+02 0.  0.
        -12    1    3    3    0    0 -0.13465041687E+02 -0.34043137423E+02  0.39409822852E+01  0.36820835061E+02  0.00000000000E+00 0.  1.
         11    1    4    4    0    0  0.38775947456E+01  0.15242049283E+02 -0.12371276137E+02  0.20010104470E+02  0.51100000000E-03 0. -1.
        -11    1    4    4    0    0  0.16673267723E+02  0.49654381905E+01  0.69800007745E+01  0.18744968500E+02  0.51100000000E-03 0.  1.
         12    1    4    4    0    0 -0.70858207822E+01  0.13835649949E+02  0.14502930770E+01  0.15612091970E+02  0.00000000000E+00 0. -1.
</event>
<event>
 8    1  0.1278459E-006  0.9118800E+02  0.7816164E-02  0.1184000E+00
        -11   -1    0    0    0    0  0.00000000000E+00  0.00000000000E+00  0.45593999997E+02  0.45594000000E+02  0.51100000000E-03 0.  1.
         11   -1    0    0    0    0 -0.00000000000E+00 -0.00000000000E+00 -0.45593999997E+02  0.45594000000E+02  0.51100000000E-03 0. -1.
         23    2    1    2    0    0  0.17763568394E-14  0.00000000000E+00  0.88817841970E-15  0.91188000000E+02  0.91188000000E+02 0.  0.
    9900012    2    3    3    0    0  0.15098754827E+02  0.33134758433E+02  0.54677123822E+01  0.54367075345E+02  0.39999979865E+02 0.  0.
        -12    1    3    3    0    0 -0.15098754827E+02 -0.33134758433E+02 -0.54677123822E+01  0.36820924655E+02  0.00000000000E+00 0.  1.
         11    1    4    4    0    0  0.14667097021E+02  0.20717660319E+02  0.55307911541E+01  0.25979507986E+02  0.51100000000E-03 0. -1.
        -11    1    4    4    0    0  0.12077531591E+02  0.11186932008E+02  0.16795114233E+01  0.16547959873E+02  0.51100000000E-03 0.  1.
         12    1    4    4    0    0 -0.11645873784E+02  0.12301661047E+01 -0.17425901952E+01  0.11839607486E+02  0.00000000000E+00 0. -1.
</event>
<event>
 8    1  0.1278459E-006  0.9118800E+02  0.7816164E-02  0.1184000E+00
        -11   -1    0    0    0    0  0.00000000000E+00  0.00000000000E+00  0.45593999997E+02  0.45594000000E+02  0.51100000000E-03 0.  1.
         11   -1    0    0    0    0 -0.00000000000E+00 -0.00000000000E+00 -0.45593999997E+02  0.45594000000E+02  0.51100000000E-03 0. -1.
         23    2    1    2    0    0 -0.35527136788E-14  0.00000000000E+00  0.00000000000E+00  0.91188000000E+02  0.91188000000E+02 0.  0.
    9900012    2    3    3    0    0  0.30044603028E+02 -0.13106857806E+02 -0.16772366694E+02  0.54367079626E+02  0.39999989624E+02 0.  0.
         12    1    3    3    0    0 -0.30044603028E+02  0.13106857806E+02  0.16772366694E+02  0.36820920374E+02  0.00000000000E+00 0. -1.
         11    1    4    4    0    0  0.18156290806E+02 -0.16451507109E+02 -0.11783507892E+02  0.27187387526E+02  0.51100000000E-03 0.  1.
        -11    1    4    4    0    0  0.51243999473E+01  0.81275222142E+00  0.95935916576E+01  0.10906742967E+02  0.51100000000E-03 0. -1.
         12    1    4    4    0    0  0.67639122741E+01  0.25318970816E+01 -0.14582450460E+02  0.16272949133E+02  0.00000000000E+00 0. -1.
</event>
<event>
 8    1  0.1278459E-006  0.9118800E+02  0.7816164E-02  0.1184000E+00
        -11   -1    0    0    0    0  0.00000000000E+00  0.00000000000E+00  0.45593999997E+02  0.45594000000E+02  0.51100000000E-03 0.  1.
         11   -1    0    0    0    0 -0.00000000000E+00 -0.00000000000E+00 -0.45593999997E+02  0.45594000000E+02  0.51100000000E-03 0. -1.
         23    2    1    2    0    0  0.00000000000E+00  0.00000000000E+00  0.00000000000E+00  0.91188000000E+02  0.91188000000E+02 0.  0.
    9900012    2    3    3    0    0 -0.40716970987E+01  0.10201118342E+02  0.35144530653E+02  0.54367087905E+02  0.40000008496E+02 0.  0.
         12    1    3    3    0    0  0.40716970987E+01 -0.10201118342E+02 -0.35144530653E+02  0.36820912095E+02  0.00000000000E+00 0. -1.
         11    1    4    4    0    0 -0.40514977376E+00  0.45657297166E+01 -0.42494951007E-01  0.45838673919E+01  0.51100000000E-03 0. -1.
        -11    1    4    4    0    0  0.14856414712E+02 -0.13121535979E+01  0.19417038665E+02  0.24483794558E+02  0.51100000000E-03 0.  1.
        -12    1    4    4    0    0 -0.18522962037E+02  0.69475422235E+01  0.15769986939E+02  0.25299425955E+02  0.00000000000E+00 0.  1.
</event>
<event>
 8    1  0.1278459E-006  0.9118800E+02  0.7816164E-02  0.1184000E+00
        -11   -1    0    0    0    0  0.00000000000E+00  0.00000000000E+00  0.45593999997E+02  0.45594000000E+02  0.51100000000E-03 0. -1.
         11   -1    0    0    0    0 -0.00000000000E+00 -0.00000000000E+00 -0.45593999997E+02  0.45594000000E+02  0.51100000000E-03 0.  1.
         23    2    1    2    0    0  0.35527136788E-14  0.00000000000E+00  0.88817841970E-15  0.91188000000E+02  0.91188000000E+02 0.  0.
    9900012    2    3    3    0    0  0.17701794373E+02 -0.32133468153E+02 -0.31409347795E+01  0.54367098723E+02  0.40000033159E+02 0.  0.
         12    1    3    3    0    0 -0.17701794373E+02  0.32133468153E+02  0.31409347795E+01  0.36820901277E+02  0.00000000000E+00 0. -1.
         11    1    4    4    0    0  0.96681142172E+01 -0.99184571371E+01  0.99119453272E+01  0.17032172055E+02  0.51100000000E-03 0.  1.
        -11    1    4    4    0    0 -0.55954065782E+01 -0.12931366506E+02 -0.15175794394E+02  0.20708296653E+02  0.51100000000E-03 0. -1.
        -12    1    4    4    0    0  0.13629086734E+02 -0.92836445098E+01  0.21229142875E+01  0.16626630015E+02  0.00000000000E+00 0.  1.
</event>
<event>
 8    1  0.1278459E-006  0.9118800E+02  0.7816164E-02  0.1184000E+00
        -11   -1    0    0    0    0  0.00000000000E+00  0.00000000000E+00  0.45593999997E+02  0.45594000000E+02  0.51100000000E-03 0.  1.
         11   -1    0    0    0    0 -0.00000000000E+00 -0.00000000000E+00 -0.45593999997E+02  0.45594000000E+02  0.51100000000E-03 0. -1.
         23    2    1    2    0    0  0.00000000000E+00 -0.44408920985E-15 -0.35527136788E-14  0.91188000000E+02  0.91188000000E+02 0.  0.
    9900012    2    3    3    0    0  0.21377413645E+02 -0.26330617954E+01 -0.29863911855E+02  0.54367081220E+02  0.39999993256E+02 0.  0.
        -12    1    3    3    0    0 -0.21377413645E+02  0.26330617954E+01  0.29863911855E+02  0.36820918780E+02  0.00000000000E+00 0.  1.
         11    1    4    4    0    0 -0.29646501588E+01 -0.15236318281E+02 -0.39097336676E+01  0.16006891108E+02  0.51100000000E-03 0. -1.
        -11    1    4    4    0    0  0.18001415257E+01  0.33522080833E+01 -0.25951242524E+01  0.46057006734E+01  0.51100000000E-03 0.  1.
         12    1    4    4    0    0  0.22541922278E+02  0.92510484022E+01 -0.23359053935E+02  0.33754489438E+02  0.00000000000E+00 0. -1.
</event>
<event>
 8    1  0.1278459E-006  0.9118800E+02  0.7816164E-02  0.1184000E+00
        -11   -1    0    0    0    0  0.00000000000E+00  0.00000000000E+00  0.45593999997E+02  0.45594000000E+02  0.51100000000E-03 0.  1.
         11   -1    0    0    0    0 -0.00000000000E+00 -0.00000000000E+00 -0.45593999997E+02  0.45594000000E+02  0.51100000000E-03 0. -1.
         23    2    1    2    0    0 -0.35527136788E-14  0.35527136788E-14  0.35527136788E-14  0.91188000000E+02  0.91188000000E+02 0.  0.
    9900012    2    3    3    0    0  0.17958486177E+02 -0.28294269437E+02 -0.15254448099E+02  0.54367202948E+02  0.40000270759E+02 0.  0.
        -12    1    3    3    0    0 -0.17958486177E+02  0.28294269437E+02  0.15254448099E+02  0.36820797052E+02  0.00000000000E+00 0.  1.
         11    1    4    4    0    0 -0.56037013851E+01 -0.22780529442E+02 -0.12890423332E+02  0.26767835265E+02  0.51100000000E-03 0. -1.
        -11    1    4    4    0    0  0.31815351942E-01  0.95618608057E+00 -0.30393508339E+01  0.31863706297E+01  0.51100000000E-03 0.  1.
        -12    1    4    4    0    0  0.23530372210E+02 -0.64699260762E+01  0.67532606689E+00  0.24412997053E+02  0.00000000000E+00 0.  1.
</event>
<event>
 8    1  0.1278459E-006  0.9118800E+02  0.7816164E-02  0.1184000E+00
        -11   -1    0    0    0    0  0.00000000000E+00  0.00000000000E+00  0.45593999997E+02  0.45594000000E+02  0.51100000000E-03 0. -1.
         11   -1    0    0    0    0 -0.00000000000E+00 -0.00000000000E+00 -0.45593999997E+02  0.45594000000E+02  0.51100000000E-03 0.  1.
         23    2    1    2    0    0 -0.66613381478E-15  0.00000000000E+00  0.00000000000E+00  0.91188000000E+02  0.91188000000E+02 0.  0.
    9900012    2    3    3    0    0 -0.17966678663E+01 -0.17553835368E+02 -0.32317400201E+02  0.54367088723E+02  0.40000010361E+02 0.  0.
         12    1    3    3    0    0  0.17966678663E+01  0.17553835368E+02  0.32317400201E+02  0.36820911277E+02  0.00000000000E+00 0. -1.
         11    1    4    4    0    0  0.39948454312E+01 -0.17521447953E+02 -0.56382491041E+01  0.18834802404E+02  0.51100000000E-03 0. -1.
        -11    1    4    4    0    0 -0.84541894236E+01  0.92055087413E+01 -0.20790572989E+02  0.24258248813E+02  0.51100000000E-03 0.  1.
        -12    1    4    4    0    0  0.26626761261E+01 -0.92378961561E+01 -0.58885781078E+01  0.11274037506E+02  0.00000000000E+00 0.  1.
</event>
<event>
 8    1  0.1278459E-006  0.9118800E+02  0.7816164E-02  0.1184000E+00
        -11   -1    0    0    0    0  0.00000000000E+00  0.00000000000E+00  0.45593999997E+02  0.45594000000E+02  0.51100000000E-03 0.  1.
         11   -1    0    0    0    0 -0.00000000000E+00 -0.00000000000E+00 -0.45593999997E+02  0.45594000000E+02  0.51100000000E-03 0. -1.
         23    2    1    2    0    0 -0.88817841970E-15  0.35527136788E-14 -0.71054273576E-14  0.91188000000E+02  0.91188000000E+02 0.  0.
    9900012    2    3    3    0    0 -0.49531558827E+01 -0.22786114814E+02 -0.28496314886E+02  0.54367071935E+02  0.39999972090E+02 0.  0.
        -12    1    3    3    0    0  0.49531558827E+01  0.22786114814E+02  0.28496314886E+02  0.36820928065E+02  0.00000000000E+00 0.  1.
         11    1    4    4    0    0 -0.62829499890E+01 -0.46860119345E+01 -0.19533282374E+02  0.21047168194E+02  0.51100000000E-03 0.  1.
        -11    1    4    4    0    0  0.36948787227E+01 -0.22837968927E+02 -0.13112398726E+02  0.26592479277E+02  0.51100000000E-03 0. -1.
         12    1    4    4    0    0 -0.23650846165E+01  0.47378660479E+01  0.41493662144E+01  0.67274244635E+01  0.00000000000E+00 0. -1.
</event>
<event>
 8    1  0.1278459E-006  0.9118800E+02  0.7816164E-02  0.1184000E+00
        -11   -1    0    0    0    0  0.00000000000E+00  0.00000000000E+00  0.45593999997E+02  0.45594000000E+02  0.51100000000E-03 0. -1.
         11   -1    0    0    0    0 -0.00000000000E+00 -0.00000000000E+00 -0.45593999997E+02  0.45594000000E+02  0.51100000000E-03 0.  1.
         23    2    1    2    0    0  0.00000000000E+00 -0.35527136788E-14  0.00000000000E+00  0.91188000000E+02  0.91188000000E+02 0.  0.
    9900012    2    3    3    0    0  0.21641944724E+02 -0.21087638652E+02  0.21040850309E+02  0.54367086688E+02  0.40000005724E+02 0.  0.
        -12    1    3    3    0    0 -0.21641944724E+02  0.21087638652E+02 -0.21040850309E+02  0.36820913312E+02  0.00000000000E+00 0.  1.
         11    1    4    4    0    0  0.13476633584E+02 -0.61665294024E+01 -0.39899260176E+01  0.15348134985E+02  0.51100000000E-03 0.  1.
        -11    1    4    4    0    0 -0.64327148437E+01  0.80663523661E+00  0.61278298280E+00  0.65119877081E+01  0.51100000000E-03 0. -1.
         12    1    4    4    0    0  0.14598025983E+02 -0.15727744487E+02  0.24417993344E+02  0.32506963996E+02  0.00000000000E+00 0. -1.
</event>
<event>
 8    1  0.1278459E-006  0.9118800E+02  0.7816164E-02  0.1184000E+00
        -11   -1    0    0    0    0  0.00000000000E+00  0.00000000000E+00  0.45593999997E+02  0.45594000000E+02  0.51100000000E-03 0.  1.
         11   -1    0    0    0    0 -0.00000000000E+00 -0.00000000000E+00 -0.45593999997E+02  0.45594000000E+02  0.51100000000E-03 0. -1.
         23    2    1    2    0    0  0.00000000000E+00 -0.35527136788E-14  0.00000000000E+00  0.91188000000E+02  0.91188000000E+02 0.  0.
    9900012    2    3    3    0    0  0.25157289387E+02 -0.25549308070E+02  0.83741557848E+01  0.54367043504E+02  0.39999907276E+02 0.  0.
         12    1    3    3    0    0 -0.25157289387E+02  0.25549308070E+02 -0.83741557848E+01  0.36820956496E+02  0.00000000000E+00 0. -1.
         11    1    4    4    0    0  0.76831845893E+01  0.28002788647E+01 -0.11536777782E+02  0.14141079485E+02  0.51100000000E-03 0. -1.
        -11    1    4    4    0    0  0.53680235525E+01 -0.16196983815E+01  0.33517425682E+01  0.65324787188E+01  0.51100000000E-03 0.  1.
        -12    1    4    4    0    0  0.12106081245E+02 -0.26729888553E+02  0.16559190998E+02  0.33693485300E+02  0.00000000000E+00 0.  1.
</event>
<event>
 8    1  0.1278459E-006  0.9118800E+02  0.7816164E-02  0.1184000E+00
        -11   -1    0    0    0    0  0.00000000000E+00  0.00000000000E+00  0.45593999997E+02  0.45594000000E+02  0.51100000000E-03 0. -1.
         11   -1    0    0    0    0 -0.00000000000E+00 -0.00000000000E+00 -0.45593999997E+02  0.45594000000E+02  0.51100000000E-03 0.  1.
         23    2    1    2    0    0  0.00000000000E+00  0.35527136788E-14 -0.22204460493E-15  0.91188000000E+02  0.91188000000E+02 0.  0.
    9900012    2    3    3    0    0 -0.19987464415E+02 -0.30883998152E+02 -0.15705288579E+01  0.54366991914E+02  0.39999789665E+02 0.  0.
        -12    1    3    3    0    0  0.19987464415E+02  0.30883998152E+02  0.15705288579E+01  0.36821008086E+02  0.00000000000E+00 0.  1.
         11    1    4    4    0    0 -0.26251289829E+01 -0.40547772797E+01 -0.39477904137E+01  0.62383948557E+01  0.51100000000E-03 0. -1.
        -11    1    4    4    0    0 -0.13828379422E+02  0.17533982266E+01  0.11336433795E+02  0.17967003485E+02  0.51100000000E-03 0.  1.
         12    1    4    4    0    0 -0.35339560099E+01 -0.28582619099E+02 -0.89591722394E+01  0.30161593573E+02  0.00000000000E+00 0. -1.
</event>
<event>
 8    1  0.1278459E-006  0.9118800E+02  0.7816164E-02  0.1184000E+00
        -11   -1    0    0    0    0  0.00000000000E+00  0.00000000000E+00  0.45593999997E+02  0.45594000000E+02  0.51100000000E-03 0.  1.
         11   -1    0    0    0    0 -0.00000000000E+00 -0.00000000000E+00 -0.45593999997E+02  0.45594000000E+02  0.51100000000E-03 0. -1.
         23    2    1    2    0    0  0.00000000000E+00  0.00000000000E+00  0.00000000000E+00  0.91188000000E+02  0.91188000000E+02 0.  0.
    9900012    2    3    3    0    0  0.12556780099E+02  0.19569141973E+02 -0.28550919429E+02  0.54367095010E+02  0.40000024694E+02 0.  0.
        -12    1    3    3    0    0 -0.12556780099E+02 -0.19569141973E+02  0.28550919429E+02  0.36820904990E+02  0.00000000000E+00 0.  1.
         11    1    4    4    0    0 -0.26527958858E+01  0.13962337948E+02 -0.13923916192E+02  0.19896221988E+02  0.51100000000E-03 0. -1.
        -11    1    4    4    0    0  0.17638377931E+00  0.65881330343E+01  0.60104600085E+01  0.89196545836E+01  0.51100000000E-03 0.  1.
        -12    1    4    4    0    0  0.15033192205E+02 -0.98132900893E+00 -0.20637463245E+02  0.25551218439E+02  0.00000000000E+00 0.  1.
</event>
<event>
 8    1  0.1278459E-006  0.9118800E+02  0.7816164E-02  0.1184000E+00
        -11   -1    0    0    0    0  0.00000000000E+00  0.00000000000E+00  0.45593999997E+02  0.45594000000E+02  0.51100000000E-03 0. -1.
         11   -1    0    0    0    0 -0.00000000000E+00 -0.00000000000E+00 -0.45593999997E+02  0.45594000000E+02  0.51100000000E-03 0.  1.
         23    2    1    2    0    0 -0.17763568394E-14  0.35527136788E-14  0.00000000000E+00  0.91188000000E+02  0.91188000000E+02 0.  0.
    9900012    2    3    3    0    0  0.12508642046E+02 -0.26740503370E+02  0.22005856510E+02  0.54367104206E+02  0.40000045658E+02 0.  0.
        -12    1    3    3    0    0 -0.12508642046E+02  0.26740503370E+02 -0.22005856510E+02  0.36820895794E+02  0.00000000000E+00 0.  1.
         11    1    4    4    0    0 -0.28858276709E+01 -0.21209383032E+02  0.12054475941E+02  0.24565755035E+02  0.51100000000E-03 0. -1.
        -11    1    4    4    0    0  0.51569815377E+01 -0.13643070726E+02  0.78755714513E+01  0.16575658761E+02  0.51100000000E-03 0.  1.
        -12    1    4    4    0    0  0.10237488180E+02  0.81119503883E+01  0.20758091177E+01  0.13225690410E+02  0.00000000000E+00 0.  1.
</event>
<event>
 8    1  0.1278459E-006  0.9118800E+02  0.7816164E-02  0.1184000E+00
        -11   -1    0    0    0    0  0.00000000000E+00  0.00000000000E+00  0.45593999997E+02  0.45594000000E+02  0.51100000000E-03 0. -1.
         11   -1    0    0    0    0 -0.00000000000E+00 -0.00000000000E+00 -0.45593999997E+02  0.45594000000E+02  0.51100000000E-03 0.  1.
         23    2    1    2    0    0  0.71054273576E-14 -0.88817841970E-15 -0.26645352591E-14  0.91188000000E+02  0.91188000000E+02 0.  0.
    9900012    2    3    3    0    0 -0.35990732265E+02  0.36561597232E+01  0.68614394882E+01  0.54367086585E+02  0.40000005487E+02 0.  0.
         12    1    3    3    0    0  0.35990732265E+02 -0.36561597232E+01 -0.68614394882E+01  0.36820913415E+02  0.00000000000E+00 0. -1.
         11    1    4    4    0    0 -0.20645017755E+01 -0.29330484487E+01 -0.31203891935E+01  0.47541318622E+01  0.51100000000E-03 0.  1.
        -11    1    4    4    0    0 -0.79057475714E+01 -0.55553792309E+01 -0.10554925499E+02  0.14309770635E+02  0.51100000000E-03 0. -1.
         12    1    4    4    0    0 -0.26020482918E+02  0.12144587403E+02  0.20536754181E+02  0.35303184088E+02  0.00000000000E+00 0. -1.
</event>
<event>
 8    1  0.1278459E-006  0.9118800E+02  0.7816164E-02  0.1184000E+00
        -11   -1    0    0    0    0  0.00000000000E+00  0.00000000000E+00  0.45593999997E+02  0.45594000000E+02  0.51100000000E-03 0.  1.
         11   -1    0    0    0    0 -0.00000000000E+00 -0.00000000000E+00 -0.45593999997E+02  0.45594000000E+02  0.51100000000E-03 0. -1.
         23    2    1    2    0    0 -0.35527136788E-14  0.00000000000E+00  0.17763568394E-14  0.91188000000E+02  0.91188000000E+02 0.  0.
    9900012    2    3    3    0    0 -0.24495721424E+02 -0.23015525608E+02 -0.15034106444E+02  0.54367093661E+02  0.40000021618E+02 0.  0.
        -12    1    3    3    0    0  0.24495721424E+02  0.23015525608E+02  0.15034106444E+02  0.36820906339E+02  0.00000000000E+00 0.  1.
         11    1    4    4    0    0 -0.12958650242E+02 -0.20150811197E+02 -0.10884705089E+02  0.26314608359E+02  0.51100000000E-03 0. -1.
        -11    1    4    4    0    0 -0.17544874332E+02 -0.84997596040E+01 -0.32870155892E+01  0.19770508350E+02  0.51100000000E-03 0.  1.
         12    1    4    4    0    0  0.60078031501E+01  0.56350451931E+01 -0.86238576578E+00  0.82819769516E+01  0.00000000000E+00 0. -1.
</event>
<event>
 8    1  0.1278459E-006  0.9118800E+02  0.7816164E-02  0.1184000E+00
        -11   -1    0    0    0    0  0.00000000000E+00  0.00000000000E+00  0.45593999997E+02  0.45594000000E+02  0.51100000000E-03 0.  1.
         11   -1    0    0    0    0 -0.00000000000E+00 -0.00000000000E+00 -0.45593999997E+02  0.45594000000E+02  0.51100000000E-03 0. -1.
         23    2    1    2    0    0  0.00000000000E+00 -0.35527136788E-14  0.00000000000E+00  0.91188000000E+02  0.91188000000E+02 0.  0.
    9900012    2    3    3    0    0 -0.11393780269E+02  0.30498327632E+02  0.17199346202E+02  0.54367031424E+02  0.39999879736E+02 0.  0.
         12    1    3    3    0    0  0.11393780269E+02 -0.30498327632E+02 -0.17199346202E+02  0.36820968576E+02  0.00000000000E+00 0. -1.
         11    1    4    4    0    0 -0.30088670783E+01  0.13735637192E+02  0.19903644125E+02  0.24369572419E+02  0.51100000000E-03 0. -1.
        -11    1    4    4    0    0  0.20571102332E+01  0.62880994175E+01  0.89762618491E+01  0.11151016718E+02  0.51100000000E-03 0.  1.
         12    1    4    4    0    0 -0.10442023424E+02  0.10474591022E+02 -0.11680559773E+02  0.18846442287E+02  0.00000000000E+00 0. -1.
</event>
<event>
 8    1  0.1278459E-006  0.9118800E+02  0.7816164E-02  0.1184000E+00
        -11   -1    0    0    0    0  0.00000000000E+00  0.00000000000E+00  0.45593999997E+02  0.45594000000E+02  0.51100000000E-03 0.  1.
         11   -1    0    0    0    0 -0.00000000000E+00 -0.00000000000E+00 -0.45593999997E+02  0.45594000000E+02  0.51100000000E-03 0. -1.
         23    2    1    2    0    0 -0.44408920985E-15  0.71054273576E-14 -0.17763568394E-14  0.91188000000E+02  0.91188000000E+02 0.  0.
    9900012    2    3    3    0    0 -0.12391893423E+01  0.34758876489E+02 -0.12085635472E+02  0.54367113675E+02  0.40000067245E+02 0.  0.
        -12    1    3    3    0    0  0.12391893423E+01 -0.34758876489E+02  0.12085635472E+02  0.36820886325E+02  0.00000000000E+00 0.  1.
         11    1    4    4    0    0  0.91034385762E+00  0.19453459911E+02 -0.19712865170E+02  0.27710338900E+02  0.51100000000E-03 0. -1.
        -11    1    4    4    0    0 -0.10291988226E+02  0.31052820665E+01  0.19337618160E+01  0.10922785056E+02  0.51100000000E-03 0.  1.
         12    1    4    4    0    0  0.81424550262E+01  0.12200134511E+02  0.56934678825E+01  0.15733989719E+02  0.00000000000E+00 0. -1.
</event>
<event>
 8    1  0.1278459E-006  0.9118800E+02  0.7816164E-02  0.1184000E+00
        -11   -1    0    0    0    0  0.00000000000E+00  0.00000000000E+00  0.45593999997E+02  0.45594000000E+02  0.51100000000E-03 0.  1.
         11   -1    0    0    0    0 -0.00000000000E+00 -0.00000000000E+00 -0.45593999997E+02  0.45594000000E+02  0.51100000000E-03 0. -1.
         23    2    1    2    0    0 -0.16653345369E-15 -0.71054273576E-14 -0.44408920985E-15  0.91188000000E+02  0.91188000000E+02 0.  0.
    9900012    2    3    3    0    0  0.26591657762E+00 -0.36640428746E+02 -0.36299022006E+01  0.54367246066E+02  0.40000369055E+02 0.  0.
         12    1    3    3    0    0 -0.26591657762E+00  0.36640428746E+02  0.36299022006E+01  0.36820753934E+02  0.00000000000E+00 0. -1.
         11    1    4    4    0    0  0.19549440508E+01 -0.37551617023E+02 -0.74584385545E+01  0.38335023845E+02  0.51100000000E-03 0. -1.
        -11    1    4    4    0    0 -0.79498282103E+01 -0.69364064182E+00  0.50651030579E+01  0.94517815867E+01  0.51100000000E-03 0.  1.
        -12    1    4    4    0    0  0.62608007371E+01  0.16048289187E+01 -0.12365667040E+01  0.65804406343E+01  0.00000000000E+00 0.  1.
</event>
<event>
 8    1  0.1278459E-006  0.9118800E+02  0.7816164E-02  0.1184000E+00
        -11   -1    0    0    0    0  0.00000000000E+00  0.00000000000E+00  0.45593999997E+02  0.45594000000E+02  0.51100000000E-03 0.  1.
         11   -1    0    0    0    0 -0.00000000000E+00 -0.00000000000E+00 -0.45593999997E+02  0.45594000000E+02  0.51100000000E-03 0. -1.
         23    2    1    2    0    0  0.17763568394E-14 -0.88817841970E-15 -0.71054273576E-14  0.91188000000E+02  0.91188000000E+02 0.  0.
    9900012    2    3    3    0    0 -0.43990649683E+01 -0.50861827243E+01  0.36201645235E+02  0.54367080063E+02  0.39999990619E+02 0.  0.
         12    1    3    3    0    0  0.43990649683E+01  0.50861827243E+01 -0.36201645235E+02  0.36820919937E+02  0.00000000000E+00 0. -1.
         11    1    4    4    0    0  0.14144822490E+02 -0.11732735253E+02  0.15047076664E+02  0.23751791431E+02  0.51100000000E-03 0.  1.
        -11    1    4    4    0    0 -0.13181940929E+01  0.25099081315E+01 -0.23191211403E+00  0.28444785085E+01  0.51100000000E-03 0. -1.
        -12    1    4    4    0    0 -0.17225693366E+02  0.41366443970E+01  0.21386480685E+02  0.27770810123E+02  0.00000000000E+00 0.  1.
</event>
<event>
 8    1  0.1278459E-006  0.9118800E+02  0.7816164E-02  0.1184000E+00
        -11   -1    0    0    0    0  0.00000000000E+00  0.00000000000E+00  0.45593999997E+02  0.45594000000E+02  0.51100000000E-03 0.  1.
         11   -1    0    0    0    0 -0.00000000000E+00 -0.00000000000E+00 -0.45593999997E+02  0.45594000000E+02  0.51100000000E-03 0. -1.
         23    2    1    2    0    0  0.00000000000E+00  0.00000000000E+00  0.17763568394E-14  0.91188000000E+02  0.91188000000E+02 0.  0.
    9900012    2    3    3    0    0  0.34114784527E+02 -0.29643816536E+01  0.13534197459E+02  0.54367074119E+02  0.39999977068E+02 0.  0.
         12    1    3    3    0    0 -0.34114784527E+02  0.29643816536E+01 -0.13534197459E+02  0.36820925881E+02  0.00000000000E+00 0. -1.
         11    1    4    4    0    0  0.18501091521E+01  0.19472674984E+01 -0.74351946320E+01  0.79054964462E+01  0.51100000000E-03 0. -1.
        -11    1    4    4    0    0 -0.45781476900E+00  0.12286485507E+01  0.11876427252E+02  0.11948585530E+02  0.51100000000E-03 0.  1.
        -12    1    4    4    0    0  0.32722490144E+02 -0.61402977027E+01  0.90929648384E+01  0.34512992143E+02  0.00000000000E+00 0.  1.
</event>
<event>
 8    1  0.1278459E-006  0.9118800E+02  0.7816164E-02  0.1184000E+00
        -11   -1    0    0    0    0  0.00000000000E+00  0.00000000000E+00  0.45593999997E+02  0.45594000000E+02  0.51100000000E-03 0.  1.
         11   -1    0    0    0    0 -0.00000000000E+00 -0.00000000000E+00 -0.45593999997E+02  0.45594000000E+02  0.51100000000E-03 0. -1.
         23    2    1    2    0    0  0.00000000000E+00 -0.71054273576E-14  0.00000000000E+00  0.91188000000E+02  0.91188000000E+02 0.  0.
    9900012    2    3    3    0    0  0.89505850483E+01 -0.32017084441E+02 -0.15829497330E+02  0.54367086723E+02  0.40000005802E+02 0.  0.
        -12    1    3    3    0    0 -0.89505850483E+01  0.32017084441E+02  0.15829497330E+02  0.36820913277E+02  0.00000000000E+00 0.  1.
         11    1    4    4    0    0  0.28532177688E+01 -0.19901421783E+02 -0.17652023692E+02  0.26754464698E+02  0.51100000000E-03 0. -1.
        -11    1    4    4    0    0  0.11757469084E+02 -0.16461418264E+02  0.27554897712E+01  0.20415902984E+02  0.51100000000E-03 0.  1.
        -12    1    4    4    0    0 -0.56601018042E+01  0.43457556061E+01 -0.93296340934E+00  0.71967190402E+01  0.00000000000E+00 0.  1.
</event>
<event>
 8    1  0.1278459E-006  0.9118800E+02  0.7816164E-02  0.1184000E+00
        -11   -1    0    0    0    0  0.00000000000E+00  0.00000000000E+00  0.45593999997E+02  0.45594000000E+02  0.51100000000E-03 0. -1.
         11   -1    0    0    0    0 -0.00000000000E+00 -0.00000000000E+00 -0.45593999997E+02  0.45594000000E+02  0.51100000000E-03 0.  1.
         23    2    1    2    0    0  0.71054273576E-14 -0.17763568394E-14  0.11102230246E-15  0.91188000000E+02  0.91188000000E+02 0.  0.
    9900012    2    3    3    0    0 -0.33626606663E+02 -0.14970550904E+02 -0.95601342828E+00  0.54367081602E+02  0.39999994127E+02 0.  0.
         12    1    3    3    0    0  0.33626606663E+02  0.14970550904E+02  0.95601342828E+00  0.36820918398E+02  0.00000000000E+00 0. -1.
         11    1    4    4    0    0 -0.21114853011E+01  0.10597357635E+02 -0.45932360749E+01  0.11741387351E+02  0.51100000000E-03 0. -1.
        -11    1    4    4    0    0 -0.19169540227E+02 -0.17191409249E+02 -0.36766933256E+01  0.26010265253E+02  0.51100000000E-03 0.  1.
         12    1    4    4    0    0 -0.12345581134E+02 -0.83764992906E+01  0.73139159722E+01  0.16615428997E+02  0.00000000000E+00 0. -1.
</event>
<event>
 8    1  0.1278459E-006  0.9118800E+02  0.7816164E-02  0.1184000E+00
        -11   -1    0    0    0    0  0.00000000000E+00  0.00000000000E+00  0.45593999997E+02  0.45594000000E+02  0.51100000000E-03 0. -1.
         11   -1    0    0    0    0 -0.00000000000E+00 -0.00000000000E+00 -0.45593999997E+02  0.45594000000E+02  0.51100000000E-03 0.  1.
         23    2    1    2    0    0 -0.35527136788E-14 -0.13322676296E-14  0.00000000000E+00  0.91188000000E+02  0.91188000000E+02 0.  0.
    9900012    2    3    3    0    0 -0.27122610261E+02 -0.24657612188E+01 -0.24780442140E+02  0.54366996776E+02  0.39999800750E+02 0.  0.
         12    1    3    3    0    0  0.27122610261E+02  0.24657612188E+01  0.24780442140E+02  0.36821003224E+02  0.00000000000E+00 0. -1.
         11    1    4    4    0    0 -0.32386002778E+01  0.92966825786E+00 -0.21950039569E+02  0.22207139667E+02  0.51100000000E-03 0.  1.
        -11    1    4    4    0    0 -0.81451696579E+01 -0.11355887820E+02 -0.38417879468E+01  0.14493423054E+02  0.51100000000E-03 0. -1.
        -12    1    4    4    0    0 -0.15738840325E+02  0.79604583438E+01  0.10113853756E+01  0.17666434055E+02  0.00000000000E+00 0.  1.
</event>
<event>
 8    1  0.1278459E-006  0.9118800E+02  0.7816164E-02  0.1184000E+00
        -11   -1    0    0    0    0  0.00000000000E+00  0.00000000000E+00  0.45593999997E+02  0.45594000000E+02  0.51100000000E-03 0.  1.
         11   -1    0    0    0    0 -0.00000000000E+00 -0.00000000000E+00 -0.45593999997E+02  0.45594000000E+02  0.51100000000E-03 0. -1.
         23    2    1    2    0    0  0.00000000000E+00  0.00000000000E+00  0.88817841970E-15  0.91188000000E+02  0.91188000000E+02 0.  0.
    9900012    2    3    3    0    0  0.90421368000E+01  0.35314565778E+02 -0.51867723878E+01  0.54367062997E+02  0.39999951714E+02 0.  0.
        -12    1    3    3    0    0 -0.90421368000E+01 -0.35314565778E+02  0.51867723878E+01  0.36820937003E+02  0.00000000000E+00 0.  1.
         11    1    4    4    0    0 -0.16179062280E+01  0.26213157097E+02 -0.52244333208E+01  0.26777638606E+02  0.51100000000E-03 0. -1.
        -11    1    4    4    0    0 -0.51325903845E+01  0.37801806752E+01  0.70541218638E+01  0.95075699063E+01  0.51100000000E-03 0.  1.
         12    1    4    4    0    0  0.15792633412E+02  0.53212280061E+01 -0.70164609309E+01  0.18081854484E+02  0.00000000000E+00 0. -1.
</event>
<event>
 8    1  0.1278459E-006  0.9118800E+02  0.7816164E-02  0.1184000E+00
        -11   -1    0    0    0    0  0.00000000000E+00  0.00000000000E+00  0.45593999997E+02  0.45594000000E+02  0.51100000000E-03 0.  1.
         11   -1    0    0    0    0 -0.00000000000E+00 -0.00000000000E+00 -0.45593999997E+02  0.45594000000E+02  0.51100000000E-03 0. -1.
         23    2    1    2    0    0  0.00000000000E+00 -0.44408920985E-15  0.00000000000E+00  0.91188000000E+02  0.91188000000E+02 0.  0.
    9900012    2    3    3    0    0 -0.43240208943E+01  0.34910467131E+01 -0.36399093764E+02  0.54367101169E+02  0.40000038736E+02 0.  0.
        -12    1    3    3    0    0  0.43240208943E+01 -0.34910467131E+01  0.36399093764E+02  0.36820898831E+02  0.00000000000E+00 0.  1.
         11    1    4    4    0    0  0.12050908622E+01  0.11118533499E+02 -0.12903655363E+02  0.17075665526E+02  0.51100000000E-03 0. -1.
        -11    1    4    4    0    0 -0.12590563095E+02 -0.53527551169E+01 -0.11301011705E+01  0.13727760026E+02  0.51100000000E-03 0.  1.
         12    1    4    4    0    0  0.70614513391E+01 -0.22747316694E+01 -0.22365337230E+02  0.23563675618E+02  0.00000000000E+00 0. -1.
</event>
<event>
 8    1  0.1278459E-006  0.9118800E+02  0.7816164E-02  0.1184000E+00
        -11   -1    0    0    0    0  0.00000000000E+00  0.00000000000E+00  0.45593999997E+02  0.45594000000E+02  0.51100000000E-03 0. -1.
         11   -1    0    0    0    0 -0.00000000000E+00 -0.00000000000E+00 -0.45593999997E+02  0.45594000000E+02  0.51100000000E-03 0.  1.
         23    2    1    2    0    0  0.00000000000E+00  0.17763568394E-14 -0.35527136788E-14  0.91188000000E+02  0.91188000000E+02 0.  0.
    9900012    2    3    3    0    0  0.24524464628E+02 -0.68558406845E+01 -0.26595726973E+02  0.54367019432E+02  0.39999852398E+02 0.  0.
         12    1    3    3    0    0 -0.24524464628E+02  0.68558406845E+01  0.26595726973E+02  0.36820980568E+02  0.00000000000E+00 0. -1.
         11    1    4    4    0    0 -0.72466276415E+01  0.55528290257E+01 -0.14959365892E+02  0.17525129115E+02  0.51100000000E-03 0. -1.
        -11    1    4    4    0    0  0.20000134158E+02 -0.49983353314E+01 -0.97521575359E+01  0.22805554132E+02  0.51100000000E-03 0.  1.
         12    1    4    4    0    0  0.11770958111E+02 -0.74103343787E+01 -0.18842035458E+01  0.14036336184E+02  0.00000000000E+00 0. -1.
</event>
<event>
 8    1  0.1278459E-006  0.9118800E+02  0.7816164E-02  0.1184000E+00
        -11   -1    0    0    0    0  0.00000000000E+00  0.00000000000E+00  0.45593999997E+02  0.45594000000E+02  0.51100000000E-03 0.  1.
         11   -1    0    0    0    0 -0.00000000000E+00 -0.00000000000E+00 -0.45593999997E+02  0.45594000000E+02  0.51100000000E-03 0. -1.
         23    2    1    2    0    0 -0.88817841970E-15  0.00000000000E+00 -0.35527136788E-14  0.91188000000E+02  0.91188000000E+02 0.  0.
    9900012    2    3    3    0    0 -0.69271436956E+01 -0.32690824012E+02  0.15462993526E+02  0.54367089322E+02  0.40000011726E+02 0.  0.
         12    1    3    3    0    0  0.69271436956E+01  0.32690824012E+02 -0.15462993526E+02  0.36820910678E+02  0.00000000000E+00 0. -1.
         11    1    4    4    0    0  0.10581045195E+02 -0.25109334281E+02  0.74273338398E+01  0.28241856768E+02  0.51100000000E-03 0. -1.
        -11    1    4    4    0    0 -0.38438863166E+01 -0.96593687318E+01  0.55882993522E+00  0.10411107408E+02  0.51100000000E-03 0.  1.
        -12    1    4    4    0    0 -0.13664302574E+02  0.20778790004E+01  0.74768297512E+01  0.15714125146E+02  0.00000000000E+00 0.  1.
</event>
<event>
 8    1  0.1278459E-006  0.9118800E+02  0.7816164E-02  0.1184000E+00
        -11   -1    0    0    0    0  0.00000000000E+00  0.00000000000E+00  0.45593999997E+02  0.45594000000E+02  0.51100000000E-03 0.  1.
         11   -1    0    0    0    0 -0.00000000000E+00 -0.00000000000E+00 -0.45593999997E+02  0.45594000000E+02  0.51100000000E-03 0. -1.
         23    2    1    2    0    0  0.88817841970E-15  0.71054273576E-14 -0.17763568394E-14  0.91188000000E+02  0.91188000000E+02 0.  0.
    9900012    2    3    3    0    0  0.71886611897E+01  0.35154031808E+02 -0.82641972246E+01  0.54367085321E+02  0.40000002606E+02 0.  0.
        -12    1    3    3    0    0 -0.71886611897E+01 -0.35154031808E+02  0.82641972246E+01  0.36820914679E+02  0.00000000000E+00 0.  1.
         11    1    4    4    0    0  0.40755905626E+01  0.32937160607E+02 -0.94675394261E+01  0.34512335336E+02  0.51100000000E-03 0. -1.
        -11    1    4    4    0    0  0.58452480199E+00  0.83560971083E+01 -0.58122053770E+01  0.10195477416E+02  0.51100000000E-03 0.  1.
        -12    1    4    4    0    0  0.25285458251E+01 -0.61392259077E+01  0.70155475786E+01  0.96592725691E+01  0.00000000000E+00 0.  1.
</event>
<event>
 8    1  0.1278459E-006  0.9118800E+02  0.7816164E-02  0.1184000E+00
        -11   -1    0    0    0    0  0.00000000000E+00  0.00000000000E+00  0.45593999997E+02  0.45594000000E+02  0.51100000000E-03 0. -1.
         11   -1    0    0    0    0 -0.00000000000E+00 -0.00000000000E+00 -0.45593999997E+02  0.45594000000E+02  0.51100000000E-03 0.  1.
         23    2    1    2    0    0 -0.17763568394E-14  0.35527136788E-14 -0.35527136788E-14  0.91188000000E+02  0.91188000000E+02 0.  0.
    9900012    2    3    3    0    0 -0.93778671652E+01 -0.27011353371E+02  0.23199619795E+02  0.54367082547E+02  0.39999996282E+02 0.  0.
        -12    1    3    3    0    0  0.93778671652E+01  0.27011353371E+02 -0.23199619795E+02  0.36820917453E+02  0.00000000000E+00 0.  1.
         11    1    4    4    0    0  0.10373705277E+02 -0.70457230245E+01  0.30827456045E+01  0.12913531463E+02  0.51100000000E-03 0. -1.
        -11    1    4    4    0    0  0.16080128555E+00 -0.15689550599E+02  0.10860510100E+02  0.19082414285E+02  0.51100000000E-03 0.  1.
        -12    1    4    4    0    0 -0.19912373728E+02 -0.42760797468E+01  0.92563640901E+01  0.22371136799E+02  0.00000000000E+00 0.  1.
</event>
<event>
 8    1  0.1278459E-006  0.9118800E+02  0.7816164E-02  0.1184000E+00
        -11   -1    0    0    0    0  0.00000000000E+00  0.00000000000E+00  0.45593999997E+02  0.45594000000E+02  0.51100000000E-03 0. -1.
         11   -1    0    0    0    0 -0.00000000000E+00 -0.00000000000E+00 -0.45593999997E+02  0.45594000000E+02  0.51100000000E-03 0.  1.
         23    2    1    2    0    0  0.00000000000E+00 -0.35527136788E-14  0.00000000000E+00  0.91188000000E+02  0.91188000000E+02 0.  0.
    9900012    2    3    3    0    0  0.96615178786E+01 -0.24686504961E+02 -0.25554055607E+02  0.54367106299E+02  0.40000050431E+02 0.  0.
         12    1    3    3    0    0 -0.96615178786E+01  0.24686504961E+02  0.25554055607E+02  0.36820893701E+02  0.00000000000E+00 0. -1.
         11    1    4    4    0    0  0.14479505285E+02 -0.20484074792E+02 -0.99442344297E+01  0.26984091462E+02  0.51100000000E-03 0. -1.
        -11    1    4    4    0    0 -0.69095833924E+01 -0.10481096209E+02 -0.16470656459E+02  0.20709375772E+02  0.51100000000E-03 0.  1.
         12    1    4    4    0    0  0.20915959864E+01  0.62786660394E+01  0.86083528117E+00  0.66736390662E+01  0.00000000000E+00 0. -1.
</event>
<event>
 8    1  0.1278459E-006  0.9118800E+02  0.7816164E-02  0.1184000E+00
        -11   -1    0    0    0    0  0.00000000000E+00  0.00000000000E+00  0.45593999997E+02  0.45594000000E+02  0.51100000000E-03 0.  1.
         11   -1    0    0    0    0 -0.00000000000E+00 -0.00000000000E+00 -0.45593999997E+02  0.45594000000E+02  0.51100000000E-03 0. -1.
         23    2    1    2    0    0  0.00000000000E+00  0.00000000000E+00  0.71054273576E-14  0.91188000000E+02  0.91188000000E+02 0.  0.
    9900012    2    3    3    0    0 -0.81728640963E+01  0.20281627190E+01 -0.35845083864E+02  0.54367093048E+02  0.40000020222E+02 0.  0.
        -12    1    3    3    0    0  0.81728640963E+01 -0.20281627190E+01  0.35845083864E+02  0.36820906952E+02  0.00000000000E+00 0.  1.
         11    1    4    4    0    0  0.78416683484E+01  0.33804785591E+01 -0.91887855276E+00  0.85885817124E+01  0.51100000000E-03 0. -1.
        -11    1    4    4    0    0  0.55863600029E+00  0.68203782018E+01 -0.69534871582E+00  0.68784549932E+01  0.51100000000E-03 0.  1.
        -12    1    4    4    0    0 -0.16573168445E+02 -0.81726940418E+01 -0.34230856595E+02  0.38900056343E+02  0.00000000000E+00 0.  1.
</event>
<event>
 8    1  0.1278459E-006  0.9118800E+02  0.7816164E-02  0.1184000E+00
        -11   -1    0    0    0    0  0.00000000000E+00  0.00000000000E+00  0.45593999997E+02  0.45594000000E+02  0.51100000000E-03 0.  1.
         11   -1    0    0    0    0 -0.00000000000E+00 -0.00000000000E+00 -0.45593999997E+02  0.45594000000E+02  0.51100000000E-03 0. -1.
         23    2    1    2    0    0 -0.88817841970E-15  0.00000000000E+00  0.00000000000E+00  0.91188000000E+02  0.91188000000E+02 0.  0.
    9900012    2    3    3    0    0  0.43402309505E+01 -0.60765476257E+01 -0.36055745668E+02  0.54367097901E+02  0.40000031284E+02 0.  0.
        -12    1    3    3    0    0 -0.43402309505E+01  0.60765476257E+01  0.36055745668E+02  0.36820902099E+02  0.00000000000E+00 0.  1.
         11    1    4    4    0    0 -0.15696568926E+00 -0.14668447507E+02 -0.18097291929E+02  0.23295921658E+02  0.51100000000E-03 0. -1.
        -11    1    4    4    0    0  0.57837595674E+01 -0.71181260719E+01 -0.94076479620E+01  0.13138623746E+02  0.51100000000E-03 0.  1.
        -12    1    4    4    0    0 -0.12865629276E+01  0.15710025953E+02 -0.85508057771E+01  0.17932552497E+02  0.00000000000E+00 0.  1.
</event>
<event>
 8    1  0.1278459E-006  0.9118800E+02  0.7816164E-02  0.1184000E+00
        -11   -1    0    0    0    0  0.00000000000E+00  0.00000000000E+00  0.45593999997E+02  0.45594000000E+02  0.51100000000E-03 0.  1.
         11   -1    0    0    0    0 -0.00000000000E+00 -0.00000000000E+00 -0.45593999997E+02  0.45594000000E+02  0.51100000000E-03 0. -1.
         23    2    1    2    0    0  0.00000000000E+00  0.00000000000E+00  0.00000000000E+00  0.91188000000E+02  0.91188000000E+02 0.  0.
    9900012    2    3    3    0    0  0.31428000181E+02  0.10325828619E+02  0.16169033650E+02  0.54367087719E+02  0.40000008072E+02 0.  0.
         12    1    3    3    0    0 -0.31428000181E+02 -0.10325828619E+02 -0.16169033650E+02  0.36820912281E+02  0.00000000000E+00 0. -1.
         11    1    4    4    0    0  0.95375036562E+01 -0.39505559548E+01 -0.10967269559E+02  0.15061602510E+02  0.51100000000E-03 0. -1.
        -11    1    4    4    0    0  0.17026395321E+02  0.66191799046E+01  0.12674857686E+02  0.22234291036E+02  0.51100000000E-03 0.  1.
         12    1    4    4    0    0  0.48641012033E+01  0.76572046692E+01  0.14461445523E+02  0.17071194173E+02  0.00000000000E+00 0. -1.
</event>
<event>
 8    1  0.1278459E-006  0.9118800E+02  0.7816164E-02  0.1184000E+00
        -11   -1    0    0    0    0  0.00000000000E+00  0.00000000000E+00  0.45593999997E+02  0.45594000000E+02  0.51100000000E-03 0.  1.
         11   -1    0    0    0    0 -0.00000000000E+00 -0.00000000000E+00 -0.45593999997E+02  0.45594000000E+02  0.51100000000E-03 0. -1.
         23    2    1    2    0    0 -0.17763568394E-14  0.00000000000E+00  0.00000000000E+00  0.91188000000E+02  0.91188000000E+02 0.  0.
    9900012    2    3    3    0    0  0.15412864345E+02  0.24244485103E+02 -0.23031050880E+02  0.54367071849E+02  0.39999971894E+02 0.  0.
        -12    1    3    3    0    0 -0.15412864345E+02 -0.24244485103E+02  0.23031050880E+02  0.36820928151E+02  0.00000000000E+00 0.  1.
         11    1    4    4    0    0  0.99513074172E+01  0.20041620561E+01 -0.23350394249E+02  0.25461462973E+02  0.51100000000E-03 0. -1.
        -11    1    4    4    0    0  0.98694452224E+01  0.66937786141E+01  0.35166247964E+01  0.12432991247E+02  0.51100000000E-03 0.  1.
         12    1    4    4    0    0 -0.44078882949E+01  0.15546544433E+02 -0.31972814278E+01  0.16472617629E+02  0.00000000000E+00 0. -1.
</event>
<event>
 8    1  0.1278459E-006  0.9118800E+02  0.7816164E-02  0.1184000E+00
        -11   -1    0    0    0    0  0.00000000000E+00  0.00000000000E+00  0.45593999997E+02  0.45594000000E+02  0.51100000000E-03 0.  1.
         11   -1    0    0    0    0 -0.00000000000E+00 -0.00000000000E+00 -0.45593999997E+02  0.45594000000E+02  0.51100000000E-03 0. -1.
         23    2    1    2    0    0  0.00000000000E+00 -0.71054273576E-14 -0.17763568394E-14  0.91188000000E+02  0.91188000000E+02 0.  0.
    9900012    2    3    3    0    0  0.65907776921E+01  0.33370949825E+02 -0.14096837222E+02  0.54367089332E+02  0.40000011750E+02 0.  0.
         12    1    3    3    0    0 -0.65907776921E+01 -0.33370949825E+02  0.14096837222E+02  0.36820910668E+02  0.00000000000E+00 0. -1.
         11    1    4    4    0    0  0.86205334612E+01  0.96440262698E+01 -0.33873665364E+01  0.13371428202E+02  0.51100000000E-03 0.  1.
        -11    1    4    4    0    0  0.11393227176E+02  0.15904277676E+02  0.35782423441E+01  0.19888576933E+02  0.51100000000E-03 0. -1.
         12    1    4    4    0    0 -0.13422982945E+02  0.78226458788E+01 -0.14287713029E+02  0.21107084197E+02  0.00000000000E+00 0. -1.
</event>
<event>
 8    1  0.1278459E-006  0.9118800E+02  0.7816164E-02  0.1184000E+00
        -11   -1    0    0    0    0  0.00000000000E+00  0.00000000000E+00  0.45593999997E+02  0.45594000000E+02  0.51100000000E-03 0. -1.
         11   -1    0    0    0    0 -0.00000000000E+00 -0.00000000000E+00 -0.45593999997E+02  0.45594000000E+02  0.51100000000E-03 0.  1.
         23    2    1    2    0    0  0.00000000000E+00  0.22204460493E-15  0.00000000000E+00  0.91188000000E+02  0.91188000000E+02 0.  0.
    9900012    2    3    3    0    0 -0.35356498043E+02 -0.19046067482E+01  0.10103030098E+02  0.54367072555E+02  0.39999973505E+02 0.  0.
         12    1    3    3    0    0  0.35356498043E+02  0.19046067482E+01 -0.10103030098E+02  0.36820927445E+02  0.00000000000E+00 0. -1.
         11    1    4    4    0    0 -0.21807634286E+02 -0.68562341182E+01 -0.54699067576E+01  0.23505334280E+02  0.51100000000E-03 0.  1.
        -11    1    4    4    0    0 -0.17491531395E+02  0.67515680007E+01  0.17917575959E+02  0.25934087019E+02  0.51100000000E-03 0. -1.
         12    1    4    4    0    0  0.39426676376E+01 -0.17999406307E+01 -0.23446391040E+01  0.49276512562E+01  0.00000000000E+00 0. -1.
</event>
<event>
 8    1  0.1278459E-006  0.9118800E+02  0.7816164E-02  0.1184000E+00
        -11   -1    0    0    0    0  0.00000000000E+00  0.00000000000E+00  0.45593999997E+02  0.45594000000E+02  0.51100000000E-03 0. -1.
         11   -1    0    0    0    0 -0.00000000000E+00 -0.00000000000E+00 -0.45593999997E+02  0.45594000000E+02  0.51100000000E-03 0.  1.
         23    2    1    2    0    0  0.00000000000E+00  0.00000000000E+00  0.00000000000E+00  0.91188000000E+02  0.91188000000E+02 0.  0.
    9900012    2    3    3    0    0  0.17470642647E+02 -0.18887533810E+02 -0.26340435001E+02  0.54367071115E+02  0.39999970220E+02 0.  0.
         12    1    3    3    0    0 -0.17470642647E+02  0.18887533810E+02  0.26340435001E+02  0.36820928885E+02  0.00000000000E+00 0. -1.
         11    1    4    4    0    0  0.13498865839E+02  0.51340878323E+01 -0.11069722554E+01  0.14484599568E+02  0.51100000000E-03 0. -1.
        -11    1    4    4    0    0  0.64127703723E+01 -0.78799466992E+01 -0.40488078021E+00  0.10167650296E+02  0.51100000000E-03 0.  1.
         12    1    4    4    0    0 -0.24409935642E+01 -0.16141674944E+02 -0.24828581965E+02  0.29714821251E+02  0.00000000000E+00 0. -1.
</event>
<event>
 8    1  0.1278459E-006  0.9118800E+02  0.7816164E-02  0.1184000E+00
        -11   -1    0    0    0    0  0.00000000000E+00  0.00000000000E+00  0.45593999997E+02  0.45594000000E+02  0.51100000000E-03 0.  1.
         11   -1    0    0    0    0 -0.00000000000E+00 -0.00000000000E+00 -0.45593999997E+02  0.45594000000E+02  0.51100000000E-03 0. -1.
         23    2    1    2    0    0  0.00000000000E+00  0.00000000000E+00 -0.35527136788E-14  0.91188000000E+02  0.91188000000E+02 0.  0.
    9900012    2    3    3    0    0  0.18282588581E+02  0.22070626790E+02  0.23117414069E+02  0.54367075984E+02  0.39999981321E+02 0.  0.
         12    1    3    3    0    0 -0.18282588581E+02 -0.22070626790E+02 -0.23117414069E+02  0.36820924016E+02  0.00000000000E+00 0. -1.
         11    1    4    4    0    0 -0.18507578012E+01 -0.30890490550E+01  0.22022375110E+01  0.42210637071E+01  0.51100000000E-03 0. -1.
        -11    1    4    4    0    0  0.64367769533E+01  0.15551383501E+02  0.27437942434E+02  0.32188791708E+02  0.51100000000E-03 0.  1.
        -12    1    4    4    0    0  0.13696569429E+02  0.96082923437E+01 -0.65227658760E+01  0.17957220569E+02  0.00000000000E+00 0.  1.
</event>
<event>
 8    1  0.1278459E-006  0.9118800E+02  0.7816164E-02  0.1184000E+00
        -11   -1    0    0    0    0  0.00000000000E+00  0.00000000000E+00  0.45593999997E+02  0.45594000000E+02  0.51100000000E-03 0. -1.
         11   -1    0    0    0    0 -0.00000000000E+00 -0.00000000000E+00 -0.45593999997E+02  0.45594000000E+02  0.51100000000E-03 0.  1.
         23    2    1    2    0    0  0.00000000000E+00 -0.71054273576E-14  0.00000000000E+00  0.91188000000E+02  0.91188000000E+02 0.  0.
    9900012    2    3    3    0    0 -0.92680227960E+01  0.18690595973E+02 -0.30340489337E+02  0.54367083152E+02  0.39999997661E+02 0.  0.
         12    1    3    3    0    0  0.92680227960E+01 -0.18690595973E+02  0.30340489337E+02  0.36820916848E+02  0.00000000000E+00 0. -1.
         11    1    4    4    0    0 -0.92006514630E+00 -0.11335295693E+02 -0.82309693389E+01  0.14038671762E+02  0.51100000000E-03 0. -1.
        -11    1    4    4    0    0  0.74054247149E+00  0.56524349218E+01 -0.10274065619E+02  0.11749674391E+02  0.51100000000E-03 0.  1.
         12    1    4    4    0    0 -0.90885001212E+01  0.24373456744E+02 -0.11835454379E+02  0.28578736999E+02  0.00000000000E+00 0. -1.
</event>
<event>
 8    1  0.1278459E-006  0.9118800E+02  0.7816164E-02  0.1184000E+00
        -11   -1    0    0    0    0  0.00000000000E+00  0.00000000000E+00  0.45593999997E+02  0.45594000000E+02  0.51100000000E-03 0. -1.
         11   -1    0    0    0    0 -0.00000000000E+00 -0.00000000000E+00 -0.45593999997E+02  0.45594000000E+02  0.51100000000E-03 0.  1.
         23    2    1    2    0    0 -0.26645352591E-14  0.00000000000E+00  0.71054273576E-14  0.91188000000E+02  0.91188000000E+02 0.  0.
    9900012    2    3    3    0    0  0.59292589156E+01 -0.16669424435E+02 -0.32291685447E+02  0.54367098717E+02  0.40000033145E+02 0.  0.
         12    1    3    3    0    0 -0.59292589156E+01  0.16669424435E+02  0.32291685447E+02  0.36820901283E+02  0.00000000000E+00 0. -1.
         11    1    4    4    0    0 -0.18912611501E+01 -0.60142066008E+01 -0.24455948256E+00  0.63093073611E+01  0.51100000000E-03 0. -1.
        -11    1    4    4    0    0  0.20854507159E+02 -0.46485965718E+01 -0.17441574283E+02  0.27581305855E+02  0.51100000000E-03 0.  1.
        -12    1    4    4    0    0 -0.13033987093E+02 -0.60066212625E+01 -0.14605551682E+02  0.20476485501E+02  0.00000000000E+00 0.  1.
</event>
<event>
 8    1  0.1278459E-006  0.9118800E+02  0.7816164E-02  0.1184000E+00
        -11   -1    0    0    0    0  0.00000000000E+00  0.00000000000E+00  0.45593999997E+02  0.45594000000E+02  0.51100000000E-03 0.  1.
         11   -1    0    0    0    0 -0.00000000000E+00 -0.00000000000E+00 -0.45593999997E+02  0.45594000000E+02  0.51100000000E-03 0. -1.
         23    2    1    2    0    0  0.00000000000E+00  0.17763568394E-14  0.00000000000E+00  0.91188000000E+02  0.91188000000E+02 0.  0.
    9900012    2    3    3    0    0 -0.27641682606E+02 -0.11294624265E+02 -0.21544112596E+02  0.54367082818E+02  0.39999996900E+02 0.  0.
        -12    1    3    3    0    0  0.27641682606E+02  0.11294624265E+02  0.21544112596E+02  0.36820917182E+02  0.00000000000E+00 0.  1.
         11    1    4    4    0    0 -0.22060494421E+01  0.48616796382E+01 -0.91987613995E+01  0.10635778984E+02  0.51100000000E-03 0. -1.
        -11    1    4    4    0    0 -0.20621645474E+02 -0.22939541585E+02 -0.15879914289E+02  0.34693609041E+02  0.51100000000E-03 0.  1.
        -12    1    4    4    0    0 -0.48139876894E+01  0.67832376817E+01  0.35345630925E+01  0.90376947932E+01  0.00000000000E+00 0.  1.
</event>
<event>
 8    1  0.1278459E-006  0.9118800E+02  0.7816164E-02  0.1184000E+00
        -11   -1    0    0    0    0  0.00000000000E+00  0.00000000000E+00  0.45593999997E+02  0.45594000000E+02  0.51100000000E-03 0.  1.
         11   -1    0    0    0    0 -0.00000000000E+00 -0.00000000000E+00 -0.45593999997E+02  0.45594000000E+02  0.51100000000E-03 0. -1.
         23    2    1    2    0    0 -0.44408920985E-15  0.71054273576E-14  0.71054273576E-14  0.91188000000E+02  0.91188000000E+02 0.  0.
    9900012    2    3    3    0    0 -0.22331799562E+01 -0.21984763672E+02 -0.29452712601E+02  0.54367092814E+02  0.40000019689E+02 0.  0.
        -12    1    3    3    0    0  0.22331799562E+01  0.21984763672E+02  0.29452712601E+02  0.36820907186E+02  0.00000000000E+00 0.  1.
         11    1    4    4    0    0 -0.93797057079E+01  0.57379436023E+01 -0.57476964946E+01  0.12407211258E+02  0.51100000000E-03 0. -1.
        -11    1    4    4    0    0 -0.13298255952E+00 -0.45155031860E+00 -0.10993586143E+02  0.11003659328E+02  0.51100000000E-03 0.  1.
        -12    1    4    4    0    0  0.72795083112E+01 -0.27271156956E+02 -0.12711429963E+02  0.30956222228E+02  0.00000000000E+00 0.  1.
</event>
<event>
 8    1  0.1278459E-006  0.9118800E+02  0.7816164E-02  0.1184000E+00
        -11   -1    0    0    0    0  0.00000000000E+00  0.00000000000E+00  0.45593999997E+02  0.45594000000E+02  0.51100000000E-03 0.  1.
         11   -1    0    0    0    0 -0.00000000000E+00 -0.00000000000E+00 -0.45593999997E+02  0.45594000000E+02  0.51100000000E-03 0. -1.
         23    2    1    2    0    0  0.00000000000E+00  0.00000000000E+00  0.35527136788E-14  0.91188000000E+02  0.91188000000E+02 0.  0.
    9900012    2    3    3    0    0  0.22971333315E+02  0.21441836031E+02  0.19192308458E+02  0.54367093023E+02  0.40000020165E+02 0.  0.
         12    1    3    3    0    0 -0.22971333315E+02 -0.21441836031E+02 -0.19192308458E+02  0.36820906977E+02  0.00000000000E+00 0. -1.
         11    1    4    4    0    0  0.97956867070E+01  0.27710314835E+02  0.11785189011E+02  0.31665560260E+02  0.51100000000E-03 0. -1.
        -11    1    4    4    0    0 -0.11703434903E+01  0.78043372136E+00  0.65446112236E+01  0.66940807441E+01  0.51100000000E-03 0.  1.
         12    1    4    4    0    0  0.14345990099E+02 -0.70489125255E+01  0.86250822371E+00  0.16007452019E+02  0.00000000000E+00 0. -1.
</event>
<event>
 8    1  0.1278459E-006  0.9118800E+02  0.7816164E-02  0.1184000E+00
        -11   -1    0    0    0    0  0.00000000000E+00  0.00000000000E+00  0.45593999997E+02  0.45594000000E+02  0.51100000000E-03 0. -1.
         11   -1    0    0    0    0 -0.00000000000E+00 -0.00000000000E+00 -0.45593999997E+02  0.45594000000E+02  0.51100000000E-03 0.  1.
         23    2    1    2    0    0  0.44408920985E-15  0.00000000000E+00 -0.35527136788E-14  0.91188000000E+02  0.91188000000E+02 0.  0.
    9900012    2    3    3    0    0  0.17574762991E+01  0.25999116610E+02 -0.26014166588E+02  0.54367086775E+02  0.40000005920E+02 0.  0.
         12    1    3    3    0    0 -0.17574762991E+01 -0.25999116610E+02  0.26014166588E+02  0.36820913225E+02  0.00000000000E+00 0. -1.
         11    1    4    4    0    0 -0.84213952788E+00 -0.74068331948E+01  0.12566706157E+01  0.75597353299E+01  0.51100000000E-03 0. -1.
        -11    1    4    4    0    0 -0.29372653986E+01  0.29887989264E+02 -0.16690229906E+02  0.34358160673E+02  0.51100000000E-03 0.  1.
        -12    1    4    4    0    0  0.55368812257E+01  0.35179605417E+01 -0.10580607298E+02  0.12449190772E+02  0.00000000000E+00 0.  1.
</event>
<event>
 8    1  0.1278459E-006  0.9118800E+02  0.7816164E-02  0.1184000E+00
        -11   -1    0    0    0    0  0.00000000000E+00  0.00000000000E+00  0.45593999997E+02  0.45594000000E+02  0.51100000000E-03 0.  1.
         11   -1    0    0    0    0 -0.00000000000E+00 -0.00000000000E+00 -0.45593999997E+02  0.45594000000E+02  0.51100000000E-03 0. -1.
         23    2    1    2    0    0  0.00000000000E+00  0.00000000000E+00  0.00000000000E+00  0.91188000000E+02  0.91188000000E+02 0.  0.
    9900012    2    3    3    0    0  0.75681180876E+01 -0.27962835972E+02 -0.22728453721E+02  0.54367092684E+02  0.40000019393E+02 0.  0.
        -12    1    3    3    0    0 -0.75681180876E+01  0.27962835972E+02  0.22728453721E+02  0.36820907316E+02  0.00000000000E+00 0.  1.
         11    1    4    4    0    0  0.19154673730E+02 -0.21108984930E+02 -0.80077293092E+01  0.29607676360E+02  0.51100000000E-03 0. -1.
        -11    1    4    4    0    0 -0.10393981727E+02 -0.48545508684E+01 -0.17776896300E+01  0.11608690751E+02  0.51100000000E-03 0.  1.
         12    1    4    4    0    0 -0.11925739155E+01 -0.19993001733E+01 -0.12943034782E+02  0.13150725573E+02  0.00000000000E+00 0. -1.
</event>
<event>
 8    1  0.1278459E-006  0.9118800E+02  0.7816164E-02  0.1184000E+00
        -11   -1    0    0    0    0  0.00000000000E+00  0.00000000000E+00  0.45593999997E+02  0.45594000000E+02  0.51100000000E-03 0. -1.
         11   -1    0    0    0    0 -0.00000000000E+00 -0.00000000000E+00 -0.45593999997E+02  0.45594000000E+02  0.51100000000E-03 0.  1.
         23    2    1    2    0    0  0.00000000000E+00  0.17763568394E-14 -0.66613381478E-15  0.91188000000E+02  0.91188000000E+02 0.  0.
    9900012    2    3    3    0    0 -0.33482178548E+02 -0.15276666087E+02  0.11597025455E+01  0.54367113032E+02  0.40000065780E+02 0.  0.
         12    1    3    3    0    0  0.33482178548E+02  0.15276666087E+02 -0.11597025455E+01  0.36820886968E+02  0.00000000000E+00 0. -1.
         11    1    4    4    0    0 -0.89582875156E+00 -0.16720364445E+02 -0.45117978620E+01  0.17341551733E+02  0.51100000000E-03 0. -1.
        -11    1    4    4    0    0 -0.55712254652E+01  0.27583721376E+01 -0.49712054731E+01  0.79599028983E+01  0.51100000000E-03 0.  1.
         12    1    4    4    0    0 -0.27015124332E+02 -0.13146737799E+01  0.10642705881E+02  0.29065658401E+02  0.00000000000E+00 0. -1.
</event>
<event>
 8    1  0.1278459E-006  0.9118800E+02  0.7816164E-02  0.1184000E+00
        -11   -1    0    0    0    0  0.00000000000E+00  0.00000000000E+00  0.45593999997E+02  0.45594000000E+02  0.51100000000E-03 0.  1.
         11   -1    0    0    0    0 -0.00000000000E+00 -0.00000000000E+00 -0.45593999997E+02  0.45594000000E+02  0.51100000000E-03 0. -1.
         23    2    1    2    0    0  0.17763568394E-14  0.00000000000E+00  0.00000000000E+00  0.91188000000E+02  0.91188000000E+02 0.  0.
    9900012    2    3    3    0    0 -0.13711001048E+02 -0.17739089459E+02  0.29208115538E+02  0.54367070383E+02  0.39999968553E+02 0.  0.
         12    1    3    3    0    0  0.13711001048E+02  0.17739089459E+02 -0.29208115538E+02  0.36820929617E+02  0.00000000000E+00 0. -1.
         11    1    4    4    0    0 -0.18261979938E+02 -0.15686678653E+02  0.20833695094E+02  0.31837315370E+02  0.51100000000E-03 0. -1.
        -11    1    4    4    0    0 -0.18985660714E+01 -0.39174461399E+01  0.13434786144E+02  0.14122479116E+02  0.51100000000E-03 0.  1.
         12    1    4    4    0    0  0.64495449618E+01  0.18650353343E+01 -0.50603656995E+01  0.84072758980E+01  0.00000000000E+00 0. -1.
</event>
<event>
 8    1  0.1278459E-006  0.9118800E+02  0.7816164E-02  0.1184000E+00
        -11   -1    0    0    0    0  0.00000000000E+00  0.00000000000E+00  0.45593999997E+02  0.45594000000E+02  0.51100000000E-03 0.  1.
         11   -1    0    0    0    0 -0.00000000000E+00 -0.00000000000E+00 -0.45593999997E+02  0.45594000000E+02  0.51100000000E-03 0. -1.
         23    2    1    2    0    0  0.00000000000E+00  0.00000000000E+00  0.00000000000E+00  0.91188000000E+02  0.91188000000E+02 0.  0.
    9900012    2    3    3    0    0  0.12525325969E+02 -0.25817353005E+01  0.34528702281E+02  0.54367076207E+02  0.39999981829E+02 0.  0.
         12    1    3    3    0    0 -0.12525325969E+02  0.25817353005E+01 -0.34528702281E+02  0.36820923793E+02  0.00000000000E+00 0. -1.
         11    1    4    4    0    0 -0.30382194358E+01 -0.59608309967E+00 -0.20342168606E+00  0.31028169533E+01  0.51100000000E-03 0. -1.
        -11    1    4    4    0    0  0.87840969047E+01 -0.10333682940E+02  0.37735381424E+02  0.40098682934E+02  0.51100000000E-03 0.  1.
        -12    1    4    4    0    0  0.67794485003E+01  0.83480307393E+01 -0.30032574578E+01  0.11165576320E+02  0.00000000000E+00 0.  1.
</event>
<event>
 8    1  0.1278459E-006  0.9118800E+02  0.7816164E-02  0.1184000E+00
        -11   -1    0    0    0    0  0.00000000000E+00  0.00000000000E+00  0.45593999997E+02  0.45594000000E+02  0.51100000000E-03 0.  1.
         11   -1    0    0    0    0 -0.00000000000E+00 -0.00000000000E+00 -0.45593999997E+02  0.45594000000E+02  0.51100000000E-03 0. -1.
         23    2    1    2    0    0  0.17763568394E-14  0.00000000000E+00 -0.35527136788E-14  0.91188000000E+02  0.91188000000E+02 0.  0.
    9900012    2    3    3    0    0  0.15666827230E+02 -0.19158824127E+02 -0.27262978429E+02  0.54367081893E+02  0.39999994792E+02 0.  0.
        -12    1    3    3    0    0 -0.15666827230E+02  0.19158824127E+02  0.27262978429E+02  0.36820918107E+02  0.00000000000E+00 0.  1.
         11    1    4    4    0    0  0.14146229470E+02  0.40511924717E+01 -0.25039280057E+02  0.29042959813E+02  0.51100000000E-03 0.  1.
        -11    1    4    4    0    0 -0.23742060608E+01 -0.19328910754E+02 -0.32129169414E+01  0.19737438559E+02  0.51100000000E-03 0. -1.
        -12    1    4    4    0    0  0.38948038210E+01 -0.38811058452E+01  0.98921856961E+00  0.55866835211E+01  0.00000000000E+00 0.  1.
</event>
<event>
 8    1  0.1278459E-006  0.9118800E+02  0.7816164E-02  0.1184000E+00
        -11   -1    0    0    0    0  0.00000000000E+00  0.00000000000E+00  0.45593999997E+02  0.45594000000E+02  0.51100000000E-03 0. -1.
         11   -1    0    0    0    0 -0.00000000000E+00 -0.00000000000E+00 -0.45593999997E+02  0.45594000000E+02  0.51100000000E-03 0.  1.
         23    2    1    2    0    0  0.35527136788E-14  0.17763568394E-14  0.35527136788E-14  0.91188000000E+02  0.91188000000E+02 0.  0.
    9900012    2    3    3    0    0 -0.19719841892E+02 -0.14140639292E+02 -0.27693867453E+02  0.54367080153E+02  0.39999990826E+02 0.  0.
         12    1    3    3    0    0  0.19719841892E+02  0.14140639292E+02  0.27693867453E+02  0.36820919847E+02  0.00000000000E+00 0. -1.
         11    1    4    4    0    0 -0.14172958534E+02 -0.17211017878E+02 -0.19894781703E+02  0.29881335801E+02  0.51100000000E-03 0. -1.
        -11    1    4    4    0    0  0.67902731944E+01 -0.50221198041E+01 -0.24885231756E+01  0.88046717848E+01  0.51100000000E-03 0.  1.
         12    1    4    4    0    0 -0.12337156552E+02  0.80924983906E+01 -0.53105625750E+01  0.15681072567E+02  0.00000000000E+00 0. -1.
</event>
<event>
 8    1  0.1278459E-006  0.9118800E+02  0.7816164E-02  0.1184000E+00
        -11   -1    0    0    0    0  0.00000000000E+00  0.00000000000E+00  0.45593999997E+02  0.45594000000E+02  0.51100000000E-03 0.  1.
         11   -1    0    0    0    0 -0.00000000000E+00 -0.00000000000E+00 -0.45593999997E+02  0.45594000000E+02  0.51100000000E-03 0. -1.
         23    2    1    2    0    0  0.88817841970E-15  0.00000000000E+00  0.00000000000E+00  0.91188000000E+02  0.91188000000E+02 0.  0.
    9900012    2    3    3    0    0  0.46716268675E+01  0.16913968642E+02 -0.32370920241E+02  0.54367042516E+02  0.39999905023E+02 0.  0.
        -12    1    3    3    0    0 -0.46716268675E+01 -0.16913968642E+02  0.32370920241E+02  0.36820957484E+02  0.00000000000E+00 0.  1.
         11    1    4    4    0    0  0.81687994870E+01 -0.34291716942E+01 -0.70674846478E+01  0.11333042093E+02  0.51100000000E-03 0.  1.
        -11    1    4    4    0    0 -0.84619450711E+00  0.26537126406E+02 -0.14366171771E+02  0.30188110485E+02  0.51100000000E-03 0. -1.
        -12    1    4    4    0    0 -0.26509781124E+01 -0.61939860696E+01 -0.10937263822E+02  0.12845889938E+02  0.00000000000E+00 0.  1.
</event>
<event>
 8    1  0.1278459E-006  0.9118800E+02  0.7816164E-02  0.1184000E+00
        -11   -1    0    0    0    0  0.00000000000E+00  0.00000000000E+00  0.45593999997E+02  0.45594000000E+02  0.51100000000E-03 0.  1.
         11   -1    0    0    0    0 -0.00000000000E+00 -0.00000000000E+00 -0.45593999997E+02  0.45594000000E+02  0.51100000000E-03 0. -1.
         23    2    1    2    0    0  0.00000000000E+00  0.00000000000E+00  0.00000000000E+00  0.91188000000E+02  0.91188000000E+02 0.  0.
    9900012    2    3    3    0    0  0.10267164612E+02  0.10681069139E+02 -0.33708753362E+02  0.54367082571E+02  0.39999996336E+02 0.  0.
        -12    1    3    3    0    0 -0.10267164612E+02 -0.10681069139E+02  0.33708753362E+02  0.36820917429E+02  0.00000000000E+00 0.  1.
         11    1    4    4    0    0 -0.62301950843E+01  0.73831933485E+01 -0.10183051612E+02  0.14036431712E+02  0.51100000000E-03 0. -1.
        -11    1    4    4    0    0  0.12844401275E+02  0.64805429384E+01 -0.29390933400E+02  0.32723127101E+02  0.51100000000E-03 0.  1.
        -12    1    4    4    0    0  0.36529584210E+01 -0.31826671483E+01  0.58652316505E+01  0.76075237572E+01  0.00000000000E+00 0.  1.
</event>
<event>
 8    1  0.1278459E-006  0.9118800E+02  0.7816164E-02  0.1184000E+00
        -11   -1    0    0    0    0  0.00000000000E+00  0.00000000000E+00  0.45593999997E+02  0.45594000000E+02  0.51100000000E-03 0.  1.
         11   -1    0    0    0    0 -0.00000000000E+00 -0.00000000000E+00 -0.45593999997E+02  0.45594000000E+02  0.51100000000E-03 0. -1.
         23    2    1    2    0    0  0.00000000000E+00 -0.71054273576E-14  0.00000000000E+00  0.91188000000E+02  0.91188000000E+02 0.  0.
    9900012    2    3    3    0    0  0.10690630339E+02 -0.33067082127E+02  0.12167565865E+02  0.54367202120E+02  0.40000268873E+02 0.  0.
         12    1    3    3    0    0 -0.10690630339E+02  0.33067082127E+02 -0.12167565865E+02  0.36820797880E+02  0.00000000000E+00 0. -1.
         11    1    4    4    0    0  0.32078892245E+01  0.32530975702E+01  0.13191998549E+01  0.47553638763E+01  0.51100000000E-03 0. -1.
        -11    1    4    4    0    0 -0.23038789310E+01 -0.36787278473E+02  0.28598282693E+01  0.36970127584E+02  0.51100000000E-03 0.  1.
        -12    1    4    4    0    0  0.97866200453E+01  0.46709877618E+00  0.79885377410E+01  0.12641710660E+02  0.00000000000E+00 0.  1.
</event>
<event>
 8    1  0.1278459E-006  0.9118800E+02  0.7816164E-02  0.1184000E+00
        -11   -1    0    0    0    0  0.00000000000E+00  0.00000000000E+00  0.45593999997E+02  0.45594000000E+02  0.51100000000E-03 0.  1.
         11   -1    0    0    0    0 -0.00000000000E+00 -0.00000000000E+00 -0.45593999997E+02  0.45594000000E+02  0.51100000000E-03 0. -1.
         23    2    1    2    0    0 -0.35527136788E-14 -0.71054273576E-14  0.00000000000E+00  0.91188000000E+02  0.91188000000E+02 0.  0.
    9900012    2    3    3    0    0 -0.25208557563E+02 -0.21958360683E+02 -0.15431705696E+02  0.54367102144E+02  0.40000040957E+02 0.  0.
        -12    1    3    3    0    0  0.25208557563E+02  0.21958360683E+02  0.15431705696E+02  0.36820897856E+02  0.00000000000E+00 0.  1.
         11    1    4    4    0    0 -0.89320375745E+01  0.65296313290E+01 -0.11729691410E+02  0.16124609805E+02  0.51100000000E-03 0. -1.
        -11    1    4    4    0    0 -0.10571483199E+01  0.21294673495E+01  0.25475223606E+01  0.34845464844E+01  0.51100000000E-03 0.  1.
         12    1    4    4    0    0 -0.15219371668E+02 -0.30617459361E+02 -0.62495366466E+01  0.34757945854E+02  0.00000000000E+00 0. -1.
</event>
<event>
 8    1  0.1278459E-006  0.9118800E+02  0.7816164E-02  0.1184000E+00
        -11   -1    0    0    0    0  0.00000000000E+00  0.00000000000E+00  0.45593999997E+02  0.45594000000E+02  0.51100000000E-03 0. -1.
         11   -1    0    0    0    0 -0.00000000000E+00 -0.00000000000E+00 -0.45593999997E+02  0.45594000000E+02  0.51100000000E-03 0.  1.
         23    2    1    2    0    0  0.00000000000E+00  0.17763568394E-14  0.17763568394E-14  0.91188000000E+02  0.91188000000E+02 0.  0.
    9900012    2    3    3    0    0  0.29731588522E+02 -0.14951054541E+02 -0.15756853591E+02  0.54367084435E+02  0.40000000587E+02 0.  0.
         12    1    3    3    0    0 -0.29731588522E+02  0.14951054541E+02  0.15756853591E+02  0.36820915565E+02  0.00000000000E+00 0. -1.
         11    1    4    4    0    0  0.10961190596E+02  0.14700018764E+01 -0.19161921193E+02  0.22124371830E+02  0.51100000000E-03 0. -1.
        -11    1    4    4    0    0  0.18221468282E+02 -0.89093936184E+01 -0.50675236686E+01  0.20906434354E+02  0.51100000000E-03 0.  1.
        -12    1    4    4    0    0  0.54892964348E+00 -0.75116627995E+01  0.84725912699E+01  0.11336278251E+02  0.00000000000E+00 0.  1.
</event>
<event>
 8    1  0.1278459E-006  0.9118800E+02  0.7816164E-02  0.1184000E+00
        -11   -1    0    0    0    0  0.00000000000E+00  0.00000000000E+00  0.45593999997E+02  0.45594000000E+02  0.51100000000E-03 0.  1.
         11   -1    0    0    0    0 -0.00000000000E+00 -0.00000000000E+00 -0.45593999997E+02  0.45594000000E+02  0.51100000000E-03 0. -1.
         23    2    1    2    0    0  0.88817841970E-15  0.00000000000E+00 -0.17763568394E-14  0.91188000000E+02  0.91188000000E+02 0.  0.
    9900012    2    3    3    0    0  0.42309359139E+01  0.34131145200E+02 -0.13150831700E+02  0.54367078423E+02  0.39999986881E+02 0.  0.
         12    1    3    3    0    0 -0.42309359139E+01 -0.34131145200E+02  0.13150831700E+02  0.36820921577E+02  0.00000000000E+00 0. -1.
         11    1    4    4    0    0 -0.10410160646E+01 -0.32924080816E+01 -0.80501708368E+00  0.35456618830E+01  0.51100000000E-03 0. -1.
        -11    1    4    4    0    0  0.18662322999E+02  0.20962850631E+02 -0.76165835773E+01  0.29081536272E+02  0.51100000000E-03 0.  1.
         12    1    4    4    0    0 -0.13390371021E+02  0.16460702651E+02 -0.47292310392E+01  0.21739880268E+02  0.00000000000E+00 0. -1.
</event>
<event>
 8    1  0.1278459E-006  0.9118800E+02  0.7816164E-02  0.1184000E+00
        -11   -1    0    0    0    0  0.00000000000E+00  0.00000000000E+00  0.45593999997E+02  0.45594000000E+02  0.51100000000E-03 0. -1.
         11   -1    0    0    0    0 -0.00000000000E+00 -0.00000000000E+00 -0.45593999997E+02  0.45594000000E+02  0.51100000000E-03 0.  1.
         23    2    1    2    0    0  0.00000000000E+00  0.00000000000E+00  0.35527136788E-14  0.91188000000E+02  0.91188000000E+02 0.  0.
    9900012    2    3    3    0    0 -0.97363878600E+01  0.21217027234E+02  0.28474897348E+02  0.54367091915E+02  0.40000017640E+02 0.  0.
        -12    1    3    3    0    0  0.97363878600E+01 -0.21217027234E+02 -0.28474897348E+02  0.36820908085E+02  0.00000000000E+00 0.  1.
         11    1    4    4    0    0 -0.64590404858E+01  0.85684912950E+01  0.35707632756E+01  0.11308784095E+02  0.51100000000E-03 0. -1.
        -11    1    4    4    0    0 -0.42402066514E+01  0.23594705453E+02  0.15100307023E+02  0.28332115175E+02  0.51100000000E-03 0.  1.
         12    1    4    4    0    0  0.96285927722E+00 -0.10946169514E+02  0.98038270490E+01  0.14726192645E+02  0.00000000000E+00 0. -1.
</event>
<event>
 8    1  0.1278459E-006  0.9118800E+02  0.7816164E-02  0.1184000E+00
        -11   -1    0    0    0    0  0.00000000000E+00  0.00000000000E+00  0.45593999997E+02  0.45594000000E+02  0.51100000000E-03 0.  1.
         11   -1    0    0    0    0 -0.00000000000E+00 -0.00000000000E+00 -0.45593999997E+02  0.45594000000E+02  0.51100000000E-03 0. -1.
         23    2    1    2    0    0 -0.17763568394E-14  0.17763568394E-14  0.00000000000E+00  0.91188000000E+02  0.91188000000E+02 0.  0.
    9900012    2    3    3    0    0 -0.99107180109E+01  0.14552877363E+02 -0.32338363712E+02  0.54367104592E+02  0.40000046539E+02 0.  0.
        -12    1    3    3    0    0  0.99107180109E+01 -0.14552877363E+02  0.32338363712E+02  0.36820895408E+02  0.00000000000E+00 0.  1.
         11    1    4    4    0    0 -0.79534621131E+01  0.21328803976E+01 -0.30222150784E+02  0.31323874867E+02  0.51100000000E-03 0. -1.
        -11    1    4    4    0    0 -0.29619919540E+01  0.19463049356E+01  0.78110117448E+01  0.85774940383E+01  0.51100000000E-03 0.  1.
         12    1    4    4    0    0  0.10047360562E+01  0.10473692030E+02 -0.99272246725E+01  0.14465735687E+02  0.00000000000E+00 0. -1.
</event>
<event>
 8    1  0.1278459E-006  0.9118800E+02  0.7816164E-02  0.1184000E+00
        -11   -1    0    0    0    0  0.00000000000E+00  0.00000000000E+00  0.45593999997E+02  0.45594000000E+02  0.51100000000E-03 0.  1.
         11   -1    0    0    0    0 -0.00000000000E+00 -0.00000000000E+00 -0.45593999997E+02  0.45594000000E+02  0.51100000000E-03 0. -1.
         23    2    1    2    0    0 -0.88817841970E-15  0.00000000000E+00  0.00000000000E+00  0.91188000000E+02  0.91188000000E+02 0.  0.
    9900012    2    3    3    0    0 -0.45158165547E+01 -0.28089555019E+02 -0.23374442267E+02  0.54367078616E+02  0.39999987320E+02 0.  0.
        -12    1    3    3    0    0  0.45158165547E+01  0.28089555019E+02  0.23374442267E+02  0.36820921384E+02  0.00000000000E+00 0.  1.
         11    1    4    4    0    0 -0.19415551395E+01 -0.48512308347E+01 -0.13634701083E+02  0.14601683152E+02  0.51100000000E-03 0. -1.
        -11    1    4    4    0    0 -0.10592645894E+02 -0.66531081273E+01 -0.15999643649E+02  0.20309027351E+02  0.51100000000E-03 0.  1.
        -12    1    4    4    0    0  0.80183844786E+01 -0.16585216057E+02  0.62599024651E+01  0.19456368113E+02  0.00000000000E+00 0.  1.
</event>
<event>
 8    1  0.1278459E-006  0.9118800E+02  0.7816164E-02  0.1184000E+00
        -11   -1    0    0    0    0  0.00000000000E+00  0.00000000000E+00  0.45593999997E+02  0.45594000000E+02  0.51100000000E-03 0. -1.
         11   -1    0    0    0    0 -0.00000000000E+00 -0.00000000000E+00 -0.45593999997E+02  0.45594000000E+02  0.51100000000E-03 0.  1.
         23    2    1    2    0    0  0.00000000000E+00 -0.11102230246E-14 -0.71054273576E-14  0.91188000000E+02  0.91188000000E+02 0.  0.
    9900012    2    3    3    0    0 -0.17381564808E+02 -0.19733761906E+01 -0.32400070716E+02  0.54367114742E+02  0.40000069678E+02 0.  0.
         12    1    3    3    0    0  0.17381564808E+02  0.19733761906E+01  0.32400070716E+02  0.36820885258E+02  0.00000000000E+00 0. -1.
         11    1    4    4    0    0 -0.11856562709E+02 -0.43100202623E+01 -0.11662517969E+02  0.17180473788E+02  0.51100000000E-03 0. -1.
        -11    1    4    4    0    0 -0.14253288997E+02 -0.85940774912E+01 -0.89690850153E+01  0.18906583547E+02  0.51100000000E-03 0.  1.
         12    1    4    4    0    0  0.87282868978E+01  0.10930721563E+02 -0.11768467732E+02  0.18280057407E+02  0.00000000000E+00 0. -1.
</event>
<event>
 8    1  0.1278459E-006  0.9118800E+02  0.7816164E-02  0.1184000E+00
        -11   -1    0    0    0    0  0.00000000000E+00  0.00000000000E+00  0.45593999997E+02  0.45594000000E+02  0.51100000000E-03 0. -1.
         11   -1    0    0    0    0 -0.00000000000E+00 -0.00000000000E+00 -0.45593999997E+02  0.45594000000E+02  0.51100000000E-03 0.  1.
         23    2    1    2    0    0  0.00000000000E+00 -0.71054273576E-14  0.27755575616E-15  0.91188000000E+02  0.91188000000E+02 0.  0.
    9900012    2    3    3    0    0  0.13553479124E+02  0.34232494974E+02  0.46803322606E+00  0.54367087958E+02  0.40000008618E+02 0.  0.
        -12    1    3    3    0    0 -0.13553479124E+02 -0.34232494974E+02 -0.46803322606E+00  0.36820912042E+02  0.00000000000E+00 0.  1.
         11    1    4    4    0    0 -0.10875841315E+02  0.13577076335E+02 -0.35071640896E+01  0.17746017196E+02  0.51100000000E-03 0.  1.
        -11    1    4    4    0    0  0.57646574810E+01  0.12776964451E+02  0.77441232572E+01  0.16014166907E+02  0.51100000000E-03 0. -1.
        -12    1    4    4    0    0  0.18664662958E+02  0.78784541885E+01 -0.37689259415E+01  0.20606903855E+02  0.00000000000E+00 0.  1.
</event>
<event>
 8    1  0.1278459E-006  0.9118800E+02  0.7816164E-02  0.1184000E+00
        -11   -1    0    0    0    0  0.00000000000E+00  0.00000000000E+00  0.45593999997E+02  0.45594000000E+02  0.51100000000E-03 0. -1.
         11   -1    0    0    0    0 -0.00000000000E+00 -0.00000000000E+00 -0.45593999997E+02  0.45594000000E+02  0.51100000000E-03 0.  1.
         23    2    1    2    0    0  0.17763568394E-14 -0.71054273576E-14 -0.17763568394E-14  0.91188000000E+02  0.91188000000E+02 0.  0.
    9900012    2    3    3    0    0  0.14514028025E+02 -0.32330595854E+02 -0.99928265308E+01  0.54367068183E+02  0.39999963537E+02 0.  0.
         12    1    3    3    0    0 -0.14514028025E+02  0.32330595854E+02  0.99928265308E+01  0.36820931817E+02  0.00000000000E+00 0. -1.
         11    1    4    4    0    0 -0.36238280693E+01 -0.10897616917E+02 -0.83572077073E+01  0.14203277976E+02  0.51100000000E-03 0. -1.
        -11    1    4    4    0    0  0.23759593463E+02 -0.12582552629E+02  0.55504631687E+01  0.27452623806E+02  0.51100000000E-03 0.  1.
        -12    1    4    4    0    0 -0.56217373686E+01 -0.88504263083E+01 -0.71860819922E+01  0.12711166401E+02  0.00000000000E+00 0.  1.
</event>
<event>
 8    1  0.1278459E-006  0.9118800E+02  0.7816164E-02  0.1184000E+00
        -11   -1    0    0    0    0  0.00000000000E+00  0.00000000000E+00  0.45593999997E+02  0.45594000000E+02  0.51100000000E-03 0. -1.
         11   -1    0    0    0    0 -0.00000000000E+00 -0.00000000000E+00 -0.45593999997E+02  0.45594000000E+02  0.51100000000E-03 0.  1.
         23    2    1    2    0    0  0.24980018054E-15 -0.35527136788E-14 -0.35527136788E-14  0.91188000000E+02  0.91188000000E+02 0.  0.
    9900012    2    3    3    0    0  0.13976899047E+00 -0.18777516007E+02 -0.31672777844E+02  0.54367088834E+02  0.40000010614E+02 0.  0.
         12    1    3    3    0    0 -0.13976899047E+00  0.18777516007E+02  0.31672777844E+02  0.36820911166E+02  0.00000000000E+00 0. -1.
         11    1    4    4    0    0 -0.32784104503E+01  0.66168144525E+01 -0.16158584523E+01  0.75591803377E+01  0.51100000000E-03 0. -1.
        -11    1    4    4    0    0 -0.29073379925E+00  0.11344285364E+01 -0.16942816100E+02  0.16983240913E+02  0.51100000000E-03 0.  1.
         12    1    4    4    0    0  0.37089132400E+01 -0.26528758996E+02 -0.13114103292E+02  0.29824667583E+02  0.00000000000E+00 0. -1.
</event>
<event>
 8    1  0.1278459E-006  0.9118800E+02  0.7816164E-02  0.1184000E+00
        -11   -1    0    0    0    0  0.00000000000E+00  0.00000000000E+00  0.45593999997E+02  0.45594000000E+02  0.51100000000E-03 0.  1.
         11   -1    0    0    0    0 -0.00000000000E+00 -0.00000000000E+00 -0.45593999997E+02  0.45594000000E+02  0.51100000000E-03 0. -1.
         23    2    1    2    0    0  0.00000000000E+00  0.00000000000E+00  0.00000000000E+00  0.91188000000E+02  0.91188000000E+02 0.  0.
    9900012    2    3    3    0    0  0.90969756496E+01  0.13946572957E+02 -0.32840866529E+02  0.54367022588E+02  0.39999859593E+02 0.  0.
        -12    1    3    3    0    0 -0.90969756496E+01 -0.13946572957E+02  0.32840866529E+02  0.36820977412E+02  0.00000000000E+00 0.  1.
         11    1    4    4    0    0  0.40203910468E+01 -0.54521917369E+00 -0.10269268876E+02  0.11041679746E+02  0.51100000000E-03 0. -1.
        -11    1    4    4    0    0  0.10858111926E+01  0.83005867174E+01 -0.31012446782E+02  0.32122431127E+02  0.51100000000E-03 0.  1.
        -12    1    4    4    0    0  0.39907734102E+01  0.61912054129E+01  0.84408491285E+01  0.11202911715E+02  0.00000000000E+00 0.  1.
</event>
<event>
 8    1  0.1278459E-006  0.9118800E+02  0.7816164E-02  0.1184000E+00
        -11   -1    0    0    0    0  0.00000000000E+00  0.00000000000E+00  0.45593999997E+02  0.45594000000E+02  0.51100000000E-03 0.  1.
         11   -1    0    0    0    0 -0.00000000000E+00 -0.00000000000E+00 -0.45593999997E+02  0.45594000000E+02  0.51100000000E-03 0. -1.
         23    2    1    2    0    0  0.00000000000E+00 -0.35527136788E-14  0.35527136788E-14  0.91188000000E+02  0.91188000000E+02 0.  0.
    9900012    2    3    3    0    0  0.40285018620E+01  0.26994877648E+02 -0.24715034937E+02  0.54367011441E+02  0.39999834182E+02 0.  0.
        -12    1    3    3    0    0 -0.40285018620E+01 -0.26994877648E+02  0.24715034937E+02  0.36820988559E+02  0.00000000000E+00 0.  1.
         11    1    4    4    0    0 -0.73031282420E+01  0.19616329473E+02 -0.74884274421E+01  0.22230893143E+02  0.51100000000E-03 0. -1.
        -11    1    4    4    0    0  0.31243381245E+01  0.10752339232E+01 -0.20896530422E+02  0.21156148058E+02  0.51100000000E-03 0.  1.
        -12    1    4    4    0    0  0.82072919795E+01  0.63033142518E+01  0.36699229267E+01  0.10979970240E+02  0.00000000000E+00 0.  1.
</event>
<event>
 8    1  0.1278459E-006  0.9118800E+02  0.7816164E-02  0.1184000E+00
        -11   -1    0    0    0    0  0.00000000000E+00  0.00000000000E+00  0.45593999997E+02  0.45594000000E+02  0.51100000000E-03 0.  1.
         11   -1    0    0    0    0 -0.00000000000E+00 -0.00000000000E+00 -0.45593999997E+02  0.45594000000E+02  0.51100000000E-03 0. -1.
         23    2    1    2    0    0  0.00000000000E+00 -0.35527136788E-14  0.00000000000E+00  0.91188000000E+02  0.91188000000E+02 0.  0.
    9900012    2    3    3    0    0  0.26369092154E+02  0.24020248071E+02  0.91366312601E+01  0.54367090598E+02  0.40000014636E+02 0.  0.
         12    1    3    3    0    0 -0.26369092154E+02 -0.24020248071E+02 -0.91366312601E+01  0.36820909402E+02  0.00000000000E+00 0. -1.
         11    1    4    4    0    0  0.20240988697E+02  0.19360213443E+02 -0.10068166464E+01  0.28027293269E+02  0.51100000000E-03 0. -1.
        -11    1    4    4    0    0  0.44597364315E+01  0.14055801720E+02  0.56446678575E+01  0.15789777912E+02  0.51100000000E-03 0.  1.
         12    1    4    4    0    0  0.16683670262E+01 -0.93957670916E+01  0.44987800490E+01  0.10550019417E+02  0.00000000000E+00 0. -1.
</event>
<event>
 8    1  0.1278459E-006  0.9118800E+02  0.7816164E-02  0.1184000E+00
        -11   -1    0    0    0    0  0.00000000000E+00  0.00000000000E+00  0.45593999997E+02  0.45594000000E+02  0.51100000000E-03 0.  1.
         11   -1    0    0    0    0 -0.00000000000E+00 -0.00000000000E+00 -0.45593999997E+02  0.45594000000E+02  0.51100000000E-03 0. -1.
         23    2    1    2    0    0  0.00000000000E+00  0.00000000000E+00  0.00000000000E+00  0.91188000000E+02  0.91188000000E+02 0.  0.
    9900012    2    3    3    0    0  0.20763803027E+02 -0.21226694566E+02  0.21773172407E+02  0.54367094050E+02  0.40000022506E+02 0.  0.
         12    1    3    3    0    0 -0.20763803027E+02  0.21226694566E+02 -0.21773172407E+02  0.36820905950E+02  0.00000000000E+00 0. -1.
         11    1    4    4    0    0 -0.51159424413E+01 -0.10253875816E+01 -0.88119239197E-01  0.52184338663E+01  0.51100000000E-03 0. -1.
        -11    1    4    4    0    0  0.21682359800E+02 -0.46883350752E+01  0.20952151150E+00  0.22184433997E+02  0.51100000000E-03 0.  1.
        -12    1    4    4    0    0  0.41973856683E+01 -0.15512971909E+02  0.21651770134E+02  0.26964226187E+02  0.00000000000E+00 0.  1.
</event>
<event>
 8    1  0.1278459E-006  0.9118800E+02  0.7816164E-02  0.1184000E+00
        -11   -1    0    0    0    0  0.00000000000E+00  0.00000000000E+00  0.45593999997E+02  0.45594000000E+02  0.51100000000E-03 0. -1.
         11   -1    0    0    0    0 -0.00000000000E+00 -0.00000000000E+00 -0.45593999997E+02  0.45594000000E+02  0.51100000000E-03 0.  1.
         23    2    1    2    0    0  0.00000000000E+00  0.00000000000E+00  0.00000000000E+00  0.91188000000E+02  0.91188000000E+02 0.  0.
    9900012    2    3    3    0    0 -0.23975497065E+02  0.21494429548E+02 -0.17859007431E+02  0.54367094151E+02  0.40000022736E+02 0.  0.
         12    1    3    3    0    0  0.23975497065E+02 -0.21494429548E+02  0.17859007431E+02  0.36820905849E+02  0.00000000000E+00 0. -1.
         11    1    4    4    0    0 -0.17725480886E+02  0.30928982529E+02 -0.19018044888E+02  0.40403968426E+02  0.51100000000E-03 0. -1.
        -11    1    4    4    0    0 -0.81024842633E+00 -0.16495639426E+01 -0.30611628238E+01  0.35704736111E+01  0.51100000000E-03 0.  1.
         12    1    4    4    0    0 -0.54397677535E+01 -0.77849890391E+01  0.42202002813E+01  0.10392652114E+02  0.00000000000E+00 0. -1.
</event>
<event>
 8    1  0.1278459E-006  0.9118800E+02  0.7816164E-02  0.1184000E+00
        -11   -1    0    0    0    0  0.00000000000E+00  0.00000000000E+00  0.45593999997E+02  0.45594000000E+02  0.51100000000E-03 0.  1.
         11   -1    0    0    0    0 -0.00000000000E+00 -0.00000000000E+00 -0.45593999997E+02  0.45594000000E+02  0.51100000000E-03 0. -1.
         23    2    1    2    0    0  0.00000000000E+00 -0.71054273576E-14  0.00000000000E+00  0.91188000000E+02  0.91188000000E+02 0.  0.
    9900012    2    3    3    0    0 -0.16969968143E+02 -0.31860874115E+02  0.72583977171E+01  0.54367089425E+02  0.40000011962E+02 0.  0.
         12    1    3    3    0    0  0.16969968143E+02  0.31860874115E+02 -0.72583977171E+01  0.36820910575E+02  0.00000000000E+00 0. -1.
         11    1    4    4    0    0  0.25906598039E-02 -0.17640907436E+01  0.11445533239E+02  0.11580684533E+02  0.51100000000E-03 0.  1.
        -11    1    4    4    0    0 -0.11864199682E+01 -0.13822711680E+02 -0.12464145813E+02  0.18650197898E+02  0.51100000000E-03 0. -1.
         12    1    4    4    0    0 -0.15786138834E+02 -0.16274071692E+02  0.82770102910E+01  0.24136206994E+02  0.00000000000E+00 0. -1.
</event>
<event>
 8    1  0.1278459E-006  0.9118800E+02  0.7816164E-02  0.1184000E+00
        -11   -1    0    0    0    0  0.00000000000E+00  0.00000000000E+00  0.45593999997E+02  0.45594000000E+02  0.51100000000E-03 0.  1.
         11   -1    0    0    0    0 -0.00000000000E+00 -0.00000000000E+00 -0.45593999997E+02  0.45594000000E+02  0.51100000000E-03 0. -1.
         23    2    1    2    0    0  0.35527136788E-14 -0.71054273576E-14 -0.35527136788E-14  0.91188000000E+02  0.91188000000E+02 0.  0.
    9900012    2    3    3    0    0 -0.13745598069E+02  0.27544536441E+02  0.20202406285E+02  0.54367079673E+02  0.39999989731E+02 0.  0.
         12    1    3    3    0    0  0.13745598069E+02 -0.27544536441E+02 -0.20202406285E+02  0.36820920327E+02  0.00000000000E+00 0. -1.
         11    1    4    4    0    0  0.71144505417E+01 -0.68980630875E+01  0.35078060081E+01  0.10512058986E+02  0.51100000000E-03 0. -1.
        -11    1    4    4    0    0 -0.76042181128E+01  0.89025032215E+01  0.36737230680E+01  0.12270898018E+02  0.51100000000E-03 0.  1.
         12    1    4    4    0    0 -0.13255830498E+02  0.25540096307E+02  0.13020877209E+02  0.31584122670E+02  0.00000000000E+00 0. -1.
</event>
<event>
 8    1  0.1278459E-006  0.9118800E+02  0.7816164E-02  0.1184000E+00
        -11   -1    0    0    0    0  0.00000000000E+00  0.00000000000E+00  0.45593999997E+02  0.45594000000E+02  0.51100000000E-03 0. -1.
         11   -1    0    0    0    0 -0.00000000000E+00 -0.00000000000E+00 -0.45593999997E+02  0.45594000000E+02  0.51100000000E-03 0.  1.
         23    2    1    2    0    0  0.88817841970E-15 -0.88817841970E-15  0.71054273576E-14  0.91188000000E+02  0.91188000000E+02 0.  0.
    9900012    2    3    3    0    0  0.70891366840E+01  0.53051267053E+01 -0.35740449380E+02  0.54367082709E+02  0.39999996651E+02 0.  0.
         12    1    3    3    0    0 -0.70891366840E+01 -0.53051267053E+01  0.35740449380E+02  0.36820917291E+02  0.00000000000E+00 0. -1.
         11    1    4    4    0    0 -0.27833637207E+01 -0.27006197881E+01  0.16427879135E+01  0.42117945381E+01  0.51100000000E-03 0. -1.
        -11    1    4    4    0    0  0.15181716938E+02 -0.24732321351E+01 -0.34912867350E+02  0.38151143013E+02  0.51100000000E-03 0.  1.
        -12    1    4    4    0    0 -0.53092165333E+01  0.10478978628E+02 -0.24703699438E+01  0.12004145157E+02  0.00000000000E+00 0.  1.
</event>
<event>
 8    1  0.1278459E-006  0.9118800E+02  0.7816164E-02  0.1184000E+00
        -11   -1    0    0    0    0  0.00000000000E+00  0.00000000000E+00  0.45593999997E+02  0.45594000000E+02  0.51100000000E-03 0.  1.
         11   -1    0    0    0    0 -0.00000000000E+00 -0.00000000000E+00 -0.45593999997E+02  0.45594000000E+02  0.51100000000E-03 0. -1.
         23    2    1    2    0    0 -0.35527136788E-14  0.17763568394E-14  0.00000000000E+00  0.91188000000E+02  0.91188000000E+02 0.  0.
    9900012    2    3    3    0    0 -0.31258113187E+02 -0.13964202478E+02  0.13554019090E+02  0.54367081701E+02  0.39999994355E+02 0.  0.
        -12    1    3    3    0    0  0.31258113187E+02  0.13964202478E+02 -0.13554019090E+02  0.36820918299E+02  0.00000000000E+00 0.  1.
         11    1    4    4    0    0 -0.14586641199E+02 -0.20062436820E+02 -0.52017862062E+01  0.25344231150E+02  0.51100000000E-03 0. -1.
        -11    1    4    4    0    0  0.13987735088E+01  0.34696766723E+01  0.45306066292E+01  0.58755102100E+01  0.51100000000E-03 0.  1.
        -12    1    4    4    0    0 -0.18070245497E+02  0.26285576697E+01  0.14225198667E+02  0.23147340341E+02  0.00000000000E+00 0.  1.
</event>
<event>
 8    1  0.1278459E-006  0.9118800E+02  0.7816164E-02  0.1184000E+00
        -11   -1    0    0    0    0  0.00000000000E+00  0.00000000000E+00  0.45593999997E+02  0.45594000000E+02  0.51100000000E-03 0. -1.
         11   -1    0    0    0    0 -0.00000000000E+00 -0.00000000000E+00 -0.45593999997E+02  0.45594000000E+02  0.51100000000E-03 0.  1.
         23    2    1    2    0    0  0.00000000000E+00  0.00000000000E+00  0.00000000000E+00  0.91188000000E+02  0.91188000000E+02 0.  0.
    9900012    2    3    3    0    0 -0.71654515887E+01  0.35982665309E+02 -0.31120401558E+01  0.54367072620E+02  0.39999973652E+02 0.  0.
         12    1    3    3    0    0  0.71654515887E+01 -0.35982665309E+02  0.31120401558E+01  0.36820927380E+02  0.00000000000E+00 0. -1.
         11    1    4    4    0    0 -0.49963837536E+01  0.70214111134E+01  0.14615270711E+02  0.16966738132E+02  0.51100000000E-03 0. -1.
        -11    1    4    4    0    0  0.38091356701E+01  0.25426010836E+02 -0.15861070346E+02  0.30208692364E+02  0.51100000000E-03 0.  1.
         12    1    4    4    0    0 -0.59782035051E+01  0.35352433591E+01 -0.18662405203E+01  0.71916421237E+01  0.00000000000E+00 0. -1.
</event>
<event>
 8    1  0.1278459E-006  0.9118800E+02  0.7816164E-02  0.1184000E+00
        -11   -1    0    0    0    0  0.00000000000E+00  0.00000000000E+00  0.45593999997E+02  0.45594000000E+02  0.51100000000E-03 0.  1.
         11   -1    0    0    0    0 -0.00000000000E+00 -0.00000000000E+00 -0.45593999997E+02  0.45594000000E+02  0.51100000000E-03 0. -1.
         23    2    1    2    0    0  0.35527136788E-14 -0.35527136788E-14 -0.35527136788E-14  0.91188000000E+02  0.91188000000E+02 0.  0.
    9900012    2    3    3    0    0 -0.20130680544E+02  0.12969482991E+02  0.27970120829E+02  0.54367089536E+02  0.40000012214E+02 0.  0.
         12    1    3    3    0    0  0.20130680544E+02 -0.12969482991E+02 -0.27970120829E+02  0.36820910464E+02  0.00000000000E+00 0. -1.
         11    1    4    4    0    0  0.18566911195E+00 -0.23178560275E-01 -0.54124205072E+01  0.54156538176E+01  0.51100000000E-03 0. -1.
        -11    1    4    4    0    0 -0.84370632340E+01 -0.66879970676E+01  0.36491437985E+01  0.11367919401E+02  0.51100000000E-03 0.  1.
        -12    1    4    4    0    0 -0.11879286422E+02  0.19680658619E+02  0.29733397538E+02  0.37583516317E+02  0.00000000000E+00 0.  1.
</event>
<event>
 8    1  0.1278459E-006  0.9118800E+02  0.7816164E-02  0.1184000E+00
        -11   -1    0    0    0    0  0.00000000000E+00  0.00000000000E+00  0.45593999997E+02  0.45594000000E+02  0.51100000000E-03 0.  1.
         11   -1    0    0    0    0 -0.00000000000E+00 -0.00000000000E+00 -0.45593999997E+02  0.45594000000E+02  0.51100000000E-03 0. -1.
         23    2    1    2    0    0  0.00000000000E+00 -0.35527136788E-14  0.00000000000E+00  0.91188000000E+02  0.91188000000E+02 0.  0.
    9900012    2    3    3    0    0  0.16200673318E+02  0.28103340920E+02  0.17421841879E+02  0.54367079842E+02  0.39999990116E+02 0.  0.
         12    1    3    3    0    0 -0.16200673318E+02 -0.28103340920E+02 -0.17421841879E+02  0.36820920158E+02  0.00000000000E+00 0. -1.
         11    1    4    4    0    0  0.50391814399E+01  0.44861345717E+00  0.18003562705E+02  0.18700878962E+02  0.51100000000E-03 0. -1.
        -11    1    4    4    0    0  0.13672674633E+01  0.24098255488E+02  0.36657882943E+01  0.24413794092E+02  0.51100000000E-03 0.  1.
         12    1    4    4    0    0  0.97942244143E+01  0.35564719750E+01 -0.42475091205E+01  0.11252406788E+02  0.00000000000E+00 0. -1.
</event>
<event>
 8    1  0.1278459E-006  0.9118800E+02  0.7816164E-02  0.1184000E+00
        -11   -1    0    0    0    0  0.00000000000E+00  0.00000000000E+00  0.45593999997E+02  0.45594000000E+02  0.51100000000E-03 0. -1.
         11   -1    0    0    0    0 -0.00000000000E+00 -0.00000000000E+00 -0.45593999997E+02  0.45594000000E+02  0.51100000000E-03 0.  1.
         23    2    1    2    0    0  0.35527136788E-14  0.00000000000E+00  0.00000000000E+00  0.91188000000E+02  0.91188000000E+02 0.  0.
    9900012    2    3    3    0    0  0.16596599621E+02 -0.22754243732E+02  0.23718709526E+02  0.54367083276E+02  0.39999997945E+02 0.  0.
         12    1    3    3    0    0 -0.16596599621E+02  0.22754243732E+02 -0.23718709526E+02  0.36820916724E+02  0.00000000000E+00 0. -1.
         11    1    4    4    0    0 -0.10251334025E+02 -0.11063727246E+02  0.11244217916E+02  0.18812983460E+02  0.51100000000E-03 0. -1.
        -11    1    4    4    0    0  0.11389377470E+02 -0.10310612240E+00  0.11537021056E+02  0.16212075904E+02  0.51100000000E-03 0.  1.
        -12    1    4    4    0    0  0.15458556176E+02 -0.11587410363E+02  0.93747055426E+00  0.19342023912E+02  0.00000000000E+00 0.  1.
</event>
<event>
 8    1  0.1278459E-006  0.9118800E+02  0.7816164E-02  0.1184000E+00
        -11   -1    0    0    0    0  0.00000000000E+00  0.00000000000E+00  0.45593999997E+02  0.45594000000E+02  0.51100000000E-03 0.  1.
         11   -1    0    0    0    0 -0.00000000000E+00 -0.00000000000E+00 -0.45593999997E+02  0.45594000000E+02  0.51100000000E-03 0. -1.
         23    2    1    2    0    0 -0.35527136788E-14  0.17763568394E-14 -0.35527136788E-14  0.91188000000E+02  0.91188000000E+02 0.  0.
    9900012    2    3    3    0    0  0.29061495482E+02 -0.10691859075E+02  0.19922189213E+02  0.54367082125E+02  0.39999995319E+02 0.  0.
         12    1    3    3    0    0 -0.29061495482E+02  0.10691859075E+02 -0.19922189213E+02  0.36820917875E+02  0.00000000000E+00 0. -1.
         11    1    4    4    0    0 -0.69428856674E+01  0.28209172819E+01  0.82447237650E+01  0.11141665312E+02  0.51100000000E-03 0. -1.
        -11    1    4    4    0    0  0.16762419161E+02 -0.31274379345E+01  0.12814707988E+02  0.21330173587E+02  0.51100000000E-03 0.  1.
        -12    1    4    4    0    0  0.19241961988E+02 -0.10385338422E+02 -0.11372425399E+01  0.21895243225E+02  0.00000000000E+00 0.  1.
</event>
<event>
 8    1  0.1278459E-006  0.9118800E+02  0.7816164E-02  0.1184000E+00
        -11   -1    0    0    0    0  0.00000000000E+00  0.00000000000E+00  0.45593999997E+02  0.45594000000E+02  0.51100000000E-03 0. -1.
         11   -1    0    0    0    0 -0.00000000000E+00 -0.00000000000E+00 -0.45593999997E+02  0.45594000000E+02  0.51100000000E-03 0.  1.
         23    2    1    2    0    0  0.35527136788E-14  0.17763568394E-14 -0.17763568394E-14  0.91188000000E+02  0.91188000000E+02 0.  0.
    9900012    2    3    3    0    0  0.31065494789E+02  0.11655601380E+02 -0.15964381501E+02  0.54367089002E+02  0.40000010997E+02 0.  0.
         12    1    3    3    0    0 -0.31065494789E+02 -0.11655601380E+02  0.15964381501E+02  0.36820910998E+02  0.00000000000E+00 0. -1.
         11    1    4    4    0    0 -0.30196480462E+01 -0.99877469880E+01 -0.52516035512E+01  0.11681297203E+02  0.51100000000E-03 0. -1.
        -11    1    4    4    0    0  0.94411354135E+01  0.10838511515E+02 -0.45956071300E+01  0.15090658531E+02  0.51100000000E-03 0.  1.
        -12    1    4    4    0    0  0.24644007422E+02  0.10804836853E+02 -0.61171708201E+01  0.27595133268E+02  0.00000000000E+00 0.  1.
</event>
<event>
 8    1  0.1278459E-006  0.9118800E+02  0.7816164E-02  0.1184000E+00
        -11   -1    0    0    0    0  0.00000000000E+00  0.00000000000E+00  0.45593999997E+02  0.45594000000E+02  0.51100000000E-03 0. -1.
         11   -1    0    0    0    0 -0.00000000000E+00 -0.00000000000E+00 -0.45593999997E+02  0.45594000000E+02  0.51100000000E-03 0.  1.
         23    2    1    2    0    0 -0.88817841970E-15  0.00000000000E+00  0.00000000000E+00  0.91188000000E+02  0.91188000000E+02 0.  0.
    9900012    2    3    3    0    0  0.61799386325E+01  0.10345873694E+02  0.34792979221E+02  0.54367080035E+02  0.39999990555E+02 0.  0.
        -12    1    3    3    0    0 -0.61799386325E+01 -0.10345873694E+02 -0.34792979221E+02  0.36820919965E+02  0.00000000000E+00 0.  1.
         11    1    4    4    0    0 -0.32985181727E+01  0.11904860614E+02  0.97279510709E+01  0.15723834160E+02  0.51100000000E-03 0. -1.
        -11    1    4    4    0    0 -0.39976634192E+01 -0.49922363994E+01  0.23839812537E+02  0.24682795610E+02  0.51100000000E-03 0.  1.
         12    1    4    4    0    0  0.13476120224E+02  0.34332494792E+01  0.12252156137E+01  0.13960450265E+02  0.00000000000E+00 0. -1.
</event>
<event>
 8    1  0.1278459E-006  0.9118800E+02  0.7816164E-02  0.1184000E+00
        -11   -1    0    0    0    0  0.00000000000E+00  0.00000000000E+00  0.45593999997E+02  0.45594000000E+02  0.51100000000E-03 0. -1.
         11   -1    0    0    0    0 -0.00000000000E+00 -0.00000000000E+00 -0.45593999997E+02  0.45594000000E+02  0.51100000000E-03 0.  1.
         23    2    1    2    0    0  0.13322676296E-14  0.00000000000E+00  0.00000000000E+00  0.91188000000E+02  0.91188000000E+02 0.  0.
    9900012    2    3    3    0    0  0.19870358659E+01 -0.15049605385E+02  0.33546094287E+02  0.54367090510E+02  0.40000014435E+02 0.  0.
        -12    1    3    3    0    0 -0.19870358659E+01  0.15049605385E+02 -0.33546094287E+02  0.36820909490E+02  0.00000000000E+00 0.  1.
         11    1    4    4    0    0 -0.10856230276E+02 -0.19060061789E+02  0.27691123498E+02  0.35326222726E+02  0.51100000000E-03 0. -1.
        -11    1    4    4    0    0  0.54633673891E+00  0.20682447161E+01  0.62287931043E+01  0.65858927896E+01  0.51100000000E-03 0.  1.
         12    1    4    4    0    0  0.12296929403E+02  0.19422116882E+01 -0.37382231532E+00  0.12454974994E+02  0.00000000000E+00 0. -1.
</event>
<event>
 8    1  0.1278459E-006  0.9118800E+02  0.7816164E-02  0.1184000E+00
        -11   -1    0    0    0    0  0.00000000000E+00  0.00000000000E+00  0.45593999997E+02  0.45594000000E+02  0.51100000000E-03 0. -1.
         11   -1    0    0    0    0 -0.00000000000E+00 -0.00000000000E+00 -0.45593999997E+02  0.45594000000E+02  0.51100000000E-03 0.  1.
         23    2    1    2    0    0  0.88817841970E-15  0.00000000000E+00  0.00000000000E+00  0.91188000000E+02  0.91188000000E+02 0.  0.
    9900012    2    3    3    0    0 -0.76288633189E+01  0.35219052867E+02  0.75626350309E+01  0.54367154152E+02  0.40000159519E+02 0.  0.
        -12    1    3    3    0    0  0.76288633189E+01 -0.35219052867E+02 -0.75626350309E+01  0.36820845848E+02  0.00000000000E+00 0.  1.
         11    1    4    4    0    0 -0.20410559428E+02  0.23137722678E+02  0.66469645262E+01  0.31561484195E+02  0.51100000000E-03 0. -1.
        -11    1    4    4    0    0  0.62908370625E+01  0.89615748327E+01 -0.62824015477E+01  0.12623510760E+02  0.51100000000E-03 0.  1.
         12    1    4    4    0    0  0.64908590469E+01  0.31197553560E+01  0.71980720524E+01  0.10182159197E+02  0.00000000000E+00 0. -1.
</event>
<event>
 8    1  0.1278459E-006  0.9118800E+02  0.7816164E-02  0.1184000E+00
        -11   -1    0    0    0    0  0.00000000000E+00  0.00000000000E+00  0.45593999997E+02  0.45594000000E+02  0.51100000000E-03 0. -1.
         11   -1    0    0    0    0 -0.00000000000E+00 -0.00000000000E+00 -0.45593999997E+02  0.45594000000E+02  0.51100000000E-03 0.  1.
         23    2    1    2    0    0  0.00000000000E+00  0.00000000000E+00  0.35527136788E-14  0.91188000000E+02  0.91188000000E+02 0.  0.
    9900012    2    3    3    0    0  0.16898678441E+02 -0.17730185793E+02 -0.27492814395E+02  0.54367086586E+02  0.40000005490E+02 0.  0.
         12    1    3    3    0    0 -0.16898678441E+02  0.17730185793E+02  0.27492814395E+02  0.36820913414E+02  0.00000000000E+00 0. -1.
         11    1    4    4    0    0  0.80559987136E+00 -0.90747188040E+01  0.20949924072E+01  0.93481819608E+01  0.51100000000E-03 0. -1.
        -11    1    4    4    0    0 -0.54448748899E+01 -0.86933945562E+01 -0.17595799184E+02  0.20367472123E+02  0.51100000000E-03 0.  1.
        -12    1    4    4    0    0  0.21537953459E+02  0.37927566706E-01 -0.11992007618E+02  0.24651432502E+02  0.00000000000E+00 0.  1.
</event>
<event>
 8    1  0.1278459E-006  0.9118800E+02  0.7816164E-02  0.1184000E+00
        -11   -1    0    0    0    0  0.00000000000E+00  0.00000000000E+00  0.45593999997E+02  0.45594000000E+02  0.51100000000E-03 0.  1.
         11   -1    0    0    0    0 -0.00000000000E+00 -0.00000000000E+00 -0.45593999997E+02  0.45594000000E+02  0.51100000000E-03 0. -1.
         23    2    1    2    0    0 -0.35527136788E-14  0.88817841970E-15  0.35527136788E-14  0.91188000000E+02  0.91188000000E+02 0.  0.
    9900012    2    3    3    0    0 -0.17973349442E+02  0.52733727673E+01  0.31700633083E+02  0.54367083548E+02  0.39999998565E+02 0.  0.
         12    1    3    3    0    0  0.17973349442E+02 -0.52733727673E+01 -0.31700633083E+02  0.36820916452E+02  0.00000000000E+00 0. -1.
         11    1    4    4    0    0 -0.69239413067E+01  0.12737218670E+02 -0.38219883548E+01  0.14992841556E+02  0.51100000000E-03 0. -1.
        -11    1    4    4    0    0 -0.18228707250E+01 -0.13584223518E+00  0.18961454391E+02  0.19049358615E+02  0.51100000000E-03 0.  1.
         12    1    4    4    0    0 -0.92265374109E+01 -0.73280036674E+01  0.16561167047E+02  0.20324883377E+02  0.00000000000E+00 0. -1.
</event>
<event>
 8    1  0.1278459E-006  0.9118800E+02  0.7816164E-02  0.1184000E+00
        -11   -1    0    0    0    0  0.00000000000E+00  0.00000000000E+00  0.45593999997E+02  0.45594000000E+02  0.51100000000E-03 0. -1.
         11   -1    0    0    0    0 -0.00000000000E+00 -0.00000000000E+00 -0.45593999997E+02  0.45594000000E+02  0.51100000000E-03 0.  1.
         23    2    1    2    0    0  0.17763568394E-14 -0.35527136788E-14  0.00000000000E+00  0.91188000000E+02  0.91188000000E+02 0.  0.
    9900012    2    3    3    0    0  0.78966116340E+01  0.24904971716E+02 -0.25945441865E+02  0.54367081421E+02  0.39999993715E+02 0.  0.
         12    1    3    3    0    0 -0.78966116340E+01 -0.24904971716E+02  0.25945441865E+02  0.36820918579E+02  0.00000000000E+00 0. -1.
         11    1    4    4    0    0  0.26955165551E+01  0.24923583240E+00 -0.68488733299E+01  0.73644411973E+01  0.51100000000E-03 0. -1.
        -11    1    4    4    0    0  0.53770753480E+01  0.30263170113E+02 -0.24428988310E+02  0.39262550537E+02  0.51100000000E-03 0.  1.
         12    1    4    4    0    0 -0.17598026902E+00 -0.56074342299E+01  0.53324197750E+01  0.77400896865E+01  0.00000000000E+00 0. -1.
</event>
<event>
 8    1  0.1278459E-006  0.9118800E+02  0.7816164E-02  0.1184000E+00
        -11   -1    0    0    0    0  0.00000000000E+00  0.00000000000E+00  0.45593999997E+02  0.45594000000E+02  0.51100000000E-03 0. -1.
         11   -1    0    0    0    0 -0.00000000000E+00 -0.00000000000E+00 -0.45593999997E+02  0.45594000000E+02  0.51100000000E-03 0.  1.
         23    2    1    2    0    0  0.35527136788E-14 -0.35527136788E-14 -0.66613381478E-15  0.91188000000E+02  0.91188000000E+02 0.  0.
    9900012    2    3    3    0    0 -0.20732793311E+02  0.30374343366E+02  0.18249193169E+01  0.54367084967E+02  0.40000001799E+02 0.  0.
        -12    1    3    3    0    0  0.20732793311E+02 -0.30374343366E+02 -0.18249193169E+01  0.36820915033E+02  0.00000000000E+00 0.  1.
         11    1    4    4    0    0 -0.14454018151E+02  0.50717358428E+00 -0.50461529116E+01  0.15317947814E+02  0.51100000000E-03 0. -1.
        -11    1    4    4    0    0 -0.72043214812E+01  0.10272642150E+02 -0.76029628158E+01  0.14670871433E+02  0.51100000000E-03 0.  1.
         12    1    4    4    0    0  0.92554632158E+00  0.19594527631E+02  0.14474035044E+02  0.24378265721E+02  0.00000000000E+00 0. -1.
</event>
<event>
 8    1  0.1278459E-006  0.9118800E+02  0.7816164E-02  0.1184000E+00
        -11   -1    0    0    0    0  0.00000000000E+00  0.00000000000E+00  0.45593999997E+02  0.45594000000E+02  0.51100000000E-03 0.  1.
         11   -1    0    0    0    0 -0.00000000000E+00 -0.00000000000E+00 -0.45593999997E+02  0.45594000000E+02  0.51100000000E-03 0. -1.
         23    2    1    2    0    0  0.17763568394E-14  0.00000000000E+00  0.00000000000E+00  0.91188000000E+02  0.91188000000E+02 0.  0.
    9900012    2    3    3    0    0  0.90033749310E+01 -0.10970799706E+02  0.33975880943E+02  0.54367086212E+02  0.40000004637E+02 0.  0.
         12    1    3    3    0    0 -0.90033749310E+01  0.10970799706E+02 -0.33975880943E+02  0.36820913788E+02  0.00000000000E+00 0. -1.
         11    1    4    4    0    0  0.11984291916E+02 -0.49161291911E+01  0.18771908499E+02  0.22807370035E+02  0.51100000000E-03 0. -1.
        -11    1    4    4    0    0 -0.49225197461E+01 -0.98693368277E+01  0.21373221285E+02  0.24050979158E+02  0.51100000000E-03 0.  1.
         12    1    4    4    0    0  0.19416027612E+01  0.38146663130E+01 -0.61692488410E+01  0.75087370193E+01  0.00000000000E+00 0. -1.
</event>
<event>
 8    1  0.1278459E-006  0.9118800E+02  0.7816164E-02  0.1184000E+00
        -11   -1    0    0    0    0  0.00000000000E+00  0.00000000000E+00  0.45593999997E+02  0.45594000000E+02  0.51100000000E-03 0.  1.
         11   -1    0    0    0    0 -0.00000000000E+00 -0.00000000000E+00 -0.45593999997E+02  0.45594000000E+02  0.51100000000E-03 0. -1.
         23    2    1    2    0    0  0.00000000000E+00 -0.17763568394E-14  0.35527136788E-14  0.91188000000E+02  0.91188000000E+02 0.  0.
    9900012    2    3    3    0    0  0.32496031911E+02 -0.63160593206E+01 -0.16121261866E+02  0.54367085027E+02  0.40000001937E+02 0.  0.
        -12    1    3    3    0    0 -0.32496031911E+02  0.63160593206E+01  0.16121261866E+02  0.36820914973E+02  0.00000000000E+00 0.  1.
         11    1    4    4    0    0  0.11242650527E+02 -0.29859879852E+01  0.42415777573E+01  0.12381611254E+02  0.51100000000E-03 0. -1.
        -11    1    4    4    0    0  0.11984893330E+02 -0.12411087769E+02  0.67664576112E+00  0.17266459321E+02  0.51100000000E-03 0.  1.
        -12    1    4    4    0    0  0.92684880544E+01  0.90810164335E+01 -0.21039485384E+02  0.24719014452E+02  0.00000000000E+00 0.  1.
</event>
<event>
 8    1  0.1278459E-006  0.9118800E+02  0.7816164E-02  0.1184000E+00
        -11   -1    0    0    0    0  0.00000000000E+00  0.00000000000E+00  0.45593999997E+02  0.45594000000E+02  0.51100000000E-03 0. -1.
         11   -1    0    0    0    0 -0.00000000000E+00 -0.00000000000E+00 -0.45593999997E+02  0.45594000000E+02  0.51100000000E-03 0.  1.
         23    2    1    2    0    0  0.00000000000E+00  0.88817841970E-15  0.35527136788E-14  0.91188000000E+02  0.91188000000E+02 0.  0.
    9900012    2    3    3    0    0  0.18073945224E+02 -0.62015805447E+01  0.31474629953E+02  0.54367089801E+02  0.40000012820E+02 0.  0.
        -12    1    3    3    0    0 -0.18073945224E+02  0.62015805447E+01 -0.31474629953E+02  0.36820910199E+02  0.00000000000E+00 0.  1.
         11    1    4    4    0    0  0.52330018133E+01  0.77244009830E+01  0.27623591246E+02  0.29156705440E+02  0.51100000000E-03 0. -1.
        -11    1    4    4    0    0 -0.97210014034E+00 -0.61971551701E+01 -0.41033176363E+01  0.74957939386E+01  0.51100000000E-03 0.  1.
         12    1    4    4    0    0  0.13813043551E+02 -0.77288263576E+01  0.79543563430E+01  0.17714590422E+02  0.00000000000E+00 0. -1.
</event>
<event>
 8    1  0.1278459E-006  0.9118800E+02  0.7816164E-02  0.1184000E+00
        -11   -1    0    0    0    0  0.00000000000E+00  0.00000000000E+00  0.45593999997E+02  0.45594000000E+02  0.51100000000E-03 0.  1.
         11   -1    0    0    0    0 -0.00000000000E+00 -0.00000000000E+00 -0.45593999997E+02  0.45594000000E+02  0.51100000000E-03 0. -1.
         23    2    1    2    0    0  0.00000000000E+00  0.00000000000E+00  0.00000000000E+00  0.91188000000E+02  0.91188000000E+02 0.  0.
    9900012    2    3    3    0    0 -0.22082310104E+02 -0.27380639731E+02  0.10883591788E+02  0.54367076304E+02  0.39999982051E+02 0.  0.
         12    1    3    3    0    0  0.22082310104E+02  0.27380639731E+02 -0.10883591788E+02  0.36820923696E+02  0.00000000000E+00 0. -1.
         11    1    4    4    0    0 -0.14784608325E+02 -0.26437327841E+01 -0.66675608172E+01  0.16432599729E+02  0.51100000000E-03 0. -1.
        -11    1    4    4    0    0 -0.10330158759E+02 -0.26387482165E+02  0.19076188197E+02  0.34160098819E+02  0.51100000000E-03 0.  1.
         12    1    4    4    0    0  0.30324569802E+01  0.16505752179E+01 -0.15250355917E+01  0.37743777557E+01  0.00000000000E+00 0. -1.
</event>
<event>
 8    1  0.1278459E-006  0.9118800E+02  0.7816164E-02  0.1184000E+00
        -11   -1    0    0    0    0  0.00000000000E+00  0.00000000000E+00  0.45593999997E+02  0.45594000000E+02  0.51100000000E-03 0.  1.
         11   -1    0    0    0    0 -0.00000000000E+00 -0.00000000000E+00 -0.45593999997E+02  0.45594000000E+02  0.51100000000E-03 0. -1.
         23    2    1    2    0    0  0.35527136788E-14 -0.35527136788E-14 -0.35527136788E-14  0.91188000000E+02  0.91188000000E+02 0.  0.
    9900012    2    3    3    0    0 -0.18333434430E+02  0.22451657861E+02  0.22706549770E+02  0.54367093423E+02  0.40000021076E+02 0.  0.
         12    1    3    3    0    0  0.18333434430E+02 -0.22451657861E+02 -0.22706549770E+02  0.36820906577E+02  0.00000000000E+00 0. -1.
         11    1    4    4    0    0  0.37652743069E+01 -0.13542182575E+01  0.52875418566E+01  0.66309348392E+01  0.51100000000E-03 0.  1.
        -11    1    4    4    0    0  0.30849810683E+01  0.15522033376E+02  0.13764969724E+02  0.20974389624E+02  0.51100000000E-03 0. -1.
         12    1    4    4    0    0 -0.25183689805E+02  0.82838427420E+01  0.36540381891E+01  0.26761768960E+02  0.00000000000E+00 0. -1.
</event>
<event>
 8    1  0.1278459E-006  0.9118800E+02  0.7816164E-02  0.1184000E+00
        -11   -1    0    0    0    0  0.00000000000E+00  0.00000000000E+00  0.45593999997E+02  0.45594000000E+02  0.51100000000E-03 0. -1.
         11   -1    0    0    0    0 -0.00000000000E+00 -0.00000000000E+00 -0.45593999997E+02  0.45594000000E+02  0.51100000000E-03 0.  1.
         23    2    1    2    0    0  0.00000000000E+00  0.00000000000E+00  0.00000000000E+00  0.91188000000E+02  0.91188000000E+02 0.  0.
    9900012    2    3    3    0    0  0.26274241238E+02  0.24509879046E+02 -0.80441930919E+01  0.54367096073E+02  0.40000027118E+02 0.  0.
        -12    1    3    3    0    0 -0.26274241238E+02 -0.24509879046E+02  0.80441930919E+01  0.36820903927E+02  0.00000000000E+00 0.  1.
         11    1    4    4    0    0  0.14094247305E+01  0.82260561715E+01 -0.94706197012E+01  0.12623276753E+02  0.51100000000E-03 0. -1.
        -11    1    4    4    0    0  0.22780663980E+02  0.19138484511E+02 -0.87158354353E+01  0.31003322860E+02  0.51100000000E-03 0.  1.
         12    1    4    4    0    0  0.20841525268E+01 -0.28546616364E+01  0.10142262045E+02  0.10740496459E+02  0.00000000000E+00 0. -1.
</event>
<event>
 8    1  0.1278459E-006  0.9118800E+02  0.7816164E-02  0.1184000E+00
        -11   -1    0    0    0    0  0.00000000000E+00  0.00000000000E+00  0.45593999997E+02  0.45594000000E+02  0.51100000000E-03 0.  1.
         11   -1    0    0    0    0 -0.00000000000E+00 -0.00000000000E+00 -0.45593999997E+02  0.45594000000E+02  0.51100000000E-03 0. -1.
         23    2    1    2    0    0  0.17763568394E-14  0.88817841970E-15  0.00000000000E+00  0.91188000000E+02  0.91188000000E+02 0.  0.
    9900012    2    3    3    0    0 -0.14979030797E+02 -0.41202693772E+01  0.33383112315E+02  0.54367079708E+02  0.39999989809E+02 0.  0.
         12    1    3    3    0    0  0.14979030797E+02  0.41202693772E+01 -0.33383112315E+02  0.36820920292E+02  0.00000000000E+00 0. -1.
         11    1    4    4    0    0  0.66566301110E+01  0.50337986380E+01  0.75000788723E+01  0.11220563110E+02  0.51100000000E-03 0. -1.
        -11    1    4    4    0    0 -0.26243543317E+02 -0.11300745992E+02  0.25042369810E+02  0.37994087853E+02  0.51100000000E-03 0.  1.
        -12    1    4    4    0    0  0.46078824085E+01  0.21466779765E+01  0.84066363225E+00  0.51524287445E+01  0.00000000000E+00 0.  1.
</event>
<event>
 8    1  0.1278459E-006  0.9118800E+02  0.7816164E-02  0.1184000E+00
        -11   -1    0    0    0    0  0.00000000000E+00  0.00000000000E+00  0.45593999997E+02  0.45594000000E+02  0.51100000000E-03 0.  1.
         11   -1    0    0    0    0 -0.00000000000E+00 -0.00000000000E+00 -0.45593999997E+02  0.45594000000E+02  0.51100000000E-03 0. -1.
         23    2    1    2    0    0 -0.88817841970E-15  0.00000000000E+00  0.00000000000E+00  0.91188000000E+02  0.91188000000E+02 0.  0.
    9900012    2    3    3    0    0 -0.34469744193E+01 -0.34550573543E+02 -0.12253844735E+02  0.54367075574E+02  0.39999980385E+02 0.  0.
        -12    1    3    3    0    0  0.34469744193E+01  0.34550573543E+02  0.12253844735E+02  0.36820924426E+02  0.00000000000E+00 0.  1.
         11    1    4    4    0    0 -0.84023952477E+01 -0.17643152757E+02 -0.15280965126E+02  0.24807034900E+02  0.51100000000E-03 0. -1.
        -11    1    4    4    0    0  0.89149716615E+00  0.38383415703E+01  0.70160841540E+01  0.80469292482E+01  0.51100000000E-03 0.  1.
         12    1    4    4    0    0  0.40639236622E+01 -0.20745762357E+02 -0.39889637635E+01  0.21513111425E+02  0.00000000000E+00 0. -1.
</event>
<event>
 8    1  0.1278459E-006  0.9118800E+02  0.7816164E-02  0.1184000E+00
        -11   -1    0    0    0    0  0.00000000000E+00  0.00000000000E+00  0.45593999997E+02  0.45594000000E+02  0.51100000000E-03 0.  1.
         11   -1    0    0    0    0 -0.00000000000E+00 -0.00000000000E+00 -0.45593999997E+02  0.45594000000E+02  0.51100000000E-03 0. -1.
         23    2    1    2    0    0  0.71054273576E-14 -0.13322676296E-14 -0.17763568394E-14  0.91188000000E+02  0.91188000000E+02 0.  0.
    9900012    2    3    3    0    0  0.34144269028E+02  0.39532199683E+01 -0.13203104633E+02  0.54367068079E+02  0.39999963300E+02 0.  0.
        -12    1    3    3    0    0 -0.34144269028E+02 -0.39532199683E+01  0.13203104633E+02  0.36820931921E+02  0.00000000000E+00 0.  1.
         11    1    4    4    0    0  0.20621532651E+01 -0.70697820320E+00 -0.82338698076E+01  0.85175645896E+01  0.51100000000E-03 0. -1.
        -11    1    4    4    0    0  0.25191593263E+02 -0.11379255122E+02 -0.62686528943E+01  0.28344308558E+02  0.51100000000E-03 0.  1.
         12    1    4    4    0    0  0.68905225001E+01  0.16039453294E+02  0.12994180692E+01  0.17505194932E+02  0.00000000000E+00 0. -1.
</event>
<event>
 8    1  0.1278459E-006  0.9118800E+02  0.7816164E-02  0.1184000E+00
        -11   -1    0    0    0    0  0.00000000000E+00  0.00000000000E+00  0.45593999997E+02  0.45594000000E+02  0.51100000000E-03 0. -1.
         11   -1    0    0    0    0 -0.00000000000E+00 -0.00000000000E+00 -0.45593999997E+02  0.45594000000E+02  0.51100000000E-03 0.  1.
         23    2    1    2    0    0  0.00000000000E+00  0.00000000000E+00 -0.35527136788E-14  0.91188000000E+02  0.91188000000E+02 0.  0.
    9900012    2    3    3    0    0  0.25706740436E+02 -0.14764351140E+02 -0.21839517133E+02  0.54366985931E+02  0.39999776027E+02 0.  0.
         12    1    3    3    0    0 -0.25706740436E+02  0.14764351140E+02  0.21839517133E+02  0.36821014069E+02  0.00000000000E+00 0. -1.
         11    1    4    4    0    0 -0.37112391482E+01  0.82700793514E+01 -0.77170973252E+00  0.90974196707E+01  0.51100000000E-03 0. -1.
        -11    1    4    4    0    0  0.39920636689E+01 -0.82938652025E+01 -0.10677137904E+02  0.14097022608E+02  0.51100000000E-03 0.  1.
         12    1    4    4    0    0  0.25425915916E+02 -0.14740565289E+02 -0.10390669497E+02  0.31172543653E+02  0.00000000000E+00 0. -1.
</event>
<event>
 8    1  0.1278459E-006  0.9118800E+02  0.7816164E-02  0.1184000E+00
        -11   -1    0    0    0    0  0.00000000000E+00  0.00000000000E+00  0.45593999997E+02  0.45594000000E+02  0.51100000000E-03 0.  1.
         11   -1    0    0    0    0 -0.00000000000E+00 -0.00000000000E+00 -0.45593999997E+02  0.45594000000E+02  0.51100000000E-03 0. -1.
         23    2    1    2    0    0 -0.17763568394E-14  0.00000000000E+00  0.00000000000E+00  0.91188000000E+02  0.91188000000E+02 0.  0.
    9900012    2    3    3    0    0  0.70220934981E+01  0.80226993342E+01  0.35243568140E+02  0.54367046768E+02  0.39999914717E+02 0.  0.
         12    1    3    3    0    0 -0.70220934981E+01 -0.80226993342E+01 -0.35243568140E+02  0.36820953232E+02  0.00000000000E+00 0. -1.
         11    1    4    4    0    0 -0.52087474554E+01  0.46624877194E+01  0.17219259029E+02  0.18584206293E+02  0.51100000000E-03 0. -1.
        -11    1    4    4    0    0 -0.24205681077E+01 -0.78420887134E+01  0.14992672046E+02  0.17092036762E+02  0.51100000000E-03 0.  1.
         12    1    4    4    0    0  0.14651409061E+02  0.11202300328E+02  0.30316370650E+01  0.18690803712E+02  0.00000000000E+00 0. -1.
</event>
<event>
 8    1  0.1278459E-006  0.9118800E+02  0.7816164E-02  0.1184000E+00
        -11   -1    0    0    0    0  0.00000000000E+00  0.00000000000E+00  0.45593999997E+02  0.45594000000E+02  0.51100000000E-03 0.  1.
         11   -1    0    0    0    0 -0.00000000000E+00 -0.00000000000E+00 -0.45593999997E+02  0.45594000000E+02  0.51100000000E-03 0. -1.
         23    2    1    2    0    0  0.00000000000E+00 -0.35527136788E-14  0.00000000000E+00  0.91188000000E+02  0.91188000000E+02 0.  0.
    9900012    2    3    3    0    0 -0.25202884232E+02  0.26831003143E+02 -0.83086339489E+00  0.54367103253E+02  0.40000043486E+02 0.  0.
        -12    1    3    3    0    0  0.25202884232E+02 -0.26831003143E+02  0.83086339489E+00  0.36820896747E+02  0.00000000000E+00 0.  1.
         11    1    4    4    0    0 -0.17902736725E+02  0.68659291945E+01  0.10022555232E+02  0.21635632174E+02  0.51100000000E-03 0. -1.
        -11    1    4    4    0    0 -0.13796437129E+02  0.90460768361E+01 -0.11336001072E+02  0.20016945425E+02  0.51100000000E-03 0.  1.
        -12    1    4    4    0    0  0.64962896217E+01  0.10918997112E+02  0.48258244494E+00  0.12714525654E+02  0.00000000000E+00 0.  1.
</event>
<event>
 8    1  0.1278459E-006  0.9118800E+02  0.7816164E-02  0.1184000E+00
        -11   -1    0    0    0    0  0.00000000000E+00  0.00000000000E+00  0.45593999997E+02  0.45594000000E+02  0.51100000000E-03 0. -1.
         11   -1    0    0    0    0 -0.00000000000E+00 -0.00000000000E+00 -0.45593999997E+02  0.45594000000E+02  0.51100000000E-03 0.  1.
         23    2    1    2    0    0  0.00000000000E+00  0.00000000000E+00  0.00000000000E+00  0.91188000000E+02  0.91188000000E+02 0.  0.
    9900012    2    3    3    0    0 -0.15485504668E+02  0.62907793439E+01  0.32808630678E+02  0.54367068364E+02  0.39999963949E+02 0.  0.
        -12    1    3    3    0    0  0.15485504668E+02 -0.62907793439E+01 -0.32808630678E+02  0.36820931636E+02  0.00000000000E+00 0.  1.
         11    1    4    4    0    0 -0.10122664008E+02  0.42608289985E+01  0.23473037839E+02  0.25915371809E+02  0.51100000000E-03 0. -1.
        -11    1    4    4    0    0 -0.45011661496E+01  0.61652187830E+01  0.17592384540E+02  0.19177132565E+02  0.51100000000E-03 0.  1.
        -12    1    4    4    0    0 -0.86167450985E+00 -0.41352684376E+01 -0.82567917005E+01  0.92745639896E+01  0.00000000000E+00 0.  1.
</event>
<event>
 8    1  0.1278459E-006  0.9118800E+02  0.7816164E-02  0.1184000E+00
        -11   -1    0    0    0    0  0.00000000000E+00  0.00000000000E+00  0.45593999997E+02  0.45594000000E+02  0.51100000000E-03 0.  1.
         11   -1    0    0    0    0 -0.00000000000E+00 -0.00000000000E+00 -0.45593999997E+02  0.45594000000E+02  0.51100000000E-03 0. -1.
         23    2    1    2    0    0 -0.26645352591E-14  0.00000000000E+00  0.35527136788E-14  0.91188000000E+02  0.91188000000E+02 0.  0.
    9900012    2    3    3    0    0 -0.22415676203E+01  0.27047035900E+02  0.24884030043E+02  0.54367058573E+02  0.39999941629E+02 0.  0.
         12    1    3    3    0    0  0.22415676203E+01 -0.27047035900E+02 -0.24884030043E+02  0.36820941427E+02  0.00000000000E+00 0. -1.
         11    1    4    4    0    0  0.73290027008E+01  0.72520417933E+01  0.13580287228E+02  0.17050823799E+02  0.51100000000E-03 0. -1.
        -11    1    4    4    0    0 -0.44668428762E+01 -0.44990168900E+01  0.10756551921E+02  0.12485881937E+02  0.51100000000E-03 0.  1.
         12    1    4    4    0    0 -0.51037274450E+01  0.24294010997E+02  0.54719089376E+00  0.24830352838E+02  0.00000000000E+00 0. -1.
</event>
<event>
 8    1  0.1278459E-006  0.9118800E+02  0.7816164E-02  0.1184000E+00
        -11   -1    0    0    0    0  0.00000000000E+00  0.00000000000E+00  0.45593999997E+02  0.45594000000E+02  0.51100000000E-03 0.  1.
         11   -1    0    0    0    0 -0.00000000000E+00 -0.00000000000E+00 -0.45593999997E+02  0.45594000000E+02  0.51100000000E-03 0. -1.
         23    2    1    2    0    0 -0.17763568394E-14  0.00000000000E+00  0.00000000000E+00  0.91188000000E+02  0.91188000000E+02 0.  0.
    9900012    2    3    3    0    0  0.87620416026E+01  0.51699900111E+01  0.35387542376E+02  0.54367077616E+02  0.39999985042E+02 0.  0.
         12    1    3    3    0    0 -0.87620416026E+01 -0.51699900111E+01 -0.35387542376E+02  0.36820922384E+02  0.00000000000E+00 0. -1.
         11    1    4    4    0    0 -0.44262467935E+01  0.29896931690E+01 -0.66528229117E+01  0.85317043360E+01  0.51100000000E-03 0. -1.
        -11    1    4    4    0    0  0.50976339110E+01 -0.50599405434E+01  0.20330769757E+02  0.21562213916E+02  0.51100000000E-03 0.  1.
         12    1    4    4    0    0  0.80906544851E+01  0.72402373854E+01  0.21709595531E+02  0.24273159364E+02  0.00000000000E+00 0. -1.
</event>
<event>
 8    1  0.1278459E-006  0.9118800E+02  0.7816164E-02  0.1184000E+00
        -11   -1    0    0    0    0  0.00000000000E+00  0.00000000000E+00  0.45593999997E+02  0.45594000000E+02  0.51100000000E-03 0.  1.
         11   -1    0    0    0    0 -0.00000000000E+00 -0.00000000000E+00 -0.45593999997E+02  0.45594000000E+02  0.51100000000E-03 0. -1.
         23    2    1    2    0    0  0.17763568394E-14 -0.35527136788E-14  0.00000000000E+00  0.91188000000E+02  0.91188000000E+02 0.  0.
    9900012    2    3    3    0    0  0.15868971669E+02 -0.28995317980E+02 -0.16224346918E+02  0.54367052707E+02  0.39999928257E+02 0.  0.
        -12    1    3    3    0    0 -0.15868971669E+02  0.28995317980E+02  0.16224346918E+02  0.36820947293E+02  0.00000000000E+00 0.  1.
         11    1    4    4    0    0 -0.27081426365E+01 -0.19748791775E+02 -0.22280777165E+02  0.29896184446E+02  0.51100000000E-03 0. -1.
        -11    1    4    4    0    0 -0.98726646717E+00 -0.23622318704E+01 -0.70632876699E+00  0.26558868716E+01  0.51100000000E-03 0.  1.
        -12    1    4    4    0    0  0.19564380773E+02 -0.68842943350E+01  0.67627590140E+01  0.21814981389E+02  0.00000000000E+00 0.  1.
</event>
<event>
 8    1  0.1278459E-006  0.9118800E+02  0.7816164E-02  0.1184000E+00
        -11   -1    0    0    0    0  0.00000000000E+00  0.00000000000E+00  0.45593999997E+02  0.45594000000E+02  0.51100000000E-03 0.  1.
         11   -1    0    0    0    0 -0.00000000000E+00 -0.00000000000E+00 -0.45593999997E+02  0.45594000000E+02  0.51100000000E-03 0. -1.
         23    2    1    2    0    0  0.00000000000E+00 -0.17763568394E-14  0.00000000000E+00  0.91188000000E+02  0.91188000000E+02 0.  0.
    9900012    2    3    3    0    0 -0.13431538179E+02 -0.93315082096E+01 -0.32989322064E+02  0.54367100588E+02  0.40000037410E+02 0.  0.
        -12    1    3    3    0    0  0.13431538179E+02  0.93315082096E+01  0.32989322064E+02  0.36820899412E+02  0.00000000000E+00 0.  1.
         11    1    4    4    0    0 -0.15250897028E+02  0.52959618456E+01 -0.31658117330E+02  0.35536931004E+02  0.51100000000E-03 0. -1.
        -11    1    4    4    0    0  0.34846501503E+01 -0.82266931788E+01  0.45083044445E+01  0.10007301162E+02  0.51100000000E-03 0.  1.
         12    1    4    4    0    0 -0.16652913013E+01 -0.64007768764E+01 -0.58395091778E+01  0.88228684212E+01  0.00000000000E+00 0. -1.
</event>
<event>
 8    1  0.1278459E-006  0.9118800E+02  0.7816164E-02  0.1184000E+00
        -11   -1    0    0    0    0  0.00000000000E+00  0.00000000000E+00  0.45593999997E+02  0.45594000000E+02  0.51100000000E-03 0.  1.
         11   -1    0    0    0    0 -0.00000000000E+00 -0.00000000000E+00 -0.45593999997E+02  0.45594000000E+02  0.51100000000E-03 0. -1.
         23    2    1    2    0    0  0.17763568394E-14  0.00000000000E+00  0.17763568394E-14  0.91188000000E+02  0.91188000000E+02 0.  0.
    9900012    2    3    3    0    0 -0.81594368470E+01 -0.32830536820E+02  0.14538190358E+02  0.54367088327E+02  0.40000009460E+02 0.  0.
         12    1    3    3    0    0  0.81594368470E+01  0.32830536820E+02 -0.14538190358E+02  0.36820911673E+02  0.00000000000E+00 0. -1.
         11    1    4    4    0    0 -0.88916793144E+00 -0.13841423132E+02 -0.43074115597E+01  0.14523408985E+02  0.51100000000E-03 0. -1.
        -11    1    4    4    0    0  0.33163705814E+00 -0.25225007620E+02  0.14460608310E+02  0.29077829793E+02  0.51100000000E-03 0.  1.
         12    1    4    4    0    0 -0.76019059737E+01  0.62358939325E+01  0.43849936079E+01  0.10765849549E+02  0.00000000000E+00 0. -1.
</event>
<event>
 8    1  0.1278459E-006  0.9118800E+02  0.7816164E-02  0.1184000E+00
        -11   -1    0    0    0    0  0.00000000000E+00  0.00000000000E+00  0.45593999997E+02  0.45594000000E+02  0.51100000000E-03 0.  1.
         11   -1    0    0    0    0 -0.00000000000E+00 -0.00000000000E+00 -0.45593999997E+02  0.45594000000E+02  0.51100000000E-03 0. -1.
         23    2    1    2    0    0 -0.35527136788E-14  0.00000000000E+00  0.35527136788E-14  0.91188000000E+02  0.91188000000E+02 0.  0.
    9900012    2    3    3    0    0  0.21904544399E+02 -0.20471335859E+02 -0.21375163309E+02  0.54367051293E+02  0.39999925033E+02 0.  0.
        -12    1    3    3    0    0 -0.21904544399E+02  0.20471335859E+02  0.21375163309E+02  0.36820948707E+02  0.00000000000E+00 0.  1.
         11    1    4    4    0    0 -0.51404899738E+01 -0.94082452969E+01 -0.89811181454E+00  0.10758546455E+02  0.51100000000E-03 0.  1.
        -11    1    4    4    0    0  0.52482484568E+01  0.79538935523E+01 -0.41667033093E+01  0.10400478414E+02  0.51100000000E-03 0. -1.
        -12    1    4    4    0    0  0.21796785916E+02 -0.19016984114E+02 -0.16310348185E+02  0.33208026424E+02  0.00000000000E+00 0.  1.
</event>
<event>
 8    1  0.1278459E-006  0.9118800E+02  0.7816164E-02  0.1184000E+00
        -11   -1    0    0    0    0  0.00000000000E+00  0.00000000000E+00  0.45593999997E+02  0.45594000000E+02  0.51100000000E-03 0. -1.
         11   -1    0    0    0    0 -0.00000000000E+00 -0.00000000000E+00 -0.45593999997E+02  0.45594000000E+02  0.51100000000E-03 0.  1.
         23    2    1    2    0    0 -0.35527136788E-14  0.00000000000E+00  0.00000000000E+00  0.91188000000E+02  0.91188000000E+02 0.  0.
    9900012    2    3    3    0    0 -0.25100361854E+02  0.17505257175E+02  0.20477277624E+02  0.54367067192E+02  0.39999961277E+02 0.  0.
        -12    1    3    3    0    0  0.25100361854E+02 -0.17505257175E+02 -0.20477277624E+02  0.36820932808E+02  0.00000000000E+00 0.  1.
         11    1    4    4    0    0 -0.17090898239E+02  0.20090601853E+02  0.20295101638E+02  0.33280959064E+02  0.51100000000E-03 0. -1.
        -11    1    4    4    0    0 -0.13198198357E+01 -0.93295073510E+01 -0.45613219115E+01  0.10468394798E+02  0.51100000000E-03 0.  1.
        -12    1    4    4    0    0 -0.66896437791E+01  0.67441626735E+01  0.47434978969E+01  0.10617713330E+02  0.00000000000E+00 0.  1.
</event>
<event>
 8    1  0.1278459E-006  0.9118800E+02  0.7816164E-02  0.1184000E+00
        -11   -1    0    0    0    0  0.00000000000E+00  0.00000000000E+00  0.45593999997E+02  0.45594000000E+02  0.51100000000E-03 0.  1.
         11   -1    0    0    0    0 -0.00000000000E+00 -0.00000000000E+00 -0.45593999997E+02  0.45594000000E+02  0.51100000000E-03 0. -1.
         23    2    1    2    0    0  0.00000000000E+00  0.00000000000E+00 -0.35527136788E-14  0.91188000000E+02  0.91188000000E+02 0.  0.
    9900012    2    3    3    0    0 -0.18301550769E+02 -0.29622197478E+02 -0.11973282983E+02  0.54367070498E+02  0.39999968815E+02 0.  0.
         12    1    3    3    0    0  0.18301550769E+02  0.29622197478E+02  0.11973282983E+02  0.36820929502E+02  0.00000000000E+00 0. -1.
         11    1    4    4    0    0 -0.13801749777E+02 -0.42914521598E+00 -0.81902966037E+01  0.16054700907E+02  0.51100000000E-03 0. -1.
        -11    1    4    4    0    0  0.47465659246E+01 -0.27708613476E+02  0.25683709466E+00  0.28113397419E+02  0.51100000000E-03 0.  1.
        -12    1    4    4    0    0 -0.92463669168E+01 -0.14844387858E+01 -0.40398234739E+01  0.10198972172E+02  0.00000000000E+00 0.  1.
</event>
<event>
 8    1  0.1278459E-006  0.9118800E+02  0.7816164E-02  0.1184000E+00
        -11   -1    0    0    0    0  0.00000000000E+00  0.00000000000E+00  0.45593999997E+02  0.45594000000E+02  0.51100000000E-03 0. -1.
         11   -1    0    0    0    0 -0.00000000000E+00 -0.00000000000E+00 -0.45593999997E+02  0.45594000000E+02  0.51100000000E-03 0.  1.
         23    2    1    2    0    0  0.00000000000E+00  0.35527136788E-14 -0.35527136788E-14  0.91188000000E+02  0.91188000000E+02 0.  0.
    9900012    2    3    3    0    0  0.85106704546E+01  0.25389580543E+02 -0.25272678591E+02  0.54367209746E+02  0.40000286257E+02 0.  0.
         12    1    3    3    0    0 -0.85106704546E+01 -0.25389580543E+02  0.25272678591E+02  0.36820790254E+02  0.00000000000E+00 0. -1.
         11    1    4    4    0    0  0.27276512722E+01  0.77695828281E+01 -0.13261273063E+02  0.15609864262E+02  0.51100000000E-03 0. -1.
        -11    1    4    4    0    0  0.11612340602E+02  0.51466071084E+01 -0.19356859120E+02  0.23152149236E+02  0.51100000000E-03 0.  1.
         12    1    4    4    0    0 -0.58293214197E+01  0.12473390607E+02  0.73454535920E+01  0.15605196247E+02  0.00000000000E+00 0. -1.
</event>
<event>
 8    1  0.1278459E-006  0.9118800E+02  0.7816164E-02  0.1184000E+00
        -11   -1    0    0    0    0  0.00000000000E+00  0.00000000000E+00  0.45593999997E+02  0.45594000000E+02  0.51100000000E-03 0. -1.
         11   -1    0    0    0    0 -0.00000000000E+00 -0.00000000000E+00 -0.45593999997E+02  0.45594000000E+02  0.51100000000E-03 0.  1.
         23    2    1    2    0    0  0.11102230246E-15  0.00000000000E+00 -0.35527136788E-14  0.91188000000E+02  0.91188000000E+02 0.  0.
    9900012    2    3    3    0    0 -0.27943274931E+00 -0.31388579658E+02 -0.19247318264E+02  0.54367078284E+02  0.39999986565E+02 0.  0.
         12    1    3    3    0    0  0.27943274931E+00  0.31388579658E+02  0.19247318264E+02  0.36820921716E+02  0.00000000000E+00 0. -1.
         11    1    4    4    0    0 -0.52285850855E+01 -0.28552740655E+02 -0.27151165319E+02  0.39746482604E+02  0.51100000000E-03 0. -1.
        -11    1    4    4    0    0  0.30828262346E+01 -0.11746873207E+01 -0.23604835192E+01  0.40565490998E+01  0.51100000000E-03 0.  1.
         12    1    4    4    0    0  0.18663261016E+01 -0.16611516825E+01  0.10264330574E+02  0.10564046581E+02  0.00000000000E+00 0. -1.
</event>
<event>
 8    1  0.1278459E-006  0.9118800E+02  0.7816164E-02  0.1184000E+00
        -11   -1    0    0    0    0  0.00000000000E+00  0.00000000000E+00  0.45593999997E+02  0.45594000000E+02  0.51100000000E-03 0.  1.
         11   -1    0    0    0    0 -0.00000000000E+00 -0.00000000000E+00 -0.45593999997E+02  0.45594000000E+02  0.51100000000E-03 0. -1.
         23    2    1    2    0    0  0.00000000000E+00  0.00000000000E+00 -0.17763568394E-14  0.91188000000E+02  0.91188000000E+02 0.  0.
    9900012    2    3    3    0    0  0.26716563484E+02 -0.22403849009E+02  0.11835256337E+02  0.54367075142E+02  0.39999979401E+02 0.  0.
        -12    1    3    3    0    0 -0.26716563484E+02  0.22403849009E+02 -0.11835256337E+02  0.36820924858E+02  0.00000000000E+00 0.  1.
         11    1    4    4    0    0 -0.38072342487E+01 -0.57719477838E+01 -0.51597192929E+01  0.86274629692E+01  0.51100000000E-03 0.  1.
        -11    1    4    4    0    0  0.10561861953E+02 -0.16407800382E+02 -0.13556035461E-01  0.19513303803E+02  0.51100000000E-03 0. -1.
        -12    1    4    4    0    0  0.19961935780E+02 -0.22410084297E+00  0.17008531666E+02  0.26226308370E+02  0.00000000000E+00 0.  1.
</event>
<event>
 8    1  0.1278459E-006  0.9118800E+02  0.7816164E-02  0.1184000E+00
        -11   -1    0    0    0    0  0.00000000000E+00  0.00000000000E+00  0.45593999997E+02  0.45594000000E+02  0.51100000000E-03 0.  1.
         11   -1    0    0    0    0 -0.00000000000E+00 -0.00000000000E+00 -0.45593999997E+02  0.45594000000E+02  0.51100000000E-03 0. -1.
         23    2    1    2    0    0  0.00000000000E+00  0.00000000000E+00 -0.35527136788E-14  0.91188000000E+02  0.91188000000E+02 0.  0.
    9900012    2    3    3    0    0 -0.28430005438E+02  0.86759711413E+01  0.21731094848E+02  0.54367106913E+02  0.40000051830E+02 0.  0.
         12    1    3    3    0    0  0.28430005438E+02 -0.86759711413E+01 -0.21731094848E+02  0.36820893087E+02  0.00000000000E+00 0. -1.
         11    1    4    4    0    0 -0.26434613060E+01  0.21883480261E+01  0.14120416678E+02  0.14531445977E+02  0.51100000000E-03 0. -1.
        -11    1    4    4    0    0 -0.10483610124E+02  0.45078989953E+01  0.17943624226E+02  0.21265015524E+02  0.51100000000E-03 0.  1.
         12    1    4    4    0    0 -0.15302934008E+02  0.19797241199E+01 -0.10332946057E+02  0.18570645413E+02  0.00000000000E+00 0. -1.
</event>
<event>
 8    1  0.1278459E-006  0.9118800E+02  0.7816164E-02  0.1184000E+00
        -11   -1    0    0    0    0  0.00000000000E+00  0.00000000000E+00  0.45593999997E+02  0.45594000000E+02  0.51100000000E-03 0.  1.
         11   -1    0    0    0    0 -0.00000000000E+00 -0.00000000000E+00 -0.45593999997E+02  0.45594000000E+02  0.51100000000E-03 0. -1.
         23    2    1    2    0    0 -0.22204460493E-15  0.71054273576E-14  0.26645352591E-14  0.91188000000E+02  0.91188000000E+02 0.  0.
    9900012    2    3    3    0    0 -0.17591811906E+01 -0.36290916609E+02  0.59711521619E+01  0.54367081965E+02  0.39999994955E+02 0.  0.
         12    1    3    3    0    0  0.17591811906E+01  0.36290916609E+02 -0.59711521619E+01  0.36820918035E+02  0.00000000000E+00 0. -1.
         11    1    4    4    0    0 -0.10740161443E+01  0.24528262003E+00 -0.31854299296E+01  0.33705546042E+01  0.51100000000E-03 0. -1.
        -11    1    4    4    0    0 -0.75329890321E+01 -0.30219882426E+01 -0.91238710845E+01  0.12211607614E+02  0.51100000000E-03 0.  1.
        -12    1    4    4    0    0  0.68478239858E+01 -0.33514210987E+02  0.18280453176E+02  0.38784919746E+02  0.00000000000E+00 0.  1.
</event>
<event>
 8    1  0.1278459E-006  0.9118800E+02  0.7816164E-02  0.1184000E+00
        -11   -1    0    0    0    0  0.00000000000E+00  0.00000000000E+00  0.45593999997E+02  0.45594000000E+02  0.51100000000E-03 0. -1.
         11   -1    0    0    0    0 -0.00000000000E+00 -0.00000000000E+00 -0.45593999997E+02  0.45594000000E+02  0.51100000000E-03 0.  1.
         23    2    1    2    0    0 -0.35527136788E-14 -0.11102230246E-15  0.35527136788E-14  0.91188000000E+02  0.91188000000E+02 0.  0.
    9900012    2    3    3    0    0  0.22392165129E+02 -0.77323393691E+00 -0.29219395826E+02  0.54367081457E+02  0.39999993798E+02 0.  0.
         12    1    3    3    0    0 -0.22392165129E+02  0.77323393691E+00  0.29219395826E+02  0.36820918543E+02  0.00000000000E+00 0. -1.
         11    1    4    4    0    0  0.14277195697E+02 -0.11648108811E+02 -0.21385295655E+02  0.28228489622E+02  0.51100000000E-03 0.  1.
        -11    1    4    4    0    0 -0.62235713704E+00  0.47994300425E+01  0.66131989524E+01  0.81948921764E+01  0.51100000000E-03 0. -1.
        -12    1    4    4    0    0  0.87373265690E+01  0.60754448312E+01 -0.14447299123E+02  0.17943699658E+02  0.00000000000E+00 0.  1.
</event>
<event>
 8    1  0.1278459E-006  0.9118800E+02  0.7816164E-02  0.1184000E+00
        -11   -1    0    0    0    0  0.00000000000E+00  0.00000000000E+00  0.45593999997E+02  0.45594000000E+02  0.51100000000E-03 0. -1.
         11   -1    0    0    0    0 -0.00000000000E+00 -0.00000000000E+00 -0.45593999997E+02  0.45594000000E+02  0.51100000000E-03 0.  1.
         23    2    1    2    0    0  0.00000000000E+00  0.00000000000E+00  0.00000000000E+00  0.91188000000E+02  0.91188000000E+02 0.  0.
    9900012    2    3    3    0    0 -0.12708020238E+02  0.32990013932E+02 -0.10292915710E+02  0.54367096814E+02  0.40000028808E+02 0.  0.
        -12    1    3    3    0    0  0.12708020238E+02 -0.32990013932E+02  0.10292915710E+02  0.36820903186E+02  0.00000000000E+00 0.  1.
         11    1    4    4    0    0 -0.89903532139E+01  0.28808138622E+02  0.41080333776E+01  0.30456710923E+02  0.51100000000E-03 0. -1.
        -11    1    4    4    0    0 -0.78618629516E+01  0.14633480143E+01  0.68978799391E+00  0.80265860874E+01  0.51100000000E-03 0.  1.
         12    1    4    4    0    0  0.41441959271E+01  0.27185272954E+01 -0.15090737082E+02  0.15883799804E+02  0.00000000000E+00 0. -1.
</event>
<event>
 8    1  0.1278459E-006  0.9118800E+02  0.7816164E-02  0.1184000E+00
        -11   -1    0    0    0    0  0.00000000000E+00  0.00000000000E+00  0.45593999997E+02  0.45594000000E+02  0.51100000000E-03 0. -1.
         11   -1    0    0    0    0 -0.00000000000E+00 -0.00000000000E+00 -0.45593999997E+02  0.45594000000E+02  0.51100000000E-03 0.  1.
         23    2    1    2    0    0 -0.35527136788E-14 -0.88817841970E-15  0.00000000000E+00  0.91188000000E+02  0.91188000000E+02 0.  0.
    9900012    2    3    3    0    0  0.17924244672E+02  0.66139028731E+01 -0.31476304438E+02  0.54367082041E+02  0.39999995129E+02 0.  0.
         12    1    3    3    0    0 -0.17924244672E+02 -0.66139028731E+01  0.31476304438E+02  0.36820917959E+02  0.00000000000E+00 0. -1.
         11    1    4    4    0    0 -0.26223638549E+01  0.15178073594E+02 -0.11969853069E+02  0.19507129286E+02  0.51100000000E-03 0. -1.
        -11    1    4    4    0    0  0.60596670912E+01  0.72414315338E+00 -0.16233364617E+02  0.17342608674E+02  0.51100000000E-03 0.  1.
         12    1    4    4    0    0  0.14486941436E+02 -0.92883138745E+01 -0.32730867519E+01  0.17517344082E+02  0.00000000000E+00 0. -1.
</event>
<event>
 8    1  0.1278459E-006  0.9118800E+02  0.7816164E-02  0.1184000E+00
        -11   -1    0    0    0    0  0.00000000000E+00  0.00000000000E+00  0.45593999997E+02  0.45594000000E+02  0.51100000000E-03 0.  1.
         11   -1    0    0    0    0 -0.00000000000E+00 -0.00000000000E+00 -0.45593999997E+02  0.45594000000E+02  0.51100000000E-03 0. -1.
         23    2    1    2    0    0 -0.88817841970E-15  0.17763568394E-14 -0.71054273576E-14  0.91188000000E+02  0.91188000000E+02 0.  0.
    9900012    2    3    3    0    0 -0.49704277820E+01  0.95505508618E+01  0.35211654230E+02  0.54367098766E+02  0.40000033256E+02 0.  0.
         12    1    3    3    0    0  0.49704277820E+01 -0.95505508618E+01 -0.35211654230E+02  0.36820901234E+02  0.00000000000E+00 0. -1.
         11    1    4    4    0    0 -0.17149249686E+01 -0.64139583570E+01 -0.10457255700E+01  0.67211138721E+01  0.51100000000E-03 0. -1.
        -11    1    4    4    0    0  0.46850980843E+01  0.60135054018E+01  0.33839500476E+02  0.34687522021E+02  0.51100000000E-03 0.  1.
         12    1    4    4    0    0 -0.79406008977E+01  0.99510038169E+01  0.24178793243E+01  0.12958462872E+02  0.00000000000E+00 0. -1.
</event>
<event>
 8    1  0.1278459E-006  0.9118800E+02  0.7816164E-02  0.1184000E+00
        -11   -1    0    0    0    0  0.00000000000E+00  0.00000000000E+00  0.45593999997E+02  0.45594000000E+02  0.51100000000E-03 0.  1.
         11   -1    0    0    0    0 -0.00000000000E+00 -0.00000000000E+00 -0.45593999997E+02  0.45594000000E+02  0.51100000000E-03 0. -1.
         23    2    1    2    0    0 -0.17763568394E-14  0.00000000000E+00  0.35527136788E-14  0.91188000000E+02  0.91188000000E+02 0.  0.
    9900012    2    3    3    0    0  0.86466188877E+01  0.29619400583E+02 -0.20092466517E+02  0.54367080405E+02  0.39999991399E+02 0.  0.
        -12    1    3    3    0    0 -0.86466188877E+01 -0.29619400583E+02  0.20092466517E+02  0.36820919595E+02  0.00000000000E+00 0.  1.
         11    1    4    4    0    0  0.11477246071E+02  0.15202646046E+02 -0.34590087585E+01  0.19360071437E+02  0.51100000000E-03 0. -1.
        -11    1    4    4    0    0  0.60166595745E+01  0.14788876337E+02 -0.19949135795E+02  0.25551498488E+02  0.51100000000E-03 0.  1.
        -12    1    4    4    0    0 -0.88472867580E+01 -0.37212179993E+00  0.33156780365E+01  0.94555104808E+01  0.00000000000E+00 0.  1.
</event>
<event>
 8    1  0.1278459E-006  0.9118800E+02  0.7816164E-02  0.1184000E+00
        -11   -1    0    0    0    0  0.00000000000E+00  0.00000000000E+00  0.45593999997E+02  0.45594000000E+02  0.51100000000E-03 0.  1.
         11   -1    0    0    0    0 -0.00000000000E+00 -0.00000000000E+00 -0.45593999997E+02  0.45594000000E+02  0.51100000000E-03 0. -1.
         23    2    1    2    0    0  0.35527136788E-14  0.35527136788E-14  0.35527136788E-14  0.91188000000E+02  0.91188000000E+02 0.  0.
    9900012    2    3    3    0    0 -0.16129239505E+02 -0.27123628544E+02  0.18971991145E+02  0.54367081484E+02  0.39999993859E+02 0.  0.
         12    1    3    3    0    0  0.16129239505E+02  0.27123628544E+02 -0.18971991145E+02  0.36820918516E+02  0.00000000000E+00 0. -1.
         11    1    4    4    0    0 -0.53949480787E+01 -0.10719606371E+02 -0.11572625063E+02  0.16671564912E+02  0.51100000000E-03 0. -1.
        -11    1    4    4    0    0 -0.70667660995E+01 -0.16410015021E+02  0.21623990146E+02  0.28050396186E+02  0.51100000000E-03 0.  1.
         12    1    4    4    0    0 -0.36675253263E+01  0.59928476486E-02  0.89206260616E+01  0.96451203862E+01  0.00000000000E+00 0. -1.
</event>
<event>
 8    1  0.1278459E-006  0.9118800E+02  0.7816164E-02  0.1184000E+00
        -11   -1    0    0    0    0  0.00000000000E+00  0.00000000000E+00  0.45593999997E+02  0.45594000000E+02  0.51100000000E-03 0. -1.
         11   -1    0    0    0    0 -0.00000000000E+00 -0.00000000000E+00 -0.45593999997E+02  0.45594000000E+02  0.51100000000E-03 0.  1.
         23    2    1    2    0    0  0.17763568394E-14  0.00000000000E+00  0.00000000000E+00  0.91188000000E+02  0.91188000000E+02 0.  0.
    9900012    2    3    3    0    0  0.10480708488E+02 -0.27284087244E+02  0.22394511559E+02  0.54367070963E+02  0.39999969874E+02 0.  0.
        -12    1    3    3    0    0 -0.10480708488E+02  0.27284087244E+02 -0.22394511559E+02  0.36820929037E+02  0.00000000000E+00 0.  1.
         11    1    4    4    0    0 -0.11618993166E+02 -0.18051482445E+02  0.10222747009E+02  0.23777333268E+02  0.51100000000E-03 0. -1.
        -11    1    4    4    0    0  0.66564029788E+01 -0.79615036329E+01  0.10887677846E+02  0.15041102681E+02  0.51100000000E-03 0.  1.
        -12    1    4    4    0    0  0.15443298675E+02 -0.12711011661E+01  0.12840867046E+01  0.15548635015E+02  0.00000000000E+00 0.  1.
</event>
<event>
 8    1  0.1278459E-006  0.9118800E+02  0.7816164E-02  0.1184000E+00
        -11   -1    0    0    0    0  0.00000000000E+00  0.00000000000E+00  0.45593999997E+02  0.45594000000E+02  0.51100000000E-03 0. -1.
         11   -1    0    0    0    0 -0.00000000000E+00 -0.00000000000E+00 -0.45593999997E+02  0.45594000000E+02  0.51100000000E-03 0.  1.
         23    2    1    2    0    0  0.44408920985E-15  0.35527136788E-14 -0.71054273576E-14  0.91188000000E+02  0.91188000000E+02 0.  0.
    9900012    2    3    3    0    0  0.16885586952E+01  0.21489209310E+02 -0.29851907645E+02  0.54367167076E+02  0.40000188982E+02 0.  0.
         12    1    3    3    0    0 -0.16885586952E+01 -0.21489209310E+02  0.29851907645E+02  0.36820832924E+02  0.00000000000E+00 0. -1.
         11    1    4    4    0    0 -0.70564040449E+00  0.54672265801E+01 -0.17335402690E+02  0.18190785622E+02  0.51100000000E-03 0. -1.
        -11    1    4    4    0    0  0.15447244018E+01 -0.48158240481E+00 -0.18522769607E+02  0.18593307647E+02  0.51100000000E-03 0.  1.
         12    1    4    4    0    0  0.84947469792E+00  0.16503565134E+02  0.60062646524E+01  0.17583073806E+02  0.00000000000E+00 0. -1.
</event>
<event>
 8    1  0.1278459E-006  0.9118800E+02  0.7816164E-02  0.1184000E+00
        -11   -1    0    0    0    0  0.00000000000E+00  0.00000000000E+00  0.45593999997E+02  0.45594000000E+02  0.51100000000E-03 0.  1.
         11   -1    0    0    0    0 -0.00000000000E+00 -0.00000000000E+00 -0.45593999997E+02  0.45594000000E+02  0.51100000000E-03 0. -1.
         23    2    1    2    0    0  0.35527136788E-14  0.00000000000E+00 -0.44408920985E-15  0.91188000000E+02  0.91188000000E+02 0.  0.
    9900012    2    3    3    0    0 -0.16202028742E+02  0.32834985736E+02 -0.38913285427E+01  0.54367021449E+02  0.39999856998E+02 0.  0.
        -12    1    3    3    0    0  0.16202028742E+02 -0.32834985736E+02  0.38913285427E+01  0.36820978551E+02  0.00000000000E+00 0.  1.
         11    1    4    4    0    0 -0.20670734008E+02  0.18323626141E+02  0.53644742673E+01  0.28139156061E+02  0.51100000000E-03 0. -1.
        -11    1    4    4    0    0  0.67751696769E+01  0.13644667841E+02 -0.14122380407E+02  0.20773095900E+02  0.51100000000E-03 0.  1.
        -12    1    4    4    0    0 -0.23064644107E+01  0.86669175386E+00  0.48665775969E+01  0.54547694892E+01  0.00000000000E+00 0.  1.
</event>
<event>
 8    1  0.1278459E-006  0.9118800E+02  0.7816164E-02  0.1184000E+00
        -11   -1    0    0    0    0  0.00000000000E+00  0.00000000000E+00  0.45593999997E+02  0.45594000000E+02  0.51100000000E-03 0. -1.
         11   -1    0    0    0    0 -0.00000000000E+00 -0.00000000000E+00 -0.45593999997E+02  0.45594000000E+02  0.51100000000E-03 0.  1.
         23    2    1    2    0    0 -0.35527136788E-14  0.00000000000E+00  0.00000000000E+00  0.91188000000E+02  0.91188000000E+02 0.  0.
    9900012    2    3    3    0    0 -0.22311839264E+02  0.10474661744E+02  0.27354048967E+02  0.54367072460E+02  0.39999973288E+02 0.  0.
        -12    1    3    3    0    0  0.22311839264E+02 -0.10474661744E+02 -0.27354048967E+02  0.36820927540E+02  0.00000000000E+00 0.  1.
         11    1    4    4    0    0 -0.21413966483E+01 -0.57806350291E+01  0.14984116993E+02  0.16202625814E+02  0.51100000000E-03 0.  1.
        -11    1    4    4    0    0 -0.19218171780E+02  0.31455640608E+01 -0.88927282279E+00  0.19494191603E+02  0.51100000000E-03 0. -1.
        -12    1    4    4    0    0 -0.95227083495E+00  0.13109732713E+02  0.13259204797E+02  0.18670255043E+02  0.00000000000E+00 0.  1.
</event>
<event>
 8    1  0.1278459E-006  0.9118800E+02  0.7816164E-02  0.1184000E+00
        -11   -1    0    0    0    0  0.00000000000E+00  0.00000000000E+00  0.45593999997E+02  0.45594000000E+02  0.51100000000E-03 0.  1.
         11   -1    0    0    0    0 -0.00000000000E+00 -0.00000000000E+00 -0.45593999997E+02  0.45594000000E+02  0.51100000000E-03 0. -1.
         23    2    1    2    0    0  0.17763568394E-14  0.00000000000E+00  0.00000000000E+00  0.91188000000E+02  0.91188000000E+02 0.  0.
    9900012    2    3    3    0    0 -0.47214883447E+01 -0.34898182476E+02 -0.10751915218E+02  0.54367091902E+02  0.40000017609E+02 0.  0.
        -12    1    3    3    0    0  0.47214883447E+01  0.34898182476E+02  0.10751915218E+02  0.36820908098E+02  0.00000000000E+00 0.  1.
         11    1    4    4    0    0  0.65605744823E+01 -0.82961012944E-01  0.72682034394E+01  0.97915678809E+01  0.51100000000E-03 0. -1.
        -11    1    4    4    0    0 -0.46929838139E+01  0.35092889601E-01 -0.48299765540E+01  0.67345380214E+01  0.51100000000E-03 0.  1.
         12    1    4    4    0    0 -0.65890790132E+01 -0.34850314353E+02 -0.13190142103E+02  0.37840986000E+02  0.00000000000E+00 0. -1.
</event>
<event>
 8    1  0.1278459E-006  0.9118800E+02  0.7816164E-02  0.1184000E+00
        -11   -1    0    0    0    0  0.00000000000E+00  0.00000000000E+00  0.45593999997E+02  0.45594000000E+02  0.51100000000E-03 0.  1.
         11   -1    0    0    0    0 -0.00000000000E+00 -0.00000000000E+00 -0.45593999997E+02  0.45594000000E+02  0.51100000000E-03 0. -1.
         23    2    1    2    0    0  0.00000000000E+00  0.00000000000E+00  0.00000000000E+00  0.91188000000E+02  0.91188000000E+02 0.  0.
    9900012    2    3    3    0    0 -0.16444205931E+02  0.29405374570E+02 -0.14855730338E+02  0.54367072715E+02  0.39999973867E+02 0.  0.
        -12    1    3    3    0    0  0.16444205931E+02 -0.29405374570E+02  0.14855730338E+02  0.36820927285E+02  0.00000000000E+00 0.  1.
         11    1    4    4    0    0 -0.64860581971E+01  0.42104563951E+01 -0.63534857005E+01  0.10008180394E+02  0.51100000000E-03 0. -1.
        -11    1    4    4    0    0 -0.21556739897E+02  0.20076273309E+02 -0.68672178069E+00  0.29465596414E+02  0.51100000000E-03 0.  1.
        -12    1    4    4    0    0  0.11598592164E+02  0.51186448657E+01 -0.78155228564E+01  0.14893295906E+02  0.00000000000E+00 0.  1.
</event>
<event>
 8    1  0.1278459E-006  0.9118800E+02  0.7816164E-02  0.1184000E+00
        -11   -1    0    0    0    0  0.00000000000E+00  0.00000000000E+00  0.45593999997E+02  0.45594000000E+02  0.51100000000E-03 0. -1.
         11   -1    0    0    0    0 -0.00000000000E+00 -0.00000000000E+00 -0.45593999997E+02  0.45594000000E+02  0.51100000000E-03 0.  1.
         23    2    1    2    0    0  0.00000000000E+00 -0.17763568394E-14  0.00000000000E+00  0.91188000000E+02  0.91188000000E+02 0.  0.
    9900012    2    3    3    0    0 -0.10906411435E+02  0.73414952272E+01 -0.34393809134E+02  0.54367062080E+02  0.39999949623E+02 0.  0.
         12    1    3    3    0    0  0.10906411435E+02 -0.73414952272E+01  0.34393809134E+02  0.36820937920E+02  0.00000000000E+00 0. -1.
         11    1    4    4    0    0 -0.98740741616E+01  0.14897861173E+02 -0.17442708765E+02  0.24973820241E+02  0.51100000000E-03 0. -1.
        -11    1    4    4    0    0 -0.11772693741E+02 -0.22196298303E+01 -0.76262485218E+01  0.14201504895E+02  0.51100000000E-03 0.  1.
         12    1    4    4    0    0  0.10740356467E+02 -0.53367361157E+01 -0.93248518474E+01  0.15191736944E+02  0.00000000000E+00 0. -1.
</event>
<event>
 8    1  0.1278459E-006  0.9118800E+02  0.7816164E-02  0.1184000E+00
        -11   -1    0    0    0    0  0.00000000000E+00  0.00000000000E+00  0.45593999997E+02  0.45594000000E+02  0.51100000000E-03 0.  1.
         11   -1    0    0    0    0 -0.00000000000E+00 -0.00000000000E+00 -0.45593999997E+02  0.45594000000E+02  0.51100000000E-03 0. -1.
         23    2    1    2    0    0  0.00000000000E+00  0.00000000000E+00 -0.36082248300E-15  0.91188000000E+02  0.91188000000E+02 0.  0.
    9900012    2    3    3    0    0 -0.35161504067E+02 -0.10926886208E+02  0.22887668824E+00  0.54367073953E+02  0.39999976691E+02 0.  0.
        -12    1    3    3    0    0  0.35161504067E+02  0.10926886208E+02 -0.22887668824E+00  0.36820926047E+02  0.00000000000E+00 0.  1.
         11    1    4    4    0    0 -0.56875431261E+01  0.11633207415E+02  0.67058338051E+01  0.14582450715E+02  0.51100000000E-03 0. -1.
        -11    1    4    4    0    0 -0.16131359940E+02 -0.19551607308E+02 -0.62440743217E+01  0.26105068210E+02  0.51100000000E-03 0.  1.
         12    1    4    4    0    0 -0.13342601000E+02 -0.30084863149E+01 -0.23288279514E+00  0.13679555027E+02  0.00000000000E+00 0. -1.
</event>
<event>
 8    1  0.1278459E-006  0.9118800E+02  0.7816164E-02  0.1184000E+00
        -11   -1    0    0    0    0  0.00000000000E+00  0.00000000000E+00  0.45593999997E+02  0.45594000000E+02  0.51100000000E-03 0. -1.
         11   -1    0    0    0    0 -0.00000000000E+00 -0.00000000000E+00 -0.45593999997E+02  0.45594000000E+02  0.51100000000E-03 0.  1.
         23    2    1    2    0    0  0.00000000000E+00  0.00000000000E+00 -0.17763568394E-14  0.91188000000E+02  0.91188000000E+02 0.  0.
    9900012    2    3    3    0    0 -0.15903384362E+02  0.32906020001E+02 -0.44783470690E+01  0.54367090465E+02  0.40000014334E+02 0.  0.
         12    1    3    3    0    0  0.15903384362E+02 -0.32906020001E+02  0.44783470690E+01  0.36820909535E+02  0.00000000000E+00 0. -1.
         11    1    4    4    0    0 -0.63426204975E+01  0.31573887597E+01 -0.96847247264E+00  0.71509354455E+01  0.51100000000E-03 0. -1.
        -11    1    4    4    0    0  0.27566089142E+01  0.23020077715E+02  0.12159742547E+02  0.26179805381E+02  0.51100000000E-03 0.  1.
        -12    1    4    4    0    0 -0.12317372778E+02  0.67285535264E+01 -0.15669617143E+02  0.21036349639E+02  0.00000000000E+00 0.  1.
</event>
<event>
 8    1  0.1278459E-006  0.9118800E+02  0.7816164E-02  0.1184000E+00
        -11   -1    0    0    0    0  0.00000000000E+00  0.00000000000E+00  0.45593999997E+02  0.45594000000E+02  0.51100000000E-03 0.  1.
         11   -1    0    0    0    0 -0.00000000000E+00 -0.00000000000E+00 -0.45593999997E+02  0.45594000000E+02  0.51100000000E-03 0. -1.
         23    2    1    2    0    0  0.71054273576E-14  0.35527136788E-14 -0.88817841970E-15  0.91188000000E+02  0.91188000000E+02 0.  0.
    9900012    2    3    3    0    0  0.34061727796E+02  0.12145995644E+02 -0.69321691356E+01  0.54367061941E+02  0.39999949306E+02 0.  0.
        -12    1    3    3    0    0 -0.34061727796E+02 -0.12145995644E+02  0.69321691356E+01  0.36820938059E+02  0.00000000000E+00 0.  1.
         11    1    4    4    0    0  0.14156904115E+02  0.80906638774E+01 -0.17337739225E+02  0.23800713808E+02  0.51100000000E-03 0. -1.
        -11    1    4    4    0    0  0.59449415698E+01 -0.76673971913E+01  0.26328630849E+00  0.97057008968E+01  0.51100000000E-03 0.  1.
        -12    1    4    4    0    0  0.13959882112E+02  0.11722728958E+02  0.10142283781E+02  0.20860647236E+02  0.00000000000E+00 0.  1.
</event>
<event>
 8    1  0.1278459E-006  0.9118800E+02  0.7816164E-02  0.1184000E+00
        -11   -1    0    0    0    0  0.00000000000E+00  0.00000000000E+00  0.45593999997E+02  0.45594000000E+02  0.51100000000E-03 0. -1.
         11   -1    0    0    0    0 -0.00000000000E+00 -0.00000000000E+00 -0.45593999997E+02  0.45594000000E+02  0.51100000000E-03 0.  1.
         23    2    1    2    0    0  0.35527136788E-14 -0.88817841970E-15  0.35527136788E-14  0.91188000000E+02  0.91188000000E+02 0.  0.
    9900012    2    3    3    0    0 -0.29946441485E+02  0.26704153080E+01 -0.21256759468E+02  0.54367213770E+02  0.40000295430E+02 0.  0.
         12    1    3    3    0    0  0.29946441485E+02 -0.26704153080E+01  0.21256759468E+02  0.36820786230E+02  0.00000000000E+00 0. -1.
         11    1    4    4    0    0 -0.13009010894E+02 -0.11683987458E+02 -0.19392124352E+02  0.26111384768E+02  0.51100000000E-03 0. -1.
        -11    1    4    4    0    0  0.25865045759E+01  0.52523396509E+00  0.28347141441E+01  0.38731745609E+01  0.51100000000E-03 0.  1.
        -12    1    4    4    0    0 -0.19523935166E+02  0.13829168801E+02 -0.46993492602E+01  0.24382654441E+02  0.00000000000E+00 0.  1.
</event>
<event>
 8    1  0.1278459E-006  0.9118800E+02  0.7816164E-02  0.1184000E+00
        -11   -1    0    0    0    0  0.00000000000E+00  0.00000000000E+00  0.45593999997E+02  0.45594000000E+02  0.51100000000E-03 0. -1.
         11   -1    0    0    0    0 -0.00000000000E+00 -0.00000000000E+00 -0.45593999997E+02  0.45594000000E+02  0.51100000000E-03 0.  1.
         23    2    1    2    0    0  0.00000000000E+00  0.35527136788E-14 -0.35527136788E-14  0.91188000000E+02  0.91188000000E+02 0.  0.
    9900012    2    3    3    0    0  0.78490970403E+01  0.31492070553E+02 -0.17390182844E+02  0.54367118813E+02  0.40000078957E+02 0.  0.
        -12    1    3    3    0    0 -0.78490970403E+01 -0.31492070553E+02  0.17390182844E+02  0.36820881187E+02  0.00000000000E+00 0.  1.
         11    1    4    4    0    0  0.16815373154E+01 -0.47363915538E+01  0.21806672225E+01  0.54787117547E+01  0.51100000000E-03 0. -1.
        -11    1    4    4    0    0 -0.27123068339E+00 -0.10111033807E+01  0.41424448020E+01  0.42726742597E+01  0.51100000000E-03 0.  1.
         12    1    4    4    0    0  0.64387904083E+01  0.37239565487E+02 -0.23713294869E+02  0.44615732798E+02  0.00000000000E+00 0. -1.
</event>
<event>
 8    1  0.1278459E-006  0.9118800E+02  0.7816164E-02  0.1184000E+00
        -11   -1    0    0    0    0  0.00000000000E+00  0.00000000000E+00  0.45593999997E+02  0.45594000000E+02  0.51100000000E-03 0. -1.
         11   -1    0    0    0    0 -0.00000000000E+00 -0.00000000000E+00 -0.45593999997E+02  0.45594000000E+02  0.51100000000E-03 0.  1.
         23    2    1    2    0    0 -0.88817841970E-15  0.00000000000E+00  0.00000000000E+00  0.91188000000E+02  0.91188000000E+02 0.  0.
    9900012    2    3    3    0    0  0.66845160542E+01 -0.21473261435E+02 -0.29154696896E+02  0.54367081182E+02  0.39999993170E+02 0.  0.
         12    1    3    3    0    0 -0.66845160542E+01  0.21473261435E+02  0.29154696896E+02  0.36820918818E+02  0.00000000000E+00 0. -1.
         11    1    4    4    0    0  0.69276944419E+01 -0.11155182172E+02 -0.19017094365E+02  0.23110190781E+02  0.51100000000E-03 0. -1.
        -11    1    4    4    0    0 -0.38395928453E+01 -0.85683880539E+01 -0.19188046569E+02  0.21362136561E+02  0.51100000000E-03 0.  1.
        -12    1    4    4    0    0  0.35964144576E+01 -0.17496912087E+01  0.90504440378E+01  0.98947538402E+01  0.00000000000E+00 0.  1.
</event>
<event>
 8    1  0.1278459E-006  0.9118800E+02  0.7816164E-02  0.1184000E+00
        -11   -1    0    0    0    0  0.00000000000E+00  0.00000000000E+00  0.45593999997E+02  0.45594000000E+02  0.51100000000E-03 0. -1.
         11   -1    0    0    0    0 -0.00000000000E+00 -0.00000000000E+00 -0.45593999997E+02  0.45594000000E+02  0.51100000000E-03 0.  1.
         23    2    1    2    0    0  0.00000000000E+00 -0.55511151231E-15  0.35527136788E-14  0.91188000000E+02  0.91188000000E+02 0.  0.
    9900012    2    3    3    0    0  0.32549213891E+02  0.27972346218E+00 -0.17211928287E+02  0.54367081414E+02  0.39999993700E+02 0.  0.
         12    1    3    3    0    0 -0.32549213891E+02 -0.27972346218E+00  0.17211928287E+02  0.36820918586E+02  0.00000000000E+00 0. -1.
         11    1    4    4    0    0  0.27209621682E+01 -0.10647103106E+02 -0.59309356218E+01  0.12487611352E+02  0.51100000000E-03 0. -1.
        -11    1    4    4    0    0  0.84656897446E+01  0.12822729433E+02 -0.13321629541E+02  0.20336078945E+02  0.51100000000E-03 0.  1.
         12    1    4    4    0    0  0.21362561978E+02 -0.18959028648E+01  0.20406368764E+01  0.21543391117E+02  0.00000000000E+00 0. -1.
</event>
<event>
 8    1  0.1278459E-006  0.9118800E+02  0.7816164E-02  0.1184000E+00
        -11   -1    0    0    0    0  0.00000000000E+00  0.00000000000E+00  0.45593999997E+02  0.45594000000E+02  0.51100000000E-03 0.  1.
         11   -1    0    0    0    0 -0.00000000000E+00 -0.00000000000E+00 -0.45593999997E+02  0.45594000000E+02  0.51100000000E-03 0. -1.
         23    2    1    2    0    0  0.88817841970E-15 -0.17763568394E-14  0.00000000000E+00  0.91188000000E+02  0.91188000000E+02 0.  0.
    9900012    2    3    3    0    0  0.65063984831E+01 -0.15056396979E+02 -0.32965897849E+02  0.54367099248E+02  0.40000034355E+02 0.  0.
        -12    1    3    3    0    0 -0.65063984831E+01  0.15056396979E+02  0.32965897849E+02  0.36820900752E+02  0.00000000000E+00 0.  1.
         11    1    4    4    0    0  0.20899164951E+02 -0.49322961927E+01 -0.15563523745E+02  0.26520292475E+02  0.51100000000E-03 0. -1.
        -11    1    4    4    0    0 -0.68773185718E+01 -0.83031815083E+01 -0.25150755442E+01  0.11070950237E+02  0.51100000000E-03 0.  1.
         12    1    4    4    0    0 -0.75154478956E+01 -0.18209192780E+01 -0.14887298560E+02  0.16775856535E+02  0.00000000000E+00 0. -1.
</event>
<event>
 8    1  0.1278459E-006  0.9118800E+02  0.7816164E-02  0.1184000E+00
        -11   -1    0    0    0    0  0.00000000000E+00  0.00000000000E+00  0.45593999997E+02  0.45594000000E+02  0.51100000000E-03 0.  1.
         11   -1    0    0    0    0 -0.00000000000E+00 -0.00000000000E+00 -0.45593999997E+02  0.45594000000E+02  0.51100000000E-03 0. -1.
         23    2    1    2    0    0  0.00000000000E+00  0.00000000000E+00  0.88817841970E-15  0.91188000000E+02  0.91188000000E+02 0.  0.
    9900012    2    3    3    0    0  0.20760951327E+02  0.30012885676E+02 -0.48978454643E+01  0.54367091581E+02  0.40000016877E+02 0.  0.
        -12    1    3    3    0    0 -0.20760951327E+02 -0.30012885676E+02  0.48978454643E+01  0.36820908419E+02  0.00000000000E+00 0.  1.
         11    1    4    4    0    0  0.34105545996E+01  0.12359861192E+02 -0.15228281471E+02  0.19907250141E+02  0.51100000000E-03 0.  1.
        -11    1    4    4    0    0  0.17039386763E+01 -0.15801425803E+01  0.93632413231E+01  0.96473077033E+01  0.51100000000E-03 0. -1.
         12    1    4    4    0    0  0.15646458051E+02  0.19233167064E+02  0.96719468346E+00  0.24812533737E+02  0.00000000000E+00 0. -1.
</event>
<event>
 8    1  0.1278459E-006  0.9118800E+02  0.7816164E-02  0.1184000E+00
        -11   -1    0    0    0    0  0.00000000000E+00  0.00000000000E+00  0.45593999997E+02  0.45594000000E+02  0.51100000000E-03 0.  1.
         11   -1    0    0    0    0 -0.00000000000E+00 -0.00000000000E+00 -0.45593999997E+02  0.45594000000E+02  0.51100000000E-03 0. -1.
         23    2    1    2    0    0  0.00000000000E+00  0.00000000000E+00 -0.17763568394E-14  0.91188000000E+02  0.91188000000E+02 0.  0.
    9900012    2    3    3    0    0  0.29068971498E+02 -0.18986165835E+02 -0.12259704763E+02  0.54367082603E+02  0.39999996411E+02 0.  0.
        -12    1    3    3    0    0 -0.29068971498E+02  0.18986165835E+02  0.12259704763E+02  0.36820917397E+02  0.00000000000E+00 0.  1.
         11    1    4    4    0    0  0.18475830283E+02 -0.55628598374E+01  0.82706442154E+01  0.20992981451E+02  0.51100000000E-03 0. -1.
        -11    1    4    4    0    0  0.63853279440E+01 -0.35178584294E-01  0.21203311818E+01  0.67282579518E+01  0.51100000000E-03 0.  1.
         12    1    4    4    0    0  0.42078132713E+01 -0.13388127413E+02 -0.22650680160E+02  0.26645843201E+02  0.00000000000E+00 0. -1.
</event>
<event>
 8    1  0.1278459E-006  0.9118800E+02  0.7816164E-02  0.1184000E+00
        -11   -1    0    0    0    0  0.00000000000E+00  0.00000000000E+00  0.45593999997E+02  0.45594000000E+02  0.51100000000E-03 0. -1.
         11   -1    0    0    0    0 -0.00000000000E+00 -0.00000000000E+00 -0.45593999997E+02  0.45594000000E+02  0.51100000000E-03 0.  1.
         23    2    1    2    0    0  0.00000000000E+00  0.35527136788E-14  0.00000000000E+00  0.91188000000E+02  0.91188000000E+02 0.  0.
    9900012    2    3    3    0    0 -0.20594092484E+02 -0.17102216154E+02  0.25281960935E+02  0.54367082150E+02  0.39999995377E+02 0.  0.
        -12    1    3    3    0    0  0.20594092484E+02  0.17102216154E+02 -0.25281960935E+02  0.36820917850E+02  0.00000000000E+00 0.  1.
         11    1    4    4    0    0 -0.13881922647E+01 -0.73025023534E+01  0.11866775157E+02  0.14002641582E+02  0.51100000000E-03 0. -1.
        -11    1    4    4    0    0  0.13049182165E+01 -0.23111851631E+01  0.17881357252E+02  0.18077259909E+02  0.51100000000E-03 0.  1.
        -12    1    4    4    0    0 -0.20510818436E+02 -0.74885286378E+01 -0.44661714739E+01  0.22287180658E+02  0.00000000000E+00 0.  1.
</event>
<event>
 8    1  0.1278459E-006  0.9118800E+02  0.7816164E-02  0.1184000E+00
        -11   -1    0    0    0    0  0.00000000000E+00  0.00000000000E+00  0.45593999997E+02  0.45594000000E+02  0.51100000000E-03 0.  1.
         11   -1    0    0    0    0 -0.00000000000E+00 -0.00000000000E+00 -0.45593999997E+02  0.45594000000E+02  0.51100000000E-03 0. -1.
         23    2    1    2    0    0  0.35527136788E-14  0.00000000000E+00  0.17763568394E-14  0.91188000000E+02  0.91188000000E+02 0.  0.
    9900012    2    3    3    0    0 -0.19282432198E+02  0.29750710074E+02  0.99430309909E+01  0.54367071078E+02  0.39999970137E+02 0.  0.
        -12    1    3    3    0    0  0.19282432198E+02 -0.29750710074E+02 -0.99430309909E+01  0.36820928922E+02  0.00000000000E+00 0.  1.
         11    1    4    4    0    0 -0.53927604214E+01 -0.45494190199E+01 -0.42865971546E+01  0.82555432170E+01  0.51100000000E-03 0. -1.
        -11    1    4    4    0    0 -0.84890417091E+01  0.28064097421E+01 -0.34615222056E+01  0.95875909915E+01  0.51100000000E-03 0.  1.
         12    1    4    4    0    0 -0.54006300678E+01  0.31493719352E+02  0.17691150351E+02  0.36523936870E+02  0.00000000000E+00 0. -1.
</event>
<event>
 8    1  0.1278459E-006  0.9118800E+02  0.7816164E-02  0.1184000E+00
        -11   -1    0    0    0    0  0.00000000000E+00  0.00000000000E+00  0.45593999997E+02  0.45594000000E+02  0.51100000000E-03 0. -1.
         11   -1    0    0    0    0 -0.00000000000E+00 -0.00000000000E+00 -0.45593999997E+02  0.45594000000E+02  0.51100000000E-03 0.  1.
         23    2    1    2    0    0  0.00000000000E+00  0.55511151231E-15  0.00000000000E+00  0.91188000000E+02  0.91188000000E+02 0.  0.
    9900012    2    3    3    0    0  0.36443580004E+02  0.84008106516E+00 -0.51899908525E+01  0.54367132754E+02  0.40000110739E+02 0.  0.
         12    1    3    3    0    0 -0.36443580004E+02 -0.84008106516E+00  0.51899908525E+01  0.36820867246E+02  0.00000000000E+00 0. -1.
         11    1    4    4    0    0  0.79249570040E+01  0.97978073853E+01  0.28471791911E+01  0.12919303491E+02  0.51100000000E-03 0. -1.
        -11    1    4    4    0    0 -0.41626505454E+01 -0.31876384021E+01  0.35101771319E+01  0.63095199424E+01  0.51100000000E-03 0.  1.
        -12    1    4    4    0    0  0.32681273545E+02 -0.57700879180E+01 -0.11547347176E+02  0.35138309321E+02  0.00000000000E+00 0.  1.
</event>
<event>
 8    1  0.1278459E-006  0.9118800E+02  0.7816164E-02  0.1184000E+00
        -11   -1    0    0    0    0  0.00000000000E+00  0.00000000000E+00  0.45593999997E+02  0.45594000000E+02  0.51100000000E-03 0.  1.
         11   -1    0    0    0    0 -0.00000000000E+00 -0.00000000000E+00 -0.45593999997E+02  0.45594000000E+02  0.51100000000E-03 0. -1.
         23    2    1    2    0    0  0.88817841970E-15 -0.35527136788E-14  0.35527136788E-14  0.91188000000E+02  0.91188000000E+02 0.  0.
    9900012    2    3    3    0    0 -0.74160643431E+01  0.24405360936E+02  0.26554851855E+02  0.54367084615E+02  0.40000000997E+02 0.  0.
         12    1    3    3    0    0  0.74160643431E+01 -0.24405360936E+02 -0.26554851855E+02  0.36820915385E+02  0.00000000000E+00 0. -1.
         11    1    4    4    0    0  0.71084199754E+00  0.29851217059E+01 -0.51183836859E+01  0.59677550019E+01  0.51100000000E-03 0. -1.
        -11    1    4    4    0    0 -0.11401603951E+02  0.18183630142E+02  0.36108992846E+02  0.42005956035E+02  0.51100000000E-03 0.  1.
        -12    1    4    4    0    0  0.32746976101E+01  0.32366090886E+01 -0.44357573059E+01  0.63933735779E+01  0.00000000000E+00 0.  1.
</event>
<event>
 8    1  0.1278459E-006  0.9118800E+02  0.7816164E-02  0.1184000E+00
        -11   -1    0    0    0    0  0.00000000000E+00  0.00000000000E+00  0.45593999997E+02  0.45594000000E+02  0.51100000000E-03 0. -1.
         11   -1    0    0    0    0 -0.00000000000E+00 -0.00000000000E+00 -0.45593999997E+02  0.45594000000E+02  0.51100000000E-03 0.  1.
         23    2    1    2    0    0  0.00000000000E+00  0.00000000000E+00 -0.17763568394E-14  0.91188000000E+02  0.91188000000E+02 0.  0.
    9900012    2    3    3    0    0  0.12978028647E+02  0.32534216311E+02 -0.11352436168E+02  0.54367051268E+02  0.39999924976E+02 0.  0.
        -12    1    3    3    0    0 -0.12978028647E+02 -0.32534216311E+02  0.11352436168E+02  0.36820948732E+02  0.00000000000E+00 0.  1.
         11    1    4    4    0    0  0.23627834793E+02  0.15263422059E+02 -0.13624578111E+02  0.31255011741E+02  0.51100000000E-03 0. -1.
        -11    1    4    4    0    0 -0.12108445010E+01  0.61288803335E+00 -0.29663546243E+01  0.32620601106E+01  0.51100000000E-03 0.  1.
         12    1    4    4    0    0 -0.94389616452E+01  0.16657906219E+02  0.52384965678E+01  0.19849979416E+02  0.00000000000E+00 0. -1.
</event>
<event>
 8    1  0.1278459E-006  0.9118800E+02  0.7816164E-02  0.1184000E+00
        -11   -1    0    0    0    0  0.00000000000E+00  0.00000000000E+00  0.45593999997E+02  0.45594000000E+02  0.51100000000E-03 0.  1.
         11   -1    0    0    0    0 -0.00000000000E+00 -0.00000000000E+00 -0.45593999997E+02  0.45594000000E+02  0.51100000000E-03 0. -1.
         23    2    1    2    0    0  0.00000000000E+00  0.00000000000E+00 -0.35527136788E-14  0.91188000000E+02  0.91188000000E+02 0.  0.
    9900012    2    3    3    0    0 -0.27105850885E+02 -0.46599395820E+01  0.24481415310E+02  0.54367056439E+02  0.39999936764E+02 0.  0.
         12    1    3    3    0    0  0.27105850885E+02  0.46599395820E+01 -0.24481415310E+02  0.36820943561E+02  0.00000000000E+00 0. -1.
         11    1    4    4    0    0 -0.13173580515E+02 -0.72208540196E+01 -0.75874383765E+01  0.16830127086E+02  0.51100000000E-03 0. -1.
        -11    1    4    4    0    0 -0.52123400760E+01 -0.31873949815E+01  0.33280407037E+01  0.69572861824E+01  0.51100000000E-03 0.  1.
        -12    1    4    4    0    0 -0.87199302944E+01  0.57483094191E+01  0.28740812983E+02  0.30579643171E+02  0.00000000000E+00 0.  1.
</event>
<event>
 8    1  0.1278459E-006  0.9118800E+02  0.7816164E-02  0.1184000E+00
        -11   -1    0    0    0    0  0.00000000000E+00  0.00000000000E+00  0.45593999997E+02  0.45594000000E+02  0.51100000000E-03 0. -1.
         11   -1    0    0    0    0 -0.00000000000E+00 -0.00000000000E+00 -0.45593999997E+02  0.45594000000E+02  0.51100000000E-03 0.  1.
         23    2    1    2    0    0  0.00000000000E+00  0.00000000000E+00  0.00000000000E+00  0.91188000000E+02  0.91188000000E+02 0.  0.
    9900012    2    3    3    0    0  0.27439138035E+02  0.99989439027E+01 -0.22425315855E+02  0.54367082487E+02  0.39999996146E+02 0.  0.
         12    1    3    3    0    0 -0.27439138035E+02 -0.99989439027E+01  0.22425315855E+02  0.36820917513E+02  0.00000000000E+00 0. -1.
         11    1    4    4    0    0  0.10118357292E+02  0.32865577958E+01  0.40074518960E+01  0.11368477796E+02  0.51100000000E-03 0. -1.
        -11    1    4    4    0    0  0.19177957551E+02  0.13493485530E+02 -0.27215616178E+02  0.35924336761E+02  0.51100000000E-03 0.  1.
         12    1    4    4    0    0 -0.18571768081E+01 -0.67810994230E+01  0.78284842635E+00  0.70742679296E+01  0.00000000000E+00 0. -1.
</event>
<event>
 8    1  0.1278459E-006  0.9118800E+02  0.7816164E-02  0.1184000E+00
        -11   -1    0    0    0    0  0.00000000000E+00  0.00000000000E+00  0.45593999997E+02  0.45594000000E+02  0.51100000000E-03 0.  1.
         11   -1    0    0    0    0 -0.00000000000E+00 -0.00000000000E+00 -0.45593999997E+02  0.45594000000E+02  0.51100000000E-03 0. -1.
         23    2    1    2    0    0  0.00000000000E+00  0.00000000000E+00  0.00000000000E+00  0.91188000000E+02  0.91188000000E+02 0.  0.
    9900012    2    3    3    0    0  0.19107813257E+02 -0.23174444563E+02  0.21298275143E+02  0.54367082951E+02  0.39999997203E+02 0.  0.
         12    1    3    3    0    0 -0.19107813257E+02  0.23174444563E+02 -0.21298275143E+02  0.36820917049E+02  0.00000000000E+00 0. -1.
         11    1    4    4    0    0 -0.95453913767E+01 -0.15904591354E+01 -0.37721217760E+01  0.10386190820E+02  0.51100000000E-03 0. -1.
        -11    1    4    4    0    0  0.15221619419E+02 -0.13459591653E+02  0.12362236722E+02  0.23784095573E+02  0.51100000000E-03 0.  1.
         12    1    4    4    0    0  0.13431585214E+02 -0.81243937749E+01  0.12708160198E+02  0.20196796557E+02  0.00000000000E+00 0. -1.
</event>
<event>
 8    1  0.1278459E-006  0.9118800E+02  0.7816164E-02  0.1184000E+00
        -11   -1    0    0    0    0  0.00000000000E+00  0.00000000000E+00  0.45593999997E+02  0.45594000000E+02  0.51100000000E-03 0. -1.
         11   -1    0    0    0    0 -0.00000000000E+00 -0.00000000000E+00 -0.45593999997E+02  0.45594000000E+02  0.51100000000E-03 0.  1.
         23    2    1    2    0    0 -0.17763568394E-14  0.00000000000E+00 -0.17763568394E-14  0.91188000000E+02  0.91188000000E+02 0.  0.
    9900012    2    3    3    0    0  0.96521669917E+01 -0.33369759603E+02  0.12209645759E+02  0.54367073434E+02  0.39999975508E+02 0.  0.
        -12    1    3    3    0    0 -0.96521669917E+01  0.33369759603E+02 -0.12209645759E+02  0.36820926566E+02  0.00000000000E+00 0.  1.
         11    1    4    4    0    0  0.80375542645E+01 -0.27201663933E+02  0.13599798375E+02  0.31456117297E+02  0.51100000000E-03 0. -1.
        -11    1    4    4    0    0  0.89222796910E+01 -0.10956164019E+02 -0.10271946519E+01  0.14166853356E+02  0.51100000000E-03 0.  1.
         12    1    4    4    0    0 -0.73076669638E+01  0.47880683488E+01 -0.36295796399E+00  0.87441027813E+01  0.00000000000E+00 0. -1.
</event>
<event>
 8    1  0.1278459E-006  0.9118800E+02  0.7816164E-02  0.1184000E+00
        -11   -1    0    0    0    0  0.00000000000E+00  0.00000000000E+00  0.45593999997E+02  0.45594000000E+02  0.51100000000E-03 0.  1.
         11   -1    0    0    0    0 -0.00000000000E+00 -0.00000000000E+00 -0.45593999997E+02  0.45594000000E+02  0.51100000000E-03 0. -1.
         23    2    1    2    0    0  0.00000000000E+00 -0.53290705182E-14  0.00000000000E+00  0.91188000000E+02  0.91188000000E+02 0.  0.
    9900012    2    3    3    0    0 -0.40829360399E+01 -0.12507193451E+02 -0.34390087198E+02  0.54367104408E+02  0.40000046118E+02 0.  0.
        -12    1    3    3    0    0  0.40829360399E+01  0.12507193451E+02  0.34390087198E+02  0.36820895592E+02  0.00000000000E+00 0.  1.
         11    1    4    4    0    0 -0.12703369387E+01  0.77605922432E+01 -0.18857203158E+02  0.20431217759E+02  0.51100000000E-03 0. -1.
        -11    1    4    4    0    0  0.53589868984E+00  0.48062505616E+01 -0.18669920351E+01  0.51839069616E+01  0.51100000000E-03 0.  1.
        -12    1    4    4    0    0 -0.33484977910E+01 -0.25074036256E+02 -0.13665892005E+02  0.28751979687E+02  0.00000000000E+00 0.  1.
</event>
<event>
 8    1  0.1278459E-006  0.9118800E+02  0.7816164E-02  0.1184000E+00
        -11   -1    0    0    0    0  0.00000000000E+00  0.00000000000E+00  0.45593999997E+02  0.45594000000E+02  0.51100000000E-03 0.  1.
         11   -1    0    0    0    0 -0.00000000000E+00 -0.00000000000E+00 -0.45593999997E+02  0.45594000000E+02  0.51100000000E-03 0. -1.
         23    2    1    2    0    0  0.00000000000E+00 -0.88817841970E-15  0.00000000000E+00  0.91188000000E+02  0.91188000000E+02 0.  0.
    9900012    2    3    3    0    0 -0.14073445307E+02  0.38050423246E+01  0.33811752353E+02  0.54367152548E+02  0.40000155863E+02 0.  0.
         12    1    3    3    0    0  0.14073445307E+02 -0.38050423246E+01 -0.33811752353E+02  0.36820847452E+02  0.00000000000E+00 0. -1.
         11    1    4    4    0    0 -0.37421834041E+01 -0.11427656818E+01 -0.86753974951E+00  0.40078018304E+01  0.51100000000E-03 0. -1.
        -11    1    4    4    0    0  0.46305231290E+01  0.11847975939E+02  0.87166131249E+00  0.12750532224E+02  0.51100000000E-03 0.  1.
         12    1    4    4    0    0 -0.14961785032E+02 -0.69001679323E+01  0.33807630790E+02  0.37608818493E+02  0.00000000000E+00 0. -1.
</event>
<event>
 8    1  0.1278459E-006  0.9118800E+02  0.7816164E-02  0.1184000E+00
        -11   -1    0    0    0    0  0.00000000000E+00  0.00000000000E+00  0.45593999997E+02  0.45594000000E+02  0.51100000000E-03 0.  1.
         11   -1    0    0    0    0 -0.00000000000E+00 -0.00000000000E+00 -0.45593999997E+02  0.45594000000E+02  0.51100000000E-03 0. -1.
         23    2    1    2    0    0 -0.88817841970E-15  0.00000000000E+00  0.00000000000E+00  0.91188000000E+02  0.91188000000E+02 0.  0.
    9900012    2    3    3    0    0 -0.75063000734E+01  0.12244820496E+02  0.33904189959E+02  0.54367159888E+02  0.40000172597E+02 0.  0.
         12    1    3    3    0    0  0.75063000734E+01 -0.12244820496E+02 -0.33904189959E+02  0.36820840112E+02  0.00000000000E+00 0. -1.
         11    1    4    4    0    0 -0.13713031713E+02  0.65199028338E+00  0.11035216197E+02  0.17613867459E+02  0.51100000000E-03 0. -1.
        -11    1    4    4    0    0  0.15891206990E+02  0.10387171111E+02  0.14333773154E+02  0.23788249965E+02  0.51100000000E-03 0.  1.
        -12    1    4    4    0    0 -0.96844753505E+01  0.12056591012E+01  0.85352006080E+01  0.12965042464E+02  0.00000000000E+00 0.  1.
</event>
<event>
 8    1  0.1278459E-006  0.9118800E+02  0.7816164E-02  0.1184000E+00
        -11   -1    0    0    0    0  0.00000000000E+00  0.00000000000E+00  0.45593999997E+02  0.45594000000E+02  0.51100000000E-03 0.  1.
         11   -1    0    0    0    0 -0.00000000000E+00 -0.00000000000E+00 -0.45593999997E+02  0.45594000000E+02  0.51100000000E-03 0. -1.
         23    2    1    2    0    0  0.00000000000E+00  0.35527136788E-14  0.17763568394E-14  0.91188000000E+02  0.91188000000E+02 0.  0.
    9900012    2    3    3    0    0 -0.26782745511E+02 -0.20417641384E+02  0.14885669786E+02  0.54367099661E+02  0.40000035297E+02 0.  0.
         12    1    3    3    0    0  0.26782745511E+02  0.20417641384E+02 -0.14885669786E+02  0.36820900339E+02  0.00000000000E+00 0. -1.
         11    1    4    4    0    0 -0.10911521083E+02 -0.13841545062E+02 -0.69708080222E+01  0.18953675812E+02  0.51100000000E-03 0. -1.
        -11    1    4    4    0    0 -0.11675495070E+02 -0.14097002316E+02  0.18893120875E+02  0.26305753669E+02  0.51100000000E-03 0.  1.
         12    1    4    4    0    0 -0.41957293568E+01  0.75209059932E+01  0.29633569328E+01  0.91076701799E+01  0.00000000000E+00 0. -1.
</event>
<event>
 8    1  0.1278459E-006  0.9118800E+02  0.7816164E-02  0.1184000E+00
        -11   -1    0    0    0    0  0.00000000000E+00  0.00000000000E+00  0.45593999997E+02  0.45594000000E+02  0.51100000000E-03 0. -1.
         11   -1    0    0    0    0 -0.00000000000E+00 -0.00000000000E+00 -0.45593999997E+02  0.45594000000E+02  0.51100000000E-03 0.  1.
         23    2    1    2    0    0  0.88817841970E-14  0.00000000000E+00  0.00000000000E+00  0.91188000000E+02  0.91188000000E+02 0.  0.
    9900012    2    3    3    0    0  0.13237837333E+02  0.26925509765E+02 -0.21343757157E+02  0.54367090412E+02  0.40000014211E+02 0.  0.
         12    1    3    3    0    0 -0.13237837333E+02 -0.26925509765E+02  0.21343757157E+02  0.36820909588E+02  0.00000000000E+00 0. -1.
         11    1    4    4    0    0 -0.14398717847E+02  0.83156571165E+01 -0.65635215286E+01  0.17876046655E+02  0.51100000000E-03 0. -1.
        -11    1    4    4    0    0  0.21627419039E+02  0.13774214876E+02 -0.10996261107E+02  0.27899677567E+02  0.51100000000E-03 0.  1.
         12    1    4    4    0    0  0.60091361402E+01  0.48356377728E+01 -0.37839745211E+01  0.85913661893E+01  0.00000000000E+00 0. -1.
</event>
<event>
 8    1  0.1278459E-006  0.9118800E+02  0.7816164E-02  0.1184000E+00
        -11   -1    0    0    0    0  0.00000000000E+00  0.00000000000E+00  0.45593999997E+02  0.45594000000E+02  0.51100000000E-03 0.  1.
         11   -1    0    0    0    0 -0.00000000000E+00 -0.00000000000E+00 -0.45593999997E+02  0.45594000000E+02  0.51100000000E-03 0. -1.
         23    2    1    2    0    0  0.00000000000E+00  0.00000000000E+00  0.00000000000E+00  0.91188000000E+02  0.91188000000E+02 0.  0.
    9900012    2    3    3    0    0  0.34071894724E+02 -0.91468389867E+01  0.10546212548E+02  0.54367064751E+02  0.39999955712E+02 0.  0.
        -12    1    3    3    0    0 -0.34071894724E+02  0.91468389867E+01 -0.10546212548E+02  0.36820935249E+02  0.00000000000E+00 0.  1.
         11    1    4    4    0    0  0.14688079794E+02 -0.59581269445E+00 -0.13762839217E+01  0.14764445080E+02  0.51100000000E-03 0. -1.
        -11    1    4    4    0    0  0.13102185613E+02  0.11070029833E+02  0.58853793411E+01  0.18134236091E+02  0.51100000000E-03 0.  1.
        -12    1    4    4    0    0  0.62816293162E+01 -0.19621056125E+02  0.60371171284E+01  0.21468383580E+02  0.00000000000E+00 0.  1.
</event>
<event>
 8    1  0.1278459E-006  0.9118800E+02  0.7816164E-02  0.1184000E+00
        -11   -1    0    0    0    0  0.00000000000E+00  0.00000000000E+00  0.45593999997E+02  0.45594000000E+02  0.51100000000E-03 0. -1.
         11   -1    0    0    0    0 -0.00000000000E+00 -0.00000000000E+00 -0.45593999997E+02  0.45594000000E+02  0.51100000000E-03 0.  1.
         23    2    1    2    0    0  0.00000000000E+00  0.00000000000E+00  0.00000000000E+00  0.91188000000E+02  0.91188000000E+02 0.  0.
    9900012    2    3    3    0    0  0.24913214861E+02  0.70008139769E+01  0.26193503251E+02  0.54367091759E+02  0.40000017284E+02 0.  0.
        -12    1    3    3    0    0 -0.24913214861E+02 -0.70008139769E+01 -0.26193503251E+02  0.36820908241E+02  0.00000000000E+00 0.  1.
         11    1    4    4    0    0  0.61319329237E+01 -0.59884622432E+01  0.97505557752E+01  0.12982126929E+02  0.51100000000E-03 0. -1.
        -11    1    4    4    0    0  0.14905480014E+02 -0.53104579795E+00  0.21732559304E+02  0.26358290504E+02  0.51100000000E-03 0.  1.
        -12    1    4    4    0    0  0.38758019237E+01  0.13520322018E+02 -0.52896118283E+01  0.15026674327E+02  0.00000000000E+00 0.  1.
</event>
<event>
 8    1  0.1278459E-006  0.9118800E+02  0.7816164E-02  0.1184000E+00
        -11   -1    0    0    0    0  0.00000000000E+00  0.00000000000E+00  0.45593999997E+02  0.45594000000E+02  0.51100000000E-03 0.  1.
         11   -1    0    0    0    0 -0.00000000000E+00 -0.00000000000E+00 -0.45593999997E+02  0.45594000000E+02  0.51100000000E-03 0. -1.
         23    2    1    2    0    0  0.00000000000E+00  0.66613381478E-15  0.00000000000E+00  0.91188000000E+02  0.91188000000E+02 0.  0.
    9900012    2    3    3    0    0  0.17719387084E+02 -0.19414572945E+01 -0.32218723501E+02  0.54366918008E+02  0.39999621180E+02 0.  0.
        -12    1    3    3    0    0 -0.17719387084E+02  0.19414572945E+01  0.32218723501E+02  0.36821081992E+02  0.00000000000E+00 0.  1.
         11    1    4    4    0    0  0.10894151231E+02  0.40386269579E+01 -0.17577331102E+02  0.21070254097E+02  0.51100000000E-03 0. -1.
        -11    1    4    4    0    0  0.14423067305E+02 -0.90708178757E+01 -0.61673124891E+00  0.17049485773E+02  0.51100000000E-03 0.  1.
        -12    1    4    4    0    0 -0.75978314516E+01  0.30907336232E+01 -0.14024661149E+02  0.16247178138E+02  0.00000000000E+00 0.  1.
</event>
<event>
 8    1  0.1278459E-006  0.9118800E+02  0.7816164E-02  0.1184000E+00
        -11   -1    0    0    0    0  0.00000000000E+00  0.00000000000E+00  0.45593999997E+02  0.45594000000E+02  0.51100000000E-03 0.  1.
         11   -1    0    0    0    0 -0.00000000000E+00 -0.00000000000E+00 -0.45593999997E+02  0.45594000000E+02  0.51100000000E-03 0. -1.
         23    2    1    2    0    0  0.00000000000E+00 -0.17763568394E-14  0.00000000000E+00  0.91188000000E+02  0.91188000000E+02 0.  0.
    9900012    2    3    3    0    0  0.31287154957E+02 -0.10464441589E+02  0.16352019070E+02  0.54367093836E+02  0.40000022019E+02 0.  0.
        -12    1    3    3    0    0 -0.31287154957E+02  0.10464441589E+02 -0.16352019070E+02  0.36820906164E+02  0.00000000000E+00 0.  1.
         11    1    4    4    0    0 -0.43345660607E+01  0.22744882064E+01 -0.95071008310E+00  0.49865428364E+01  0.51100000000E-03 0. -1.
        -11    1    4    4    0    0  0.35844791837E+02 -0.10091637121E+02  0.59371671036E+01  0.37708622291E+02  0.51100000000E-03 0.  1.
        -12    1    4    4    0    0 -0.22307081930E+00 -0.26472926741E+01  0.11365562049E+02  0.11671928709E+02  0.00000000000E+00 0.  1.
</event>
<event>
 8    1  0.1278459E-006  0.9118800E+02  0.7816164E-02  0.1184000E+00
        -11   -1    0    0    0    0  0.00000000000E+00  0.00000000000E+00  0.45593999997E+02  0.45594000000E+02  0.51100000000E-03 0.  1.
         11   -1    0    0    0    0 -0.00000000000E+00 -0.00000000000E+00 -0.45593999997E+02  0.45594000000E+02  0.51100000000E-03 0. -1.
         23    2    1    2    0    0  0.00000000000E+00  0.00000000000E+00  0.00000000000E+00  0.91188000000E+02  0.91188000000E+02 0.  0.
    9900012    2    3    3    0    0  0.22626752631E+02 -0.16094445825E+02  0.24182193496E+02  0.54367087418E+02  0.40000007388E+02 0.  0.
         12    1    3    3    0    0 -0.22626752631E+02  0.16094445825E+02 -0.24182193496E+02  0.36820912582E+02  0.00000000000E+00 0. -1.
         11    1    4    4    0    0  0.14906086386E+02 -0.17831750146E+01  0.11344390330E+02  0.18816649987E+02  0.51100000000E-03 0. -1.
        -11    1    4    4    0    0  0.10864389040E+02 -0.33935766735E+01  0.19354225016E+02  0.22453002874E+02  0.51100000000E-03 0.  1.
        -12    1    4    4    0    0 -0.31437227947E+01 -0.10917694137E+02 -0.65164218498E+01  0.13097434558E+02  0.00000000000E+00 0.  1.
</event>
<event>
 8    1  0.1278459E-006  0.9118800E+02  0.7816164E-02  0.1184000E+00
        -11   -1    0    0    0    0  0.00000000000E+00  0.00000000000E+00  0.45593999997E+02  0.45594000000E+02  0.51100000000E-03 0. -1.
         11   -1    0    0    0    0 -0.00000000000E+00 -0.00000000000E+00 -0.45593999997E+02  0.45594000000E+02  0.51100000000E-03 0.  1.
         23    2    1    2    0    0  0.00000000000E+00  0.00000000000E+00  0.00000000000E+00  0.91188000000E+02  0.91188000000E+02 0.  0.
    9900012    2    3    3    0    0  0.12717537178E+02 -0.24960167723E+02 -0.23896671198E+02  0.54366856360E+02  0.39999480640E+02 0.  0.
         12    1    3    3    0    0 -0.12717537178E+02  0.24960167723E+02  0.23896671198E+02  0.36821143640E+02  0.00000000000E+00 0. -1.
         11    1    4    4    0    0  0.22287177212E+02 -0.13353064771E+02 -0.19132660522E+02  0.32265791572E+02  0.51100000000E-03 0. -1.
        -11    1    4    4    0    0  0.42792466062E+01 -0.34333304494E+01 -0.15609595327E+01  0.57040603447E+01  0.51100000000E-03 0.  1.
         12    1    4    4    0    0 -0.13848886640E+02 -0.81737725021E+01 -0.32030511429E+01  0.16397004443E+02  0.00000000000E+00 0. -1.
</event>
<event>
 8    1  0.1278459E-006  0.9118800E+02  0.7816164E-02  0.1184000E+00
        -11   -1    0    0    0    0  0.00000000000E+00  0.00000000000E+00  0.45593999997E+02  0.45594000000E+02  0.51100000000E-03 0. -1.
         11   -1    0    0    0    0 -0.00000000000E+00 -0.00000000000E+00 -0.45593999997E+02  0.45594000000E+02  0.51100000000E-03 0.  1.
         23    2    1    2    0    0  0.00000000000E+00  0.71054273576E-14  0.00000000000E+00  0.91188000000E+02  0.91188000000E+02 0.  0.
    9900012    2    3    3    0    0  0.98214286170E+01 -0.24529176623E+02 -0.25644471211E+02  0.54367083803E+02  0.39999999147E+02 0.  0.
         12    1    3    3    0    0 -0.98214286170E+01  0.24529176623E+02  0.25644471211E+02  0.36820916197E+02  0.00000000000E+00 0. -1.
         11    1    4    4    0    0  0.12700596292E+01 -0.12941358089E+02 -0.23241269739E+01  0.13209593753E+02  0.51100000000E-03 0. -1.
        -11    1    4    4    0    0  0.84055286061E+01  0.95238170767E+01 -0.10294690939E+02  0.16350433164E+02  0.51100000000E-03 0.  1.
        -12    1    4    4    0    0  0.14584038172E+00 -0.21111635610E+02 -0.13025653298E+02  0.24807056887E+02  0.00000000000E+00 0.  1.
</event>
<event>
 8    1  0.1278459E-006  0.9118800E+02  0.7816164E-02  0.1184000E+00
        -11   -1    0    0    0    0  0.00000000000E+00  0.00000000000E+00  0.45593999997E+02  0.45594000000E+02  0.51100000000E-03 0.  1.
         11   -1    0    0    0    0 -0.00000000000E+00 -0.00000000000E+00 -0.45593999997E+02  0.45594000000E+02  0.51100000000E-03 0. -1.
         23    2    1    2    0    0  0.00000000000E+00 -0.26645352591E-14  0.00000000000E+00  0.91188000000E+02  0.91188000000E+02 0.  0.
    9900012    2    3    3    0    0 -0.19184120421E+02 -0.63873442795E+01 -0.30772564034E+02  0.54367090988E+02  0.40000015525E+02 0.  0.
        -12    1    3    3    0    0  0.19184120421E+02  0.63873442795E+01  0.30772564034E+02  0.36820909012E+02  0.00000000000E+00 0.  1.
         11    1    4    4    0    0 -0.74751249913E+01 -0.61795915079E+01 -0.10559568236E+02  0.14337689020E+02  0.51100000000E-03 0. -1.
        -11    1    4    4    0    0 -0.30224557929E+01  0.82137851452E+01 -0.25400053514E+02  0.26865669993E+02  0.51100000000E-03 0.  1.
        -12    1    4    4    0    0 -0.86865396365E+01 -0.84215379168E+01  0.51870577162E+01  0.13163731974E+02  0.00000000000E+00 0.  1.
</event>
<event>
 8    1  0.1278459E-006  0.9118800E+02  0.7816164E-02  0.1184000E+00
        -11   -1    0    0    0    0  0.00000000000E+00  0.00000000000E+00  0.45593999997E+02  0.45594000000E+02  0.51100000000E-03 0. -1.
         11   -1    0    0    0    0 -0.00000000000E+00 -0.00000000000E+00 -0.45593999997E+02  0.45594000000E+02  0.51100000000E-03 0.  1.
         23    2    1    2    0    0  0.00000000000E+00  0.00000000000E+00 -0.35527136788E-14  0.91188000000E+02  0.91188000000E+02 0.  0.
    9900012    2    3    3    0    0 -0.50368302763E+01  0.25218775925E+02  0.26351932869E+02  0.54367072740E+02  0.39999973925E+02 0.  0.
        -12    1    3    3    0    0  0.50368302763E+01 -0.25218775925E+02 -0.26351932869E+02  0.36820927260E+02  0.00000000000E+00 0.  1.
         11    1    4    4    0    0  0.55794045652E+01  0.63980036651E+01  0.94334452793E+01  0.12690709054E+02  0.51100000000E-03 0. -1.
        -11    1    4    4    0    0  0.10447042946E+02  0.19067274777E+01  0.19648130525E+01  0.10799852156E+02  0.51100000000E-03 0.  1.
         12    1    4    4    0    0 -0.21063277788E+02  0.16914044782E+02  0.14953674537E+02  0.30876511529E+02  0.00000000000E+00 0. -1.
</event>
<event>
 8    1  0.1278459E-006  0.9118800E+02  0.7816164E-02  0.1184000E+00
        -11   -1    0    0    0    0  0.00000000000E+00  0.00000000000E+00  0.45593999997E+02  0.45594000000E+02  0.51100000000E-03 0.  1.
         11   -1    0    0    0    0 -0.00000000000E+00 -0.00000000000E+00 -0.45593999997E+02  0.45594000000E+02  0.51100000000E-03 0. -1.
         23    2    1    2    0    0 -0.35527136788E-14  0.00000000000E+00  0.00000000000E+00  0.91188000000E+02  0.91188000000E+02 0.  0.
    9900012    2    3    3    0    0 -0.23290949490E+02  0.13380083740E+02  0.25185011673E+02  0.54367084992E+02  0.40000001856E+02 0.  0.
         12    1    3    3    0    0  0.23290949490E+02 -0.13380083740E+02 -0.25185011673E+02  0.36820915008E+02  0.00000000000E+00 0. -1.
         11    1    4    4    0    0  0.22019432255E+01 -0.11515113861E+02  0.60797430552E+01  0.13206425598E+02  0.51100000000E-03 0. -1.
        -11    1    4    4    0    0 -0.13802822081E+02  0.85228120427E+01  0.68869934365E+01  0.17623475859E+02  0.51100000000E-03 0.  1.
        -12    1    4    4    0    0 -0.11690070635E+02  0.16372385559E+02  0.12218275182E+02  0.23537183534E+02  0.00000000000E+00 0.  1.
</event>
<event>
 8    1  0.1278459E-006  0.9118800E+02  0.7816164E-02  0.1184000E+00
        -11   -1    0    0    0    0  0.00000000000E+00  0.00000000000E+00  0.45593999997E+02  0.45594000000E+02  0.51100000000E-03 0.  1.
         11   -1    0    0    0    0 -0.00000000000E+00 -0.00000000000E+00 -0.45593999997E+02  0.45594000000E+02  0.51100000000E-03 0. -1.
         23    2    1    2    0    0 -0.17763568394E-14 -0.44408920985E-15 -0.71054273576E-14  0.91188000000E+02  0.91188000000E+02 0.  0.
    9900012    2    3    3    0    0 -0.94985980060E+01 -0.39693937900E+01 -0.35352507646E+02  0.54367092244E+02  0.40000018389E+02 0.  0.
        -12    1    3    3    0    0  0.94985980060E+01  0.39693937900E+01  0.35352507646E+02  0.36820907756E+02  0.00000000000E+00 0.  1.
         11    1    4    4    0    0 -0.10683284965E+01  0.28887688670E+01 -0.38841708925E+02  0.38963632580E+02  0.51100000000E-03 0. -1.
        -11    1    4    4    0    0  0.72991769401E+00 -0.53171392727E+01 -0.29082955037E+00  0.53748797172E+01  0.51100000000E-03 0.  1.
        -12    1    4    4    0    0 -0.91601872036E+01 -0.15410233843E+01  0.37800308300E+01  0.10028579947E+02  0.00000000000E+00 0.  1.
</event>
<event>
 8    1  0.1278459E-006  0.9118800E+02  0.7816164E-02  0.1184000E+00
        -11   -1    0    0    0    0  0.00000000000E+00  0.00000000000E+00  0.45593999997E+02  0.45594000000E+02  0.51100000000E-03 0.  1.
         11   -1    0    0    0    0 -0.00000000000E+00 -0.00000000000E+00 -0.45593999997E+02  0.45594000000E+02  0.51100000000E-03 0. -1.
         23    2    1    2    0    0 -0.17763568394E-14  0.00000000000E+00  0.10658141036E-13  0.91188000000E+02  0.91188000000E+02 0.  0.
    9900012    2    3    3    0    0 -0.14269334290E+02 -0.12629043824E+02  0.31506740529E+02  0.54367063731E+02  0.39999953387E+02 0.  0.
         12    1    3    3    0    0  0.14269334290E+02  0.12629043824E+02 -0.31506740529E+02  0.36820936269E+02  0.00000000000E+00 0. -1.
         11    1    4    4    0    0 -0.76277372500E+01 -0.92437635268E+01 -0.54826910925E+01  0.13179129014E+02  0.51100000000E-03 0. -1.
        -11    1    4    4    0    0 -0.20864443559E+01 -0.67189879813E+01  0.48228475346E+01  0.85298246258E+01  0.51100000000E-03 0.  1.
        -12    1    4    4    0    0 -0.45551526837E+01  0.33337076841E+01  0.32166584087E+02  0.32658110091E+02  0.00000000000E+00 0.  1.
</event>
<event>
 8    1  0.1278459E-006  0.9118800E+02  0.7816164E-02  0.1184000E+00
        -11   -1    0    0    0    0  0.00000000000E+00  0.00000000000E+00  0.45593999997E+02  0.45594000000E+02  0.51100000000E-03 0. -1.
         11   -1    0    0    0    0 -0.00000000000E+00 -0.00000000000E+00 -0.45593999997E+02  0.45594000000E+02  0.51100000000E-03 0.  1.
         23    2    1    2    0    0  0.00000000000E+00  0.35527136788E-14  0.00000000000E+00  0.91188000000E+02  0.91188000000E+02 0.  0.
    9900012    2    3    3    0    0 -0.21213503857E+02 -0.28074162318E+02  0.10844754283E+02  0.54367081608E+02  0.39999994142E+02 0.  0.
        -12    1    3    3    0    0  0.21213503857E+02  0.28074162318E+02 -0.10844754283E+02  0.36820918392E+02  0.00000000000E+00 0.  1.
         11    1    4    4    0    0  0.23474483553E-01 -0.95358379581E+01  0.12663427217E+02  0.15852291499E+02  0.51100000000E-03 0. -1.
        -11    1    4    4    0    0 -0.18063463930E+02 -0.24590476435E+02 -0.50980620549E+01  0.30934939751E+02  0.51100000000E-03 0.  1.
         12    1    4    4    0    0 -0.31735144107E+01  0.60521520746E+01  0.32793891202E+01  0.75798503581E+01  0.00000000000E+00 0. -1.
</event>
<event>
 8    1  0.1278459E-006  0.9118800E+02  0.7816164E-02  0.1184000E+00
        -11   -1    0    0    0    0  0.00000000000E+00  0.00000000000E+00  0.45593999997E+02  0.45594000000E+02  0.51100000000E-03 0. -1.
         11   -1    0    0    0    0 -0.00000000000E+00 -0.00000000000E+00 -0.45593999997E+02  0.45594000000E+02  0.51100000000E-03 0.  1.
         23    2    1    2    0    0  0.00000000000E+00  0.00000000000E+00  0.00000000000E+00  0.91188000000E+02  0.91188000000E+02 0.  0.
    9900012    2    3    3    0    0 -0.25328585304E+02  0.26711845555E+02  0.84824700176E+00  0.54367089509E+02  0.40000012153E+02 0.  0.
        -12    1    3    3    0    0  0.25328585304E+02 -0.26711845555E+02 -0.84824700176E+00  0.36820910491E+02  0.00000000000E+00 0.  1.
         11    1    4    4    0    0 -0.24449935637E+01 -0.59547927313E+01 -0.26848901945E+01  0.69746817574E+01  0.51100000000E-03 0. -1.
        -11    1    4    4    0    0 -0.19680900418E+02  0.36915559686E+02  0.41335501054E+01  0.42037871317E+02  0.51100000000E-03 0.  1.
        -12    1    4    4    0    0 -0.32026913217E+01 -0.42489213993E+01 -0.60041290914E+00  0.53545364338E+01  0.00000000000E+00 0.  1.
</event>
<event>
 8    1  0.1278459E-006  0.9118800E+02  0.7816164E-02  0.1184000E+00
        -11   -1    0    0    0    0  0.00000000000E+00  0.00000000000E+00  0.45593999997E+02  0.45594000000E+02  0.51100000000E-03 0. -1.
         11   -1    0    0    0    0 -0.00000000000E+00 -0.00000000000E+00 -0.45593999997E+02  0.45594000000E+02  0.51100000000E-03 0.  1.
         23    2    1    2    0    0  0.00000000000E+00  0.71054273576E-14  0.00000000000E+00  0.91188000000E+02  0.91188000000E+02 0.  0.
    9900012    2    3    3    0    0  0.66834290615E+01  0.27231044984E+02 -0.23865865732E+02  0.54367114866E+02  0.40000069959E+02 0.  0.
         12    1    3    3    0    0 -0.66834290615E+01 -0.27231044984E+02  0.23865865732E+02  0.36820885134E+02  0.00000000000E+00 0. -1.
         11    1    4    4    0    0  0.23535202278E+01  0.49447706330E+01 -0.15814845806E+02  0.16736163306E+02  0.51100000000E-03 0. -1.
        -11    1    4    4    0    0  0.13904804932E+02  0.18521928734E+02 -0.12617963680E+02  0.26374579654E+02  0.51100000000E-03 0.  1.
         12    1    4    4    0    0 -0.95748960983E+01  0.37643456167E+01  0.45669437543E+01  0.11256371905E+02  0.00000000000E+00 0. -1.
</event>
<event>
 8    1  0.1278459E-006  0.9118800E+02  0.7816164E-02  0.1184000E+00
        -11   -1    0    0    0    0  0.00000000000E+00  0.00000000000E+00  0.45593999997E+02  0.45594000000E+02  0.51100000000E-03 0.  1.
         11   -1    0    0    0    0 -0.00000000000E+00 -0.00000000000E+00 -0.45593999997E+02  0.45594000000E+02  0.51100000000E-03 0. -1.
         23    2    1    2    0    0  0.35527136788E-14  0.00000000000E+00  0.35527136788E-14  0.91188000000E+02  0.91188000000E+02 0.  0.
    9900012    2    3    3    0    0 -0.14878303088E+02  0.15305256821E+02 -0.30002767473E+02  0.54367070556E+02  0.39999968945E+02 0.  0.
        -12    1    3    3    0    0  0.14878303088E+02 -0.15305256821E+02  0.30002767473E+02  0.36820929444E+02  0.00000000000E+00 0.  1.
         11    1    4    4    0    0 -0.92260821320E+01 -0.42238035454E+01 -0.10117807197E+02  0.14329379981E+02  0.51100000000E-03 0. -1.
        -11    1    4    4    0    0  0.57638714320E+01 -0.71986221613E+00 -0.15271596641E+02  0.16338974255E+02  0.51100000000E-03 0.  1.
        -12    1    4    4    0    0 -0.11416092388E+02  0.20248922583E+02 -0.46133636350E+01  0.23698716320E+02  0.00000000000E+00 0.  1.
</event>
<event>
 8    1  0.1278459E-006  0.9118800E+02  0.7816164E-02  0.1184000E+00
        -11   -1    0    0    0    0  0.00000000000E+00  0.00000000000E+00  0.45593999997E+02  0.45594000000E+02  0.51100000000E-03 0.  1.
         11   -1    0    0    0    0 -0.00000000000E+00 -0.00000000000E+00 -0.45593999997E+02  0.45594000000E+02  0.51100000000E-03 0. -1.
         23    2    1    2    0    0 -0.35527136788E-14 -0.17763568394E-14  0.00000000000E+00  0.91188000000E+02  0.91188000000E+02 0.  0.
    9900012    2    3    3    0    0 -0.28608905627E+02 -0.10287527862E+02  0.20772032595E+02  0.54367081369E+02  0.39999993598E+02 0.  0.
        -12    1    3    3    0    0  0.28608905627E+02  0.10287527862E+02 -0.20772032595E+02  0.36820918631E+02  0.00000000000E+00 0.  1.
         11    1    4    4    0    0 -0.14555986714E+02 -0.10988066678E+02 -0.54461355213E+01  0.19033516515E+02  0.51100000000E-03 0. -1.
        -11    1    4    4    0    0 -0.60723809707E+01  0.52290900001E+01  0.50186705511E+00  0.80292629602E+01  0.51100000000E-03 0.  1.
        -12    1    4    4    0    0 -0.79805379417E+01 -0.45285511840E+01  0.25716301061E+02  0.27304301894E+02  0.00000000000E+00 0.  1.
</event>
<event>
 8    1  0.1278459E-006  0.9118800E+02  0.7816164E-02  0.1184000E+00
        -11   -1    0    0    0    0  0.00000000000E+00  0.00000000000E+00  0.45593999997E+02  0.45594000000E+02  0.51100000000E-03 0.  1.
         11   -1    0    0    0    0 -0.00000000000E+00 -0.00000000000E+00 -0.45593999997E+02  0.45594000000E+02  0.51100000000E-03 0. -1.
         23    2    1    2    0    0  0.88817841970E-15  0.00000000000E+00  0.35527136788E-14  0.91188000000E+02  0.91188000000E+02 0.  0.
    9900012    2    3    3    0    0  0.68935037683E+01  0.30868754704E+02  0.18851482022E+02  0.54367098522E+02  0.40000032701E+02 0.  0.
         12    1    3    3    0    0 -0.68935037683E+01 -0.30868754704E+02 -0.18851482022E+02  0.36820901478E+02  0.00000000000E+00 0. -1.
         11    1    4    4    0    0 -0.11429647159E+02  0.61034912924E+01  0.85612605537E+01  0.15530119853E+02  0.51100000000E-03 0. -1.
        -11    1    4    4    0    0 -0.29908125220E+01 -0.17162979057E+01  0.11687770137E+01  0.36409721246E+01  0.51100000000E-03 0.  1.
        -12    1    4    4    0    0  0.21313963449E+02  0.26481561318E+02  0.91214444544E+01  0.35196006544E+02  0.00000000000E+00 0.  1.
</event>
<event>
 8    1  0.1278459E-006  0.9118800E+02  0.7816164E-02  0.1184000E+00
        -11   -1    0    0    0    0  0.00000000000E+00  0.00000000000E+00  0.45593999997E+02  0.45594000000E+02  0.51100000000E-03 0.  1.
         11   -1    0    0    0    0 -0.00000000000E+00 -0.00000000000E+00 -0.45593999997E+02  0.45594000000E+02  0.51100000000E-03 0. -1.
         23    2    1    2    0    0  0.00000000000E+00  0.00000000000E+00  0.16653345369E-15  0.91188000000E+02  0.91188000000E+02 0.  0.
    9900012    2    3    3    0    0 -0.36086018427E+02  0.73052943898E+01 -0.46099969055E+00  0.54367074255E+02  0.39999977379E+02 0.  0.
         12    1    3    3    0    0  0.36086018427E+02 -0.73052943898E+01  0.46099969055E+00  0.36820925745E+02  0.00000000000E+00 0. -1.
         11    1    4    4    0    0 -0.34622506388E+00  0.11944248695E+02  0.46741065568E+01  0.12830908816E+02  0.51100000000E-03 0.  1.
        -11    1    4    4    0    0 -0.32164684730E+01 -0.76128510694E+01  0.93726437856E+00  0.83174296281E+01  0.51100000000E-03 0. -1.
        -12    1    4    4    0    0 -0.32523324890E+02  0.29738967644E+01 -0.60723706259E+01  0.33218735811E+02  0.00000000000E+00 0.  1.
</event>
<event>
 8    1  0.1278459E-006  0.9118800E+02  0.7816164E-02  0.1184000E+00
        -11   -1    0    0    0    0  0.00000000000E+00  0.00000000000E+00  0.45593999997E+02  0.45594000000E+02  0.51100000000E-03 0.  1.
         11   -1    0    0    0    0 -0.00000000000E+00 -0.00000000000E+00 -0.45593999997E+02  0.45594000000E+02  0.51100000000E-03 0. -1.
         23    2    1    2    0    0  0.00000000000E+00  0.00000000000E+00  0.00000000000E+00  0.91188000000E+02  0.91188000000E+02 0.  0.
    9900012    2    3    3    0    0 -0.17523193335E+02 -0.11326872962E+02  0.30338259905E+02  0.54367212803E+02  0.40000293225E+02 0.  0.
         12    1    3    3    0    0  0.17523193335E+02  0.11326872962E+02 -0.30338259905E+02  0.36820787197E+02  0.00000000000E+00 0. -1.
         11    1    4    4    0    0  0.12734792538E+01  0.14597564603E+01 -0.79852130337E+01  0.82168282073E+01  0.51100000000E-03 0. -1.
        -11    1    4    4    0    0 -0.13494867102E+02 -0.23837282358E+01  0.16960872331E+02  0.21805155099E+02  0.51100000000E-03 0.  1.
        -12    1    4    4    0    0 -0.53018054874E+01 -0.10402901187E+02  0.21362600608E+02  0.24345229497E+02  0.00000000000E+00 0.  1.
</event>
<event>
 8    1  0.1278459E-006  0.9118800E+02  0.7816164E-02  0.1184000E+00
        -11   -1    0    0    0    0  0.00000000000E+00  0.00000000000E+00  0.45593999997E+02  0.45594000000E+02  0.51100000000E-03 0.  1.
         11   -1    0    0    0    0 -0.00000000000E+00 -0.00000000000E+00 -0.45593999997E+02  0.45594000000E+02  0.51100000000E-03 0. -1.
         23    2    1    2    0    0 -0.17763568394E-14  0.00000000000E+00 -0.71054273576E-14  0.91188000000E+02  0.91188000000E+02 0.  0.
    9900012    2    3    3    0    0 -0.15379081132E+02  0.89852304300E+01 -0.32226219930E+02  0.54367085382E+02  0.40000002744E+02 0.  0.
        -12    1    3    3    0    0  0.15379081132E+02 -0.89852304300E+01  0.32226219930E+02  0.36820914618E+02  0.00000000000E+00 0.  1.
         11    1    4    4    0    0 -0.15252707031E+02 -0.99492219039E+01 -0.18620476485E+02  0.26045234364E+02  0.51100000000E-03 0. -1.
        -11    1    4    4    0    0  0.69966776026E+01  0.69864979361E+01 -0.97523210836E+01  0.13887851442E+02  0.51100000000E-03 0.  1.
        -12    1    4    4    0    0 -0.71230517042E+01  0.11947954398E+02 -0.38534223614E+01  0.14433999576E+02  0.00000000000E+00 0.  1.
</event>
<event>
 8    1  0.1278459E-006  0.9118800E+02  0.7816164E-02  0.1184000E+00
        -11   -1    0    0    0    0  0.00000000000E+00  0.00000000000E+00  0.45593999997E+02  0.45594000000E+02  0.51100000000E-03 0. -1.
         11   -1    0    0    0    0 -0.00000000000E+00 -0.00000000000E+00 -0.45593999997E+02  0.45594000000E+02  0.51100000000E-03 0.  1.
         23    2    1    2    0    0  0.00000000000E+00  0.35527136788E-14  0.00000000000E+00  0.91188000000E+02  0.91188000000E+02 0.  0.
    9900012    2    3    3    0    0  0.21868593753E+02 -0.26619124333E+02 -0.12998678909E+02  0.54367097969E+02  0.40000031440E+02 0.  0.
         12    1    3    3    0    0 -0.21868593753E+02  0.26619124333E+02  0.12998678909E+02  0.36820902031E+02  0.00000000000E+00 0. -1.
         11    1    4    4    0    0  0.10197653464E+02 -0.20418269952E+02 -0.30095993244E+01  0.23020763940E+02  0.51100000000E-03 0. -1.
        -11    1    4    4    0    0  0.10187621682E+02 -0.54449144990E+01  0.75036262117E+01  0.13774582971E+02  0.51100000000E-03 0.  1.
         12    1    4    4    0    0  0.14833186073E+01 -0.75593988162E+00 -0.17492705796E+02  0.17571751058E+02  0.00000000000E+00 0. -1.
</event>
<event>
 8    1  0.1278459E-006  0.9118800E+02  0.7816164E-02  0.1184000E+00
        -11   -1    0    0    0    0  0.00000000000E+00  0.00000000000E+00  0.45593999997E+02  0.45594000000E+02  0.51100000000E-03 0. -1.
         11   -1    0    0    0    0 -0.00000000000E+00 -0.00000000000E+00 -0.45593999997E+02  0.45594000000E+02  0.51100000000E-03 0.  1.
         23    2    1    2    0    0  0.00000000000E+00 -0.12212453271E-14  0.35527136788E-14  0.91188000000E+02  0.91188000000E+02 0.  0.
    9900012    2    3    3    0    0 -0.25771229479E+02 -0.27285474538E+00 -0.26297311556E+02  0.54367091352E+02  0.40000016356E+02 0.  0.
         12    1    3    3    0    0  0.25771229479E+02  0.27285474538E+00  0.26297311556E+02  0.36820908648E+02  0.00000000000E+00 0. -1.
         11    1    4    4    0    0  0.18661309372E+00  0.10463466442E+02 -0.10472707689E+02  0.14805288279E+02  0.51100000000E-03 0. -1.
        -11    1    4    4    0    0 -0.18083150656E+02 -0.17971311101E+02 -0.10007545009E+02  0.27388306222E+02  0.51100000000E-03 0.  1.
         12    1    4    4    0    0 -0.78746919168E+01  0.72349899133E+01 -0.58170588579E+01  0.12173496851E+02  0.00000000000E+00 0. -1.
</event>
<event>
 8    1  0.1278459E-006  0.9118800E+02  0.7816164E-02  0.1184000E+00
        -11   -1    0    0    0    0  0.00000000000E+00  0.00000000000E+00  0.45593999997E+02  0.45594000000E+02  0.51100000000E-03 0. -1.
         11   -1    0    0    0    0 -0.00000000000E+00 -0.00000000000E+00 -0.45593999997E+02  0.45594000000E+02  0.51100000000E-03 0.  1.
         23    2    1    2    0    0 -0.17763568394E-14  0.17763568394E-14  0.00000000000E+00  0.91188000000E+02  0.91188000000E+02 0.  0.
    9900012    2    3    3    0    0  0.15817077555E+02 -0.11383938127E+02  0.31241094100E+02  0.54367082707E+02  0.39999996648E+02 0.  0.
        -12    1    3    3    0    0 -0.15817077555E+02  0.11383938127E+02 -0.31241094100E+02  0.36820917293E+02  0.00000000000E+00 0.  1.
         11    1    4    4    0    0  0.17056722037E+02 -0.12862432022E+01  0.50501025687E+01  0.17835070071E+02  0.51100000000E-03 0. -1.
        -11    1    4    4    0    0  0.81384008872E+00  0.72278190054E+00 -0.41308884973E+01  0.42718835897E+01  0.51100000000E-03 0.  1.
        -12    1    4    4    0    0 -0.20534845706E+01 -0.10820476826E+02  0.30321880029E+02  0.32260129047E+02  0.00000000000E+00 0.  1.
</event>
<event>
 8    1  0.1278459E-006  0.9118800E+02  0.7816164E-02  0.1184000E+00
        -11   -1    0    0    0    0  0.00000000000E+00  0.00000000000E+00  0.45593999997E+02  0.45594000000E+02  0.51100000000E-03 0. -1.
         11   -1    0    0    0    0 -0.00000000000E+00 -0.00000000000E+00 -0.45593999997E+02  0.45594000000E+02  0.51100000000E-03 0.  1.
         23    2    1    2    0    0  0.71054273576E-14  0.00000000000E+00  0.00000000000E+00  0.91188000000E+02  0.91188000000E+02 0.  0.
    9900012    2    3    3    0    0  0.34171974417E+02  0.79135998606E+01  0.11199680040E+02  0.54367058522E+02  0.39999941512E+02 0.  0.
        -12    1    3    3    0    0 -0.34171974417E+02 -0.79135998606E+01 -0.11199680040E+02  0.36820941478E+02  0.00000000000E+00 0.  1.
         11    1    4    4    0    0 -0.64302114134E+01  0.82922386091E+01  0.11776681675E+01  0.10559154443E+02  0.51100000000E-03 0. -1.
        -11    1    4    4    0    0  0.15526493070E+02 -0.64635332909E+01  0.32288958541E+01  0.17125274257E+02  0.51100000000E-03 0.  1.
        -12    1    4    4    0    0  0.25075692760E+02  0.60848945424E+01  0.67931160185E+01  0.26682629823E+02  0.00000000000E+00 0.  1.
</event>
<event>
 8    1  0.1278459E-006  0.9118800E+02  0.7816164E-02  0.1184000E+00
        -11   -1    0    0    0    0  0.00000000000E+00  0.00000000000E+00  0.45593999997E+02  0.45594000000E+02  0.51100000000E-03 0.  1.
         11   -1    0    0    0    0 -0.00000000000E+00 -0.00000000000E+00 -0.45593999997E+02  0.45594000000E+02  0.51100000000E-03 0. -1.
         23    2    1    2    0    0  0.00000000000E+00  0.00000000000E+00  0.00000000000E+00  0.91188000000E+02  0.91188000000E+02 0.  0.
    9900012    2    3    3    0    0 -0.85658064701E+01 -0.56040847830E+01  0.35369468722E+02  0.54367107501E+02  0.40000053171E+02 0.  0.
         12    1    3    3    0    0  0.85658064701E+01  0.56040847830E+01 -0.35369468722E+02  0.36820892499E+02  0.00000000000E+00 0. -1.
         11    1    4    4    0    0 -0.10121448208E+02 -0.80202813546E+01 -0.22295682002E+01  0.13104945687E+02  0.51100000000E-03 0. -1.
        -11    1    4    4    0    0 -0.45854442270E+01  0.67806730835E+01  0.27305557341E+02  0.28506092124E+02  0.51100000000E-03 0.  1.
         12    1    4    4    0    0  0.61410859653E+01 -0.43644765119E+01  0.10293479581E+02  0.12756069690E+02  0.00000000000E+00 0. -1.
</event>
<event>
 8    1  0.1278459E-006  0.9118800E+02  0.7816164E-02  0.1184000E+00
        -11   -1    0    0    0    0  0.00000000000E+00  0.00000000000E+00  0.45593999997E+02  0.45594000000E+02  0.51100000000E-03 0.  1.
         11   -1    0    0    0    0 -0.00000000000E+00 -0.00000000000E+00 -0.45593999997E+02  0.45594000000E+02  0.51100000000E-03 0. -1.
         23    2    1    2    0    0  0.71054273576E-14  0.17763568394E-14 -0.22204460493E-15  0.91188000000E+02  0.91188000000E+02 0.  0.
    9900012    2    3    3    0    0 -0.34925631572E+02 -0.11601643655E+02  0.11757027256E+01  0.54367079953E+02  0.39999990368E+02 0.  0.
         12    1    3    3    0    0  0.34925631572E+02  0.11601643655E+02 -0.11757027256E+01  0.36820920047E+02  0.00000000000E+00 0. -1.
         11    1    4    4    0    0  0.19241912253E+01 -0.65806839743E+01 -0.81734971465E+01  0.10668363010E+02  0.51100000000E-03 0. -1.
        -11    1    4    4    0    0 -0.17418973830E+02 -0.55389484774E+00  0.14980104098E+02  0.22981100231E+02  0.51100000000E-03 0.  1.
        -12    1    4    4    0    0 -0.19430848967E+02 -0.44670648333E+01 -0.56309042255E+01  0.20717616712E+02  0.00000000000E+00 0.  1.
</event>
<event>
 8    1  0.1278459E-006  0.9118800E+02  0.7816164E-02  0.1184000E+00
        -11   -1    0    0    0    0  0.00000000000E+00  0.00000000000E+00  0.45593999997E+02  0.45594000000E+02  0.51100000000E-03 0.  1.
         11   -1    0    0    0    0 -0.00000000000E+00 -0.00000000000E+00 -0.45593999997E+02  0.45594000000E+02  0.51100000000E-03 0. -1.
         23    2    1    2    0    0  0.00000000000E+00  0.00000000000E+00 -0.35527136788E-14  0.91188000000E+02  0.91188000000E+02 0.  0.
    9900012    2    3    3    0    0  0.21410777551E+02  0.42025613056E+01  0.29659682642E+02  0.54367086224E+02  0.40000004665E+02 0.  0.
         12    1    3    3    0    0 -0.21410777551E+02 -0.42025613056E+01 -0.29659682642E+02  0.36820913776E+02  0.00000000000E+00 0. -1.
         11    1    4    4    0    0  0.11755069694E+02 -0.10896666785E+01 -0.74053350692E+00  0.11828669711E+02  0.51100000000E-03 0. -1.
        -11    1    4    4    0    0  0.19325259649E+02  0.54161459351E+01  0.19888141361E+02  0.28254883902E+02  0.51100000000E-03 0.  1.
        -12    1    4    4    0    0 -0.96695517918E+01 -0.12391795109E+00  0.10512074788E+02  0.14283532611E+02  0.00000000000E+00 0.  1.
</event>
<event>
 8    1  0.1278459E-006  0.9118800E+02  0.7816164E-02  0.1184000E+00
        -11   -1    0    0    0    0  0.00000000000E+00  0.00000000000E+00  0.45593999997E+02  0.45594000000E+02  0.51100000000E-03 0. -1.
         11   -1    0    0    0    0 -0.00000000000E+00 -0.00000000000E+00 -0.45593999997E+02  0.45594000000E+02  0.51100000000E-03 0.  1.
         23    2    1    2    0    0  0.00000000000E+00  0.00000000000E+00  0.00000000000E+00  0.91188000000E+02  0.91188000000E+02 0.  0.
    9900012    2    3    3    0    0 -0.10357928737E+02 -0.34073145724E+02  0.93548877266E+01  0.54367083775E+02  0.39999999082E+02 0.  0.
        -12    1    3    3    0    0  0.10357928737E+02  0.34073145724E+02 -0.93548877266E+01  0.36820916225E+02  0.00000000000E+00 0.  1.
         11    1    4    4    0    0 -0.14481650722E+02 -0.33695040857E+02  0.21601382772E+01  0.36738810319E+02  0.51100000000E-03 0. -1.
        -11    1    4    4    0    0  0.91680222006E+01 -0.30771897572E+01  0.19464627445E+01  0.98646056865E+01  0.51100000000E-03 0.  1.
         12    1    4    4    0    0 -0.50443002153E+01  0.26990848900E+01  0.52482867049E+01  0.77636677699E+01  0.00000000000E+00 0. -1.
</event>
<event>
 8    1  0.1278459E-006  0.9118800E+02  0.7816164E-02  0.1184000E+00
        -11   -1    0    0    0    0  0.00000000000E+00  0.00000000000E+00  0.45593999997E+02  0.45594000000E+02  0.51100000000E-03 0. -1.
         11   -1    0    0    0    0 -0.00000000000E+00 -0.00000000000E+00 -0.45593999997E+02  0.45594000000E+02  0.51100000000E-03 0.  1.
         23    2    1    2    0    0 -0.88817841970E-15  0.00000000000E+00  0.17763568394E-14  0.91188000000E+02  0.91188000000E+02 0.  0.
    9900012    2    3    3    0    0  0.63256301672E+01  0.35037427853E+02 -0.93890359644E+01  0.54366960581E+02  0.39999718235E+02 0.  0.
         12    1    3    3    0    0 -0.63256301672E+01 -0.35037427853E+02  0.93890359644E+01  0.36821039419E+02  0.00000000000E+00 0. -1.
         11    1    4    4    0    0 -0.10641602527E+02  0.76631548485E+01  0.21529435738E+01  0.13289199105E+02  0.51100000000E-03 0. -1.
        -11    1    4    4    0    0  0.51374945140E+01  0.11838462825E+02  0.65372219081E+01  0.14466455076E+02  0.51100000000E-03 0.  1.
        -12    1    4    4    0    0  0.11829738180E+02  0.15535810179E+02 -0.18079201446E+02  0.26611306399E+02  0.00000000000E+00 0.  1.
</event>
<event>
 8    1  0.1278459E-006  0.9118800E+02  0.7816164E-02  0.1184000E+00
        -11   -1    0    0    0    0  0.00000000000E+00  0.00000000000E+00  0.45593999997E+02  0.45594000000E+02  0.51100000000E-03 0.  1.
         11   -1    0    0    0    0 -0.00000000000E+00 -0.00000000000E+00 -0.45593999997E+02  0.45594000000E+02  0.51100000000E-03 0. -1.
         23    2    1    2    0    0  0.00000000000E+00  0.35527136788E-14  0.00000000000E+00  0.91188000000E+02  0.91188000000E+02 0.  0.
    9900012    2    3    3    0    0  0.14485879034E+02  0.16489105560E+02 -0.29564341026E+02  0.54367060932E+02  0.39999947006E+02 0.  0.
        -12    1    3    3    0    0 -0.14485879034E+02 -0.16489105560E+02  0.29564341026E+02  0.36820939068E+02  0.00000000000E+00 0.  1.
         11    1    4    4    0    0  0.17683826629E+02  0.16809960474E+01 -0.23218861280E+02  0.29234551328E+02  0.51100000000E-03 0. -1.
        -11    1    4    4    0    0 -0.92928950358E+01  0.53519998004E+01 -0.84924455220E+01  0.13679306679E+02  0.51100000000E-03 0.  1.
         12    1    4    4    0    0  0.60949474416E+01  0.94561097123E+01  0.21469657760E+01  0.11453202925E+02  0.00000000000E+00 0. -1.
</event>
<event>
 8    1  0.1278459E-006  0.9118800E+02  0.7816164E-02  0.1184000E+00
        -11   -1    0    0    0    0  0.00000000000E+00  0.00000000000E+00  0.45593999997E+02  0.45594000000E+02  0.51100000000E-03 0.  1.
         11   -1    0    0    0    0 -0.00000000000E+00 -0.00000000000E+00 -0.45593999997E+02  0.45594000000E+02  0.51100000000E-03 0. -1.
         23    2    1    2    0    0  0.17763568394E-14 -0.88817841970E-15  0.00000000000E+00  0.91188000000E+02  0.91188000000E+02 0.  0.
    9900012    2    3    3    0    0 -0.95483596922E+01  0.22749850189E+01 -0.35488493755E+02  0.54367083136E+02  0.39999997626E+02 0.  0.
        -12    1    3    3    0    0  0.95483596922E+01 -0.22749850189E+01  0.35488493755E+02  0.36820916864E+02  0.00000000000E+00 0.  1.
         11    1    4    4    0    0 -0.12249033173E+02  0.19652167350E+02 -0.20415641727E+02  0.30871425665E+02  0.51100000000E-03 0. -1.
        -11    1    4    4    0    0 -0.88710205797E+00 -0.34833175824E+01 -0.21740862023E+01  0.42008454526E+01  0.51100000000E-03 0.  1.
         12    1    4    4    0    0  0.35877755392E+01 -0.13893864749E+02 -0.12898765826E+02  0.19294812018E+02  0.00000000000E+00 0. -1.
</event>
<event>
 8    1  0.1278459E-006  0.9118800E+02  0.7816164E-02  0.1184000E+00
        -11   -1    0    0    0    0  0.00000000000E+00  0.00000000000E+00  0.45593999997E+02  0.45594000000E+02  0.51100000000E-03 0.  1.
         11   -1    0    0    0    0 -0.00000000000E+00 -0.00000000000E+00 -0.45593999997E+02  0.45594000000E+02  0.51100000000E-03 0. -1.
         23    2    1    2    0    0  0.00000000000E+00  0.00000000000E+00 -0.17763568394E-14  0.91188000000E+02  0.91188000000E+02 0.  0.
    9900012    2    3    3    0    0 -0.44017751663E+01 -0.34850792328E+02 -0.11037527438E+02  0.54367077110E+02  0.39999983888E+02 0.  0.
         12    1    3    3    0    0  0.44017751663E+01  0.34850792328E+02  0.11037527438E+02  0.36820922890E+02  0.00000000000E+00 0. -1.
         11    1    4    4    0    0  0.44861817217E+01 -0.18424796355E+02 -0.67313204438E+01  0.20122366221E+02  0.51100000000E-03 0. -1.
        -11    1    4    4    0    0 -0.69176462425E+01  0.48624821614E+01  0.61399130892E+01  0.10449693551E+02  0.51100000000E-03 0.  1.
        -12    1    4    4    0    0 -0.19703106456E+01 -0.21288478134E+02 -0.10446120083E+02  0.23795017338E+02  0.00000000000E+00 0.  1.
</event>
<event>
 8    1  0.1278459E-006  0.9118800E+02  0.7816164E-02  0.1184000E+00
        -11   -1    0    0    0    0  0.00000000000E+00  0.00000000000E+00  0.45593999997E+02  0.45594000000E+02  0.51100000000E-03 0.  1.
         11   -1    0    0    0    0 -0.00000000000E+00 -0.00000000000E+00 -0.45593999997E+02  0.45594000000E+02  0.51100000000E-03 0. -1.
         23    2    1    2    0    0  0.35527136788E-14  0.00000000000E+00  0.00000000000E+00  0.91188000000E+02  0.91188000000E+02 0.  0.
    9900012    2    3    3    0    0 -0.25040053590E+02 -0.18253335901E+02  0.19889468407E+02  0.54367088702E+02  0.40000010313E+02 0.  0.
         12    1    3    3    0    0  0.25040053590E+02  0.18253335901E+02 -0.19889468407E+02  0.36820911298E+02  0.00000000000E+00 0. -1.
         11    1    4    4    0    0 -0.29204416906E+02 -0.19408215168E+02  0.34028607176E+01  0.35230047461E+02  0.51100000000E-03 0. -1.
        -11    1    4    4    0    0  0.53668254245E+01  0.35121909830E+01  0.80361524796E+01  0.10281928203E+02  0.51100000000E-03 0.  1.
         12    1    4    4    0    0 -0.12024621094E+01 -0.23573117157E+01  0.84504552096E+01  0.88551130371E+01  0.00000000000E+00 0. -1.
</event>
<event>
 8    1  0.1278459E-006  0.9118800E+02  0.7816164E-02  0.1184000E+00
        -11   -1    0    0    0    0  0.00000000000E+00  0.00000000000E+00  0.45593999997E+02  0.45594000000E+02  0.51100000000E-03 0. -1.
         11   -1    0    0    0    0 -0.00000000000E+00 -0.00000000000E+00 -0.45593999997E+02  0.45594000000E+02  0.51100000000E-03 0.  1.
         23    2    1    2    0    0  0.00000000000E+00  0.35527136788E-14  0.00000000000E+00  0.91188000000E+02  0.91188000000E+02 0.  0.
    9900012    2    3    3    0    0 -0.22589360743E+02  0.23378921854E+02 -0.17289486986E+02  0.54367087924E+02  0.40000008540E+02 0.  0.
         12    1    3    3    0    0  0.22589360743E+02 -0.23378921854E+02  0.17289486986E+02  0.36820912076E+02  0.00000000000E+00 0. -1.
         11    1    4    4    0    0 -0.98176462338E+01  0.75504560852E+01 -0.91969558282E+00  0.12419396318E+02  0.51100000000E-03 0. -1.
        -11    1    4    4    0    0 -0.14569691724E+02 -0.20604729940E+01  0.35266350671E+01  0.15131378690E+02  0.51100000000E-03 0.  1.
        -12    1    4    4    0    0  0.17979772147E+01  0.17888938763E+02 -0.19896426470E+02  0.26816312916E+02  0.00000000000E+00 0.  1.
</event>
<event>
 8    1  0.1278459E-006  0.9118800E+02  0.7816164E-02  0.1184000E+00
        -11   -1    0    0    0    0  0.00000000000E+00  0.00000000000E+00  0.45593999997E+02  0.45594000000E+02  0.51100000000E-03 0. -1.
         11   -1    0    0    0    0 -0.00000000000E+00 -0.00000000000E+00 -0.45593999997E+02  0.45594000000E+02  0.51100000000E-03 0.  1.
         23    2    1    2    0    0  0.00000000000E+00 -0.26645352591E-14 -0.35527136788E-14  0.91188000000E+02  0.91188000000E+02 0.  0.
    9900012    2    3    3    0    0 -0.26530499926E+02 -0.72521699018E+01 -0.24480991026E+02  0.54367077738E+02  0.39999985319E+02 0.  0.
        -12    1    3    3    0    0  0.26530499926E+02  0.72521699018E+01  0.24480991026E+02  0.36820922262E+02  0.00000000000E+00 0.  1.
         11    1    4    4    0    0 -0.18764743661E+02 -0.21079392836E+02 -0.20653207352E+02  0.34971579621E+02  0.51100000000E-03 0. -1.
        -11    1    4    4    0    0 -0.36069510910E+01  0.10392223318E+02  0.22933249864E+01  0.11236891982E+02  0.51100000000E-03 0.  1.
         12    1    4    4    0    0 -0.41588051748E+01  0.34349996164E+01 -0.61211086601E+01  0.81586061356E+01  0.00000000000E+00 0. -1.
</event>
<event>
 8    1  0.1278459E-006  0.9118800E+02  0.7816164E-02  0.1184000E+00
        -11   -1    0    0    0    0  0.00000000000E+00  0.00000000000E+00  0.45593999997E+02  0.45594000000E+02  0.51100000000E-03 0.  1.
         11   -1    0    0    0    0 -0.00000000000E+00 -0.00000000000E+00 -0.45593999997E+02  0.45594000000E+02  0.51100000000E-03 0. -1.
         23    2    1    2    0    0  0.00000000000E+00  0.17763568394E-14  0.00000000000E+00  0.91188000000E+02  0.91188000000E+02 0.  0.
    9900012    2    3    3    0    0 -0.23760029268E+02  0.97599031627E+01  0.26381537859E+02  0.54367078769E+02  0.39999987669E+02 0.  0.
         12    1    3    3    0    0  0.23760029268E+02 -0.97599031627E+01 -0.26381537859E+02  0.36820921231E+02  0.00000000000E+00 0. -1.
         11    1    4    4    0    0 -0.22178289944E+01  0.81334065505E+01  0.24509533596E+01  0.87794214044E+01  0.51100000000E-03 0. -1.
        -11    1    4    4    0    0 -0.10881828154E+02 -0.15285177212E+02  0.10461900443E+02  0.21482601973E+02  0.51100000000E-03 0.  1.
        -12    1    4    4    0    0 -0.10660372119E+02  0.16911673824E+02  0.13468684056E+02  0.24105055392E+02  0.00000000000E+00 0.  1.
</event>
<event>
 8    1  0.1278459E-006  0.9118800E+02  0.7816164E-02  0.1184000E+00
        -11   -1    0    0    0    0  0.00000000000E+00  0.00000000000E+00  0.45593999997E+02  0.45594000000E+02  0.51100000000E-03 0.  1.
         11   -1    0    0    0    0 -0.00000000000E+00 -0.00000000000E+00 -0.45593999997E+02  0.45594000000E+02  0.51100000000E-03 0. -1.
         23    2    1    2    0    0 -0.17763568394E-14 -0.44408920985E-15  0.00000000000E+00  0.91188000000E+02  0.91188000000E+02 0.  0.
    9900012    2    3    3    0    0 -0.10280507349E+02  0.22692935904E+01  0.35283767509E+02  0.54367044359E+02  0.39999909224E+02 0.  0.
         12    1    3    3    0    0  0.10280507349E+02 -0.22692935904E+01 -0.35283767509E+02  0.36820955641E+02  0.00000000000E+00 0. -1.
         11    1    4    4    0    0  0.59336047227E+00 -0.55107232377E+01  0.16264434193E+01  0.57762847670E+01  0.51100000000E-03 0. -1.
        -11    1    4    4    0    0 -0.16293448747E+02 -0.63679948250E+01  0.90565478533E+01  0.19698956557E+02  0.51100000000E-03 0.  1.
        -12    1    4    4    0    0  0.54195809262E+01  0.14148011653E+02  0.24600776236E+02  0.28891803034E+02  0.00000000000E+00 0.  1.
</event>
<event>
 8    1  0.1278459E-006  0.9118800E+02  0.7816164E-02  0.1184000E+00
        -11   -1    0    0    0    0  0.00000000000E+00  0.00000000000E+00  0.45593999997E+02  0.45594000000E+02  0.51100000000E-03 0.  1.
         11   -1    0    0    0    0 -0.00000000000E+00 -0.00000000000E+00 -0.45593999997E+02  0.45594000000E+02  0.51100000000E-03 0. -1.
         23    2    1    2    0    0  0.00000000000E+00  0.00000000000E+00 -0.35527136788E-14  0.91188000000E+02  0.91188000000E+02 0.  0.
    9900012    2    3    3    0    0  0.32714950157E+02 -0.12274549926E+01  0.16852720737E+02  0.54366962457E+02  0.39999722512E+02 0.  0.
         12    1    3    3    0    0 -0.32714950157E+02  0.12274549926E+01 -0.16852720737E+02  0.36821037543E+02  0.00000000000E+00 0. -1.
         11    1    4    4    0    0  0.96852447075E+01 -0.64256634496E+01 -0.69296534745E+01  0.13531933097E+02  0.51100000000E-03 0. -1.
        -11    1    4    4    0    0  0.14127525211E+02 -0.32472478002E+01  0.48545787597E+00  0.14504042763E+02  0.51100000000E-03 0.  1.
         12    1    4    4    0    0  0.89021802384E+01  0.84454562572E+01  0.23296916336E+02  0.26330986597E+02  0.00000000000E+00 0. -1.
</event>
<event>
 8    1  0.1278459E-006  0.9118800E+02  0.7816164E-02  0.1184000E+00
        -11   -1    0    0    0    0  0.00000000000E+00  0.00000000000E+00  0.45593999997E+02  0.45594000000E+02  0.51100000000E-03 0.  1.
         11   -1    0    0    0    0 -0.00000000000E+00 -0.00000000000E+00 -0.45593999997E+02  0.45594000000E+02  0.51100000000E-03 0. -1.
         23    2    1    2    0    0  0.00000000000E+00  0.13322676296E-14 -0.35527136788E-14  0.91188000000E+02  0.91188000000E+02 0.  0.
    9900012    2    3    3    0    0  0.31957271082E+02  0.12597339999E+01  0.18246341591E+02  0.54367040123E+02  0.39999899569E+02 0.  0.
         12    1    3    3    0    0 -0.31957271082E+02 -0.12597339999E+01 -0.18246341591E+02  0.36820959877E+02  0.00000000000E+00 0. -1.
         11    1    4    4    0    0  0.87777025745E+01 -0.77688120203E+01  0.50670469148E+01  0.12770178832E+02  0.51100000000E-03 0. -1.
        -11    1    4    4    0    0  0.25051871608E+02 -0.25960565208E+01  0.18449029814E+01  0.25253503674E+02  0.51100000000E-03 0.  1.
         12    1    4    4    0    0 -0.18723031001E+01  0.11624602541E+02  0.11334391695E+02  0.16343357618E+02  0.00000000000E+00 0. -1.
</event>
<event>
 8    1  0.1278459E-006  0.9118800E+02  0.7816164E-02  0.1184000E+00
        -11   -1    0    0    0    0  0.00000000000E+00  0.00000000000E+00  0.45593999997E+02  0.45594000000E+02  0.51100000000E-03 0.  1.
         11   -1    0    0    0    0 -0.00000000000E+00 -0.00000000000E+00 -0.45593999997E+02  0.45594000000E+02  0.51100000000E-03 0. -1.
         23    2    1    2    0    0  0.35527136788E-14  0.88817841970E-15  0.00000000000E+00  0.91188000000E+02  0.91188000000E+02 0.  0.
    9900012    2    3    3    0    0 -0.21820841186E+02 -0.75301086221E+01 -0.28686716207E+02  0.54367091094E+02  0.40000015768E+02 0.  0.
        -12    1    3    3    0    0  0.21820841186E+02  0.75301086221E+01  0.28686716207E+02  0.36820908906E+02  0.00000000000E+00 0.  1.
         11    1    4    4    0    0 -0.10753313706E+02  0.43465687823E+01 -0.78371303172E+01  0.13998108004E+02  0.51100000000E-03 0. -1.
        -11    1    4    4    0    0  0.57223696382E+01 -0.66727608570E+01 -0.21026722507E+02  0.22790224031E+02  0.51100000000E-03 0.  1.
        -12    1    4    4    0    0 -0.16789897118E+02 -0.52039165473E+01  0.17713661754E+00  0.17578759059E+02  0.00000000000E+00 0.  1.
</event>
<event>
 8    1  0.1278459E-006  0.9118800E+02  0.7816164E-02  0.1184000E+00
        -11   -1    0    0    0    0  0.00000000000E+00  0.00000000000E+00  0.45593999997E+02  0.45594000000E+02  0.51100000000E-03 0.  1.
         11   -1    0    0    0    0 -0.00000000000E+00 -0.00000000000E+00 -0.45593999997E+02  0.45594000000E+02  0.51100000000E-03 0. -1.
         23    2    1    2    0    0  0.00000000000E+00  0.88817841970E-15  0.00000000000E+00  0.91188000000E+02  0.91188000000E+02 0.  0.
    9900012    2    3    3    0    0  0.30806103232E+02 -0.53270169813E+00  0.20161329188E+02  0.54367096126E+02  0.40000027239E+02 0.  0.
         12    1    3    3    0    0 -0.30806103232E+02  0.53270169813E+00 -0.20161329188E+02  0.36820903874E+02  0.00000000000E+00 0. -1.
         11    1    4    4    0    0  0.20519678130E+02  0.54341809737E+01  0.64494602415E+01  0.22185198919E+02  0.51100000000E-03 0. -1.
        -11    1    4    4    0    0  0.22761143334E+01  0.88646269035E+01  0.12209158635E+02  0.15258632358E+02  0.51100000000E-03 0.  1.
        -12    1    4    4    0    0  0.80103107690E+01 -0.14831509575E+02  0.15027103122E+01  0.16923264850E+02  0.00000000000E+00 0.  1.
</event>
<event>
 8    1  0.1278459E-006  0.9118800E+02  0.7816164E-02  0.1184000E+00
        -11   -1    0    0    0    0  0.00000000000E+00  0.00000000000E+00  0.45593999997E+02  0.45594000000E+02  0.51100000000E-03 0.  1.
         11   -1    0    0    0    0 -0.00000000000E+00 -0.00000000000E+00 -0.45593999997E+02  0.45594000000E+02  0.51100000000E-03 0. -1.
         23    2    1    2    0    0  0.00000000000E+00  0.35527136788E-14  0.17763568394E-14  0.91188000000E+02  0.91188000000E+02 0.  0.
    9900012    2    3    3    0    0  0.27693227951E+02  0.21763656421E+02  0.10733764965E+02  0.54367009716E+02  0.39999830248E+02 0.  0.
         12    1    3    3    0    0 -0.27693227951E+02 -0.21763656421E+02 -0.10733764965E+02  0.36820990284E+02  0.00000000000E+00 0. -1.
         11    1    4    4    0    0  0.21038602416E+02  0.41931295548E+01 -0.36303842523E+01  0.21757408328E+02  0.51100000000E-03 0. -1.
        -11    1    4    4    0    0  0.14486463291E+02  0.13341981965E+02  0.13017954382E+02  0.23607906260E+02  0.51100000000E-03 0.  1.
         12    1    4    4    0    0 -0.78318377560E+01  0.42285449020E+01  0.13461948351E+01  0.90016951269E+01  0.00000000000E+00 0. -1.
</event>
<event>
 8    1  0.1278459E-006  0.9118800E+02  0.7816164E-02  0.1184000E+00
        -11   -1    0    0    0    0  0.00000000000E+00  0.00000000000E+00  0.45593999997E+02  0.45594000000E+02  0.51100000000E-03 0. -1.
         11   -1    0    0    0    0 -0.00000000000E+00 -0.00000000000E+00 -0.45593999997E+02  0.45594000000E+02  0.51100000000E-03 0.  1.
         23    2    1    2    0    0 -0.22204460493E-14  0.00000000000E+00  0.00000000000E+00  0.91188000000E+02  0.91188000000E+02 0.  0.
    9900012    2    3    3    0    0 -0.34802389728E+01 -0.52490477595E+01 -0.36278311555E+02  0.54367075854E+02  0.39999981025E+02 0.  0.
         12    1    3    3    0    0  0.34802389728E+01  0.52490477595E+01  0.36278311555E+02  0.36820924146E+02  0.00000000000E+00 0. -1.
         11    1    4    4    0    0  0.30688513920E+01 -0.25235066276E+01  0.30511371007E+01  0.50095281648E+01  0.51100000000E-03 0. -1.
        -11    1    4    4    0    0  0.10738063909E+02 -0.56738830889E+01 -0.13772913989E+02  0.18362791886E+02  0.51100000000E-03 0.  1.
        -12    1    4    4    0    0 -0.17287154274E+02  0.29483419570E+01 -0.25556534666E+02  0.30994755804E+02  0.00000000000E+00 0.  1.
</event>
<event>
 8    1  0.1278459E-006  0.9118800E+02  0.7816164E-02  0.1184000E+00
        -11   -1    0    0    0    0  0.00000000000E+00  0.00000000000E+00  0.45593999997E+02  0.45594000000E+02  0.51100000000E-03 0.  1.
         11   -1    0    0    0    0 -0.00000000000E+00 -0.00000000000E+00 -0.45593999997E+02  0.45594000000E+02  0.51100000000E-03 0. -1.
         23    2    1    2    0    0 -0.17763568394E-14  0.00000000000E+00  0.00000000000E+00  0.91188000000E+02  0.91188000000E+02 0.  0.
    9900012    2    3    3    0    0 -0.90659448841E+01 -0.13395250203E+02 -0.33078000322E+02  0.54367106611E+02  0.40000051142E+02 0.  0.
        -12    1    3    3    0    0  0.90659448841E+01  0.13395250203E+02  0.33078000322E+02  0.36820893389E+02  0.00000000000E+00 0.  1.
         11    1    4    4    0    0  0.13944542108E+01 -0.15979092204E+02 -0.52151945103E+01  0.16866361322E+02  0.51100000000E-03 0. -1.
        -11    1    4    4    0    0 -0.67460571208E+01 -0.29774558062E+01  0.13809054390E+01  0.75020950306E+01  0.51100000000E-03 0.  1.
         12    1    4    4    0    0 -0.37143419741E+01  0.55612978074E+01 -0.29243711251E+02  0.29998650258E+02  0.00000000000E+00 0. -1.
</event>
<event>
 8    1  0.1278459E-006  0.9118800E+02  0.7816164E-02  0.1184000E+00
        -11   -1    0    0    0    0  0.00000000000E+00  0.00000000000E+00  0.45593999997E+02  0.45594000000E+02  0.51100000000E-03 0.  1.
         11   -1    0    0    0    0 -0.00000000000E+00 -0.00000000000E+00 -0.45593999997E+02  0.45594000000E+02  0.51100000000E-03 0. -1.
         23    2    1    2    0    0 -0.17763568394E-14  0.00000000000E+00 -0.22204460493E-15  0.91188000000E+02  0.91188000000E+02 0.  0.
    9900012    2    3    3    0    0  0.92314630226E+01 -0.35601026438E+02  0.17679874936E+01  0.54367098697E+02  0.40000033100E+02 0.  0.
        -12    1    3    3    0    0 -0.92314630226E+01  0.35601026438E+02 -0.17679874936E+01  0.36820901303E+02  0.00000000000E+00 0.  1.
         11    1    4    4    0    0  0.37361818515E+01 -0.36711442128E+01 -0.66526855729E+01  0.84672652168E+01  0.51100000000E-03 0. -1.
        -11    1    4    4    0    0  0.13797800559E+02 -0.11878566779E+02  0.14597216069E+02  0.23335774387E+02  0.51100000000E-03 0.  1.
         12    1    4    4    0    0 -0.83025193884E+01 -0.20051315446E+02 -0.61765430029E+01  0.22564059094E+02  0.00000000000E+00 0. -1.
</event>
<event>
 8    1  0.1278459E-006  0.9118800E+02  0.7816164E-02  0.1184000E+00
        -11   -1    0    0    0    0  0.00000000000E+00  0.00000000000E+00  0.45593999997E+02  0.45594000000E+02  0.51100000000E-03 0. -1.
         11   -1    0    0    0    0 -0.00000000000E+00 -0.00000000000E+00 -0.45593999997E+02  0.45594000000E+02  0.51100000000E-03 0.  1.
         23    2    1    2    0    0  0.17763568394E-14  0.00000000000E+00  0.00000000000E+00  0.91188000000E+02  0.91188000000E+02 0.  0.
    9900012    2    3    3    0    0 -0.83619718706E+01  0.34179864487E+02  0.10844109929E+02  0.54367076192E+02  0.39999981795E+02 0.  0.
         12    1    3    3    0    0  0.83619718706E+01 -0.34179864487E+02 -0.10844109929E+02  0.36820923808E+02  0.00000000000E+00 0. -1.
         11    1    4    4    0    0  0.73561391806E+01  0.78799726550E+01 -0.28182461021E+00  0.10783606913E+02  0.51100000000E-03 0. -1.
        -11    1    4    4    0    0  0.63991143730E+01  0.11832605106E+02  0.10638326503E+02  0.17150311933E+02  0.51100000000E-03 0.  1.
         12    1    4    4    0    0 -0.22117225424E+02  0.14467286726E+02  0.48760803619E+00  0.26433157346E+02  0.00000000000E+00 0. -1.
</event>
<event>
 8    1  0.1278459E-006  0.9118800E+02  0.7816164E-02  0.1184000E+00
        -11   -1    0    0    0    0  0.00000000000E+00  0.00000000000E+00  0.45593999997E+02  0.45594000000E+02  0.51100000000E-03 0. -1.
         11   -1    0    0    0    0 -0.00000000000E+00 -0.00000000000E+00 -0.45593999997E+02  0.45594000000E+02  0.51100000000E-03 0.  1.
         23    2    1    2    0    0 -0.35527136788E-14  0.00000000000E+00  0.00000000000E+00  0.91188000000E+02  0.91188000000E+02 0.  0.
    9900012    2    3    3    0    0 -0.25581463814E+02 -0.23384819312E+02  0.12430774388E+02  0.54367011189E+02  0.39999833608E+02 0.  0.
         12    1    3    3    0    0  0.25581463814E+02  0.23384819312E+02 -0.12430774388E+02  0.36820988811E+02  0.00000000000E+00 0. -1.
         11    1    4    4    0    0  0.10445390116E+01  0.81565179472E+01  0.48930186527E-01  0.82232743596E+01  0.51100000000E-03 0. -1.
        -11    1    4    4    0    0 -0.18304406313E+02 -0.13160662637E+02  0.14236915393E+00  0.22544946235E+02  0.51100000000E-03 0.  1.
         12    1    4    4    0    0 -0.83215965123E+01 -0.18380674622E+02  0.12239475048E+02  0.23598790595E+02  0.00000000000E+00 0. -1.
</event>
<event>
 8    1  0.1278459E-006  0.9118800E+02  0.7816164E-02  0.1184000E+00
        -11   -1    0    0    0    0  0.00000000000E+00  0.00000000000E+00  0.45593999997E+02  0.45594000000E+02  0.51100000000E-03 0. -1.
         11   -1    0    0    0    0 -0.00000000000E+00 -0.00000000000E+00 -0.45593999997E+02  0.45594000000E+02  0.51100000000E-03 0.  1.
         23    2    1    2    0    0  0.35527136788E-14 -0.35527136788E-14  0.00000000000E+00  0.91188000000E+02  0.91188000000E+02 0.  0.
    9900012    2    3    3    0    0 -0.31800825192E+02  0.17890264453E+02 -0.49418713728E+01  0.54367134478E+02  0.40000114669E+02 0.  0.
        -12    1    3    3    0    0  0.31800825192E+02 -0.17890264453E+02  0.49418713728E+01  0.36820865522E+02  0.00000000000E+00 0.  1.
         11    1    4    4    0    0  0.52694669638E+01  0.40187791944E+01 -0.11066354715E+02  0.12898917600E+02  0.51100000000E-03 0. -1.
        -11    1    4    4    0    0 -0.26629415914E+02  0.49400121851E+01  0.21695682643E+01  0.27170508627E+02  0.51100000000E-03 0.  1.
         12    1    4    4    0    0 -0.10440876242E+02  0.89314730740E+01  0.39549150784E+01  0.14297708252E+02  0.00000000000E+00 0. -1.
</event>
<event>
 8    1  0.1278459E-006  0.9118800E+02  0.7816164E-02  0.1184000E+00
        -11   -1    0    0    0    0  0.00000000000E+00  0.00000000000E+00  0.45593999997E+02  0.45594000000E+02  0.51100000000E-03 0. -1.
         11   -1    0    0    0    0 -0.00000000000E+00 -0.00000000000E+00 -0.45593999997E+02  0.45594000000E+02  0.51100000000E-03 0.  1.
         23    2    1    2    0    0  0.00000000000E+00  0.00000000000E+00  0.17763568394E-14  0.91188000000E+02  0.91188000000E+02 0.  0.
    9900012    2    3    3    0    0  0.93531681458E+01 -0.35117403957E+02  0.59216176077E+01  0.54367090586E+02  0.40000014608E+02 0.  0.
        -12    1    3    3    0    0 -0.93531681458E+01  0.35117403957E+02 -0.59216176077E+01  0.36820909414E+02  0.00000000000E+00 0.  1.
         11    1    4    4    0    0  0.96651684246E+01 -0.21421198144E+02 -0.33226899871E+01  0.23734436576E+02  0.51100000000E-03 0.  1.
        -11    1    4    4    0    0 -0.67375022227E+00  0.30016283874E+01 -0.68059443244E+01  0.74689082701E+01  0.51100000000E-03 0. -1.
         12    1    4    4    0    0  0.36174994347E+00 -0.16697834200E+02  0.16050251919E+02  0.23163745739E+02  0.00000000000E+00 0. -1.
</event>
<event>
 8    1  0.1278459E-006  0.9118800E+02  0.7816164E-02  0.1184000E+00
        -11   -1    0    0    0    0  0.00000000000E+00  0.00000000000E+00  0.45593999997E+02  0.45594000000E+02  0.51100000000E-03 0.  1.
         11   -1    0    0    0    0 -0.00000000000E+00 -0.00000000000E+00 -0.45593999997E+02  0.45594000000E+02  0.51100000000E-03 0. -1.
         23    2    1    2    0    0  0.00000000000E+00  0.00000000000E+00  0.00000000000E+00  0.91188000000E+02  0.91188000000E+02 0.  0.
    9900012    2    3    3    0    0 -0.30887158472E+02  0.19268538007E+02 -0.55211703070E+01  0.54367130415E+02  0.40000105408E+02 0.  0.
        -12    1    3    3    0    0  0.30887158472E+02 -0.19268538007E+02  0.55211703070E+01  0.36820869585E+02  0.00000000000E+00 0.  1.
         11    1    4    4    0    0  0.51708630294E+01 -0.38929872909E+01  0.45526856517E-01  0.64726538198E+01  0.51100000000E-03 0. -1.
        -11    1    4    4    0    0 -0.41147509931E+01 -0.39200197394E+01 -0.37088667856E+00  0.56951986517E+01  0.51100000000E-03 0.  1.
        -12    1    4    4    0    0 -0.31943270509E+02  0.27081545037E+02 -0.51958104850E+01  0.42199277944E+02  0.00000000000E+00 0.  1.
</event>
<event>
 8    1  0.1278459E-006  0.9118800E+02  0.7816164E-02  0.1184000E+00
        -11   -1    0    0    0    0  0.00000000000E+00  0.00000000000E+00  0.45593999997E+02  0.45594000000E+02  0.51100000000E-03 0. -1.
         11   -1    0    0    0    0 -0.00000000000E+00 -0.00000000000E+00 -0.45593999997E+02  0.45594000000E+02  0.51100000000E-03 0.  1.
         23    2    1    2    0    0  0.17763568394E-14  0.00000000000E+00  0.00000000000E+00  0.91188000000E+02  0.91188000000E+02 0.  0.
    9900012    2    3    3    0    0 -0.13218761601E+02  0.23911329019E+02 -0.24683807189E+02  0.54367113929E+02  0.40000067824E+02 0.  0.
         12    1    3    3    0    0  0.13218761601E+02 -0.23911329019E+02  0.24683807189E+02  0.36820886071E+02  0.00000000000E+00 0. -1.
         11    1    4    4    0    0 -0.43934550432E-01 -0.69096479729E+00  0.49529085211E+01  0.50010664538E+01  0.51100000000E-03 0. -1.
        -11    1    4    4    0    0  0.73454164687E+01  0.73941746348E+01 -0.16551370751E+02  0.19559571459E+02  0.51100000000E-03 0.  1.
        -12    1    4    4    0    0 -0.20520243519E+02  0.17208119182E+02 -0.13085344958E+02  0.29806476017E+02  0.00000000000E+00 0.  1.
</event>
<event>
 8    1  0.1278459E-006  0.9118800E+02  0.7816164E-02  0.1184000E+00
        -11   -1    0    0    0    0  0.00000000000E+00  0.00000000000E+00  0.45593999997E+02  0.45594000000E+02  0.51100000000E-03 0.  1.
         11   -1    0    0    0    0 -0.00000000000E+00 -0.00000000000E+00 -0.45593999997E+02  0.45594000000E+02  0.51100000000E-03 0. -1.
         23    2    1    2    0    0  0.00000000000E+00  0.00000000000E+00  0.00000000000E+00  0.91188000000E+02  0.91188000000E+02 0.  0.
    9900012    2    3    3    0    0  0.15362732077E+02 -0.16306453340E+02 -0.29221002289E+02  0.54367069374E+02  0.39999966251E+02 0.  0.
        -12    1    3    3    0    0 -0.15362732077E+02  0.16306453340E+02  0.29221002289E+02  0.36820930626E+02  0.00000000000E+00 0.  1.
         11    1    4    4    0    0  0.10874954864E+02 -0.45237818456E+01 -0.56047476853E+01  0.13043866082E+02  0.51100000000E-03 0. -1.
        -11    1    4    4    0    0 -0.73227731777E+01 -0.64941626169E+01  0.41950097864E+01  0.10648721166E+02  0.51100000000E-03 0.  1.
        -12    1    4    4    0    0  0.11810550391E+02 -0.52885088776E+01 -0.27811264391E+02  0.30674482126E+02  0.00000000000E+00 0.  1.
</event>
<event>
 8    1  0.1278459E-006  0.9118800E+02  0.7816164E-02  0.1184000E+00
        -11   -1    0    0    0    0  0.00000000000E+00  0.00000000000E+00  0.45593999997E+02  0.45594000000E+02  0.51100000000E-03 0.  1.
         11   -1    0    0    0    0 -0.00000000000E+00 -0.00000000000E+00 -0.45593999997E+02  0.45594000000E+02  0.51100000000E-03 0. -1.
         23    2    1    2    0    0 -0.71054273576E-14  0.23314683517E-14  0.00000000000E+00  0.91188000000E+02  0.91188000000E+02 0.  0.
    9900012    2    3    3    0    0 -0.35653177818E+02  0.64508138869E+00  0.91769298190E+01  0.54367064930E+02  0.39999956121E+02 0.  0.
         12    1    3    3    0    0  0.35653177818E+02 -0.64508138869E+00 -0.91769298190E+01  0.36820935070E+02  0.00000000000E+00 0. -1.
         11    1    4    4    0    0 -0.21704751113E+02 -0.17114413618E+02  0.89190201832E+01  0.29043902900E+02  0.51100000000E-03 0.  1.
        -11    1    4    4    0    0 -0.14378716060E+02  0.13642958940E+02 -0.30115979774E+01  0.20048629051E+02  0.51100000000E-03 0. -1.
        -12    1    4    4    0    0  0.43028935506E+00  0.41165360666E+01  0.32695076133E+01  0.52745329793E+01  0.00000000000E+00 0.  1.
</event>
<event>
 8    1  0.1278459E-006  0.9118800E+02  0.7816164E-02  0.1184000E+00
        -11   -1    0    0    0    0  0.00000000000E+00  0.00000000000E+00  0.45593999997E+02  0.45594000000E+02  0.51100000000E-03 0. -1.
         11   -1    0    0    0    0 -0.00000000000E+00 -0.00000000000E+00 -0.45593999997E+02  0.45594000000E+02  0.51100000000E-03 0.  1.
         23    2    1    2    0    0  0.35527136788E-14  0.00000000000E+00  0.88817841970E-15  0.91188000000E+02  0.91188000000E+02 0.  0.
    9900012    2    3    3    0    0  0.29658571366E+02  0.21021428065E+02 -0.58521670086E+01  0.54367093546E+02  0.40000021358E+02 0.  0.
         12    1    3    3    0    0 -0.29658571366E+02 -0.21021428065E+02  0.58521670086E+01  0.36820906454E+02  0.00000000000E+00 0. -1.
         11    1    4    4    0    0  0.17263105988E+01  0.20951796979E+01 -0.82568656202E+01  0.86917061836E+01  0.51100000000E-03 0. -1.
        -11    1    4    4    0    0  0.33259701766E+02  0.17791902660E+02  0.72211039299E+01  0.38404477656E+02  0.51100000000E-03 0.  1.
        -12    1    4    4    0    0 -0.53274409983E+01  0.11343457071E+01 -0.48164053182E+01  0.72709097067E+01  0.00000000000E+00 0.  1.
</event>
<event>
 8    1  0.1278459E-006  0.9118800E+02  0.7816164E-02  0.1184000E+00
        -11   -1    0    0    0    0  0.00000000000E+00  0.00000000000E+00  0.45593999997E+02  0.45594000000E+02  0.51100000000E-03 0. -1.
         11   -1    0    0    0    0 -0.00000000000E+00 -0.00000000000E+00 -0.45593999997E+02  0.45594000000E+02  0.51100000000E-03 0.  1.
         23    2    1    2    0    0  0.00000000000E+00  0.00000000000E+00  0.88817841970E-15  0.91188000000E+02  0.91188000000E+02 0.  0.
    9900012    2    3    3    0    0 -0.34815262991E+02  0.11190256883E+02 -0.42954705241E+01  0.54367143774E+02  0.40000135860E+02 0.  0.
         12    1    3    3    0    0  0.34815262991E+02 -0.11190256883E+02  0.42954705241E+01  0.36820856226E+02  0.00000000000E+00 0. -1.
         11    1    4    4    0    0 -0.19245908850E+02  0.16986488386E+02 -0.21402425281E+01  0.25759006842E+02  0.51100000000E-03 0. -1.
        -11    1    4    4    0    0 -0.15779335196E+02 -0.15364275281E+01  0.78799234166E+01  0.17704271295E+02  0.51100000000E-03 0.  1.
         12    1    4    4    0    0  0.20998105465E+00 -0.42598039750E+01 -0.10035151413E+02  0.10903865637E+02  0.00000000000E+00 0. -1.
</event>
<event>
 8    1  0.1278459E-006  0.9118800E+02  0.7816164E-02  0.1184000E+00
        -11   -1    0    0    0    0  0.00000000000E+00  0.00000000000E+00  0.45593999997E+02  0.45594000000E+02  0.51100000000E-03 0.  1.
         11   -1    0    0    0    0 -0.00000000000E+00 -0.00000000000E+00 -0.45593999997E+02  0.45594000000E+02  0.51100000000E-03 0. -1.
         23    2    1    2    0    0  0.88817841970E-15  0.00000000000E+00  0.00000000000E+00  0.91188000000E+02  0.91188000000E+02 0.  0.
    9900012    2    3    3    0    0 -0.11481680194E+01  0.14631220945E+02 -0.33769636769E+02  0.54367091760E+02  0.40000017285E+02 0.  0.
        -12    1    3    3    0    0  0.11481680194E+01 -0.14631220945E+02  0.33769636769E+02  0.36820908240E+02  0.00000000000E+00 0.  1.
         11    1    4    4    0    0  0.16198841642E+01 -0.37256889713E+01 -0.12338807057E+02  0.12990417348E+02  0.51100000000E-03 0. -1.
        -11    1    4    4    0    0  0.98047829151E+01 -0.28779285985E+01 -0.95558400402E+01  0.13990365262E+02  0.51100000000E-03 0.  1.
        -12    1    4    4    0    0 -0.12572835099E+02  0.21234838514E+02 -0.11874989671E+02  0.27386309150E+02  0.00000000000E+00 0.  1.
</event>
<event>
 8    1  0.1278459E-006  0.9118800E+02  0.7816164E-02  0.1184000E+00
        -11   -1    0    0    0    0  0.00000000000E+00  0.00000000000E+00  0.45593999997E+02  0.45594000000E+02  0.51100000000E-03 0. -1.
         11   -1    0    0    0    0 -0.00000000000E+00 -0.00000000000E+00 -0.45593999997E+02  0.45594000000E+02  0.51100000000E-03 0.  1.
         23    2    1    2    0    0 -0.44408920985E-15  0.13322676296E-14  0.00000000000E+00  0.91188000000E+02  0.91188000000E+02 0.  0.
    9900012    2    3    3    0    0  0.37306689896E+01 -0.13053223831E+01  0.36607945252E+02  0.54367307268E+02  0.40000508577E+02 0.  0.
        -12    1    3    3    0    0 -0.37306689896E+01  0.13053223831E+01 -0.36607945252E+02  0.36820692732E+02  0.00000000000E+00 0.  1.
         11    1    4    4    0    0 -0.42409822078E+01 -0.96332578072E+01  0.37715891012E+02  0.39157043059E+02  0.51100000000E-03 0. -1.
        -11    1    4    4    0    0  0.30670958927E+01 -0.81266104189E+00 -0.33321871295E+01  0.46011918576E+01  0.51100000000E-03 0.  1.
         12    1    4    4    0    0  0.49045553047E+01  0.91405964660E+01  0.22242413700E+01  0.10609072352E+02  0.00000000000E+00 0. -1.
</event>
<event>
 8    1  0.1278459E-006  0.9118800E+02  0.7816164E-02  0.1184000E+00
        -11   -1    0    0    0    0  0.00000000000E+00  0.00000000000E+00  0.45593999997E+02  0.45594000000E+02  0.51100000000E-03 0.  1.
         11   -1    0    0    0    0 -0.00000000000E+00 -0.00000000000E+00 -0.45593999997E+02  0.45594000000E+02  0.51100000000E-03 0. -1.
         23    2    1    2    0    0  0.00000000000E+00  0.17763568394E-14  0.71054273576E-14  0.91188000000E+02  0.91188000000E+02 0.  0.
    9900012    2    3    3    0    0 -0.16152024830E+02 -0.12909522455E+02 -0.30466791173E+02  0.54367230854E+02  0.40000334377E+02 0.  0.
        -12    1    3    3    0    0  0.16152024830E+02  0.12909522455E+02  0.30466791173E+02  0.36820769146E+02  0.00000000000E+00 0.  1.
         11    1    4    4    0    0  0.31797360660E+01 -0.12364341148E+02 -0.23250583321E+02  0.26525031169E+02  0.51100000000E-03 0. -1.
        -11    1    4    4    0    0  0.14220926215E+01  0.49811355473E+01  0.15963874835E-01  0.51801847333E+01  0.51100000000E-03 0.  1.
        -12    1    4    4    0    0 -0.20753853518E+02 -0.55263168538E+01 -0.72321717270E+01  0.22662014952E+02  0.00000000000E+00 0.  1.
</event>
<event>
 8    1  0.1278459E-006  0.9118800E+02  0.7816164E-02  0.1184000E+00
        -11   -1    0    0    0    0  0.00000000000E+00  0.00000000000E+00  0.45593999997E+02  0.45594000000E+02  0.51100000000E-03 0.  1.
         11   -1    0    0    0    0 -0.00000000000E+00 -0.00000000000E+00 -0.45593999997E+02  0.45594000000E+02  0.51100000000E-03 0. -1.
         23    2    1    2    0    0  0.00000000000E+00 -0.44408920985E-15  0.35527136788E-14  0.91188000000E+02  0.91188000000E+02 0.  0.
    9900012    2    3    3    0    0  0.25910404981E+02  0.33365777660E+01  0.25947999864E+02  0.54367074775E+02  0.39999978565E+02 0.  0.
         12    1    3    3    0    0 -0.25910404981E+02 -0.33365777660E+01 -0.25947999864E+02  0.36820925225E+02  0.00000000000E+00 0. -1.
         11    1    4    4    0    0  0.86007901041E+01  0.70614469375E+01  0.97436874320E+01  0.14791114505E+02  0.51100000000E-03 0. -1.
        -11    1    4    4    0    0  0.18222907602E+02  0.41570499872E+01  0.22640644327E+02  0.29359056556E+02  0.51100000000E-03 0.  1.
        -12    1    4    4    0    0 -0.91329272440E+00 -0.78819191587E+01 -0.64363318957E+01  0.10216903714E+02  0.00000000000E+00 0.  1.
</event>
<event>
 8    1  0.1278459E-006  0.9118800E+02  0.7816164E-02  0.1184000E+00
        -11   -1    0    0    0    0  0.00000000000E+00  0.00000000000E+00  0.45593999997E+02  0.45594000000E+02  0.51100000000E-03 0. -1.
         11   -1    0    0    0    0 -0.00000000000E+00 -0.00000000000E+00 -0.45593999997E+02  0.45594000000E+02  0.51100000000E-03 0.  1.
         23    2    1    2    0    0  0.44408920985E-15  0.00000000000E+00  0.00000000000E+00  0.91188000000E+02  0.91188000000E+02 0.  0.
    9900012    2    3    3    0    0  0.15632012460E+01  0.72429255781E+01 -0.36067665687E+02  0.54367080984E+02  0.39999992720E+02 0.  0.
         12    1    3    3    0    0 -0.15632012460E+01 -0.72429255781E+01  0.36067665687E+02  0.36820919016E+02  0.00000000000E+00 0. -1.
         11    1    4    4    0    0 -0.57846297825E+01 -0.39396451587E+01 -0.61249218034E+01  0.93003985428E+01  0.51100000000E-03 0. -1.
        -11    1    4    4    0    0  0.60689231421E+00  0.11979355798E+02 -0.34741503498E+02  0.36753848086E+02  0.51100000000E-03 0.  1.
        -12    1    4    4    0    0  0.67409387143E+01 -0.79678506090E+00  0.47987596141E+01  0.83128343553E+01  0.00000000000E+00 0.  1.
</event>
<event>
 8    1  0.1278459E-006  0.9118800E+02  0.7816164E-02  0.1184000E+00
        -11   -1    0    0    0    0  0.00000000000E+00  0.00000000000E+00  0.45593999997E+02  0.45594000000E+02  0.51100000000E-03 0.  1.
         11   -1    0    0    0    0 -0.00000000000E+00 -0.00000000000E+00 -0.45593999997E+02  0.45594000000E+02  0.51100000000E-03 0. -1.
         23    2    1    2    0    0  0.00000000000E+00  0.00000000000E+00  0.00000000000E+00  0.91188000000E+02  0.91188000000E+02 0.  0.
    9900012    2    3    3    0    0 -0.91502876742E+01 -0.86112582324E+00  0.35655437273E+02  0.54367088695E+02  0.40000010299E+02 0.  0.
         12    1    3    3    0    0  0.91502876742E+01  0.86112582324E+00 -0.35655437273E+02  0.36820911305E+02  0.00000000000E+00 0. -1.
         11    1    4    4    0    0 -0.11964755793E+02 -0.31180839097E+01  0.10040462874E+02  0.15927608843E+02  0.51100000000E-03 0.  1.
        -11    1    4    4    0    0  0.15116224079E+02 -0.21631503932E+01  0.16631316796E+02  0.22578311466E+02  0.51100000000E-03 0. -1.
         12    1    4    4    0    0 -0.12301755960E+02  0.44201084798E+01  0.89836576019E+01  0.15861168386E+02  0.00000000000E+00 0. -1.
</event>
<event>
 8    1  0.1278459E-006  0.9118800E+02  0.7816164E-02  0.1184000E+00
        -11   -1    0    0    0    0  0.00000000000E+00  0.00000000000E+00  0.45593999997E+02  0.45594000000E+02  0.51100000000E-03 0.  1.
         11   -1    0    0    0    0 -0.00000000000E+00 -0.00000000000E+00 -0.45593999997E+02  0.45594000000E+02  0.51100000000E-03 0. -1.
         23    2    1    2    0    0  0.00000000000E+00  0.00000000000E+00  0.35527136788E-14  0.91188000000E+02  0.91188000000E+02 0.  0.
    9900012    2    3    3    0    0 -0.69107949959E+01 -0.30239261776E+02  0.19839529591E+02  0.54367095956E+02  0.40000026850E+02 0.  0.
         12    1    3    3    0    0  0.69107949959E+01  0.30239261776E+02 -0.19839529591E+02  0.36820904044E+02  0.00000000000E+00 0. -1.
         11    1    4    4    0    0 -0.44884977923E+01 -0.11451124778E+00 -0.10313105598E+02  0.11248105289E+02  0.51100000000E-03 0. -1.
        -11    1    4    4    0    0  0.30079389530E+00 -0.15717041332E+02  0.11956529738E+02  0.19750303006E+02  0.51100000000E-03 0.  1.
         12    1    4    4    0    0 -0.27230910989E+01 -0.14407709196E+02  0.18196105451E+02  0.23368687661E+02  0.00000000000E+00 0. -1.
</event>
<event>
 8    1  0.1278459E-006  0.9118800E+02  0.7816164E-02  0.1184000E+00
        -11   -1    0    0    0    0  0.00000000000E+00  0.00000000000E+00  0.45593999997E+02  0.45594000000E+02  0.51100000000E-03 0.  1.
         11   -1    0    0    0    0 -0.00000000000E+00 -0.00000000000E+00 -0.45593999997E+02  0.45594000000E+02  0.51100000000E-03 0. -1.
         23    2    1    2    0    0  0.00000000000E+00  0.00000000000E+00 -0.17763568394E-14  0.91188000000E+02  0.91188000000E+02 0.  0.
    9900012    2    3    3    0    0  0.20435798728E+02 -0.27282040492E+02 -0.13922920659E+02  0.54367091229E+02  0.40000016075E+02 0.  0.
        -12    1    3    3    0    0 -0.20435798728E+02  0.27282040492E+02  0.13922920659E+02  0.36820908771E+02  0.00000000000E+00 0.  1.
         11    1    4    4    0    0  0.19131870132E+02 -0.35733446779E+02 -0.90653383232E+01  0.41534179090E+02  0.51100000000E-03 0. -1.
        -11    1    4    4    0    0  0.18136325847E+01  0.24773218680E+01 -0.59901039916E+01  0.67311019070E+01  0.51100000000E-03 0.  1.
         12    1    4    4    0    0 -0.50970398900E+00  0.59740844195E+01  0.11325216556E+01  0.61018102321E+01  0.00000000000E+00 0. -1.
</event>
<event>
 8    1  0.1278459E-006  0.9118800E+02  0.7816164E-02  0.1184000E+00
        -11   -1    0    0    0    0  0.00000000000E+00  0.00000000000E+00  0.45593999997E+02  0.45594000000E+02  0.51100000000E-03 0. -1.
         11   -1    0    0    0    0 -0.00000000000E+00 -0.00000000000E+00 -0.45593999997E+02  0.45594000000E+02  0.51100000000E-03 0.  1.
         23    2    1    2    0    0  0.17763568394E-14  0.00000000000E+00  0.71054273576E-14  0.91188000000E+02  0.91188000000E+02 0.  0.
    9900012    2    3    3    0    0  0.14686782210E+02  0.22787810049E+02  0.24915742529E+02  0.54367080887E+02  0.39999992498E+02 0.  0.
        -12    1    3    3    0    0 -0.14686782210E+02 -0.22787810049E+02 -0.24915742529E+02  0.36820919113E+02  0.00000000000E+00 0.  1.
         11    1    4    4    0    0 -0.27804151549E+01  0.22233047222E+02  0.76512924252E+01  0.23676599698E+02  0.51100000000E-03 0.  1.
        -11    1    4    4    0    0  0.66435551049E+01  0.28690124509E+01  0.18196852625E+02  0.19582990134E+02  0.51100000000E-03 0. -1.
         12    1    4    4    0    0  0.10823642260E+02 -0.23142496233E+01 -0.93240252074E+00  0.11107491056E+02  0.00000000000E+00 0. -1.
</event>
<event>
 8    1  0.1278459E-006  0.9118800E+02  0.7816164E-02  0.1184000E+00
        -11   -1    0    0    0    0  0.00000000000E+00  0.00000000000E+00  0.45593999997E+02  0.45594000000E+02  0.51100000000E-03 0.  1.
         11   -1    0    0    0    0 -0.00000000000E+00 -0.00000000000E+00 -0.45593999997E+02  0.45594000000E+02  0.51100000000E-03 0. -1.
         23    2    1    2    0    0  0.88817841970E-15 -0.17763568394E-14  0.00000000000E+00  0.91188000000E+02  0.91188000000E+02 0.  0.
    9900012    2    3    3    0    0 -0.51650322669E+01 -0.12470492296E+02 -0.34257929343E+02  0.54366858528E+02  0.39999485582E+02 0.  0.
        -12    1    3    3    0    0  0.51650322669E+01  0.12470492296E+02  0.34257929343E+02  0.36821141472E+02  0.00000000000E+00 0.  1.
         11    1    4    4    0    0  0.54986398606E+00  0.54649339815E+01 -0.20129685116E+02  0.20865571571E+02  0.51100000000E-03 0. -1.
        -11    1    4    4    0    0  0.86919913466E+01 -0.10270017751E+02 -0.31056948642E+01  0.13808306160E+02  0.51100000000E-03 0.  1.
         12    1    4    4    0    0 -0.14406887600E+02 -0.76654085271E+01 -0.11022549363E+02  0.19692980796E+02  0.00000000000E+00 0. -1.
</event>
<event>
 8    1  0.1278459E-006  0.9118800E+02  0.7816164E-02  0.1184000E+00
        -11   -1    0    0    0    0  0.00000000000E+00  0.00000000000E+00  0.45593999997E+02  0.45594000000E+02  0.51100000000E-03 0.  1.
         11   -1    0    0    0    0 -0.00000000000E+00 -0.00000000000E+00 -0.45593999997E+02  0.45594000000E+02  0.51100000000E-03 0. -1.
         23    2    1    2    0    0  0.35527136788E-14  0.35527136788E-14 -0.35527136788E-14  0.91188000000E+02  0.91188000000E+02 0.  0.
    9900012    2    3    3    0    0  0.20219417603E+02  0.21144297616E+02 -0.22357890743E+02  0.54367062364E+02  0.39999950272E+02 0.  0.
        -12    1    3    3    0    0 -0.20219417603E+02 -0.21144297616E+02  0.22357890743E+02  0.36820937636E+02  0.00000000000E+00 0.  1.
         11    1    4    4    0    0  0.53931849124E+01  0.10842285732E+02 -0.17910091486E+01  0.12241295578E+02  0.51100000000E-03 0. -1.
        -11    1    4    4    0    0  0.19995348650E+01 -0.11369018996E+02 -0.73600981776E+01  0.13690280423E+02  0.51100000000E-03 0.  1.
        -12    1    4    4    0    0  0.12826697825E+02  0.21671030880E+02 -0.13206783417E+02  0.28435486364E+02  0.00000000000E+00 0.  1.
</event>
<event>
 8    1  0.1278459E-006  0.9118800E+02  0.7816164E-02  0.1184000E+00
        -11   -1    0    0    0    0  0.00000000000E+00  0.00000000000E+00  0.45593999997E+02  0.45594000000E+02  0.51100000000E-03 0. -1.
         11   -1    0    0    0    0 -0.00000000000E+00 -0.00000000000E+00 -0.45593999997E+02  0.45594000000E+02  0.51100000000E-03 0.  1.
         23    2    1    2    0    0  0.00000000000E+00  0.00000000000E+00  0.00000000000E+00  0.91188000000E+02  0.91188000000E+02 0.  0.
    9900012    2    3    3    0    0  0.19081923756E+02 -0.21831230761E+02  0.22694893981E+02  0.54367073021E+02  0.39999974567E+02 0.  0.
        -12    1    3    3    0    0 -0.19081923756E+02  0.21831230761E+02 -0.22694893981E+02  0.36820926979E+02  0.00000000000E+00 0.  1.
         11    1    4    4    0    0  0.27413561291E+01 -0.44316123846E+01  0.27177597486E+00  0.52180536789E+01  0.51100000000E-03 0. -1.
        -11    1    4    4    0    0  0.18505937924E+02  0.14366809849E+00  0.25189937812E+02  0.31257372669E+02  0.51100000000E-03 0.  1.
        -12    1    4    4    0    0 -0.21653702966E+01 -0.17543286474E+02 -0.27668198057E+01  0.17891646673E+02  0.00000000000E+00 0.  1.
</event>
<event>
 8    1  0.1278459E-006  0.9118800E+02  0.7816164E-02  0.1184000E+00
        -11   -1    0    0    0    0  0.00000000000E+00  0.00000000000E+00  0.45593999997E+02  0.45594000000E+02  0.51100000000E-03 0.  1.
         11   -1    0    0    0    0 -0.00000000000E+00 -0.00000000000E+00 -0.45593999997E+02  0.45594000000E+02  0.51100000000E-03 0. -1.
         23    2    1    2    0    0  0.00000000000E+00  0.00000000000E+00  0.00000000000E+00  0.91188000000E+02  0.91188000000E+02 0.  0.
    9900012    2    3    3    0    0 -0.12196000200E+02  0.20331375451E+02 -0.28172199439E+02  0.54367081084E+02  0.39999992948E+02 0.  0.
        -12    1    3    3    0    0  0.12196000200E+02 -0.20331375451E+02  0.28172199439E+02  0.36820918916E+02  0.00000000000E+00 0.  1.
         11    1    4    4    0    0 -0.27472485368E+01  0.16359202875E+02 -0.24813976282E+02  0.29848020243E+02  0.51100000000E-03 0. -1.
        -11    1    4    4    0    0 -0.62810008736E+00  0.70261484887E+00  0.89656990081E+01  0.90150949141E+01  0.51100000000E-03 0.  1.
        -12    1    4    4    0    0 -0.88206515756E+01  0.32695577264E+01 -0.12323922164E+02  0.15503965927E+02  0.00000000000E+00 0.  1.
</event>
<event>
 8    1  0.1278459E-006  0.9118800E+02  0.7816164E-02  0.1184000E+00
        -11   -1    0    0    0    0  0.00000000000E+00  0.00000000000E+00  0.45593999997E+02  0.45594000000E+02  0.51100000000E-03 0.  1.
         11   -1    0    0    0    0 -0.00000000000E+00 -0.00000000000E+00 -0.45593999997E+02  0.45594000000E+02  0.51100000000E-03 0. -1.
         23    2    1    2    0    0 -0.35527136788E-14 -0.88817841970E-15 -0.71054273576E-14  0.91188000000E+02  0.91188000000E+02 0.  0.
    9900012    2    3    3    0    0 -0.21790386498E+02 -0.51819907396E+01 -0.29225073603E+02  0.54367096985E+02  0.40000029196E+02 0.  0.
        -12    1    3    3    0    0  0.21790386498E+02  0.51819907396E+01  0.29225073603E+02  0.36820903015E+02  0.00000000000E+00 0.  1.
         11    1    4    4    0    0  0.80584981525E+01 -0.91221540027E+01 -0.16025167449E+02  0.20123595060E+02  0.51100000000E-03 0. -1.
        -11    1    4    4    0    0 -0.16578523442E+02  0.61514113621E+00 -0.12070458022E+02  0.20516378707E+02  0.51100000000E-03 0.  1.
        -12    1    4    4    0    0 -0.13270361208E+02  0.33250221268E+01 -0.11294481321E+01  0.13727123217E+02  0.00000000000E+00 0.  1.
</event>
<event>
 8    1  0.1278459E-006  0.9118800E+02  0.7816164E-02  0.1184000E+00
        -11   -1    0    0    0    0  0.00000000000E+00  0.00000000000E+00  0.45593999997E+02  0.45594000000E+02  0.51100000000E-03 0.  1.
         11   -1    0    0    0    0 -0.00000000000E+00 -0.00000000000E+00 -0.45593999997E+02  0.45594000000E+02  0.51100000000E-03 0. -1.
         23    2    1    2    0    0  0.35527136788E-14 -0.35527136788E-14  0.00000000000E+00  0.91188000000E+02  0.91188000000E+02 0.  0.
    9900012    2    3    3    0    0 -0.23299716379E+02  0.26395374796E+02 -0.10778999694E+02  0.54367089795E+02  0.40000012805E+02 0.  0.
        -12    1    3    3    0    0  0.23299716379E+02 -0.26395374796E+02  0.10778999694E+02  0.36820910205E+02  0.00000000000E+00 0.  1.
         11    1    4    4    0    0 -0.19224080984E+02  0.10435962168E+02 -0.23548251305E+02  0.32140235466E+02  0.51100000000E-03 0. -1.
        -11    1    4    4    0    0 -0.45872511120E+01  0.41790125069E+01  0.28972862806E+01  0.68484513834E+01  0.51100000000E-03 0.  1.
        -12    1    4    4    0    0  0.51161571693E+00  0.11780400121E+02  0.98719653310E+01  0.15378402945E+02  0.00000000000E+00 0.  1.
</event>
<event>
 8    1  0.1278459E-006  0.9118800E+02  0.7816164E-02  0.1184000E+00
        -11   -1    0    0    0    0  0.00000000000E+00  0.00000000000E+00  0.45593999997E+02  0.45594000000E+02  0.51100000000E-03 0. -1.
         11   -1    0    0    0    0 -0.00000000000E+00 -0.00000000000E+00 -0.45593999997E+02  0.45594000000E+02  0.51100000000E-03 0.  1.
         23    2    1    2    0    0  0.35527136788E-14  0.88817841970E-15  0.35527136788E-14  0.91188000000E+02  0.91188000000E+02 0.  0.
    9900012    2    3    3    0    0 -0.25245606827E+02  0.53174015286E+01  0.26270792081E+02  0.54367218644E+02  0.40000306542E+02 0.  0.
        -12    1    3    3    0    0  0.25245606827E+02 -0.53174015286E+01 -0.26270792081E+02  0.36820781356E+02  0.00000000000E+00 0.  1.
         11    1    4    4    0    0 -0.11137326639E+02  0.13152236731E+02 -0.14371302498E+01  0.17294123838E+02  0.51100000000E-03 0. -1.
        -11    1    4    4    0    0  0.83955414605E+00  0.11837626846E+01 -0.20860276114E+01  0.25411919869E+01  0.51100000000E-03 0.  1.
         12    1    4    4    0    0 -0.14947834334E+02 -0.90185978875E+01  0.29793949943E+02  0.34531902819E+02  0.00000000000E+00 0. -1.
</event>
<event>
 8    1  0.1278459E-006  0.9118800E+02  0.7816164E-02  0.1184000E+00
        -11   -1    0    0    0    0  0.00000000000E+00  0.00000000000E+00  0.45593999997E+02  0.45594000000E+02  0.51100000000E-03 0.  1.
         11   -1    0    0    0    0 -0.00000000000E+00 -0.00000000000E+00 -0.45593999997E+02  0.45594000000E+02  0.51100000000E-03 0. -1.
         23    2    1    2    0    0 -0.44408920985E-15 -0.35527136788E-14  0.35527136788E-14  0.91188000000E+02  0.91188000000E+02 0.  0.
    9900012    2    3    3    0    0 -0.29306145655E+01 -0.21867272906E+02 -0.29479048570E+02  0.54367076184E+02  0.39999981776E+02 0.  0.
        -12    1    3    3    0    0  0.29306145655E+01  0.21867272906E+02  0.29479048570E+02  0.36820923816E+02  0.00000000000E+00 0.  1.
         11    1    4    4    0    0 -0.13963938662E+01 -0.23969336027E+02 -0.23511787750E+02  0.33604808419E+02  0.51100000000E-03 0. -1.
        -11    1    4    4    0    0  0.14078886118E+01 -0.85815156864E+01 -0.37040710964E+01  0.94522327927E+01  0.51100000000E-03 0.  1.
        -12    1    4    4    0    0 -0.29421093111E+01  0.10683578808E+02 -0.22631897235E+01  0.11310034972E+02  0.00000000000E+00 0.  1.
</event>
<event>
 8    1  0.1278459E-006  0.9118800E+02  0.7816164E-02  0.1184000E+00
        -11   -1    0    0    0    0  0.00000000000E+00  0.00000000000E+00  0.45593999997E+02  0.45594000000E+02  0.51100000000E-03 0. -1.
         11   -1    0    0    0    0 -0.00000000000E+00 -0.00000000000E+00 -0.45593999997E+02  0.45594000000E+02  0.51100000000E-03 0.  1.
         23    2    1    2    0    0  0.00000000000E+00  0.00000000000E+00  0.00000000000E+00  0.91188000000E+02  0.91188000000E+02 0.  0.
    9900012    2    3    3    0    0  0.32819047405E+02 -0.93536967579E+01 -0.13827453553E+02  0.54367082203E+02  0.39999995498E+02 0.  0.
        -12    1    3    3    0    0 -0.32819047405E+02  0.93536967579E+01  0.13827453553E+02  0.36820917797E+02  0.00000000000E+00 0.  1.
         11    1    4    4    0    0  0.72531588582E+01  0.12454684317E+02  0.55227053809E+00  0.14423331025E+02  0.51100000000E-03 0. -1.
        -11    1    4    4    0    0  0.20631016314E+02 -0.72205048494E+01 -0.88328361019E+01  0.23575273451E+02  0.51100000000E-03 0.  1.
         12    1    4    4    0    0  0.49348722333E+01 -0.14587876225E+02 -0.55468879896E+01  0.16368477727E+02  0.00000000000E+00 0. -1.
</event>
<event>
 8    1  0.1278459E-006  0.9118800E+02  0.7816164E-02  0.1184000E+00
        -11   -1    0    0    0    0  0.00000000000E+00  0.00000000000E+00  0.45593999997E+02  0.45594000000E+02  0.51100000000E-03 0. -1.
         11   -1    0    0    0    0 -0.00000000000E+00 -0.00000000000E+00 -0.45593999997E+02  0.45594000000E+02  0.51100000000E-03 0.  1.
         23    2    1    2    0    0 -0.17763568394E-14  0.00000000000E+00  0.35527136788E-14  0.91188000000E+02  0.91188000000E+02 0.  0.
    9900012    2    3    3    0    0 -0.72251139063E+01 -0.28517183151E+02  0.22143804832E+02  0.54367080698E+02  0.39999992066E+02 0.  0.
        -12    1    3    3    0    0  0.72251139063E+01  0.28517183151E+02 -0.22143804832E+02  0.36820919302E+02  0.00000000000E+00 0.  1.
         11    1    4    4    0    0 -0.10192548939E+02 -0.23569488343E+02  0.57949021075E+01  0.26324698010E+02  0.51100000000E-03 0. -1.
        -11    1    4    4    0    0  0.65665133587E-02  0.84615095359E+01  0.32486710196E+01  0.90637216639E+01  0.51100000000E-03 0.  1.
        -12    1    4    4    0    0  0.29608685194E+01 -0.13409204344E+02  0.13100231705E+02  0.18978661024E+02  0.00000000000E+00 0.  1.
</event>
<event>
 8    1  0.1278459E-006  0.9118800E+02  0.7816164E-02  0.1184000E+00
        -11   -1    0    0    0    0  0.00000000000E+00  0.00000000000E+00  0.45593999997E+02  0.45594000000E+02  0.51100000000E-03 0. -1.
         11   -1    0    0    0    0 -0.00000000000E+00 -0.00000000000E+00 -0.45593999997E+02  0.45594000000E+02  0.51100000000E-03 0.  1.
         23    2    1    2    0    0 -0.35527136788E-14  0.00000000000E+00 -0.13322676296E-14  0.91188000000E+02  0.91188000000E+02 0.  0.
    9900012    2    3    3    0    0  0.30109151743E+02  0.20826988741E+02  0.39319133192E+01  0.54367021998E+02  0.39999858248E+02 0.  0.
        -12    1    3    3    0    0 -0.30109151743E+02 -0.20826988741E+02 -0.39319133192E+01  0.36820978002E+02  0.00000000000E+00 0.  1.
         11    1    4    4    0    0 -0.17536297699E+01 -0.32924463593E+01 -0.27664290194E+01  0.46441953210E+01  0.51100000000E-03 0. -1.
        -11    1    4    4    0    0  0.87935841995E+01 -0.27281919731E+01 -0.72066761682E+01  0.11692148484E+02  0.51100000000E-03 0.  1.
         12    1    4    4    0    0  0.23069197313E+02  0.26847627073E+02  0.13905018507E+02  0.38030678193E+02  0.00000000000E+00 0. -1.
</event>
<event>
 8    1  0.1278459E-006  0.9118800E+02  0.7816164E-02  0.1184000E+00
        -11   -1    0    0    0    0  0.00000000000E+00  0.00000000000E+00  0.45593999997E+02  0.45594000000E+02  0.51100000000E-03 0. -1.
         11   -1    0    0    0    0 -0.00000000000E+00 -0.00000000000E+00 -0.45593999997E+02  0.45594000000E+02  0.51100000000E-03 0.  1.
         23    2    1    2    0    0 -0.35527136788E-14 -0.35527136788E-14  0.00000000000E+00  0.91188000000E+02  0.91188000000E+02 0.  0.
    9900012    2    3    3    0    0  0.21549824158E+02  0.91642053798E+01 -0.28414813911E+02  0.54367092473E+02  0.40000018912E+02 0.  0.
         12    1    3    3    0    0 -0.21549824158E+02 -0.91642053798E+01  0.28414813911E+02  0.36820907527E+02  0.00000000000E+00 0. -1.
         11    1    4    4    0    0  0.14072664174E+02  0.23345628277E+02 -0.16924254593E+02  0.32085645239E+02  0.51100000000E-03 0. -1.
        -11    1    4    4    0    0  0.97283456680E+01 -0.10842635396E+02 -0.10938686919E+02  0.18216978990E+02  0.51100000000E-03 0.  1.
         12    1    4    4    0    0 -0.22511856843E+01 -0.33387875010E+01 -0.55187240015E+00  0.40644682442E+01  0.00000000000E+00 0. -1.
</event>
<event>
 8    1  0.1278459E-006  0.9118800E+02  0.7816164E-02  0.1184000E+00
        -11   -1    0    0    0    0  0.00000000000E+00  0.00000000000E+00  0.45593999997E+02  0.45594000000E+02  0.51100000000E-03 0. -1.
         11   -1    0    0    0    0 -0.00000000000E+00 -0.00000000000E+00 -0.45593999997E+02  0.45594000000E+02  0.51100000000E-03 0.  1.
         23    2    1    2    0    0  0.00000000000E+00  0.88817841970E-15  0.00000000000E+00  0.91188000000E+02  0.91188000000E+02 0.  0.
    9900012    2    3    3    0    0 -0.16042611419E+02 -0.61086496670E-01 -0.33142288448E+02  0.54367076651E+02  0.39999982841E+02 0.  0.
         12    1    3    3    0    0  0.16042611419E+02  0.61086496670E-01  0.33142288448E+02  0.36820923349E+02  0.00000000000E+00 0. -1.
         11    1    4    4    0    0 -0.64734995906E+01  0.10049309283E+02  0.55952328453E+01  0.13198539498E+02  0.51100000000E-03 0. -1.
        -11    1    4    4    0    0 -0.68596896963E+01 -0.68281813727E+01 -0.27270199993E+02  0.28936883237E+02  0.51100000000E-03 0.  1.
         12    1    4    4    0    0 -0.27094221324E+01 -0.32822144074E+01 -0.11467321301E+02  0.12231653916E+02  0.00000000000E+00 0. -1.
</event>
<event>
 8    1  0.1278459E-006  0.9118800E+02  0.7816164E-02  0.1184000E+00
        -11   -1    0    0    0    0  0.00000000000E+00  0.00000000000E+00  0.45593999997E+02  0.45594000000E+02  0.51100000000E-03 0.  1.
         11   -1    0    0    0    0 -0.00000000000E+00 -0.00000000000E+00 -0.45593999997E+02  0.45594000000E+02  0.51100000000E-03 0. -1.
         23    2    1    2    0    0 -0.35527136788E-14  0.00000000000E+00  0.00000000000E+00  0.91188000000E+02  0.91188000000E+02 0.  0.
    9900012    2    3    3    0    0  0.21664168574E+02 -0.28369863096E+02 -0.90329681680E+01  0.54367084123E+02  0.39999999876E+02 0.  0.
        -12    1    3    3    0    0 -0.21664168574E+02  0.28369863096E+02  0.90329681680E+01  0.36820915877E+02  0.00000000000E+00 0.  1.
         11    1    4    4    0    0  0.25699061896E+02 -0.12715274619E+02 -0.25406573139E+01  0.28784977520E+02  0.51100000000E-03 0. -1.
        -11    1    4    4    0    0 -0.22376276988E+01 -0.13502721333E+01 -0.10336360090E+02  0.10661639308E+02  0.51100000000E-03 0.  1.
        -12    1    4    4    0    0 -0.17972656238E+01 -0.14304316343E+02  0.38440492360E+01  0.14920467295E+02  0.00000000000E+00 0.  1.
</event>
<event>
 8    1  0.1278459E-006  0.9118800E+02  0.7816164E-02  0.1184000E+00
        -11   -1    0    0    0    0  0.00000000000E+00  0.00000000000E+00  0.45593999997E+02  0.45594000000E+02  0.51100000000E-03 0. -1.
         11   -1    0    0    0    0 -0.00000000000E+00 -0.00000000000E+00 -0.45593999997E+02  0.45594000000E+02  0.51100000000E-03 0.  1.
         23    2    1    2    0    0  0.00000000000E+00  0.00000000000E+00  0.00000000000E+00  0.91188000000E+02  0.91188000000E+02 0.  0.
    9900012    2    3    3    0    0  0.19153233219E+02 -0.65912559102E+01  0.30748784783E+02  0.54367098831E+02  0.40000033406E+02 0.  0.
        -12    1    3    3    0    0 -0.19153233219E+02  0.65912559102E+01 -0.30748784783E+02  0.36820901169E+02  0.00000000000E+00 0.  1.
         11    1    4    4    0    0  0.19167690433E+02 -0.10363760252E+02  0.37392862538E+02  0.43278563425E+02  0.51100000000E-03 0. -1.
        -11    1    4    4    0    0  0.37788328008E+01  0.33215929769E+01 -0.41975659409E+01  0.65522604748E+01  0.51100000000E-03 0.  1.
         12    1    4    4    0    0 -0.37932900144E+01  0.45091136461E+00 -0.24465118144E+01  0.45362749310E+01  0.00000000000E+00 0. -1.
</event>
<event>
 8    1  0.1278459E-006  0.9118800E+02  0.7816164E-02  0.1184000E+00
        -11   -1    0    0    0    0  0.00000000000E+00  0.00000000000E+00  0.45593999997E+02  0.45594000000E+02  0.51100000000E-03 0. -1.
         11   -1    0    0    0    0 -0.00000000000E+00 -0.00000000000E+00 -0.45593999997E+02  0.45594000000E+02  0.51100000000E-03 0.  1.
         23    2    1    2    0    0  0.00000000000E+00  0.00000000000E+00  0.00000000000E+00  0.91188000000E+02  0.91188000000E+02 0.  0.
    9900012    2    3    3    0    0 -0.21855965304E+02 -0.98856815796E+01 -0.27935127622E+02  0.54367064720E+02  0.39999955642E+02 0.  0.
         12    1    3    3    0    0  0.21855965304E+02  0.98856815796E+01  0.27935127622E+02  0.36820935280E+02  0.00000000000E+00 0. -1.
         11    1    4    4    0    0  0.23951991977E+00 -0.16421216655E+02 -0.13796348349E+01  0.16480810622E+02  0.51100000000E-03 0. -1.
        -11    1    4    4    0    0 -0.19390755289E+02  0.18368881543E+01 -0.25927409058E+02  0.32428476521E+02  0.51100000000E-03 0.  1.
         12    1    4    4    0    0 -0.27047299345E+01  0.46986469208E+01 -0.62808372908E+00  0.54577775766E+01  0.00000000000E+00 0. -1.
</event>
<event>
 8    1  0.1278459E-006  0.9118800E+02  0.7816164E-02  0.1184000E+00
        -11   -1    0    0    0    0  0.00000000000E+00  0.00000000000E+00  0.45593999997E+02  0.45594000000E+02  0.51100000000E-03 0.  1.
         11   -1    0    0    0    0 -0.00000000000E+00 -0.00000000000E+00 -0.45593999997E+02  0.45594000000E+02  0.51100000000E-03 0. -1.
         23    2    1    2    0    0  0.22204460493E-15  0.35527136788E-14  0.00000000000E+00  0.91188000000E+02  0.91188000000E+02 0.  0.
    9900012    2    3    3    0    0 -0.19261957337E+01  0.27696159793E+02 -0.24186610194E+02  0.54367087329E+02  0.40000007183E+02 0.  0.
        -12    1    3    3    0    0  0.19261957337E+01 -0.27696159793E+02  0.24186610194E+02  0.36820912671E+02  0.00000000000E+00 0.  1.
         11    1    4    4    0    0  0.11178206944E+01  0.30434632983E+02 -0.29221638732E+02  0.42206878330E+02  0.51100000000E-03 0. -1.
        -11    1    4    4    0    0  0.17016529045E+01  0.29602991977E+01  0.27969422009E+01  0.44138282572E+01  0.51100000000E-03 0.  1.
         12    1    4    4    0    0 -0.47456693326E+01 -0.56987723876E+01  0.22380863370E+01  0.77463807415E+01  0.00000000000E+00 0. -1.
</event>
<event>
 8    1  0.1278459E-006  0.9118800E+02  0.7816164E-02  0.1184000E+00
        -11   -1    0    0    0    0  0.00000000000E+00  0.00000000000E+00  0.45593999997E+02  0.45594000000E+02  0.51100000000E-03 0. -1.
         11   -1    0    0    0    0 -0.00000000000E+00 -0.00000000000E+00 -0.45593999997E+02  0.45594000000E+02  0.51100000000E-03 0.  1.
         23    2    1    2    0    0  0.00000000000E+00  0.00000000000E+00  0.00000000000E+00  0.91188000000E+02  0.91188000000E+02 0.  0.
    9900012    2    3    3    0    0  0.12648841217E+02  0.33779290015E+02  0.73990177120E+01  0.54367094509E+02  0.40000023553E+02 0.  0.
         12    1    3    3    0    0 -0.12648841217E+02 -0.33779290015E+02 -0.73990177120E+01  0.36820905491E+02  0.00000000000E+00 0. -1.
         11    1    4    4    0    0  0.10607080866E+01 -0.26378637887E-01 -0.12076504662E+02  0.12123026132E+02  0.51100000000E-03 0. -1.
        -11    1    4    4    0    0  0.10346481683E+02  0.12913119559E+02  0.90985548884E+01  0.18883380028E+02  0.51100000000E-03 0.  1.
         12    1    4    4    0    0  0.12416514476E+01  0.20892549094E+02  0.10376967486E+02  0.23360688349E+02  0.00000000000E+00 0. -1.
</event>
<event>
 8    1  0.1278459E-006  0.9118800E+02  0.7816164E-02  0.1184000E+00
        -11   -1    0    0    0    0  0.00000000000E+00  0.00000000000E+00  0.45593999997E+02  0.45594000000E+02  0.51100000000E-03 0. -1.
         11   -1    0    0    0    0 -0.00000000000E+00 -0.00000000000E+00 -0.45593999997E+02  0.45594000000E+02  0.51100000000E-03 0.  1.
         23    2    1    2    0    0  0.00000000000E+00  0.00000000000E+00 -0.88817841970E-15  0.91188000000E+02  0.91188000000E+02 0.  0.
    9900012    2    3    3    0    0  0.11029567191E+02  0.34652613214E+02 -0.57727703006E+01  0.54367084314E+02  0.40000000311E+02 0.  0.
        -12    1    3    3    0    0 -0.11029567191E+02 -0.34652613214E+02  0.57727703006E+01  0.36820915686E+02  0.00000000000E+00 0.  1.
         11    1    4    4    0    0 -0.44556109548E+01  0.20655696999E+02  0.62772287257E+01  0.22043454544E+02  0.51100000000E-03 0. -1.
        -11    1    4    4    0    0  0.94719324900E+01  0.14961458574E+02 -0.16945798335E+02  0.24509647677E+02  0.51100000000E-03 0.  1.
        -12    1    4    4    0    0  0.60132456561E+01 -0.96454235873E+00  0.48957993091E+01  0.78139820935E+01  0.00000000000E+00 0.  1.
</event>
<event>
 8    1  0.1278459E-006  0.9118800E+02  0.7816164E-02  0.1184000E+00
        -11   -1    0    0    0    0  0.00000000000E+00  0.00000000000E+00  0.45593999997E+02  0.45594000000E+02  0.51100000000E-03 0. -1.
         11   -1    0    0    0    0 -0.00000000000E+00 -0.00000000000E+00 -0.45593999997E+02  0.45594000000E+02  0.51100000000E-03 0.  1.
         23    2    1    2    0    0  0.35527136788E-14  0.00000000000E+00  0.00000000000E+00  0.91188000000E+02  0.91188000000E+02 0.  0.
    9900012    2    3    3    0    0 -0.12129446572E+02 -0.92764800879E+01 -0.33505277460E+02  0.54367079661E+02  0.39999989703E+02 0.  0.
         12    1    3    3    0    0  0.12129446572E+02  0.92764800879E+01  0.33505277460E+02  0.36820920339E+02  0.00000000000E+00 0. -1.
         11    1    4    4    0    0  0.12435562773E+02 -0.99454492315E+01 -0.11189618426E+02  0.19461827835E+02  0.51100000000E-03 0. -1.
        -11    1    4    4    0    0 -0.21509189871E+02 -0.32826407840E+01 -0.19197283463E+02  0.29016489657E+02  0.51100000000E-03 0.  1.
         12    1    4    4    0    0 -0.30558194748E+01  0.39516099276E+01 -0.31183755709E+01  0.58887621690E+01  0.00000000000E+00 0. -1.
</event>
<event>
 8    1  0.1278459E-006  0.9118800E+02  0.7816164E-02  0.1184000E+00
        -11   -1    0    0    0    0  0.00000000000E+00  0.00000000000E+00  0.45593999997E+02  0.45594000000E+02  0.51100000000E-03 0.  1.
         11   -1    0    0    0    0 -0.00000000000E+00 -0.00000000000E+00 -0.45593999997E+02  0.45594000000E+02  0.51100000000E-03 0. -1.
         23    2    1    2    0    0 -0.35527136788E-14  0.00000000000E+00 -0.35527136788E-14  0.91188000000E+02  0.91188000000E+02 0.  0.
    9900012    2    3    3    0    0  0.81778999904E+01 -0.19997555451E+02  0.29816084955E+02  0.54367092973E+02  0.40000020050E+02 0.  0.
         12    1    3    3    0    0 -0.81778999904E+01  0.19997555451E+02 -0.29816084955E+02  0.36820907027E+02  0.00000000000E+00 0. -1.
         11    1    4    4    0    0 -0.98083309642E+01 -0.57355497377E+01  0.19596291784E+02  0.22652031676E+02  0.51100000000E-03 0. -1.
        -11    1    4    4    0    0 -0.24825366706E+01 -0.24385257084E+01 -0.30322179862E+01  0.46155977000E+01  0.51100000000E-03 0.  1.
        -12    1    4    4    0    0  0.20468767625E+02 -0.11823480005E+02  0.13252011157E+02  0.27099463597E+02  0.00000000000E+00 0.  1.
</event>
<event>
 8    1  0.1278459E-006  0.9118800E+02  0.7816164E-02  0.1184000E+00
        -11   -1    0    0    0    0  0.00000000000E+00  0.00000000000E+00  0.45593999997E+02  0.45594000000E+02  0.51100000000E-03 0.  1.
         11   -1    0    0    0    0 -0.00000000000E+00 -0.00000000000E+00 -0.45593999997E+02  0.45594000000E+02  0.51100000000E-03 0. -1.
         23    2    1    2    0    0  0.17763568394E-14 -0.71054273576E-14 -0.13322676296E-14  0.91188000000E+02  0.91188000000E+02 0.  0.
    9900012    2    3    3    0    0 -0.86024175346E+01 -0.35716541252E+02  0.24707401060E+01  0.54367116481E+02  0.40000073642E+02 0.  0.
         12    1    3    3    0    0  0.86024175346E+01  0.35716541252E+02 -0.24707401060E+01  0.36820883519E+02  0.00000000000E+00 0. -1.
         11    1    4    4    0    0  0.17020571794E+01 -0.72374912797E+00  0.73660525581E+01  0.75947048654E+01  0.51100000000E-03 0. -1.
        -11    1    4    4    0    0  0.45067941654E+01 -0.21654837862E+02 -0.12538408154E+02  0.25425476904E+02  0.51100000000E-03 0.  1.
        -12    1    4    4    0    0 -0.14811268879E+02 -0.13337954262E+02  0.76430957019E+01  0.21346934712E+02  0.00000000000E+00 0.  1.
</event>
<event>
 8    1  0.1278459E-006  0.9118800E+02  0.7816164E-02  0.1184000E+00
        -11   -1    0    0    0    0  0.00000000000E+00  0.00000000000E+00  0.45593999997E+02  0.45594000000E+02  0.51100000000E-03 0. -1.
         11   -1    0    0    0    0 -0.00000000000E+00 -0.00000000000E+00 -0.45593999997E+02  0.45594000000E+02  0.51100000000E-03 0.  1.
         23    2    1    2    0    0  0.00000000000E+00  0.00000000000E+00  0.00000000000E+00  0.91188000000E+02  0.91188000000E+02 0.  0.
    9900012    2    3    3    0    0  0.22838145234E+02 -0.73100764770E+01 -0.27942228975E+02  0.54366997082E+02  0.39999801447E+02 0.  0.
         12    1    3    3    0    0 -0.22838145234E+02  0.73100764770E+01  0.27942228975E+02  0.36821002918E+02  0.00000000000E+00 0. -1.
         11    1    4    4    0    0  0.16607425545E+02 -0.49551109384E+00 -0.10378429544E+02  0.19589893174E+02  0.51100000000E-03 0. -1.
        -11    1    4    4    0    0 -0.55597279292E+01 -0.53088622563E+01 -0.21033973363E+02  0.22394700909E+02  0.51100000000E-03 0.  1.
         12    1    4    4    0    0  0.11790447617E+02 -0.15057031269E+01  0.34701739323E+01  0.12382403000E+02  0.00000000000E+00 0. -1.
</event>
<event>
 8    1  0.1278459E-006  0.9118800E+02  0.7816164E-02  0.1184000E+00
        -11   -1    0    0    0    0  0.00000000000E+00  0.00000000000E+00  0.45593999997E+02  0.45594000000E+02  0.51100000000E-03 0. -1.
         11   -1    0    0    0    0 -0.00000000000E+00 -0.00000000000E+00 -0.45593999997E+02  0.45594000000E+02  0.51100000000E-03 0.  1.
         23    2    1    2    0    0  0.00000000000E+00  0.00000000000E+00 -0.22204460493E-15  0.91188000000E+02  0.91188000000E+02 0.  0.
    9900012    2    3    3    0    0  0.34143984077E+02 -0.13644061431E+02  0.19514390754E+01  0.54367079650E+02  0.39999989678E+02 0.  0.
        -12    1    3    3    0    0 -0.34143984077E+02  0.13644061431E+02 -0.19514390754E+01  0.36820920350E+02  0.00000000000E+00 0.  1.
         11    1    4    4    0    0  0.18396503152E+02 -0.32661595797E+01 -0.82748004999E+01  0.20434565084E+02  0.51100000000E-03 0. -1.
        -11    1    4    4    0    0  0.21080525157E+02 -0.12405341178E+02  0.28767343890E+01  0.24628370463E+02  0.51100000000E-03 0.  1.
        -12    1    4    4    0    0 -0.53330442323E+01  0.20274393260E+01  0.73495051862E+01  0.93041441029E+01  0.00000000000E+00 0.  1.
</event>
<event>
 8    1  0.1278459E-006  0.9118800E+02  0.7816164E-02  0.1184000E+00
        -11   -1    0    0    0    0  0.00000000000E+00  0.00000000000E+00  0.45593999997E+02  0.45594000000E+02  0.51100000000E-03 0.  1.
         11   -1    0    0    0    0 -0.00000000000E+00 -0.00000000000E+00 -0.45593999997E+02  0.45594000000E+02  0.51100000000E-03 0. -1.
         23    2    1    2    0    0 -0.17763568394E-14  0.00000000000E+00  0.35527136788E-14  0.91188000000E+02  0.91188000000E+02 0.  0.
    9900012    2    3    3    0    0 -0.89144728709E+01 -0.27594778861E+02 -0.22690086087E+02  0.54367086737E+02  0.40000005833E+02 0.  0.
        -12    1    3    3    0    0  0.89144728709E+01  0.27594778861E+02  0.22690086087E+02  0.36820913263E+02  0.00000000000E+00 0.  1.
         11    1    4    4    0    0  0.18361087618E+01 -0.50058362956E+01 -0.59383409554E+00  0.53649167373E+01  0.51100000000E-03 0. -1.
        -11    1    4    4    0    0 -0.11081372814E+01 -0.30421798895E+02 -0.11071832353E+02  0.32392889469E+02  0.51100000000E-03 0.  1.
        -12    1    4    4    0    0 -0.96424443513E+01  0.78328563304E+01 -0.11024419638E+02  0.16609280530E+02  0.00000000000E+00 0.  1.
</event>
<event>
 8    1  0.1278459E-006  0.9118800E+02  0.7816164E-02  0.1184000E+00
        -11   -1    0    0    0    0  0.00000000000E+00  0.00000000000E+00  0.45593999997E+02  0.45594000000E+02  0.51100000000E-03 0.  1.
         11   -1    0    0    0    0 -0.00000000000E+00 -0.00000000000E+00 -0.45593999997E+02  0.45594000000E+02  0.51100000000E-03 0. -1.
         23    2    1    2    0    0  0.00000000000E+00  0.00000000000E+00  0.00000000000E+00  0.91188000000E+02  0.91188000000E+02 0.  0.
    9900012    2    3    3    0    0 -0.19984523599E+02  0.19130675846E+02 -0.24298479385E+02  0.54367081459E+02  0.39999993802E+02 0.  0.
        -12    1    3    3    0    0  0.19984523599E+02 -0.19130675846E+02  0.24298479385E+02  0.36820918541E+02  0.00000000000E+00 0.  1.
         11    1    4    4    0    0 -0.22308393540E+02  0.33408834177E+01 -0.18258318779E+01  0.22630943124E+02  0.51100000000E-03 0. -1.
        -11    1    4    4    0    0  0.72728923320E+01  0.10884017930E+02 -0.71788268042E+01  0.14929580159E+02  0.51100000000E-03 0.  1.
         12    1    4    4    0    0 -0.49490223906E+01  0.49057744989E+01 -0.15293820703E+02  0.16806558176E+02  0.00000000000E+00 0. -1.
</event>
<event>
 8    1  0.1278459E-006  0.9118800E+02  0.7816164E-02  0.1184000E+00
        -11   -1    0    0    0    0  0.00000000000E+00  0.00000000000E+00  0.45593999997E+02  0.45594000000E+02  0.51100000000E-03 0.  1.
         11   -1    0    0    0    0 -0.00000000000E+00 -0.00000000000E+00 -0.45593999997E+02  0.45594000000E+02  0.51100000000E-03 0. -1.
         23    2    1    2    0    0  0.00000000000E+00  0.88817841970E-15  0.44408920985E-15  0.91188000000E+02  0.91188000000E+02 0.  0.
    9900012    2    3    3    0    0  0.36329086800E+02  0.53559720370E+01  0.27000004761E+01  0.54367095791E+02  0.40000026475E+02 0.  0.
         12    1    3    3    0    0 -0.36329086800E+02 -0.53559720370E+01 -0.27000004761E+01  0.36820904209E+02  0.00000000000E+00 0. -1.
         11    1    4    4    0    0  0.16517313649E+02 -0.33302900369E+01 -0.11196607539E+02  0.20230583347E+02  0.51100000000E-03 0. -1.
        -11    1    4    4    0    0 -0.79031901095E+00 -0.50706582454E+00  0.11399960258E+02  0.11438566958E+02  0.51100000000E-03 0.  1.
        -12    1    4    4    0    0  0.20602092162E+02  0.91933278985E+01  0.24966477564E+01  0.22697945487E+02  0.00000000000E+00 0.  1.
</event>
<event>
 8    1  0.1278459E-006  0.9118800E+02  0.7816164E-02  0.1184000E+00
        -11   -1    0    0    0    0  0.00000000000E+00  0.00000000000E+00  0.45593999997E+02  0.45594000000E+02  0.51100000000E-03 0. -1.
         11   -1    0    0    0    0 -0.00000000000E+00 -0.00000000000E+00 -0.45593999997E+02  0.45594000000E+02  0.51100000000E-03 0.  1.
         23    2    1    2    0    0  0.00000000000E+00  0.00000000000E+00 -0.88817841970E-15  0.91188000000E+02  0.91188000000E+02 0.  0.
    9900012    2    3    3    0    0 -0.35385418455E+02 -0.98778422929E+01  0.24668123604E+01  0.54367017248E+02  0.39999847421E+02 0.  0.
        -12    1    3    3    0    0  0.35385418455E+02  0.98778422929E+01 -0.24668123604E+01  0.36820982752E+02  0.00000000000E+00 0.  1.
         11    1    4    4    0    0 -0.16532469008E+01  0.44002036089E+00  0.48635240691E+01  0.51556483458E+01  0.51100000000E-03 0. -1.
        -11    1    4    4    0    0 -0.29206920436E+02 -0.86795400837E+01  0.12965317251E+02  0.33113110230E+02  0.51100000000E-03 0.  1.
        -12    1    4    4    0    0 -0.45252511176E+01 -0.16383225700E+01 -0.15362028960E+02  0.16098258672E+02  0.00000000000E+00 0.  1.
</event>
<event>
 8    1  0.1278459E-006  0.9118800E+02  0.7816164E-02  0.1184000E+00
        -11   -1    0    0    0    0  0.00000000000E+00  0.00000000000E+00  0.45593999997E+02  0.45594000000E+02  0.51100000000E-03 0.  1.
         11   -1    0    0    0    0 -0.00000000000E+00 -0.00000000000E+00 -0.45593999997E+02  0.45594000000E+02  0.51100000000E-03 0. -1.
         23    2    1    2    0    0  0.13322676296E-14  0.00000000000E+00 -0.71054273576E-14  0.91188000000E+02  0.91188000000E+02 0.  0.
    9900012    2    3    3    0    0  0.27822047148E+00  0.20693707135E+02  0.30454428392E+02  0.54367093842E+02  0.40000022032E+02 0.  0.
         12    1    3    3    0    0 -0.27822047148E+00 -0.20693707135E+02 -0.30454428392E+02  0.36820906158E+02  0.00000000000E+00 0. -1.
         11    1    4    4    0    0 -0.13187324485E+02  0.59762372315E+00  0.19203849927E+01  0.13339811092E+02  0.51100000000E-03 0. -1.
        -11    1    4    4    0    0 -0.37742241756E+01  0.61823977052E+01  0.83913871550E+01  0.11085223866E+02  0.51100000000E-03 0.  1.
         12    1    4    4    0    0  0.17239769132E+02  0.13913685706E+02  0.20142656244E+02  0.29942058884E+02  0.00000000000E+00 0. -1.
</event>
<event>
 8    1  0.1278459E-006  0.9118800E+02  0.7816164E-02  0.1184000E+00
        -11   -1    0    0    0    0  0.00000000000E+00  0.00000000000E+00  0.45593999997E+02  0.45594000000E+02  0.51100000000E-03 0.  1.
         11   -1    0    0    0    0 -0.00000000000E+00 -0.00000000000E+00 -0.45593999997E+02  0.45594000000E+02  0.51100000000E-03 0. -1.
         23    2    1    2    0    0  0.71054273576E-14 -0.66613381478E-15  0.15543122345E-14  0.91188000000E+02  0.91188000000E+02 0.  0.
    9900012    2    3    3    0    0 -0.36791814489E+02 -0.95250772642E+00 -0.11116889168E+01  0.54367072030E+02  0.39999972306E+02 0.  0.
        -12    1    3    3    0    0  0.36791814489E+02  0.95250772642E+00  0.11116889168E+01  0.36820927970E+02  0.00000000000E+00 0.  1.
         11    1    4    4    0    0 -0.31817869020E+01 -0.24018274278E+01 -0.10046619770E+02  0.10808659119E+02  0.51100000000E-03 0. -1.
        -11    1    4    4    0    0 -0.26381980027E+02  0.12538695213E+02  0.80135815750E+01  0.30289358489E+02  0.51100000000E-03 0.  1.
         12    1    4    4    0    0 -0.72280475600E+01 -0.11089375511E+02  0.92134927789E+00  0.13269054422E+02  0.00000000000E+00 0. -1.
</event>
<event>
 8    1  0.1278459E-006  0.9118800E+02  0.7816164E-02  0.1184000E+00
        -11   -1    0    0    0    0  0.00000000000E+00  0.00000000000E+00  0.45593999997E+02  0.45594000000E+02  0.51100000000E-03 0. -1.
         11   -1    0    0    0    0 -0.00000000000E+00 -0.00000000000E+00 -0.45593999997E+02  0.45594000000E+02  0.51100000000E-03 0.  1.
         23    2    1    2    0    0  0.00000000000E+00  0.00000000000E+00  0.00000000000E+00  0.91188000000E+02  0.91188000000E+02 0.  0.
    9900012    2    3    3    0    0  0.25268981774E+02  0.75393422893E+01 -0.25698567327E+02  0.54367089029E+02  0.40000011060E+02 0.  0.
         12    1    3    3    0    0 -0.25268981774E+02 -0.75393422893E+01  0.25698567327E+02  0.36820910971E+02  0.00000000000E+00 0. -1.
         11    1    4    4    0    0 -0.31901059784E+01  0.35433680800E+01  0.54641842166E+00  0.47990422853E+01  0.51100000000E-03 0. -1.
        -11    1    4    4    0    0  0.24890941533E+02  0.15207010088E+02 -0.23572929692E+02  0.37503268401E+02  0.51100000000E-03 0.  1.
        -12    1    4    4    0    0  0.35681462195E+01 -0.11211035878E+02 -0.26720560568E+01  0.12064778343E+02  0.00000000000E+00 0.  1.
</event>
<event>
 8    1  0.1278459E-006  0.9118800E+02  0.7816164E-02  0.1184000E+00
        -11   -1    0    0    0    0  0.00000000000E+00  0.00000000000E+00  0.45593999997E+02  0.45594000000E+02  0.51100000000E-03 0.  1.
         11   -1    0    0    0    0 -0.00000000000E+00 -0.00000000000E+00 -0.45593999997E+02  0.45594000000E+02  0.51100000000E-03 0. -1.
         23    2    1    2    0    0  0.00000000000E+00  0.00000000000E+00  0.00000000000E+00  0.91188000000E+02  0.91188000000E+02 0.  0.
    9900012    2    3    3    0    0 -0.28990909511E+02  0.14581409080E+02 -0.17398106634E+02  0.54367021748E+02  0.39999857678E+02 0.  0.
        -12    1    3    3    0    0  0.28990909511E+02 -0.14581409080E+02  0.17398106634E+02  0.36820978252E+02  0.00000000000E+00 0.  1.
         11    1    4    4    0    0 -0.52695437838E+01  0.15027947289E+01  0.13368060311E+01  0.56403487758E+01  0.51100000000E-03 0. -1.
        -11    1    4    4    0    0 -0.91456833878E+01  0.68410547883E+00  0.10403029990E+02  0.13868473534E+02  0.51100000000E-03 0.  1.
        -12    1    4    4    0    0 -0.14575682339E+02  0.12394508872E+02 -0.29137942655E+02  0.34858199437E+02  0.00000000000E+00 0.  1.
</event>
<event>
 8    1  0.1278459E-006  0.9118800E+02  0.7816164E-02  0.1184000E+00
        -11   -1    0    0    0    0  0.00000000000E+00  0.00000000000E+00  0.45593999997E+02  0.45594000000E+02  0.51100000000E-03 0.  1.
         11   -1    0    0    0    0 -0.00000000000E+00 -0.00000000000E+00 -0.45593999997E+02  0.45594000000E+02  0.51100000000E-03 0. -1.
         23    2    1    2    0    0  0.00000000000E+00  0.00000000000E+00  0.35527136788E-14  0.91188000000E+02  0.91188000000E+02 0.  0.
    9900012    2    3    3    0    0 -0.17846991695E+02 -0.12128965882E+02 -0.29835438817E+02  0.54367077478E+02  0.39999984727E+02 0.  0.
        -12    1    3    3    0    0  0.17846991695E+02  0.12128965882E+02  0.29835438817E+02  0.36820922522E+02  0.00000000000E+00 0.  1.
         11    1    4    4    0    0 -0.49156189760E+01 -0.21107558013E+02 -0.18331294087E+02  0.28385359930E+02  0.51100000000E-03 0. -1.
        -11    1    4    4    0    0 -0.60727850357E+01 -0.13389188083E+01  0.30017697760E+01  0.69052185855E+01  0.51100000000E-03 0.  1.
         12    1    4    4    0    0 -0.68585876836E+01  0.10317510940E+02 -0.14505914506E+02  0.19076498962E+02  0.00000000000E+00 0. -1.
</event>
<event>
 8    1  0.1278459E-006  0.9118800E+02  0.7816164E-02  0.1184000E+00
        -11   -1    0    0    0    0  0.00000000000E+00  0.00000000000E+00  0.45593999997E+02  0.45594000000E+02  0.51100000000E-03 0.  1.
         11   -1    0    0    0    0 -0.00000000000E+00 -0.00000000000E+00 -0.45593999997E+02  0.45594000000E+02  0.51100000000E-03 0. -1.
         23    2    1    2    0    0  0.00000000000E+00  0.00000000000E+00  0.00000000000E+00  0.91188000000E+02  0.91188000000E+02 0.  0.
    9900012    2    3    3    0    0  0.13712296781E+02  0.33044131679E+02  0.87084387454E+01  0.54367100679E+02  0.40000037618E+02 0.  0.
        -12    1    3    3    0    0 -0.13712296781E+02 -0.33044131679E+02 -0.87084387454E+01  0.36820899321E+02  0.00000000000E+00 0.  1.
         11    1    4    4    0    0  0.42255478330E+01  0.11773343539E+02  0.75719804709E+01  0.14621961602E+02  0.51100000000E-03 0. -1.
        -11    1    4    4    0    0 -0.53998865858E+01  0.13352110719E+01  0.11513931691E+02  0.12787188393E+02  0.51100000000E-03 0.  1.
         12    1    4    4    0    0  0.14886635534E+02  0.19935577069E+02 -0.10377473417E+02  0.26957950684E+02  0.00000000000E+00 0. -1.
</event>
<event>
 8    1  0.1278459E-006  0.9118800E+02  0.7816164E-02  0.1184000E+00
        -11   -1    0    0    0    0  0.00000000000E+00  0.00000000000E+00  0.45593999997E+02  0.45594000000E+02  0.51100000000E-03 0. -1.
         11   -1    0    0    0    0 -0.00000000000E+00 -0.00000000000E+00 -0.45593999997E+02  0.45594000000E+02  0.51100000000E-03 0.  1.
         23    2    1    2    0    0  0.00000000000E+00  0.00000000000E+00  0.17763568394E-14  0.91188000000E+02  0.91188000000E+02 0.  0.
    9900012    2    3    3    0    0 -0.25762677925E+02 -0.22280830927E+02  0.13986641110E+02  0.54367121002E+02  0.40000083948E+02 0.  0.
        -12    1    3    3    0    0  0.25762677925E+02  0.22280830927E+02 -0.13986641110E+02  0.36820878998E+02  0.00000000000E+00 0.  1.
         11    1    4    4    0    0 -0.73753530903E+01 -0.32859392183E+01  0.13678046980E+02  0.15883393819E+02  0.51100000000E-03 0. -1.
        -11    1    4    4    0    0 -0.14125146788E+02  0.12238516827E+01 -0.79226507666E+01  0.16241489468E+02  0.51100000000E-03 0.  1.
         12    1    4    4    0    0 -0.42621780470E+01 -0.20218743391E+02  0.82312448962E+01  0.22242237715E+02  0.00000000000E+00 0. -1.
</event>
<event>
 8    1  0.1278459E-006  0.9118800E+02  0.7816164E-02  0.1184000E+00
        -11   -1    0    0    0    0  0.00000000000E+00  0.00000000000E+00  0.45593999997E+02  0.45594000000E+02  0.51100000000E-03 0. -1.
         11   -1    0    0    0    0 -0.00000000000E+00 -0.00000000000E+00 -0.45593999997E+02  0.45594000000E+02  0.51100000000E-03 0.  1.
         23    2    1    2    0    0  0.71054273576E-14 -0.35527136788E-14  0.88817841970E-15  0.91188000000E+02  0.91188000000E+02 0.  0.
    9900012    2    3    3    0    0  0.23379640160E+02 -0.28004380962E+02  0.49929598284E+01  0.54367047067E+02  0.39999915397E+02 0.  0.
        -12    1    3    3    0    0 -0.23379640160E+02  0.28004380962E+02 -0.49929598284E+01  0.36820952933E+02  0.00000000000E+00 0.  1.
         11    1    4    4    0    0  0.28948793165E+02 -0.17930617543E+02  0.62237725601E+01  0.34616109203E+02  0.51100000000E-03 0. -1.
        -11    1    4    4    0    0 -0.88294738014E+00  0.39450115684E+01 -0.27537387232E+01  0.48913995510E+01  0.51100000000E-03 0.  1.
        -12    1    4    4    0    0 -0.46862056245E+01 -0.14018774987E+02  0.15229259914E+01  0.14859538313E+02  0.00000000000E+00 0.  1.
</event>
<event>
 8    1  0.1278459E-006  0.9118800E+02  0.7816164E-02  0.1184000E+00
        -11   -1    0    0    0    0  0.00000000000E+00  0.00000000000E+00  0.45593999997E+02  0.45594000000E+02  0.51100000000E-03 0. -1.
         11   -1    0    0    0    0 -0.00000000000E+00 -0.00000000000E+00 -0.45593999997E+02  0.45594000000E+02  0.51100000000E-03 0.  1.
         23    2    1    2    0    0  0.35527136788E-14  0.17763568394E-14 -0.35527136788E-14  0.91188000000E+02  0.91188000000E+02 0.  0.
    9900012    2    3    3    0    0 -0.27487524089E+02 -0.88393479302E+01  0.22849105998E+02  0.54367086143E+02  0.40000004480E+02 0.  0.
        -12    1    3    3    0    0  0.27487524089E+02  0.88393479302E+01 -0.22849105998E+02  0.36820913857E+02  0.00000000000E+00 0.  1.
         11    1    4    4    0    0 -0.14386418926E+02 -0.92550610536E+01  0.10131279894E+02  0.19881348977E+02  0.51100000000E-03 0. -1.
        -11    1    4    4    0    0 -0.18081443401E+02  0.58754168212E+00 -0.26920015338E+01  0.18290179693E+02  0.51100000000E-03 0.  1.
         12    1    4    4    0    0  0.49803382379E+01 -0.17182855869E+00  0.15409827638E+02  0.16195557472E+02  0.00000000000E+00 0. -1.
</event>
<event>
 8    1  0.1278459E-006  0.9118800E+02  0.7816164E-02  0.1184000E+00
        -11   -1    0    0    0    0  0.00000000000E+00  0.00000000000E+00  0.45593999997E+02  0.45594000000E+02  0.51100000000E-03 0.  1.
         11   -1    0    0    0    0 -0.00000000000E+00 -0.00000000000E+00 -0.45593999997E+02  0.45594000000E+02  0.51100000000E-03 0. -1.
         23    2    1    2    0    0  0.00000000000E+00  0.00000000000E+00 -0.35527136788E-14  0.91188000000E+02  0.91188000000E+02 0.  0.
    9900012    2    3    3    0    0 -0.92966145184E+01  0.17369056097E+02  0.31107371142E+02  0.54367086234E+02  0.40000004688E+02 0.  0.
         12    1    3    3    0    0  0.92966145184E+01 -0.17369056097E+02 -0.31107371142E+02  0.36820913766E+02  0.00000000000E+00 0. -1.
         11    1    4    4    0    0  0.16091162288E+01 -0.61333633247E+01  0.34858006316E+01  0.72358971120E+01  0.51100000000E-03 0. -1.
        -11    1    4    4    0    0  0.77224441856E+01  0.91212953451E+00  0.15568815977E+01  0.79304479733E+01  0.51100000000E-03 0.  1.
        -12    1    4    4    0    0 -0.18628174933E+02  0.22590289887E+02  0.26064688912E+02  0.39200741149E+02  0.00000000000E+00 0.  1.
</event>
<event>
 8    1  0.1278459E-006  0.9118800E+02  0.7816164E-02  0.1184000E+00
        -11   -1    0    0    0    0  0.00000000000E+00  0.00000000000E+00  0.45593999997E+02  0.45594000000E+02  0.51100000000E-03 0.  1.
         11   -1    0    0    0    0 -0.00000000000E+00 -0.00000000000E+00 -0.45593999997E+02  0.45594000000E+02  0.51100000000E-03 0. -1.
         23    2    1    2    0    0 -0.35527136788E-14 -0.35527136788E-14 -0.88817841970E-15  0.91188000000E+02  0.91188000000E+02 0.  0.
    9900012    2    3    3    0    0  0.27830858623E+02 -0.22909064806E+02  0.75098419086E+01  0.54367086548E+02  0.40000005403E+02 0.  0.
        -12    1    3    3    0    0 -0.27830858623E+02  0.22909064806E+02 -0.75098419086E+01  0.36820913452E+02  0.00000000000E+00 0.  1.
         11    1    4    4    0    0  0.21317035297E+02 -0.33380119998E+02  0.78828400451E+01  0.40383010937E+02  0.51100000000E-03 0. -1.
        -11    1    4    4    0    0  0.61090249775E+00  0.38770681880E+01  0.25303604182E+01  0.46698590668E+01  0.51100000000E-03 0.  1.
         12    1    4    4    0    0  0.59029208285E+01  0.65939870047E+01 -0.29033585547E+01  0.93142165437E+01  0.00000000000E+00 0. -1.
</event>
<event>
 8    1  0.1278459E-006  0.9118800E+02  0.7816164E-02  0.1184000E+00
        -11   -1    0    0    0    0  0.00000000000E+00  0.00000000000E+00  0.45593999997E+02  0.45594000000E+02  0.51100000000E-03 0.  1.
         11   -1    0    0    0    0 -0.00000000000E+00 -0.00000000000E+00 -0.45593999997E+02  0.45594000000E+02  0.51100000000E-03 0. -1.
         23    2    1    2    0    0  0.88817841970E-15  0.17763568394E-14 -0.71054273576E-14  0.91188000000E+02  0.91188000000E+02 0.  0.
    9900012    2    3    3    0    0 -0.52843781073E+01  0.10012098373E+02  0.35037306379E+02  0.54367087408E+02  0.40000007364E+02 0.  0.
         12    1    3    3    0    0  0.52843781073E+01 -0.10012098373E+02 -0.35037306379E+02  0.36820912592E+02  0.00000000000E+00 0. -1.
         11    1    4    4    0    0  0.21897308390E+01  0.30796944965E+01 -0.34807960699E+01  0.51376435143E+01  0.51100000000E-03 0. -1.
        -11    1    4    4    0    0  0.36261265386E+01 -0.61619448293E+01  0.99770923590E-01  0.71504064396E+01  0.51100000000E-03 0.  1.
        -12    1    4    4    0    0 -0.11100235485E+02  0.13094348706E+02  0.38418331526E+02  0.42079037454E+02  0.00000000000E+00 0.  1.
</event>
<event>
 8    1  0.1278459E-006  0.9118800E+02  0.7816164E-02  0.1184000E+00
        -11   -1    0    0    0    0  0.00000000000E+00  0.00000000000E+00  0.45593999997E+02  0.45594000000E+02  0.51100000000E-03 0.  1.
         11   -1    0    0    0    0 -0.00000000000E+00 -0.00000000000E+00 -0.45593999997E+02  0.45594000000E+02  0.51100000000E-03 0. -1.
         23    2    1    2    0    0 -0.17763568394E-14 -0.22204460493E-15  0.00000000000E+00  0.91188000000E+02  0.91188000000E+02 0.  0.
    9900012    2    3    3    0    0  0.13326895724E+02  0.19908853611E+01  0.34266759396E+02  0.54367074242E+02  0.39999977350E+02 0.  0.
         12    1    3    3    0    0 -0.13326895724E+02 -0.19908853611E+01 -0.34266759396E+02  0.36820925758E+02  0.00000000000E+00 0. -1.
         11    1    4    4    0    0  0.54761759679E+01 -0.17581085452E+01 -0.38544239205E+01  0.69235852641E+01  0.51100000000E-03 0. -1.
        -11    1    4    4    0    0  0.58573308955E+01  0.25231444077E+01  0.42233296017E+02  0.42712127969E+02  0.51100000000E-03 0.  1.
        -12    1    4    4    0    0  0.19933888603E+01  0.12258494986E+01 -0.41121127004E+01  0.47313610095E+01  0.00000000000E+00 0.  1.
</event>
<event>
 8    1  0.1278459E-006  0.9118800E+02  0.7816164E-02  0.1184000E+00
        -11   -1    0    0    0    0  0.00000000000E+00  0.00000000000E+00  0.45593999997E+02  0.45594000000E+02  0.51100000000E-03 0.  1.
         11   -1    0    0    0    0 -0.00000000000E+00 -0.00000000000E+00 -0.45593999997E+02  0.45594000000E+02  0.51100000000E-03 0. -1.
         23    2    1    2    0    0  0.17763568394E-14  0.88817841970E-15 -0.71054273576E-14  0.91188000000E+02  0.91188000000E+02 0.  0.
    9900012    2    3    3    0    0  0.13137208767E+02  0.70721148608E+01 -0.33662725459E+02  0.54367080020E+02  0.39999990523E+02 0.  0.
        -12    1    3    3    0    0 -0.13137208767E+02 -0.70721148608E+01  0.33662725459E+02  0.36820919980E+02  0.00000000000E+00 0.  1.
         11    1    4    4    0    0 -0.43170946185E+00  0.33128900856E+01 -0.39715330601E+00  0.33644233961E+01  0.51100000000E-03 0.  1.
        -11    1    4    4    0    0 -0.64278356697E+01  0.84462406028E+01 -0.27788005873E+02  0.29746080790E+02  0.51100000000E-03 0. -1.
        -12    1    4    4    0    0  0.19996753898E+02 -0.46870158277E+01 -0.54775662803E+01  0.21256575834E+02  0.00000000000E+00 0.  1.
</event>
<event>
 8    1  0.1278459E-006  0.9118800E+02  0.7816164E-02  0.1184000E+00
        -11   -1    0    0    0    0  0.00000000000E+00  0.00000000000E+00  0.45593999997E+02  0.45594000000E+02  0.51100000000E-03 0.  1.
         11   -1    0    0    0    0 -0.00000000000E+00 -0.00000000000E+00 -0.45593999997E+02  0.45594000000E+02  0.51100000000E-03 0. -1.
         23    2    1    2    0    0  0.35527136788E-14 -0.11102230246E-14  0.71054273576E-14  0.91188000000E+02  0.91188000000E+02 0.  0.
    9900012    2    3    3    0    0 -0.16364781999E+02  0.19805953764E+01 -0.32924865677E+02  0.54367141404E+02  0.40000130458E+02 0.  0.
        -12    1    3    3    0    0  0.16364781999E+02 -0.19805953764E+01  0.32924865677E+02  0.36820858596E+02  0.00000000000E+00 0.  1.
         11    1    4    4    0    0 -0.75069773434E+01  0.51011074001E+01 -0.12280391975E+02  0.15270364530E+02  0.51100000000E-03 0. -1.
        -11    1    4    4    0    0 -0.79605674210E+01 -0.12769171551E+02  0.13046020906E+01  0.15103786368E+02  0.51100000000E-03 0.  1.
        -12    1    4    4    0    0 -0.89723723419E+00  0.96486595272E+01 -0.21949075792E+02  0.23992990507E+02  0.00000000000E+00 0.  1.
</event>
<event>
 8    1  0.1278459E-006  0.9118800E+02  0.7816164E-02  0.1184000E+00
        -11   -1    0    0    0    0  0.00000000000E+00  0.00000000000E+00  0.45593999997E+02  0.45594000000E+02  0.51100000000E-03 0. -1.
         11   -1    0    0    0    0 -0.00000000000E+00 -0.00000000000E+00 -0.45593999997E+02  0.45594000000E+02  0.51100000000E-03 0.  1.
         23    2    1    2    0    0  0.17763568394E-14  0.00000000000E+00  0.00000000000E+00  0.91188000000E+02  0.91188000000E+02 0.  0.
    9900012    2    3    3    0    0 -0.11787881396E+02 -0.25251835462E+02  0.24065917350E+02  0.54367112994E+02  0.40000065693E+02 0.  0.
        -12    1    3    3    0    0  0.11787881396E+02  0.25251835462E+02 -0.24065917350E+02  0.36820887006E+02  0.00000000000E+00 0.  1.
         11    1    4    4    0    0  0.11899583586E+02 -0.10839771943E+02  0.13331218637E+02  0.20900290331E+02  0.51100000000E-03 0. -1.
        -11    1    4    4    0    0 -0.16647175371E+02 -0.36524608672E+01  0.53021115273E+00  0.17051394147E+02  0.51100000000E-03 0.  1.
         12    1    4    4    0    0 -0.70402896115E+01 -0.10759602652E+02  0.10204487560E+02  0.16415428517E+02  0.00000000000E+00 0. -1.
</event>
<event>
 8    1  0.1278459E-006  0.9118800E+02  0.7816164E-02  0.1184000E+00
        -11   -1    0    0    0    0  0.00000000000E+00  0.00000000000E+00  0.45593999997E+02  0.45594000000E+02  0.51100000000E-03 0. -1.
         11   -1    0    0    0    0 -0.00000000000E+00 -0.00000000000E+00 -0.45593999997E+02  0.45594000000E+02  0.51100000000E-03 0.  1.
         23    2    1    2    0    0  0.00000000000E+00  0.17763568394E-14  0.17763568394E-14  0.91188000000E+02  0.91188000000E+02 0.  0.
    9900012    2    3    3    0    0 -0.36072814041E+02  0.50352133585E+01 -0.54017015655E+01  0.54367086564E+02  0.40000005441E+02 0.  0.
         12    1    3    3    0    0  0.36072814041E+02 -0.50352133585E+01  0.54017015655E+01  0.36820913436E+02  0.00000000000E+00 0. -1.
         11    1    4    4    0    0 -0.55504091894E+01  0.14064010425E+02  0.93044455956E+01  0.17753200824E+02  0.51100000000E-03 0. -1.
        -11    1    4    4    0    0 -0.19666572116E+02 -0.43083350745E+01 -0.37401049309E+01  0.20477406942E+02  0.51100000000E-03 0.  1.
         12    1    4    4    0    0 -0.10855832736E+02 -0.47204619920E+01 -0.10966042230E+02  0.16136478798E+02  0.00000000000E+00 0. -1.
</event>
<event>
 8    1  0.1278459E-006  0.9118800E+02  0.7816164E-02  0.1184000E+00
        -11   -1    0    0    0    0  0.00000000000E+00  0.00000000000E+00  0.45593999997E+02  0.45594000000E+02  0.51100000000E-03 0.  1.
         11   -1    0    0    0    0 -0.00000000000E+00 -0.00000000000E+00 -0.45593999997E+02  0.45594000000E+02  0.51100000000E-03 0. -1.
         23    2    1    2    0    0  0.00000000000E+00  0.00000000000E+00  0.00000000000E+00  0.91188000000E+02  0.91188000000E+02 0.  0.
    9900012    2    3    3    0    0 -0.33560955129E+02  0.13733440011E+02  0.63901518510E+01  0.54367093922E+02  0.40000022215E+02 0.  0.
         12    1    3    3    0    0  0.33560955129E+02 -0.13733440011E+02 -0.63901518510E+01  0.36820906078E+02  0.00000000000E+00 0. -1.
         11    1    4    4    0    0 -0.43904508459E+01 -0.39446887967E+01 -0.62634943277E+01  0.86062761859E+01  0.51100000000E-03 0. -1.
        -11    1    4    4    0    0  0.17988648072E+01  0.37097873852E+01 -0.57866147674E+01  0.71051634580E+01  0.51100000000E-03 0.  1.
        -12    1    4    4    0    0 -0.30969369090E+02  0.13968341423E+02  0.18440260946E+02  0.38655654278E+02  0.00000000000E+00 0.  1.
</event>
<event>
 8    1  0.1278459E-006  0.9118800E+02  0.7816164E-02  0.1184000E+00
        -11   -1    0    0    0    0  0.00000000000E+00  0.00000000000E+00  0.45593999997E+02  0.45594000000E+02  0.51100000000E-03 0.  1.
         11   -1    0    0    0    0 -0.00000000000E+00 -0.00000000000E+00 -0.45593999997E+02  0.45594000000E+02  0.51100000000E-03 0. -1.
         23    2    1    2    0    0  0.00000000000E+00  0.00000000000E+00  0.00000000000E+00  0.91188000000E+02  0.91188000000E+02 0.  0.
    9900012    2    3    3    0    0 -0.19617119268E+02 -0.22224610901E+02  0.21840538787E+02  0.54367165781E+02  0.40000186031E+02 0.  0.
         12    1    3    3    0    0  0.19617119268E+02  0.22224610901E+02 -0.21840538787E+02  0.36820834219E+02  0.00000000000E+00 0. -1.
         11    1    4    4    0    0 -0.28157900198E+01 -0.84581421216E+01 -0.49862411901E+01  0.10214276433E+02  0.51100000000E-03 0. -1.
        -11    1    4    4    0    0 -0.10820263475E+02 -0.20743731155E+02  0.11003631968E+02  0.25854601151E+02  0.51100000000E-03 0.  1.
        -12    1    4    4    0    0 -0.59810657732E+01  0.69772623762E+01  0.15823148009E+02  0.18298288198E+02  0.00000000000E+00 0.  1.
</event>
<event>
 8    1  0.1278459E-006  0.9118800E+02  0.7816164E-02  0.1184000E+00
        -11   -1    0    0    0    0  0.00000000000E+00  0.00000000000E+00  0.45593999997E+02  0.45594000000E+02  0.51100000000E-03 0.  1.
         11   -1    0    0    0    0 -0.00000000000E+00 -0.00000000000E+00 -0.45593999997E+02  0.45594000000E+02  0.51100000000E-03 0. -1.
         23    2    1    2    0    0  0.00000000000E+00  0.17763568394E-14  0.00000000000E+00  0.91188000000E+02  0.91188000000E+02 0.  0.
    9900012    2    3    3    0    0 -0.29516000287E+02  0.14937415818E+02  0.16169747466E+02  0.54367063057E+02  0.39999951850E+02 0.  0.
         12    1    3    3    0    0  0.29516000287E+02 -0.14937415818E+02 -0.16169747466E+02  0.36820936943E+02  0.00000000000E+00 0. -1.
         11    1    4    4    0    0 -0.10779448495E+02 -0.11766565663E+02  0.50114083308E+01  0.16726111057E+02  0.51100000000E-03 0. -1.
        -11    1    4    4    0    0 -0.16112341825E+02  0.17941963036E+02  0.12365250830E+01  0.24146440550E+02  0.51100000000E-03 0.  1.
        -12    1    4    4    0    0 -0.26242099670E+01  0.87620184452E+01  0.99218140525E+01  0.13494511450E+02  0.00000000000E+00 0.  1.
</event>
<event>
 8    1  0.1278459E-006  0.9118800E+02  0.7816164E-02  0.1184000E+00
        -11   -1    0    0    0    0  0.00000000000E+00  0.00000000000E+00  0.45593999997E+02  0.45594000000E+02  0.51100000000E-03 0.  1.
         11   -1    0    0    0    0 -0.00000000000E+00 -0.00000000000E+00 -0.45593999997E+02  0.45594000000E+02  0.51100000000E-03 0. -1.
         23    2    1    2    0    0  0.00000000000E+00  0.35527136788E-14  0.00000000000E+00  0.91188000000E+02  0.91188000000E+02 0.  0.
    9900012    2    3    3    0    0  0.18739700414E+02 -0.25138208026E+02 -0.19304768651E+02  0.54367082480E+02  0.39999996129E+02 0.  0.
        -12    1    3    3    0    0 -0.18739700414E+02  0.25138208026E+02  0.19304768651E+02  0.36820917520E+02  0.00000000000E+00 0.  1.
         11    1    4    4    0    0  0.14470861908E+02 -0.13989950354E+02 -0.24605075268E+02  0.31788901907E+02  0.51100000000E-03 0. -1.
        -11    1    4    4    0    0 -0.30210769761E+00  0.29362667152E+01  0.70735283313E+01  0.76647070784E+01  0.51100000000E-03 0.  1.
         12    1    4    4    0    0  0.45709462034E+01 -0.14084524387E+02 -0.17732217150E+01  0.14913473494E+02  0.00000000000E+00 0. -1.
</event>
<event>
 8    1  0.1278459E-006  0.9118800E+02  0.7816164E-02  0.1184000E+00
        -11   -1    0    0    0    0  0.00000000000E+00  0.00000000000E+00  0.45593999997E+02  0.45594000000E+02  0.51100000000E-03 0. -1.
         11   -1    0    0    0    0 -0.00000000000E+00 -0.00000000000E+00 -0.45593999997E+02  0.45594000000E+02  0.51100000000E-03 0.  1.
         23    2    1    2    0    0  0.00000000000E+00  0.00000000000E+00  0.88817841970E-15  0.91188000000E+02  0.91188000000E+02 0.  0.
    9900012    2    3    3    0    0 -0.34195201107E+02  0.13037156321E+02  0.40620318811E+01  0.54367091176E+02  0.40000015953E+02 0.  0.
         12    1    3    3    0    0  0.34195201107E+02 -0.13037156321E+02 -0.40620318811E+01  0.36820908824E+02  0.00000000000E+00 0. -1.
         11    1    4    4    0    0  0.43498600799E+01  0.24084337506E+01 -0.47308913143E+01  0.68631748291E+01  0.51100000000E-03 0. -1.
        -11    1    4    4    0    0 -0.22475671353E+02  0.68465138045E+01 -0.71445615129E+01  0.24557591769E+02  0.51100000000E-03 0.  1.
         12    1    4    4    0    0 -0.16069389834E+02  0.37822087654E+01  0.15937484708E+02  0.22946324577E+02  0.00000000000E+00 0. -1.
</event>
<event>
 8    1  0.1278459E-006  0.9118800E+02  0.7816164E-02  0.1184000E+00
        -11   -1    0    0    0    0  0.00000000000E+00  0.00000000000E+00  0.45593999997E+02  0.45594000000E+02  0.51100000000E-03 0.  1.
         11   -1    0    0    0    0 -0.00000000000E+00 -0.00000000000E+00 -0.45593999997E+02  0.45594000000E+02  0.51100000000E-03 0. -1.
         23    2    1    2    0    0 -0.22204460493E-15 -0.35527136788E-14  0.00000000000E+00  0.91188000000E+02  0.91188000000E+02 0.  0.
    9900012    2    3    3    0    0 -0.14224376439E+01  0.26238260285E+02  0.25793607802E+02  0.54367084271E+02  0.40000000213E+02 0.  0.
         12    1    3    3    0    0  0.14224376439E+01 -0.26238260285E+02 -0.25793607802E+02  0.36820915729E+02  0.00000000000E+00 0. -1.
         11    1    4    4    0    0  0.44446986513E+00  0.10174045751E+02 -0.10948908755E+01  0.10242438513E+02  0.51100000000E-03 0. -1.
        -11    1    4    4    0    0 -0.15189646530E+02  0.63478339891E+01  0.60226244299E+01  0.17529756511E+02  0.51100000000E-03 0.  1.
         12    1    4    4    0    0  0.13322739021E+02  0.97163805454E+01  0.20865874248E+02  0.26594889247E+02  0.00000000000E+00 0. -1.
</event>
<event>
 8    1  0.1278459E-006  0.9118800E+02  0.7816164E-02  0.1184000E+00
        -11   -1    0    0    0    0  0.00000000000E+00  0.00000000000E+00  0.45593999997E+02  0.45594000000E+02  0.51100000000E-03 0.  1.
         11   -1    0    0    0    0 -0.00000000000E+00 -0.00000000000E+00 -0.45593999997E+02  0.45594000000E+02  0.51100000000E-03 0. -1.
         23    2    1    2    0    0  0.35527136788E-14  0.00000000000E+00 -0.17763568394E-14  0.91188000000E+02  0.91188000000E+02 0.  0.
    9900012    2    3    3    0    0 -0.30400765260E+02 -0.15701166031E+02 -0.13603186014E+02  0.54367084573E+02  0.40000000901E+02 0.  0.
        -12    1    3    3    0    0  0.30400765260E+02  0.15701166031E+02  0.13603186014E+02  0.36820915427E+02  0.00000000000E+00 0.  1.
         11    1    4    4    0    0 -0.18385874888E+02  0.10752075646E+01 -0.10289430178E+02  0.21096654720E+02  0.51100000000E-03 0. -1.
        -11    1    4    4    0    0 -0.18404425138E+02 -0.88199470819E+01  0.38943598567E+01  0.20776919169E+02  0.51100000000E-03 0.  1.
        -12    1    4    4    0    0  0.63895347660E+01 -0.79564265134E+01 -0.72081156926E+01  0.12493510685E+02  0.00000000000E+00 0.  1.
</event>
<event>
 8    1  0.1278459E-006  0.9118800E+02  0.7816164E-02  0.1184000E+00
        -11   -1    0    0    0    0  0.00000000000E+00  0.00000000000E+00  0.45593999997E+02  0.45594000000E+02  0.51100000000E-03 0.  1.
         11   -1    0    0    0    0 -0.00000000000E+00 -0.00000000000E+00 -0.45593999997E+02  0.45594000000E+02  0.51100000000E-03 0. -1.
         23    2    1    2    0    0 -0.17763568394E-14  0.00000000000E+00  0.00000000000E+00  0.91188000000E+02  0.91188000000E+02 0.  0.
    9900012    2    3    3    0    0 -0.12409484054E+02  0.26102411168E+02  0.22813348127E+02  0.54367081815E+02  0.39999994613E+02 0.  0.
         12    1    3    3    0    0  0.12409484054E+02 -0.26102411168E+02 -0.22813348127E+02  0.36820918185E+02  0.00000000000E+00 0. -1.
         11    1    4    4    0    0  0.71213650731E+01  0.76167290508E+01  0.67774191088E+01  0.12436310224E+02  0.51100000000E-03 0. -1.
        -11    1    4    4    0    0 -0.11221708512E+02 -0.50976742355E+01  0.10792356419E+02  0.16382551140E+02  0.51100000000E-03 0.  1.
        -12    1    4    4    0    0 -0.83091406158E+01  0.23583356352E+02  0.52435725993E+01  0.25548220451E+02  0.00000000000E+00 0.  1.
</event>
<event>
 8    1  0.1278459E-006  0.9118800E+02  0.7816164E-02  0.1184000E+00
        -11   -1    0    0    0    0  0.00000000000E+00  0.00000000000E+00  0.45593999997E+02  0.45594000000E+02  0.51100000000E-03 0.  1.
         11   -1    0    0    0    0 -0.00000000000E+00 -0.00000000000E+00 -0.45593999997E+02  0.45594000000E+02  0.51100000000E-03 0. -1.
         23    2    1    2    0    0  0.35527136788E-14  0.00000000000E+00  0.00000000000E+00  0.91188000000E+02  0.91188000000E+02 0.  0.
    9900012    2    3    3    0    0 -0.28291621247E+02  0.15026804193E+02  0.18153774045E+02  0.54367079465E+02  0.39999989255E+02 0.  0.
         12    1    3    3    0    0  0.28291621247E+02 -0.15026804193E+02 -0.18153774045E+02  0.36820920535E+02  0.00000000000E+00 0. -1.
         11    1    4    4    0    0  0.22051486979E+01 -0.26339458233E+01  0.11947497737E+02  0.12431534653E+02  0.51100000000E-03 0. -1.
        -11    1    4    4    0    0 -0.18450228861E+02  0.17953963674E+02 -0.41132382697E+01  0.26070567427E+02  0.51100000000E-03 0.  1.
         12    1    4    4    0    0 -0.12046541084E+02 -0.29321365770E+00  0.10319514577E+02  0.15864977385E+02  0.00000000000E+00 0. -1.
</event>
<event>
 8    1  0.1278459E-006  0.9118800E+02  0.7816164E-02  0.1184000E+00
        -11   -1    0    0    0    0  0.00000000000E+00  0.00000000000E+00  0.45593999997E+02  0.45594000000E+02  0.51100000000E-03 0.  1.
         11   -1    0    0    0    0 -0.00000000000E+00 -0.00000000000E+00 -0.45593999997E+02  0.45594000000E+02  0.51100000000E-03 0. -1.
         23    2    1    2    0    0  0.00000000000E+00 -0.71054273576E-14 -0.88817841970E-15  0.91188000000E+02  0.91188000000E+02 0.  0.
    9900012    2    3    3    0    0  0.80888107103E+01  0.35569933790E+02  0.50130714365E+01  0.54367082931E+02  0.39999997159E+02 0.  0.
         12    1    3    3    0    0 -0.80888107103E+01 -0.35569933790E+02 -0.50130714365E+01  0.36820917069E+02  0.00000000000E+00 0. -1.
         11    1    4    4    0    0 -0.36805228829E+01 -0.16955049271E+01  0.86624875129E+00  0.41438355191E+01  0.51100000000E-03 0. -1.
        -11    1    4    4    0    0 -0.85778633727E+01  0.24562935034E+02  0.32493370001E+01  0.26219757984E+02  0.51100000000E-03 0.  1.
         12    1    4    4    0    0  0.20347196966E+02  0.12702503683E+02  0.89748568504E+00  0.24003489429E+02  0.00000000000E+00 0. -1.
</event>
<event>
 8    1  0.1278459E-006  0.9118800E+02  0.7816164E-02  0.1184000E+00
        -11   -1    0    0    0    0  0.00000000000E+00  0.00000000000E+00  0.45593999997E+02  0.45594000000E+02  0.51100000000E-03 0. -1.
         11   -1    0    0    0    0 -0.00000000000E+00 -0.00000000000E+00 -0.45593999997E+02  0.45594000000E+02  0.51100000000E-03 0.  1.
         23    2    1    2    0    0 -0.35527136788E-14 -0.35527136788E-14  0.71054273576E-14  0.91188000000E+02  0.91188000000E+02 0.  0.
    9900012    2    3    3    0    0  0.16088353333E+02  0.17104121920E+02 -0.28361808085E+02  0.54367105695E+02  0.40000049052E+02 0.  0.
         12    1    3    3    0    0 -0.16088353333E+02 -0.17104121920E+02  0.28361808085E+02  0.36820894305E+02  0.00000000000E+00 0. -1.
         11    1    4    4    0    0  0.83296187531E+01  0.25085542761E+02 -0.22081976288E+02  0.34442425600E+02  0.51100000000E-03 0. -1.
        -11    1    4    4    0    0 -0.11124556597E+00 -0.88604068610E+01  0.13081587026E+01  0.89571460170E+01  0.51100000000E-03 0.  1.
        -12    1    4    4    0    0  0.78699801456E+01  0.87898601991E+00 -0.75879904993E+01  0.10967534077E+02  0.00000000000E+00 0.  1.
</event>
<event>
 8    1  0.1278459E-006  0.9118800E+02  0.7816164E-02  0.1184000E+00
        -11   -1    0    0    0    0  0.00000000000E+00  0.00000000000E+00  0.45593999997E+02  0.45594000000E+02  0.51100000000E-03 0. -1.
         11   -1    0    0    0    0 -0.00000000000E+00 -0.00000000000E+00 -0.45593999997E+02  0.45594000000E+02  0.51100000000E-03 0.  1.
         23    2    1    2    0    0  0.00000000000E+00  0.44408920985E-15  0.35527136788E-14  0.91188000000E+02  0.91188000000E+02 0.  0.
    9900012    2    3    3    0    0  0.28827479175E+02 -0.12917363890E+01 -0.22871107435E+02  0.54367086190E+02  0.40000004588E+02 0.  0.
         12    1    3    3    0    0 -0.28827479175E+02  0.12917363890E+01  0.22871107435E+02  0.36820913810E+02  0.00000000000E+00 0. -1.
         11    1    4    4    0    0 -0.55173746933E+01  0.98693697445E+00 -0.33325087316E+01  0.65208191821E+01  0.51100000000E-03 0. -1.
        -11    1    4    4    0    0  0.28200133381E+02  0.39805059999E+01 -0.24674613767E+02  0.37681938850E+02  0.51100000000E-03 0.  1.
         12    1    4    4    0    0  0.61447204874E+01 -0.62591793634E+01  0.51360150637E+01  0.10164328158E+02  0.00000000000E+00 0. -1.
</event>
<event>
 8    1  0.1278459E-006  0.9118800E+02  0.7816164E-02  0.1184000E+00
        -11   -1    0    0    0    0  0.00000000000E+00  0.00000000000E+00  0.45593999997E+02  0.45594000000E+02  0.51100000000E-03 0.  1.
         11   -1    0    0    0    0 -0.00000000000E+00 -0.00000000000E+00 -0.45593999997E+02  0.45594000000E+02  0.51100000000E-03 0. -1.
         23    2    1    2    0    0  0.00000000000E+00  0.00000000000E+00  0.00000000000E+00  0.91188000000E+02  0.91188000000E+02 0.  0.
    9900012    2    3    3    0    0 -0.18164166383E+02 -0.17910116703E+02 -0.26553175550E+02  0.54367077245E+02  0.39999984196E+02 0.  0.
        -12    1    3    3    0    0  0.18164166383E+02  0.17910116703E+02  0.26553175550E+02  0.36820922755E+02  0.00000000000E+00 0.  1.
         11    1    4    4    0    0 -0.15372328290E+02 -0.21233197287E+02 -0.38643815589E+01  0.26496992079E+02  0.51100000000E-03 0. -1.
        -11    1    4    4    0    0 -0.54390279605E+01 -0.92892938194E+00 -0.99649547764E+00  0.56070436462E+01  0.51100000000E-03 0.  1.
        -12    1    4    4    0    0  0.26471898684E+01  0.42520099661E+01 -0.21692298514E+02  0.22263041521E+02  0.00000000000E+00 0.  1.
</event>
<event>
 8    1  0.1278459E-006  0.9118800E+02  0.7816164E-02  0.1184000E+00
        -11   -1    0    0    0    0  0.00000000000E+00  0.00000000000E+00  0.45593999997E+02  0.45594000000E+02  0.51100000000E-03 0.  1.
         11   -1    0    0    0    0 -0.00000000000E+00 -0.00000000000E+00 -0.45593999997E+02  0.45594000000E+02  0.51100000000E-03 0. -1.
         23    2    1    2    0    0  0.00000000000E+00  0.00000000000E+00  0.71054273576E-14  0.91188000000E+02  0.91188000000E+02 0.  0.
    9900012    2    3    3    0    0  0.40215276658E+01  0.15994543190E+02  0.32920820947E+02  0.54367101743E+02  0.40000040044E+02 0.  0.
         12    1    3    3    0    0 -0.40215276658E+01 -0.15994543190E+02 -0.32920820947E+02  0.36820898257E+02  0.00000000000E+00 0. -1.
         11    1    4    4    0    0  0.57125048541E+01 -0.16269069091E+01 -0.34696337176E+01  0.68788004910E+01  0.51100000000E-03 0. -1.
        -11    1    4    4    0    0  0.96719582106E+01  0.97302274010E+01  0.79369929628E+01  0.15849919825E+02  0.51100000000E-03 0.  1.
         12    1    4    4    0    0 -0.11362935399E+02  0.78912226981E+01  0.28453461701E+02  0.31638381427E+02  0.00000000000E+00 0. -1.
</event>
<event>
 8    1  0.1278459E-006  0.9118800E+02  0.7816164E-02  0.1184000E+00
        -11   -1    0    0    0    0  0.00000000000E+00  0.00000000000E+00  0.45593999997E+02  0.45594000000E+02  0.51100000000E-03 0. -1.
         11   -1    0    0    0    0 -0.00000000000E+00 -0.00000000000E+00 -0.45593999997E+02  0.45594000000E+02  0.51100000000E-03 0.  1.
         23    2    1    2    0    0  0.35527136788E-14  0.00000000000E+00  0.00000000000E+00  0.91188000000E+02  0.91188000000E+02 0.  0.
    9900012    2    3    3    0    0 -0.23053897142E+02  0.23894436895E+02 -0.15917087427E+02  0.54367082574E+02  0.39999996343E+02 0.  0.
         12    1    3    3    0    0  0.23053897142E+02 -0.23894436895E+02  0.15917087427E+02  0.36820917426E+02  0.00000000000E+00 0. -1.
         11    1    4    4    0    0 -0.24245271454E+02  0.79450387076E+01 -0.54120272731E+01  0.26081542658E+02  0.51100000000E-03 0. -1.
        -11    1    4    4    0    0 -0.89830737545E+01  0.90430233655E+01 -0.95962895189E+01  0.15954957175E+02  0.51100000000E-03 0.  1.
         12    1    4    4    0    0  0.10174448067E+02  0.69063748222E+01 -0.90877063485E+00  0.12330582741E+02  0.00000000000E+00 0. -1.
</event>
<event>
 8    1  0.1278459E-006  0.9118800E+02  0.7816164E-02  0.1184000E+00
        -11   -1    0    0    0    0  0.00000000000E+00  0.00000000000E+00  0.45593999997E+02  0.45594000000E+02  0.51100000000E-03 0.  1.
         11   -1    0    0    0    0 -0.00000000000E+00 -0.00000000000E+00 -0.45593999997E+02  0.45594000000E+02  0.51100000000E-03 0. -1.
         23    2    1    2    0    0  0.00000000000E+00  0.35527136788E-14  0.00000000000E+00  0.91188000000E+02  0.91188000000E+02 0.  0.
    9900012    2    3    3    0    0 -0.13648999568E+02  0.19307193143E+02  0.28226194989E+02  0.54367068726E+02  0.39999964775E+02 0.  0.
         12    1    3    3    0    0  0.13648999568E+02 -0.19307193143E+02 -0.28226194989E+02  0.36820931274E+02  0.00000000000E+00 0. -1.
         11    1    4    4    0    0 -0.46926099754E+01 -0.71426374936E+01  0.41780538039E+01  0.95128330478E+01  0.51100000000E-03 0. -1.
        -11    1    4    4    0    0  0.76294116787E+01  0.33297548285E+01  0.10328218722E+02  0.13265266376E+02  0.51100000000E-03 0.  1.
         12    1    4    4    0    0 -0.16585801272E+02  0.23120075808E+02  0.13719922463E+02  0.31588969303E+02  0.00000000000E+00 0. -1.
</event>
<event>
 8    1  0.1278459E-006  0.9118800E+02  0.7816164E-02  0.1184000E+00
        -11   -1    0    0    0    0  0.00000000000E+00  0.00000000000E+00  0.45593999997E+02  0.45594000000E+02  0.51100000000E-03 0.  1.
         11   -1    0    0    0    0 -0.00000000000E+00 -0.00000000000E+00 -0.45593999997E+02  0.45594000000E+02  0.51100000000E-03 0. -1.
         23    2    1    2    0    0  0.00000000000E+00  0.00000000000E+00  0.00000000000E+00  0.91188000000E+02  0.91188000000E+02 0.  0.
    9900012    2    3    3    0    0  0.13784803963E+02 -0.25783620242E+02 -0.22382104775E+02  0.54367156620E+02  0.40000165146E+02 0.  0.
        -12    1    3    3    0    0 -0.13784803963E+02  0.25783620242E+02  0.22382104775E+02  0.36820843380E+02  0.00000000000E+00 0.  1.
         11    1    4    4    0    0  0.14340572041E+01 -0.99626144799E+01 -0.19891806378E+02  0.22293366022E+02  0.51100000000E-03 0. -1.
        -11    1    4    4    0    0 -0.31346766449E+01 -0.10115333853E+02 -0.94214230972E+01  0.14174250952E+02  0.51100000000E-03 0.  1.
        -12    1    4    4    0    0  0.15485423404E+02 -0.57056719093E+01  0.69311247002E+01  0.17899539646E+02  0.00000000000E+00 0.  1.
</event>
<event>
 8    1  0.1278459E-006  0.9118800E+02  0.7816164E-02  0.1184000E+00
        -11   -1    0    0    0    0  0.00000000000E+00  0.00000000000E+00  0.45593999997E+02  0.45594000000E+02  0.51100000000E-03 0.  1.
         11   -1    0    0    0    0 -0.00000000000E+00 -0.00000000000E+00 -0.45593999997E+02  0.45594000000E+02  0.51100000000E-03 0. -1.
         23    2    1    2    0    0  0.00000000000E+00  0.00000000000E+00 -0.17763568394E-14  0.91188000000E+02  0.91188000000E+02 0.  0.
    9900012    2    3    3    0    0 -0.18138078100E+02  0.29507605189E+02 -0.12493437524E+02  0.54367155057E+02  0.40000161583E+02 0.  0.
         12    1    3    3    0    0  0.18138078100E+02 -0.29507605189E+02  0.12493437524E+02  0.36820844943E+02  0.00000000000E+00 0. -1.
         11    1    4    4    0    0  0.24887310158E+01  0.14486613813E+02  0.35745983366E+01  0.15127244143E+02  0.51100000000E-03 0. -1.
        -11    1    4    4    0    0 -0.14142395850E+01  0.11759280190E+02  0.27397963301E+01  0.12156777056E+02  0.51100000000E-03 0.  1.
        -12    1    4    4    0    0 -0.19212569530E+02  0.32617111859E+01 -0.18807832191E+02  0.27083133858E+02  0.00000000000E+00 0.  1.
</event>
<event>
 8    1  0.1278459E-006  0.9118800E+02  0.7816164E-02  0.1184000E+00
        -11   -1    0    0    0    0  0.00000000000E+00  0.00000000000E+00  0.45593999997E+02  0.45594000000E+02  0.51100000000E-03 0.  1.
         11   -1    0    0    0    0 -0.00000000000E+00 -0.00000000000E+00 -0.45593999997E+02  0.45594000000E+02  0.51100000000E-03 0. -1.
         23    2    1    2    0    0  0.00000000000E+00 -0.66613381478E-15  0.00000000000E+00  0.91188000000E+02  0.91188000000E+02 0.  0.
    9900012    2    3    3    0    0  0.34942391388E+02 -0.13576418372E+01  0.11530941874E+02  0.54367129183E+02  0.40000102598E+02 0.  0.
        -12    1    3    3    0    0 -0.34942391388E+02  0.13576418372E+01 -0.11530941874E+02  0.36820870817E+02  0.00000000000E+00 0.  1.
         11    1    4    4    0    0  0.96714109836E+01 -0.20005944675E+01  0.97405196319E+01  0.13871419956E+02  0.51100000000E-03 0. -1.
        -11    1    4    4    0    0  0.16088762078E+02  0.51518055082E+01  0.15812217983E+02  0.23139049311E+02  0.51100000000E-03 0.  1.
         12    1    4    4    0    0  0.91822183255E+01 -0.45088528779E+01 -0.14021795741E+02  0.17356659916E+02  0.00000000000E+00 0. -1.
</event>
<event>
 8    1  0.1278459E-006  0.9118800E+02  0.7816164E-02  0.1184000E+00
        -11   -1    0    0    0    0  0.00000000000E+00  0.00000000000E+00  0.45593999997E+02  0.45594000000E+02  0.51100000000E-03 0. -1.
         11   -1    0    0    0    0 -0.00000000000E+00 -0.00000000000E+00 -0.45593999997E+02  0.45594000000E+02  0.51100000000E-03 0.  1.
         23    2    1    2    0    0  0.00000000000E+00  0.17763568394E-14  0.00000000000E+00  0.91188000000E+02  0.91188000000E+02 0.  0.
    9900012    2    3    3    0    0 -0.33200014730E+00 -0.13007224992E+02 -0.34445361518E+02  0.54367067690E+02  0.39999962412E+02 0.  0.
         12    1    3    3    0    0  0.33200014730E+00  0.13007224992E+02  0.34445361518E+02  0.36820932310E+02  0.00000000000E+00 0. -1.
         11    1    4    4    0    0 -0.23676426011E+01 -0.65145206984E+01  0.83887140562E+01  0.10881876456E+02  0.51100000000E-03 0. -1.
        -11    1    4    4    0    0  0.17364284563E+01 -0.47815230230E+01 -0.22075022539E+02  0.22653581761E+02  0.51100000000E-03 0.  1.
         12    1    4    4    0    0  0.29921399753E+00 -0.17111812707E+01 -0.20759053035E+02  0.20831609474E+02  0.00000000000E+00 0. -1.
</event>
<event>
 8    1  0.1278459E-006  0.9118800E+02  0.7816164E-02  0.1184000E+00
        -11   -1    0    0    0    0  0.00000000000E+00  0.00000000000E+00  0.45593999997E+02  0.45594000000E+02  0.51100000000E-03 0.  1.
         11   -1    0    0    0    0 -0.00000000000E+00 -0.00000000000E+00 -0.45593999997E+02  0.45594000000E+02  0.51100000000E-03 0. -1.
         23    2    1    2    0    0  0.00000000000E+00  0.00000000000E+00  0.00000000000E+00  0.91188000000E+02  0.91188000000E+02 0.  0.
    9900012    2    3    3    0    0 -0.15150212686E+02 -0.19047012301E+02 -0.27630815117E+02  0.54367087925E+02  0.40000008542E+02 0.  0.
        -12    1    3    3    0    0  0.15150212686E+02  0.19047012301E+02  0.27630815117E+02  0.36820912075E+02  0.00000000000E+00 0.  1.
         11    1    4    4    0    0  0.53937420333E+01  0.66298191884E+01 -0.49164714223E+00  0.85608803733E+01  0.51100000000E-03 0. -1.
        -11    1    4    4    0    0 -0.17173700977E+02 -0.10897605483E+02 -0.92094042248E+01  0.22327268909E+02  0.51100000000E-03 0.  1.
         12    1    4    4    0    0 -0.33702537424E+01 -0.14779226007E+02 -0.17929763750E+02  0.23478938642E+02  0.00000000000E+00 0. -1.
</event>
<event>
 8    1  0.1278459E-006  0.9118800E+02  0.7816164E-02  0.1184000E+00
        -11   -1    0    0    0    0  0.00000000000E+00  0.00000000000E+00  0.45593999997E+02  0.45594000000E+02  0.51100000000E-03 0. -1.
         11   -1    0    0    0    0 -0.00000000000E+00 -0.00000000000E+00 -0.45593999997E+02  0.45594000000E+02  0.51100000000E-03 0.  1.
         23    2    1    2    0    0  0.00000000000E+00  0.00000000000E+00  0.31086244690E-14  0.91188000000E+02  0.91188000000E+02 0.  0.
    9900012    2    3    3    0    0 -0.36131912777E+02 -0.64710369302E+01  0.28966072869E+01  0.54367085106E+02  0.40000002115E+02 0.  0.
         12    1    3    3    0    0  0.36131912777E+02  0.64710369302E+01 -0.28966072869E+01  0.36820914894E+02  0.00000000000E+00 0. -1.
         11    1    4    4    0    0  0.24129837133E+01  0.31874788269E+01 -0.97669710414E+00  0.41153917392E+01  0.51100000000E-03 0. -1.
        -11    1    4    4    0    0 -0.23827234367E+02  0.38875272194E+01 -0.97646255433E+01  0.26042232579E+02  0.51100000000E-03 0.  1.
        -12    1    4    4    0    0 -0.14717662123E+02 -0.13546042976E+02  0.13637929934E+02  0.24209460787E+02  0.00000000000E+00 0.  1.
</event>
<event>
 8    1  0.1278459E-006  0.9118800E+02  0.7816164E-02  0.1184000E+00
        -11   -1    0    0    0    0  0.00000000000E+00  0.00000000000E+00  0.45593999997E+02  0.45594000000E+02  0.51100000000E-03 0.  1.
         11   -1    0    0    0    0 -0.00000000000E+00 -0.00000000000E+00 -0.45593999997E+02  0.45594000000E+02  0.51100000000E-03 0. -1.
         23    2    1    2    0    0  0.17763568394E-14 -0.35527136788E-14  0.35527136788E-14  0.91188000000E+02  0.91188000000E+02 0.  0.
    9900012    2    3    3    0    0 -0.13415865605E+02  0.28696762871E+02 -0.18769385800E+02  0.54367088924E+02  0.40000010819E+02 0.  0.
        -12    1    3    3    0    0  0.13415865605E+02 -0.28696762871E+02  0.18769385800E+02  0.36820911076E+02  0.00000000000E+00 0.  1.
         11    1    4    4    0    0 -0.33367925219E+01  0.81857537188E+01 -0.17866416316E+02  0.19933629387E+02  0.51100000000E-03 0. -1.
        -11    1    4    4    0    0 -0.16787143804E+02  0.74434957048E+01 -0.52783737034E+01  0.19106937343E+02  0.51100000000E-03 0.  1.
        -12    1    4    4    0    0  0.67080707207E+01  0.13067513447E+02  0.43754042196E+01  0.15326522194E+02  0.00000000000E+00 0.  1.
</event>
<event>
 8    1  0.1278459E-006  0.9118800E+02  0.7816164E-02  0.1184000E+00
        -11   -1    0    0    0    0  0.00000000000E+00  0.00000000000E+00  0.45593999997E+02  0.45594000000E+02  0.51100000000E-03 0. -1.
         11   -1    0    0    0    0 -0.00000000000E+00 -0.00000000000E+00 -0.45593999997E+02  0.45594000000E+02  0.51100000000E-03 0.  1.
         23    2    1    2    0    0 -0.35527136788E-14 -0.44408920985E-15 -0.71054273576E-14  0.91188000000E+02  0.91188000000E+02 0.  0.
    9900012    2    3    3    0    0  0.20513072752E+02  0.28927153925E+01  0.30440538574E+02  0.54367077351E+02  0.39999984437E+02 0.  0.
        -12    1    3    3    0    0 -0.20513072752E+02 -0.28927153925E+01 -0.30440538574E+02  0.36820922649E+02  0.00000000000E+00 0.  1.
         11    1    4    4    0    0 -0.21847632936E+01  0.36574443258E+01 -0.52464065767E+00  0.42924745458E+01  0.51100000000E-03 0.  1.
        -11    1    4    4    0    0 -0.38058873824E+01  0.60457160637E+00 -0.44064795153E+01  0.58538318710E+01  0.51100000000E-03 0. -1.
         12    1    4    4    0    0  0.26503723428E+02 -0.13693005396E+01  0.35371658747E+02  0.44220770934E+02  0.00000000000E+00 0. -1.
</event>
<event>
 8    1  0.1278459E-006  0.9118800E+02  0.7816164E-02  0.1184000E+00
        -11   -1    0    0    0    0  0.00000000000E+00  0.00000000000E+00  0.45593999997E+02  0.45594000000E+02  0.51100000000E-03 0.  1.
         11   -1    0    0    0    0 -0.00000000000E+00 -0.00000000000E+00 -0.45593999997E+02  0.45594000000E+02  0.51100000000E-03 0. -1.
         23    2    1    2    0    0  0.22204460493E-15  0.35527136788E-14  0.00000000000E+00  0.91188000000E+02  0.91188000000E+02 0.  0.
    9900012    2    3    3    0    0  0.14867145407E+01  0.21945320216E+02  0.29529190439E+02  0.54367075412E+02  0.39999980017E+02 0.  0.
         12    1    3    3    0    0 -0.14867145407E+01 -0.21945320216E+02 -0.29529190439E+02  0.36820924588E+02  0.00000000000E+00 0. -1.
         11    1    4    4    0    0 -0.14314797234E+02  0.11092596026E+02  0.47454829412E+01  0.18721076760E+02  0.51100000000E-03 0.  1.
        -11    1    4    4    0    0  0.62063383569E+00 -0.41971850365E+01  0.42212431170E+01  0.59850181539E+01  0.51100000000E-03 0. -1.
        -12    1    4    4    0    0  0.15180877939E+02  0.15049909226E+02  0.20562464381E+02  0.29660980498E+02  0.00000000000E+00 0.  1.
</event>
<event>
 8    1  0.1278459E-006  0.9118800E+02  0.7816164E-02  0.1184000E+00
        -11   -1    0    0    0    0  0.00000000000E+00  0.00000000000E+00  0.45593999997E+02  0.45594000000E+02  0.51100000000E-03 0.  1.
         11   -1    0    0    0    0 -0.00000000000E+00 -0.00000000000E+00 -0.45593999997E+02  0.45594000000E+02  0.51100000000E-03 0. -1.
         23    2    1    2    0    0 -0.17763568394E-14  0.00000000000E+00  0.00000000000E+00  0.91188000000E+02  0.91188000000E+02 0.  0.
    9900012    2    3    3    0    0  0.45938555292E+01  0.11746133762E+02  0.34593435318E+02  0.54367069348E+02  0.39999966193E+02 0.  0.
         12    1    3    3    0    0 -0.45938555292E+01 -0.11746133762E+02 -0.34593435318E+02  0.36820930652E+02  0.00000000000E+00 0. -1.
         11    1    4    4    0    0 -0.12830308678E+02 -0.29400415596E+01  0.23840542367E+02  0.27232923563E+02  0.51100000000E-03 0. -1.
        -11    1    4    4    0    0  0.97186244932E+01  0.14135950006E+02  0.67632212846E+01  0.18439574480E+02  0.51100000000E-03 0.  1.
         12    1    4    4    0    0  0.77055397138E+01  0.55022531630E+00  0.39896716658E+01  0.86945713051E+01  0.00000000000E+00 0. -1.
</event>
<event>
 8    1  0.1278459E-006  0.9118800E+02  0.7816164E-02  0.1184000E+00
        -11   -1    0    0    0    0  0.00000000000E+00  0.00000000000E+00  0.45593999997E+02  0.45594000000E+02  0.51100000000E-03 0.  1.
         11   -1    0    0    0    0 -0.00000000000E+00 -0.00000000000E+00 -0.45593999997E+02  0.45594000000E+02  0.51100000000E-03 0. -1.
         23    2    1    2    0    0  0.00000000000E+00  0.17763568394E-14  0.00000000000E+00  0.91188000000E+02  0.91188000000E+02 0.  0.
    9900012    2    3    3    0    0 -0.30168163572E+02  0.14012954300E+02  0.15789236958E+02  0.54367068654E+02  0.39999964610E+02 0.  0.
         12    1    3    3    0    0  0.30168163572E+02 -0.14012954300E+02 -0.15789236958E+02  0.36820931346E+02  0.00000000000E+00 0. -1.
         11    1    4    4    0    0 -0.12425812705E+02 -0.18643288489E+01 -0.85829228295E+01  0.15216540605E+02  0.51100000000E-03 0. -1.
        -11    1    4    4    0    0 -0.48008564517E+01 -0.93798919908E+00  0.15319231057E+02  0.16081258870E+02  0.51100000000E-03 0.  1.
         12    1    4    4    0    0 -0.12941494415E+02  0.16815272348E+02  0.90529287304E+01  0.23069269178E+02  0.00000000000E+00 0. -1.
</event>
<event>
 8    1  0.1278459E-006  0.9118800E+02  0.7816164E-02  0.1184000E+00
        -11   -1    0    0    0    0  0.00000000000E+00  0.00000000000E+00  0.45593999997E+02  0.45594000000E+02  0.51100000000E-03 0. -1.
         11   -1    0    0    0    0 -0.00000000000E+00 -0.00000000000E+00 -0.45593999997E+02  0.45594000000E+02  0.51100000000E-03 0.  1.
         23    2    1    2    0    0 -0.17763568394E-14  0.17763568394E-14  0.71054273576E-14  0.91188000000E+02  0.91188000000E+02 0.  0.
    9900012    2    3    3    0    0 -0.13924490221E+02 -0.15875700028E+01 -0.34049581331E+02  0.54367003338E+02  0.39999815708E+02 0.  0.
         12    1    3    3    0    0  0.13924490221E+02  0.15875700028E+01  0.34049581331E+02  0.36820996662E+02  0.00000000000E+00 0. -1.
         11    1    4    4    0    0 -0.18624757315E+01 -0.72287021672E+01 -0.13777398869E+01  0.75908575490E+01  0.51100000000E-03 0. -1.
        -11    1    4    4    0    0  0.49712774778E+01  0.11260798826E+02 -0.39753791463E+01  0.12935332604E+02  0.51100000000E-03 0.  1.
        -12    1    4    4    0    0 -0.17033291967E+02 -0.56196666612E+01 -0.28696462297E+02  0.33840813185E+02  0.00000000000E+00 0.  1.
</event>
<event>
 8    1  0.1278459E-006  0.9118800E+02  0.7816164E-02  0.1184000E+00
        -11   -1    0    0    0    0  0.00000000000E+00  0.00000000000E+00  0.45593999997E+02  0.45594000000E+02  0.51100000000E-03 0. -1.
         11   -1    0    0    0    0 -0.00000000000E+00 -0.00000000000E+00 -0.45593999997E+02  0.45594000000E+02  0.51100000000E-03 0.  1.
         23    2    1    2    0    0  0.00000000000E+00  0.00000000000E+00  0.35527136788E-14  0.91188000000E+02  0.91188000000E+02 0.  0.
    9900012    2    3    3    0    0 -0.17312814921E+02  0.21953135150E+02 -0.23960521318E+02  0.54367078159E+02  0.39999986280E+02 0.  0.
         12    1    3    3    0    0  0.17312814921E+02 -0.21953135150E+02  0.23960521318E+02  0.36820921841E+02  0.00000000000E+00 0. -1.
         11    1    4    4    0    0 -0.18567467033E+01 -0.95922143909E+00 -0.16208131832E+02  0.16342311704E+02  0.51100000000E-03 0. -1.
        -11    1    4    4    0    0 -0.75650372934E+01  0.20107182372E+02 -0.15598420849E+02  0.26548809869E+02  0.51100000000E-03 0.  1.
         12    1    4    4    0    0 -0.78910309238E+01  0.28051742163E+01  0.78460313629E+01  0.11475956586E+02  0.00000000000E+00 0. -1.
</event>
<event>
 8    1  0.1278459E-006  0.9118800E+02  0.7816164E-02  0.1184000E+00
        -11   -1    0    0    0    0  0.00000000000E+00  0.00000000000E+00  0.45593999997E+02  0.45594000000E+02  0.51100000000E-03 0.  1.
         11   -1    0    0    0    0 -0.00000000000E+00 -0.00000000000E+00 -0.45593999997E+02  0.45594000000E+02  0.51100000000E-03 0. -1.
         23    2    1    2    0    0 -0.17763568394E-14  0.00000000000E+00  0.00000000000E+00  0.91188000000E+02  0.91188000000E+02 0.  0.
    9900012    2    3    3    0    0 -0.11261108845E+02  0.11697529412E+02 -0.33047476944E+02  0.54367075254E+02  0.39999979657E+02 0.  0.
        -12    1    3    3    0    0  0.11261108845E+02 -0.11697529412E+02  0.33047476944E+02  0.36820924746E+02  0.00000000000E+00 0.  1.
         11    1    4    4    0    0 -0.54129165602E+01  0.65339285499E+01 -0.98425955438E+01  0.12994944220E+02  0.51100000000E-03 0. -1.
        -11    1    4    4    0    0 -0.27006910573E+01 -0.39523296020E+00  0.85530953663E+01  0.89780500046E+01  0.51100000000E-03 0.  1.
        -12    1    4    4    0    0 -0.31475012271E+01  0.55588338221E+01 -0.31757976767E+02  0.32394081030E+02  0.00000000000E+00 0.  1.
</event>
<event>
 8    1  0.1278459E-006  0.9118800E+02  0.7816164E-02  0.1184000E+00
        -11   -1    0    0    0    0  0.00000000000E+00  0.00000000000E+00  0.45593999997E+02  0.45594000000E+02  0.51100000000E-03 0.  1.
         11   -1    0    0    0    0 -0.00000000000E+00 -0.00000000000E+00 -0.45593999997E+02  0.45594000000E+02  0.51100000000E-03 0. -1.
         23    2    1    2    0    0  0.00000000000E+00  0.00000000000E+00  0.00000000000E+00  0.91188000000E+02  0.91188000000E+02 0.  0.
    9900012    2    3    3    0    0 -0.97555453446E+01  0.20439967947E+02 -0.29031307875E+02  0.54367084863E+02  0.40000001561E+02 0.  0.
        -12    1    3    3    0    0  0.97555453446E+01 -0.20439967947E+02  0.29031307875E+02  0.36820915137E+02  0.00000000000E+00 0.  1.
         11    1    4    4    0    0 -0.87891795567E+01 -0.13326535156E+01 -0.97503119068E+01  0.13194477072E+02  0.51100000000E-03 0. -1.
        -11    1    4    4    0    0  0.16651185562E+01  0.41024616301E+01 -0.22576173135E+02  0.23006225351E+02  0.51100000000E-03 0.  1.
        -12    1    4    4    0    0 -0.26314843441E+01  0.17670159832E+02  0.32951771670E+01  0.18166382439E+02  0.00000000000E+00 0.  1.
</event>
<event>
 8    1  0.1278459E-006  0.9118800E+02  0.7816164E-02  0.1184000E+00
        -11   -1    0    0    0    0  0.00000000000E+00  0.00000000000E+00  0.45593999997E+02  0.45594000000E+02  0.51100000000E-03 0.  1.
         11   -1    0    0    0    0 -0.00000000000E+00 -0.00000000000E+00 -0.45593999997E+02  0.45594000000E+02  0.51100000000E-03 0. -1.
         23    2    1    2    0    0  0.00000000000E+00  0.35527136788E-14  0.00000000000E+00  0.91188000000E+02  0.91188000000E+02 0.  0.
    9900012    2    3    3    0    0 -0.74954499402E+01  0.31167791733E+02 -0.18115370488E+02  0.54367086659E+02  0.40000005657E+02 0.  0.
        -12    1    3    3    0    0  0.74954499402E+01 -0.31167791733E+02  0.18115370488E+02  0.36820913341E+02  0.00000000000E+00 0.  1.
         11    1    4    4    0    0 -0.17001918473E+02  0.63297158907E+01 -0.20124921891E+02  0.27095073656E+02  0.51100000000E-03 0. -1.
        -11    1    4    4    0    0  0.17850119952E+01  0.12357674523E+02  0.16237645428E+01  0.12591068223E+02  0.51100000000E-03 0.  1.
         12    1    4    4    0    0  0.77214565376E+01  0.12480401319E+02  0.38578686068E+00  0.14680944781E+02  0.00000000000E+00 0. -1.
</event>
<event>
 8    1  0.1278459E-006  0.9118800E+02  0.7816164E-02  0.1184000E+00
        -11   -1    0    0    0    0  0.00000000000E+00  0.00000000000E+00  0.45593999997E+02  0.45594000000E+02  0.51100000000E-03 0.  1.
         11   -1    0    0    0    0 -0.00000000000E+00 -0.00000000000E+00 -0.45593999997E+02  0.45594000000E+02  0.51100000000E-03 0. -1.
         23    2    1    2    0    0  0.00000000000E+00  0.00000000000E+00  0.00000000000E+00  0.91188000000E+02  0.91188000000E+02 0.  0.
    9900012    2    3    3    0    0 -0.16414614735E+02  0.22396572542E+02  0.24181329196E+02  0.54367045094E+02  0.39999910901E+02 0.  0.
         12    1    3    3    0    0  0.16414614735E+02 -0.22396572542E+02 -0.24181329196E+02  0.36820954906E+02  0.00000000000E+00 0. -1.
         11    1    4    4    0    0 -0.65420773175E-01 -0.15192830013E+01  0.95779218743E+01  0.96978909257E+01  0.51100000000E-03 0. -1.
        -11    1    4    4    0    0 -0.11250948648E+02  0.21411617689E+02 -0.46193362724E+01  0.24624773814E+02  0.51100000000E-03 0.  1.
        -12    1    4    4    0    0 -0.50982453137E+01  0.25042378546E+01  0.19222743594E+02  0.20044380354E+02  0.00000000000E+00 0.  1.
</event>
<event>
 8    1  0.1278459E-006  0.9118800E+02  0.7816164E-02  0.1184000E+00
        -11   -1    0    0    0    0  0.00000000000E+00  0.00000000000E+00  0.45593999997E+02  0.45594000000E+02  0.51100000000E-03 0. -1.
         11   -1    0    0    0    0 -0.00000000000E+00 -0.00000000000E+00 -0.45593999997E+02  0.45594000000E+02  0.51100000000E-03 0.  1.
         23    2    1    2    0    0  0.00000000000E+00  0.00000000000E+00  0.17763568394E-14  0.91188000000E+02  0.91188000000E+02 0.  0.
    9900012    2    3    3    0    0  0.27498751922E+02  0.19214777208E+02  0.15178679251E+02  0.54367064050E+02  0.39999954116E+02 0.  0.
        -12    1    3    3    0    0 -0.27498751922E+02 -0.19214777208E+02 -0.15178679251E+02  0.36820935950E+02  0.00000000000E+00 0.  1.
         11    1    4    4    0    0  0.18113814174E+02  0.66127100373E+01  0.10608346695E+02  0.22008526026E+02  0.51100000000E-03 0. -1.
        -11    1    4    4    0    0  0.22518163567E+01  0.20338775572E+02 -0.93072798633E+00  0.20484206685E+02  0.51100000000E-03 0.  1.
        -12    1    4    4    0    0  0.71331213906E+01 -0.77367084013E+01  0.55010605422E+01  0.11874331339E+02  0.00000000000E+00 0.  1.
</event>
<event>
 8    1  0.1278459E-006  0.9118800E+02  0.7816164E-02  0.1184000E+00
        -11   -1    0    0    0    0  0.00000000000E+00  0.00000000000E+00  0.45593999997E+02  0.45594000000E+02  0.51100000000E-03 0.  1.
         11   -1    0    0    0    0 -0.00000000000E+00 -0.00000000000E+00 -0.45593999997E+02  0.45594000000E+02  0.51100000000E-03 0. -1.
         23    2    1    2    0    0 -0.17763568394E-14  0.00000000000E+00  0.15543122345E-14  0.91188000000E+02  0.91188000000E+02 0.  0.
    9900012    2    3    3    0    0 -0.14354570988E+02  0.33851251461E+02 -0.19541857322E+01  0.54367085079E+02  0.40000002056E+02 0.  0.
        -12    1    3    3    0    0  0.14354570988E+02 -0.33851251461E+02  0.19541857322E+01  0.36820914921E+02  0.00000000000E+00 0.  1.
         11    1    4    4    0    0 -0.17632796907E+01 -0.35527061251E+01  0.58831987468E+01  0.70952733446E+01  0.51100000000E-03 0. -1.
        -11    1    4    4    0    0 -0.88587698217E+01  0.34697908806E+02  0.25557795775E+01  0.35902015093E+02  0.51100000000E-03 0.  1.
         12    1    4    4    0    0 -0.37325214753E+01  0.27060487803E+01 -0.10393164057E+02  0.11369796642E+02  0.00000000000E+00 0. -1.
</event>
<event>
 8    1  0.1278459E-006  0.9118800E+02  0.7816164E-02  0.1184000E+00
        -11   -1    0    0    0    0  0.00000000000E+00  0.00000000000E+00  0.45593999997E+02  0.45594000000E+02  0.51100000000E-03 0.  1.
         11   -1    0    0    0    0 -0.00000000000E+00 -0.00000000000E+00 -0.45593999997E+02  0.45594000000E+02  0.51100000000E-03 0. -1.
         23    2    1    2    0    0  0.00000000000E+00 -0.17763568394E-14  0.00000000000E+00  0.91188000000E+02  0.91188000000E+02 0.  0.
    9900012    2    3    3    0    0  0.32041416953E+02  0.13152274713E+02  0.12495823984E+02  0.54367077313E+02  0.39999984350E+02 0.  0.
         12    1    3    3    0    0 -0.32041416953E+02 -0.13152274713E+02 -0.12495823984E+02  0.36820922687E+02  0.00000000000E+00 0. -1.
         11    1    4    4    0    0  0.82509739332E+00  0.86281381566E+01  0.51358156665E+00  0.86827023469E+01  0.51100000000E-03 0. -1.
        -11    1    4    4    0    0  0.10286578975E+02 -0.71988405380E+01 -0.76356984303E+01  0.14694927795E+02  0.51100000000E-03 0.  1.
        -12    1    4    4    0    0  0.20929740585E+02  0.11722977094E+02  0.19617940847E+02  0.30989447171E+02  0.00000000000E+00 0.  1.
</event>
<event>
 8    1  0.1278459E-006  0.9118800E+02  0.7816164E-02  0.1184000E+00
        -11   -1    0    0    0    0  0.00000000000E+00  0.00000000000E+00  0.45593999997E+02  0.45594000000E+02  0.51100000000E-03 0.  1.
         11   -1    0    0    0    0 -0.00000000000E+00 -0.00000000000E+00 -0.45593999997E+02  0.45594000000E+02  0.51100000000E-03 0. -1.
         23    2    1    2    0    0  0.00000000000E+00 -0.35527136788E-14  0.00000000000E+00  0.91188000000E+02  0.91188000000E+02 0.  0.
    9900012    2    3    3    0    0  0.24115839295E+02 -0.20277124818E+02  0.19053676390E+02  0.54367108108E+02  0.40000054554E+02 0.  0.
         12    1    3    3    0    0 -0.24115839295E+02  0.20277124818E+02 -0.19053676390E+02  0.36820891892E+02  0.00000000000E+00 0. -1.
         11    1    4    4    0    0 -0.63923978087E+01 -0.60252809572E+01 -0.49596995728E+01  0.10087882854E+02  0.51100000000E-03 0. -1.
        -11    1    4    4    0    0  0.79748760300E+00  0.23356310387E+01 -0.25938307676E+00  0.24816201699E+01  0.51100000000E-03 0.  1.
        -12    1    4    4    0    0  0.29710749500E+02 -0.16587474899E+02  0.24272759039E+02  0.41797605084E+02  0.00000000000E+00 0.  1.
</event>
<event>
 8    1  0.1278459E-006  0.9118800E+02  0.7816164E-02  0.1184000E+00
        -11   -1    0    0    0    0  0.00000000000E+00  0.00000000000E+00  0.45593999997E+02  0.45594000000E+02  0.51100000000E-03 0. -1.
         11   -1    0    0    0    0 -0.00000000000E+00 -0.00000000000E+00 -0.45593999997E+02  0.45594000000E+02  0.51100000000E-03 0.  1.
         23    2    1    2    0    0  0.00000000000E+00  0.00000000000E+00  0.22204460493E-15  0.91188000000E+02  0.91188000000E+02 0.  0.
    9900012    2    3    3    0    0  0.27560845151E+02 -0.24386901678E+02 -0.12078585525E+01  0.54367080930E+02  0.39999992596E+02 0.  0.
         12    1    3    3    0    0 -0.27560845151E+02  0.24386901678E+02  0.12078585525E+01  0.36820919070E+02  0.00000000000E+00 0. -1.
         11    1    4    4    0    0  0.22808177026E+01 -0.16787275753E+02  0.51744872539E+01  0.17714120786E+02  0.51100000000E-03 0. -1.
        -11    1    4    4    0    0  0.98233444212E+01 -0.14692576220E+02 -0.83239014551E+01  0.19536049429E+02  0.51100000000E-03 0.  1.
         12    1    4    4    0    0  0.15456683027E+02  0.70929502954E+01  0.19415556487E+01  0.17116910715E+02  0.00000000000E+00 0. -1.
</event>
<event>
 8    1  0.1278459E-006  0.9118800E+02  0.7816164E-02  0.1184000E+00
        -11   -1    0    0    0    0  0.00000000000E+00  0.00000000000E+00  0.45593999997E+02  0.45594000000E+02  0.51100000000E-03 0.  1.
         11   -1    0    0    0    0 -0.00000000000E+00 -0.00000000000E+00 -0.45593999997E+02  0.45594000000E+02  0.51100000000E-03 0. -1.
         23    2    1    2    0    0  0.71054273576E-14 -0.35527136788E-14 -0.35527136788E-14  0.91188000000E+02  0.91188000000E+02 0.  0.
    9900012    2    3    3    0    0  0.23071470873E+02 -0.14370525713E+02 -0.24838987085E+02  0.54367081259E+02  0.39999993346E+02 0.  0.
        -12    1    3    3    0    0 -0.23071470873E+02  0.14370525713E+02  0.24838987085E+02  0.36820918741E+02  0.00000000000E+00 0.  1.
         11    1    4    4    0    0 -0.14901827090E-01 -0.15829547401E+01  0.13434188485E+01  0.20762327030E+01  0.51100000000E-03 0. -1.
        -11    1    4    4    0    0 -0.73230284885E+01 -0.35017688421E+01  0.34573002070E+01  0.88228145310E+01  0.51100000000E-03 0.  1.
         12    1    4    4    0    0  0.30409401189E+02 -0.92858021311E+01 -0.29639706140E+02  0.43468034025E+02  0.00000000000E+00 0. -1.
</event>
<event>
 8    1  0.1278459E-006  0.9118800E+02  0.7816164E-02  0.1184000E+00
        -11   -1    0    0    0    0  0.00000000000E+00  0.00000000000E+00  0.45593999997E+02  0.45594000000E+02  0.51100000000E-03 0.  1.
         11   -1    0    0    0    0 -0.00000000000E+00 -0.00000000000E+00 -0.45593999997E+02  0.45594000000E+02  0.51100000000E-03 0. -1.
         23    2    1    2    0    0 -0.17763568394E-14 -0.35527136788E-14  0.00000000000E+00  0.91188000000E+02  0.91188000000E+02 0.  0.
    9900012    2    3    3    0    0  0.14050075749E+02  0.26206786340E+02  0.21715846508E+02  0.54367105546E+02  0.40000048713E+02 0.  0.
         12    1    3    3    0    0 -0.14050075749E+02 -0.26206786340E+02 -0.21715846508E+02  0.36820894454E+02  0.00000000000E+00 0. -1.
         11    1    4    4    0    0  0.61908756049E+01  0.32345377365E+01 -0.96344644606E+01  0.11900087429E+02  0.51100000000E-03 0. -1.
        -11    1    4    4    0    0  0.43453527604E+00  0.19111312764E+02  0.15770220543E+02  0.24781665656E+02  0.51100000000E-03 0.  1.
         12    1    4    4    0    0  0.74246648678E+01  0.38609358399E+01  0.15580090426E+02  0.17685352460E+02  0.00000000000E+00 0. -1.
</event>
<event>
 8    1  0.1278459E-006  0.9118800E+02  0.7816164E-02  0.1184000E+00
        -11   -1    0    0    0    0  0.00000000000E+00  0.00000000000E+00  0.45593999997E+02  0.45594000000E+02  0.51100000000E-03 0.  1.
         11   -1    0    0    0    0 -0.00000000000E+00 -0.00000000000E+00 -0.45593999997E+02  0.45594000000E+02  0.51100000000E-03 0. -1.
         23    2    1    2    0    0  0.00000000000E+00  0.35527136788E-14  0.00000000000E+00  0.91188000000E+02  0.91188000000E+02 0.  0.
    9900012    2    3    3    0    0  0.20813762128E+02  0.19273611063E+02  0.23475412224E+02  0.54367085339E+02  0.40000002648E+02 0.  0.
         12    1    3    3    0    0 -0.20813762128E+02 -0.19273611063E+02 -0.23475412224E+02  0.36820914661E+02  0.00000000000E+00 0. -1.
         11    1    4    4    0    0 -0.11284699622E+01  0.83515090324E+01  0.56893195274E+01  0.10168062968E+02  0.51100000000E-03 0. -1.
        -11    1    4    4    0    0  0.25503644243E+02  0.14109469325E+02  0.22998273510E+02  0.37127261938E+02  0.51100000000E-03 0.  1.
         12    1    4    4    0    0 -0.35614121528E+01 -0.31873672939E+01 -0.52121808133E+01  0.70717604328E+01  0.00000000000E+00 0. -1.
</event>
<event>
 8    1  0.1278459E-006  0.9118800E+02  0.7816164E-02  0.1184000E+00
        -11   -1    0    0    0    0  0.00000000000E+00  0.00000000000E+00  0.45593999997E+02  0.45594000000E+02  0.51100000000E-03 0. -1.
         11   -1    0    0    0    0 -0.00000000000E+00 -0.00000000000E+00 -0.45593999997E+02  0.45594000000E+02  0.51100000000E-03 0.  1.
         23    2    1    2    0    0  0.00000000000E+00  0.00000000000E+00  0.00000000000E+00  0.91188000000E+02  0.91188000000E+02 0.  0.
    9900012    2    3    3    0    0  0.10143736606E+02 -0.43560545886E+01 -0.35127040161E+02  0.54367088084E+02  0.40000008904E+02 0.  0.
         12    1    3    3    0    0 -0.10143736606E+02  0.43560545886E+01  0.35127040161E+02  0.36820911916E+02  0.00000000000E+00 0. -1.
         11    1    4    4    0    0  0.69733849308E+01 -0.82590262567E+01 -0.98502009584E+01  0.14624160533E+02  0.51100000000E-03 0. -1.
        -11    1    4    4    0    0  0.11552439213E+01 -0.30643383763E+01 -0.30582031226E+02  0.30756875530E+02  0.51100000000E-03 0.  1.
        -12    1    4    4    0    0  0.20151077541E+01  0.69673100444E+01  0.53051920237E+01  0.89860520210E+01  0.00000000000E+00 0.  1.
</event>
<event>
 8    1  0.1278459E-006  0.9118800E+02  0.7816164E-02  0.1184000E+00
        -11   -1    0    0    0    0  0.00000000000E+00  0.00000000000E+00  0.45593999997E+02  0.45594000000E+02  0.51100000000E-03 0. -1.
         11   -1    0    0    0    0 -0.00000000000E+00 -0.00000000000E+00 -0.45593999997E+02  0.45594000000E+02  0.51100000000E-03 0.  1.
         23    2    1    2    0    0  0.00000000000E+00  0.88817841970E-15  0.00000000000E+00  0.91188000000E+02  0.91188000000E+02 0.  0.
    9900012    2    3    3    0    0 -0.11684329138E+02  0.38231339166E+01  0.34707924604E+02  0.54367082973E+02  0.39999997254E+02 0.  0.
        -12    1    3    3    0    0  0.11684329138E+02 -0.38231339166E+01 -0.34707924604E+02  0.36820917027E+02  0.00000000000E+00 0.  1.
         11    1    4    4    0    0  0.24731636287E+01 -0.23230713581E+00  0.28035579772E+02  0.28145412386E+02  0.51100000000E-03 0. -1.
        -11    1    4    4    0    0  0.29019014515E+01  0.18265221929E+01 -0.45376099930E+01  0.56874528626E+01  0.51100000000E-03 0.  1.
         12    1    4    4    0    0 -0.17059394219E+02  0.22289188596E+01  0.11209954825E+02  0.20534217725E+02  0.00000000000E+00 0. -1.
</event>
<event>
 8    1  0.1278459E-006  0.9118800E+02  0.7816164E-02  0.1184000E+00
        -11   -1    0    0    0    0  0.00000000000E+00  0.00000000000E+00  0.45593999997E+02  0.45594000000E+02  0.51100000000E-03 0. -1.
         11   -1    0    0    0    0 -0.00000000000E+00 -0.00000000000E+00 -0.45593999997E+02  0.45594000000E+02  0.51100000000E-03 0.  1.
         23    2    1    2    0    0  0.00000000000E+00  0.17763568394E-14 -0.44408920985E-15  0.91188000000E+02  0.91188000000E+02 0.  0.
    9900012    2    3    3    0    0 -0.36206641295E+02  0.66640215366E+01 -0.67187111047E+00  0.54367062102E+02  0.39999949674E+02 0.  0.
        -12    1    3    3    0    0  0.36206641295E+02 -0.66640215366E+01  0.67187111047E+00  0.36820937898E+02  0.00000000000E+00 0.  1.
         11    1    4    4    0    0 -0.13629055218E+02  0.30887158340E+01  0.23923613449E+01  0.14177965464E+02  0.51100000000E-03 0. -1.
        -11    1    4    4    0    0  0.24310888553E+01 -0.98270475546E+01 -0.58284156128E+01  0.11681245031E+02  0.51100000000E-03 0.  1.
        -12    1    4    4    0    0 -0.25008674932E+02  0.13402353257E+02  0.27641831575E+01  0.28507851607E+02  0.00000000000E+00 0.  1.
</event>
<event>
 8    1  0.1278459E-006  0.9118800E+02  0.7816164E-02  0.1184000E+00
        -11   -1    0    0    0    0  0.00000000000E+00  0.00000000000E+00  0.45593999997E+02  0.45594000000E+02  0.51100000000E-03 0. -1.
         11   -1    0    0    0    0 -0.00000000000E+00 -0.00000000000E+00 -0.45593999997E+02  0.45594000000E+02  0.51100000000E-03 0.  1.
         23    2    1    2    0    0 -0.71054273576E-14  0.00000000000E+00  0.11102230246E-15  0.91188000000E+02  0.91188000000E+02 0.  0.
    9900012    2    3    3    0    0  0.30510599318E+02  0.20594403758E+02 -0.86148706943E+00  0.54367240953E+02  0.40000357398E+02 0.  0.
         12    1    3    3    0    0 -0.30510599318E+02 -0.20594403758E+02  0.86148706943E+00  0.36820759047E+02  0.00000000000E+00 0. -1.
         11    1    4    4    0    0  0.46998474062E+01  0.27699761833E+00 -0.21955596704E+01  0.51947835229E+01  0.51100000000E-03 0. -1.
        -11    1    4    4    0    0  0.35224405329E+02  0.14536710731E+02  0.87983991603E+00  0.38116253858E+02  0.51100000000E-03 0.  1.
         12    1    4    4    0    0 -0.94136534177E+01  0.57806954089E+01  0.45423268493E+00  0.11056203571E+02  0.00000000000E+00 0. -1.
</event>
<event>
 8    1  0.1278459E-006  0.9118800E+02  0.7816164E-02  0.1184000E+00
        -11   -1    0    0    0    0  0.00000000000E+00  0.00000000000E+00  0.45593999997E+02  0.45594000000E+02  0.51100000000E-03 0.  1.
         11   -1    0    0    0    0 -0.00000000000E+00 -0.00000000000E+00 -0.45593999997E+02  0.45594000000E+02  0.51100000000E-03 0. -1.
         23    2    1    2    0    0 -0.17763568394E-14  0.00000000000E+00  0.00000000000E+00  0.91188000000E+02  0.91188000000E+02 0.  0.
    9900012    2    3    3    0    0  0.90035901963E+01 -0.26420710009E+02  0.24013781233E+02  0.54367078734E+02  0.39999987590E+02 0.  0.
         12    1    3    3    0    0 -0.90035901963E+01  0.26420710009E+02 -0.24013781233E+02  0.36820921266E+02  0.00000000000E+00 0. -1.
         11    1    4    4    0    0  0.50261286118E+01 -0.82045407614E+01 -0.14610346470E+01  0.97319617975E+01  0.51100000000E-03 0. -1.
        -11    1    4    4    0    0 -0.75146386173E+01  0.24678907262E+01  0.18256810405E+02  0.19896517399E+02  0.51100000000E-03 0.  1.
        -12    1    4    4    0    0  0.11492100202E+02 -0.20684059974E+02  0.72180054749E+01  0.24738599538E+02  0.00000000000E+00 0.  1.
</event>
<event>
 8    1  0.1278459E-006  0.9118800E+02  0.7816164E-02  0.1184000E+00
        -11   -1    0    0    0    0  0.00000000000E+00  0.00000000000E+00  0.45593999997E+02  0.45594000000E+02  0.51100000000E-03 0.  1.
         11   -1    0    0    0    0 -0.00000000000E+00 -0.00000000000E+00 -0.45593999997E+02  0.45594000000E+02  0.51100000000E-03 0. -1.
         23    2    1    2    0    0  0.35527136788E-14  0.00000000000E+00 -0.35527136788E-14  0.91188000000E+02  0.91188000000E+02 0.  0.
    9900012    2    3    3    0    0 -0.19219025128E+02 -0.25856066948E+02 -0.17828981034E+02  0.54367086248E+02  0.40000004718E+02 0.  0.
        -12    1    3    3    0    0  0.19219025128E+02  0.25856066948E+02  0.17828981034E+02  0.36820913752E+02  0.00000000000E+00 0.  1.
         11    1    4    4    0    0 -0.22147790591E+02 -0.29385750884E+02 -0.20840948824E+02  0.42289385562E+02  0.51100000000E-03 0. -1.
        -11    1    4    4    0    0 -0.28728410331E+01  0.11133891564E+01  0.46545598777E+01  0.55819153461E+01  0.51100000000E-03 0.  1.
        -12    1    4    4    0    0  0.58016064967E+01  0.24162947798E+01 -0.16425920871E+01  0.64957853390E+01  0.00000000000E+00 0.  1.
</event>
<event>
 8    1  0.1278459E-006  0.9118800E+02  0.7816164E-02  0.1184000E+00
        -11   -1    0    0    0    0  0.00000000000E+00  0.00000000000E+00  0.45593999997E+02  0.45594000000E+02  0.51100000000E-03 0.  1.
         11   -1    0    0    0    0 -0.00000000000E+00 -0.00000000000E+00 -0.45593999997E+02  0.45594000000E+02  0.51100000000E-03 0. -1.
         23    2    1    2    0    0  0.00000000000E+00 -0.35527136788E-14  0.88817841970E-15  0.91188000000E+02  0.91188000000E+02 0.  0.
    9900012    2    3    3    0    0 -0.23354821574E+02 -0.27797700095E+02 -0.61335090824E+01  0.54367085359E+02  0.40000002693E+02 0.  0.
        -12    1    3    3    0    0  0.23354821574E+02  0.27797700095E+02  0.61335090824E+01  0.36820914641E+02  0.00000000000E+00 0.  1.
         11    1    4    4    0    0 -0.23810940655E+02 -0.14273744312E+02 -0.40228482892E+01  0.28051452372E+02  0.51100000000E-03 0. -1.
        -11    1    4    4    0    0 -0.79423319716E+01  0.12312583208E+01 -0.44344930996E+01  0.91793988644E+01  0.51100000000E-03 0.  1.
         12    1    4    4    0    0  0.83984510524E+01 -0.14755214103E+02  0.23238323064E+01  0.17136234123E+02  0.00000000000E+00 0. -1.
</event>
<event>
 8    1  0.1278459E-006  0.9118800E+02  0.7816164E-02  0.1184000E+00
        -11   -1    0    0    0    0  0.00000000000E+00  0.00000000000E+00  0.45593999997E+02  0.45594000000E+02  0.51100000000E-03 0.  1.
         11   -1    0    0    0    0 -0.00000000000E+00 -0.00000000000E+00 -0.45593999997E+02  0.45594000000E+02  0.51100000000E-03 0. -1.
         23    2    1    2    0    0  0.00000000000E+00  0.00000000000E+00 -0.35527136788E-14  0.91188000000E+02  0.91188000000E+02 0.  0.
    9900012    2    3    3    0    0 -0.17780692473E+02 -0.67071254814E+01  0.31537909843E+02  0.54367104923E+02  0.40000047292E+02 0.  0.
         12    1    3    3    0    0  0.17780692473E+02  0.67071254814E+01 -0.31537909843E+02  0.36820895077E+02  0.00000000000E+00 0. -1.
         11    1    4    4    0    0 -0.13364377542E+02 -0.34432150594E+01 -0.34144680390E+01  0.14216923341E+02  0.51100000000E-03 0. -1.
        -11    1    4    4    0    0 -0.32952356726E+01  0.25626702938E+01  0.33860812003E+02  0.34117157662E+02  0.51100000000E-03 0.  1.
        -12    1    4    4    0    0 -0.11210792582E+01 -0.58265807157E+01  0.10915658787E+01  0.60330239190E+01  0.00000000000E+00 0.  1.
</event>
<event>
 8    1  0.1278459E-006  0.9118800E+02  0.7816164E-02  0.1184000E+00
        -11   -1    0    0    0    0  0.00000000000E+00  0.00000000000E+00  0.45593999997E+02  0.45594000000E+02  0.51100000000E-03 0. -1.
         11   -1    0    0    0    0 -0.00000000000E+00 -0.00000000000E+00 -0.45593999997E+02  0.45594000000E+02  0.51100000000E-03 0.  1.
         23    2    1    2    0    0  0.00000000000E+00  0.00000000000E+00  0.00000000000E+00  0.91188000000E+02  0.91188000000E+02 0.  0.
    9900012    2    3    3    0    0  0.33368542188E+02  0.13036397559E+02 -0.85069847431E+01  0.54367135554E+02  0.40000117123E+02 0.  0.
         12    1    3    3    0    0 -0.33368542188E+02 -0.13036397559E+02  0.85069847431E+01  0.36820864446E+02  0.00000000000E+00 0. -1.
         11    1    4    4    0    0  0.42025897729E+01  0.57413982541E+01  0.69337660004E+01  0.99349144899E+01  0.51100000000E-03 0. -1.
        -11    1    4    4    0    0  0.14098601405E+02 -0.72859296522E+01 -0.17185739263E+02  0.23392412590E+02  0.51100000000E-03 0.  1.
         12    1    4    4    0    0  0.15067351010E+02  0.14580928957E+02  0.17449885198E+01  0.21039808475E+02  0.00000000000E+00 0. -1.
</event>
<event>
 8    1  0.1278459E-006  0.9118800E+02  0.7816164E-02  0.1184000E+00
        -11   -1    0    0    0    0  0.00000000000E+00  0.00000000000E+00  0.45593999997E+02  0.45594000000E+02  0.51100000000E-03 0.  1.
         11   -1    0    0    0    0 -0.00000000000E+00 -0.00000000000E+00 -0.45593999997E+02  0.45594000000E+02  0.51100000000E-03 0. -1.
         23    2    1    2    0    0  0.00000000000E+00  0.00000000000E+00  0.00000000000E+00  0.91188000000E+02  0.91188000000E+02 0.  0.
    9900012    2    3    3    0    0  0.21200530769E+02  0.26979735605E+02  0.13357035299E+02  0.54367095202E+02  0.40000025131E+02 0.  0.
         12    1    3    3    0    0 -0.21200530769E+02 -0.26979735605E+02 -0.13357035299E+02  0.36820904798E+02  0.00000000000E+00 0. -1.
         11    1    4    4    0    0  0.21919496064E+02  0.12211814039E+02 -0.42237578949E+01  0.25444701626E+02  0.51100000000E-03 0. -1.
        -11    1    4    4    0    0 -0.12345626817E+00  0.18788851526E+02  0.13306296592E+02  0.23023764079E+02  0.51100000000E-03 0.  1.
        -12    1    4    4    0    0 -0.59550902732E+00 -0.40209299593E+01  0.42744966018E+01  0.58986294966E+01  0.00000000000E+00 0.  1.
</event>
<event>
 8    1  0.1278459E-006  0.9118800E+02  0.7816164E-02  0.1184000E+00
        -11   -1    0    0    0    0  0.00000000000E+00  0.00000000000E+00  0.45593999997E+02  0.45594000000E+02  0.51100000000E-03 0.  1.
         11   -1    0    0    0    0 -0.00000000000E+00 -0.00000000000E+00 -0.45593999997E+02  0.45594000000E+02  0.51100000000E-03 0. -1.
         23    2    1    2    0    0 -0.44408920985E-15 -0.35527136788E-14  0.00000000000E+00  0.91188000000E+02  0.91188000000E+02 0.  0.
    9900012    2    3    3    0    0 -0.32199539704E+01 -0.14889980885E+02 -0.33521628438E+02  0.54367092794E+02  0.40000019643E+02 0.  0.
        -12    1    3    3    0    0  0.32199539704E+01  0.14889980885E+02  0.33521628438E+02  0.36820907206E+02  0.00000000000E+00 0.  1.
         11    1    4    4    0    0  0.82956349574E+01  0.13638060625E+00  0.14154148728E+01  0.84166239395E+01  0.51100000000E-03 0. -1.
        -11    1    4    4    0    0 -0.55177028254E+01  0.42329213400E+01 -0.18446631666E+01  0.71948210540E+01  0.51100000000E-03 0.  1.
         12    1    4    4    0    0 -0.59978861024E+01 -0.19259282831E+02 -0.33092380144E+02  0.38755647801E+02  0.00000000000E+00 0. -1.
</event>
<event>
 8    1  0.1278459E-006  0.9118800E+02  0.7816164E-02  0.1184000E+00
        -11   -1    0    0    0    0  0.00000000000E+00  0.00000000000E+00  0.45593999997E+02  0.45594000000E+02  0.51100000000E-03 0. -1.
         11   -1    0    0    0    0 -0.00000000000E+00 -0.00000000000E+00 -0.45593999997E+02  0.45594000000E+02  0.51100000000E-03 0.  1.
         23    2    1    2    0    0  0.88817841970E-15  0.00000000000E+00  0.35527136788E-14  0.91188000000E+02  0.91188000000E+02 0.  0.
    9900012    2    3    3    0    0 -0.74834565335E+01  0.32599099619E+02 -0.15397258132E+02  0.54367095942E+02  0.40000026819E+02 0.  0.
        -12    1    3    3    0    0  0.74834565335E+01 -0.32599099619E+02  0.15397258132E+02  0.36820904058E+02  0.00000000000E+00 0.  1.
         11    1    4    4    0    0 -0.22147884019E+01 -0.82512256781E+00  0.47853507229E+01  0.53371993329E+01  0.51100000000E-03 0. -1.
        -11    1    4    4    0    0  0.66988893622E+01  0.14379259107E+02  0.36305086670E+01  0.16273254272E+02  0.51100000000E-03 0.  1.
         12    1    4    4    0    0 -0.11967557494E+02  0.19044963080E+02 -0.23813117522E+02  0.32756642337E+02  0.00000000000E+00 0. -1.
</event>
<event>
 8    1  0.1278459E-006  0.9118800E+02  0.7816164E-02  0.1184000E+00
        -11   -1    0    0    0    0  0.00000000000E+00  0.00000000000E+00  0.45593999997E+02  0.45594000000E+02  0.51100000000E-03 0.  1.
         11   -1    0    0    0    0 -0.00000000000E+00 -0.00000000000E+00 -0.45593999997E+02  0.45594000000E+02  0.51100000000E-03 0. -1.
         23    2    1    2    0    0  0.17763568394E-14  0.17763568394E-14  0.71054273576E-14  0.91188000000E+02  0.91188000000E+02 0.  0.
    9900012    2    3    3    0    0 -0.15029837766E+02 -0.13831937938E+02 -0.30635953215E+02  0.54367079862E+02  0.39999990162E+02 0.  0.
        -12    1    3    3    0    0  0.15029837766E+02  0.13831937938E+02  0.30635953215E+02  0.36820920138E+02  0.00000000000E+00 0.  1.
         11    1    4    4    0    0  0.25232844179E+01 -0.14819363746E+02 -0.11454176194E+02  0.18899170845E+02  0.51100000000E-03 0. -1.
        -11    1    4    4    0    0  0.20355854693E+01  0.38538317465E+01  0.33332512260E+01  0.54869109096E+01  0.51100000000E-03 0.  1.
         12    1    4    4    0    0 -0.19588707653E+02 -0.28664059384E+01 -0.22515028247E+02  0.29980998107E+02  0.00000000000E+00 0. -1.
</event>
<event>
 8    1  0.1278459E-006  0.9118800E+02  0.7816164E-02  0.1184000E+00
        -11   -1    0    0    0    0  0.00000000000E+00  0.00000000000E+00  0.45593999997E+02  0.45594000000E+02  0.51100000000E-03 0.  1.
         11   -1    0    0    0    0 -0.00000000000E+00 -0.00000000000E+00 -0.45593999997E+02  0.45594000000E+02  0.51100000000E-03 0. -1.
         23    2    1    2    0    0  0.00000000000E+00  0.00000000000E+00  0.00000000000E+00  0.91188000000E+02  0.91188000000E+02 0.  0.
    9900012    2    3    3    0    0 -0.23819455730E+02  0.26035833798E+02 -0.10514239892E+02  0.54367077234E+02  0.39999984171E+02 0.  0.
        -12    1    3    3    0    0  0.23819455730E+02 -0.26035833798E+02  0.10514239892E+02  0.36820922766E+02  0.00000000000E+00 0.  1.
         11    1    4    4    0    0 -0.19555088839E+01  0.10410132095E+02 -0.81061656161E+01  0.13338095310E+02  0.51100000000E-03 0. -1.
        -11    1    4    4    0    0 -0.17924686787E+02  0.24256711035E+02  0.26504997779E+01  0.30277179128E+02  0.51100000000E-03 0.  1.
        -12    1    4    4    0    0 -0.39392600590E+01 -0.86310093321E+01 -0.50585740540E+01  0.10751802796E+02  0.00000000000E+00 0.  1.
</event>
<event>
 8    1  0.1278459E-006  0.9118800E+02  0.7816164E-02  0.1184000E+00
        -11   -1    0    0    0    0  0.00000000000E+00  0.00000000000E+00  0.45593999997E+02  0.45594000000E+02  0.51100000000E-03 0.  1.
         11   -1    0    0    0    0 -0.00000000000E+00 -0.00000000000E+00 -0.45593999997E+02  0.45594000000E+02  0.51100000000E-03 0. -1.
         23    2    1    2    0    0  0.88817841970E-15  0.00000000000E+00  0.00000000000E+00  0.91188000000E+02  0.91188000000E+02 0.  0.
    9900012    2    3    3    0    0 -0.66789384273E+01 -0.31254734757E+02  0.18284166276E+02  0.54367117342E+02  0.40000075605E+02 0.  0.
         12    1    3    3    0    0  0.66789384273E+01  0.31254734757E+02 -0.18284166276E+02  0.36820882658E+02  0.00000000000E+00 0. -1.
         11    1    4    4    0    0  0.18716360270E+01 -0.14572529922E+02  0.20187854041E+02  0.24968201794E+02  0.51100000000E-03 0. -1.
        -11    1    4    4    0    0 -0.27961485234E+01  0.42381759421E+01  0.44912356259E+01  0.67787741952E+01  0.51100000000E-03 0.  1.
         12    1    4    4    0    0 -0.57544259309E+01 -0.20920380778E+02 -0.63949233909E+01  0.22620141353E+02  0.00000000000E+00 0. -1.
</event>
<event>
 8    1  0.1278459E-006  0.9118800E+02  0.7816164E-02  0.1184000E+00
        -11   -1    0    0    0    0  0.00000000000E+00  0.00000000000E+00  0.45593999997E+02  0.45594000000E+02  0.51100000000E-03 0. -1.
         11   -1    0    0    0    0 -0.00000000000E+00 -0.00000000000E+00 -0.45593999997E+02  0.45594000000E+02  0.51100000000E-03 0.  1.
         23    2    1    2    0    0 -0.71054273576E-14  0.00000000000E+00  0.00000000000E+00  0.91188000000E+02  0.91188000000E+02 0.  0.
    9900012    2    3    3    0    0  0.31605401000E+02  0.16564256458E+02  0.90834665160E+01  0.54367009677E+02  0.39999830161E+02 0.  0.
         12    1    3    3    0    0 -0.31605401000E+02 -0.16564256458E+02 -0.90834665160E+01  0.36820990323E+02  0.00000000000E+00 0. -1.
         11    1    4    4    0    0  0.62563062059E+01 -0.11959766475E+02  0.73289126807E+01  0.15358722044E+02  0.51100000000E-03 0. -1.
        -11    1    4    4    0    0  0.16728827509E+02  0.16022023318E+02 -0.23358785319E+01  0.23281220539E+02  0.51100000000E-03 0.  1.
         12    1    4    4    0    0  0.86202672859E+01  0.12501999614E+02  0.40904323672E+01  0.15727067094E+02  0.00000000000E+00 0. -1.
</event>
<event>
 8    1  0.1278459E-006  0.9118800E+02  0.7816164E-02  0.1184000E+00
        -11   -1    0    0    0    0  0.00000000000E+00  0.00000000000E+00  0.45593999997E+02  0.45594000000E+02  0.51100000000E-03 0. -1.
         11   -1    0    0    0    0 -0.00000000000E+00 -0.00000000000E+00 -0.45593999997E+02  0.45594000000E+02  0.51100000000E-03 0.  1.
         23    2    1    2    0    0  0.00000000000E+00 -0.17763568394E-14  0.71054273576E-14  0.91188000000E+02  0.91188000000E+02 0.  0.
    9900012    2    3    3    0    0 -0.14627887760E+02  0.89744936440E+01  0.32577033871E+02  0.54367085124E+02  0.40000002156E+02 0.  0.
        -12    1    3    3    0    0  0.14627887760E+02 -0.89744936440E+01 -0.32577033871E+02  0.36820914876E+02  0.00000000000E+00 0.  1.
         11    1    4    4    0    0 -0.28115947617E+01  0.39277433879E+01  0.24442280446E+00  0.48365251983E+01  0.51100000000E-03 0. -1.
        -11    1    4    4    0    0 -0.12929557557E+02 -0.86874047343E+01  0.13662207568E+01  0.15636848118E+02  0.51100000000E-03 0.  1.
        -12    1    4    4    0    0  0.11132645587E+01  0.13734154990E+02  0.30966390310E+02  0.33893711808E+02  0.00000000000E+00 0.  1.
</event>
<event>
 8    1  0.1278459E-006  0.9118800E+02  0.7816164E-02  0.1184000E+00
        -11   -1    0    0    0    0  0.00000000000E+00  0.00000000000E+00  0.45593999997E+02  0.45594000000E+02  0.51100000000E-03 0. -1.
         11   -1    0    0    0    0 -0.00000000000E+00 -0.00000000000E+00 -0.45593999997E+02  0.45594000000E+02  0.51100000000E-03 0.  1.
         23    2    1    2    0    0  0.35527136788E-14 -0.17763568394E-14 -0.35527136788E-14  0.91188000000E+02  0.91188000000E+02 0.  0.
    9900012    2    3    3    0    0  0.21713050749E+02 -0.14838467719E+02 -0.25770647663E+02  0.54367313178E+02  0.40000522048E+02 0.  0.
         12    1    3    3    0    0 -0.21713050749E+02  0.14838467719E+02  0.25770647663E+02  0.36820686822E+02  0.00000000000E+00 0. -1.
         11    1    4    4    0    0  0.19132915294E+02 -0.47744701619E+01 -0.25819026343E+01  0.19887941936E+02  0.51100000000E-03 0. -1.
        -11    1    4    4    0    0 -0.39503545592E+01 -0.14611880242E+02 -0.21581803423E+02  0.26360701519E+02  0.51100000000E-03 0.  1.
        -12    1    4    4    0    0  0.65304900149E+01  0.45478826844E+01 -0.16069416053E+01  0.81186697229E+01  0.00000000000E+00 0.  1.
</event>
<event>
 8    1  0.1278459E-006  0.9118800E+02  0.7816164E-02  0.1184000E+00
        -11   -1    0    0    0    0  0.00000000000E+00  0.00000000000E+00  0.45593999997E+02  0.45594000000E+02  0.51100000000E-03 0. -1.
         11   -1    0    0    0    0 -0.00000000000E+00 -0.00000000000E+00 -0.45593999997E+02  0.45594000000E+02  0.51100000000E-03 0.  1.
         23    2    1    2    0    0  0.00000000000E+00  0.00000000000E+00 -0.77715611724E-15  0.91188000000E+02  0.91188000000E+02 0.  0.
    9900012    2    3    3    0    0 -0.56544564676E+01  0.36374393446E+02 -0.84317168813E+00  0.54367077755E+02  0.39999985358E+02 0.  0.
         12    1    3    3    0    0  0.56544564676E+01 -0.36374393446E+02  0.84317168813E+00  0.36820922245E+02  0.00000000000E+00 0. -1.
         11    1    4    4    0    0  0.56646515443E+01  0.24792484829E+02 -0.61811743327E+01  0.26171788199E+02  0.51100000000E-03 0. -1.
        -11    1    4    4    0    0 -0.77945024778E+01  0.38932769610E+01 -0.83739961599E+01  0.12084522594E+02  0.51100000000E-03 0.  1.
         12    1    4    4    0    0 -0.35246055342E+01  0.76886316552E+01  0.13711998805E+02  0.16110766962E+02  0.00000000000E+00 0. -1.
</event>
<event>
 8    1  0.1278459E-006  0.9118800E+02  0.7816164E-02  0.1184000E+00
        -11   -1    0    0    0    0  0.00000000000E+00  0.00000000000E+00  0.45593999997E+02  0.45594000000E+02  0.51100000000E-03 0. -1.
         11   -1    0    0    0    0 -0.00000000000E+00 -0.00000000000E+00 -0.45593999997E+02  0.45594000000E+02  0.51100000000E-03 0.  1.
         23    2    1    2    0    0  0.00000000000E+00  0.00000000000E+00 -0.17763568394E-14  0.91188000000E+02  0.91188000000E+02 0.  0.
    9900012    2    3    3    0    0 -0.25153660175E+02 -0.26791179465E+02 -0.23032187172E+01  0.54367099226E+02  0.40000034306E+02 0.  0.
        -12    1    3    3    0    0  0.25153660175E+02  0.26791179465E+02  0.23032187172E+01  0.36820900774E+02  0.00000000000E+00 0.  1.
         11    1    4    4    0    0 -0.22410445172E+02 -0.10255555603E+02 -0.10589259309E+02  0.26824184731E+02  0.51100000000E-03 0. -1.
        -11    1    4    4    0    0  0.66667651020E+01 -0.12699907311E+02  0.96537890554E+01  0.17289564656E+02  0.51100000000E-03 0.  1.
        -12    1    4    4    0    0 -0.94099801053E+01 -0.38357165516E+01 -0.13677484636E+01  0.10253349838E+02  0.00000000000E+00 0.  1.
</event>
<event>
 8    1  0.1278459E-006  0.9118800E+02  0.7816164E-02  0.1184000E+00
        -11   -1    0    0    0    0  0.00000000000E+00  0.00000000000E+00  0.45593999997E+02  0.45594000000E+02  0.51100000000E-03 0. -1.
         11   -1    0    0    0    0 -0.00000000000E+00 -0.00000000000E+00 -0.45593999997E+02  0.45594000000E+02  0.51100000000E-03 0.  1.
         23    2    1    2    0    0 -0.17763568394E-14  0.88817841970E-15  0.00000000000E+00  0.91188000000E+02  0.91188000000E+02 0.  0.
    9900012    2    3    3    0    0 -0.13326499302E+02  0.43381137705E+01 -0.34049428657E+02  0.54367103670E+02  0.40000044436E+02 0.  0.
         12    1    3    3    0    0  0.13326499302E+02 -0.43381137705E+01  0.34049428657E+02  0.36820896330E+02  0.00000000000E+00 0. -1.
         11    1    4    4    0    0 -0.10517284041E+01  0.64226601512E+01 -0.13334229001E+01  0.66433961906E+01  0.51100000000E-03 0. -1.
        -11    1    4    4    0    0 -0.22916292086E+02  0.27034728858E+01 -0.21873943121E+02  0.31795197696E+02  0.51100000000E-03 0.  1.
        -12    1    4    4    0    0  0.10641521189E+02 -0.47880192665E+01 -0.10842062636E+02  0.15928509783E+02  0.00000000000E+00 0.  1.
</event>
<event>
 8    1  0.1278459E-006  0.9118800E+02  0.7816164E-02  0.1184000E+00
        -11   -1    0    0    0    0  0.00000000000E+00  0.00000000000E+00  0.45593999997E+02  0.45594000000E+02  0.51100000000E-03 0. -1.
         11   -1    0    0    0    0 -0.00000000000E+00 -0.00000000000E+00 -0.45593999997E+02  0.45594000000E+02  0.51100000000E-03 0.  1.
         23    2    1    2    0    0 -0.35527136788E-14  0.00000000000E+00  0.00000000000E+00  0.91188000000E+02  0.91188000000E+02 0.  0.
    9900012    2    3    3    0    0 -0.16277491143E+02  0.29220132852E+02  0.15395004663E+02  0.54367094928E+02  0.40000024507E+02 0.  0.
         12    1    3    3    0    0  0.16277491143E+02 -0.29220132852E+02 -0.15395004663E+02  0.36820905072E+02  0.00000000000E+00 0. -1.
         11    1    4    4    0    0  0.36007993506E+01  0.62589964696E+01  0.62754068699E+01  0.95666882678E+01  0.51100000000E-03 0. -1.
        -11    1    4    4    0    0 -0.20824349124E+02  0.94782312168E+01 -0.68457382847E+01  0.23882096147E+02  0.51100000000E-03 0.  1.
        -12    1    4    4    0    0  0.94605863127E+00  0.13482905165E+02  0.15965336078E+02  0.20918310513E+02  0.00000000000E+00 0.  1.
</event>
<event>
 8    1  0.1278459E-006  0.9118800E+02  0.7816164E-02  0.1184000E+00
        -11   -1    0    0    0    0  0.00000000000E+00  0.00000000000E+00  0.45593999997E+02  0.45594000000E+02  0.51100000000E-03 0.  1.
         11   -1    0    0    0    0 -0.00000000000E+00 -0.00000000000E+00 -0.45593999997E+02  0.45594000000E+02  0.51100000000E-03 0. -1.
         23    2    1    2    0    0  0.00000000000E+00  0.88817841970E-15  0.00000000000E+00  0.91188000000E+02  0.91188000000E+02 0.  0.
    9900012    2    3    3    0    0 -0.34184024699E+02  0.56293998988E+01  0.12471817848E+02  0.54367028689E+02  0.39999873503E+02 0.  0.
         12    1    3    3    0    0  0.34184024699E+02 -0.56293998988E+01 -0.12471817848E+02  0.36820971311E+02  0.00000000000E+00 0. -1.
         11    1    4    4    0    0 -0.12549634075E+02  0.11745400659E+02 -0.46060498332E+01  0.17795039966E+02  0.51100000000E-03 0. -1.
        -11    1    4    4    0    0 -0.24707147766E+02 -0.67231390325E+01  0.77810089914E+01  0.26761686240E+02  0.51100000000E-03 0.  1.
        -12    1    4    4    0    0  0.30727571424E+01  0.60713827205E+00  0.92968586893E+01  0.98103024839E+01  0.00000000000E+00 0.  1.
</event>
<event>
 8    1  0.1278459E-006  0.9118800E+02  0.7816164E-02  0.1184000E+00
        -11   -1    0    0    0    0  0.00000000000E+00  0.00000000000E+00  0.45593999997E+02  0.45594000000E+02  0.51100000000E-03 0.  1.
         11   -1    0    0    0    0 -0.00000000000E+00 -0.00000000000E+00 -0.45593999997E+02  0.45594000000E+02  0.51100000000E-03 0. -1.
         23    2    1    2    0    0  0.99920072216E-15  0.00000000000E+00  0.00000000000E+00  0.91188000000E+02  0.91188000000E+02 0.  0.
    9900012    2    3    3    0    0  0.33516578279E+00 -0.29182127352E+02  0.22451522553E+02  0.54367085320E+02  0.40000002605E+02 0.  0.
         12    1    3    3    0    0 -0.33516578279E+00  0.29182127352E+02 -0.22451522553E+02  0.36820914680E+02  0.00000000000E+00 0. -1.
         11    1    4    4    0    0 -0.39141382051E+01 -0.62872095768E+01  0.21048540091E+02  0.22313460565E+02  0.51100000000E-03 0. -1.
        -11    1    4    4    0    0 -0.70374251173E+01 -0.17343002159E+02  0.41681676329E+01  0.19174949748E+02  0.51100000000E-03 0.  1.
         12    1    4    4    0    0  0.11286729105E+02 -0.55519156166E+01 -0.27651851713E+01  0.12878675007E+02  0.00000000000E+00 0. -1.
</event>
<event>
 8    1  0.1278459E-006  0.9118800E+02  0.7816164E-02  0.1184000E+00
        -11   -1    0    0    0    0  0.00000000000E+00  0.00000000000E+00  0.45593999997E+02  0.45594000000E+02  0.51100000000E-03 0. -1.
         11   -1    0    0    0    0 -0.00000000000E+00 -0.00000000000E+00 -0.45593999997E+02  0.45594000000E+02  0.51100000000E-03 0.  1.
         23    2    1    2    0    0  0.00000000000E+00  0.00000000000E+00  0.00000000000E+00  0.91188000000E+02  0.91188000000E+02 0.  0.
    9900012    2    3    3    0    0 -0.15306679581E+02  0.46246241813E+01  0.33167717275E+02  0.54367094826E+02  0.40000024274E+02 0.  0.
        -12    1    3    3    0    0  0.15306679581E+02 -0.46246241813E+01 -0.33167717275E+02  0.36820905174E+02  0.00000000000E+00 0.  1.
         11    1    4    4    0    0 -0.77150813279E+01  0.16297178289E+01  0.18598417696E+02  0.20200980203E+02  0.51100000000E-03 0. -1.
        -11    1    4    4    0    0 -0.12256946410E+02  0.13553293929E+02  0.44317145043E+01  0.18803313680E+02  0.51100000000E-03 0.  1.
         12    1    4    4    0    0  0.46653481576E+01 -0.10558387577E+02  0.10137585075E+02  0.15362800943E+02  0.00000000000E+00 0. -1.
</event>
<event>
 8    1  0.1278459E-006  0.9118800E+02  0.7816164E-02  0.1184000E+00
        -11   -1    0    0    0    0  0.00000000000E+00  0.00000000000E+00  0.45593999997E+02  0.45594000000E+02  0.51100000000E-03 0.  1.
         11   -1    0    0    0    0 -0.00000000000E+00 -0.00000000000E+00 -0.45593999997E+02  0.45594000000E+02  0.51100000000E-03 0. -1.
         23    2    1    2    0    0  0.00000000000E+00 -0.17763568394E-14  0.00000000000E+00  0.91188000000E+02  0.91188000000E+02 0.  0.
    9900012    2    3    3    0    0 -0.23632564071E+02  0.85065767523E+01  0.26924336796E+02  0.54367084143E+02  0.39999999921E+02 0.  0.
        -12    1    3    3    0    0  0.23632564071E+02 -0.85065767523E+01 -0.26924336796E+02  0.36820915857E+02  0.00000000000E+00 0.  1.
         11    1    4    4    0    0 -0.17195777562E+02  0.11398193899E+02  0.17711324557E+02  0.27190156453E+02  0.51100000000E-03 0. -1.
        -11    1    4    4    0    0 -0.96995289667E+01 -0.75408228696E+01 -0.38971759783E+01  0.12889253376E+02  0.51100000000E-03 0.  1.
         12    1    4    4    0    0  0.32627424578E+01  0.46492057230E+01  0.13110188218E+02  0.14287674314E+02  0.00000000000E+00 0. -1.
</event>
<event>
 8    1  0.1278459E-006  0.9118800E+02  0.7816164E-02  0.1184000E+00
        -11   -1    0    0    0    0  0.00000000000E+00  0.00000000000E+00  0.45593999997E+02  0.45594000000E+02  0.51100000000E-03 0.  1.
         11   -1    0    0    0    0 -0.00000000000E+00 -0.00000000000E+00 -0.45593999997E+02  0.45594000000E+02  0.51100000000E-03 0. -1.
         23    2    1    2    0    0  0.00000000000E+00  0.00000000000E+00 -0.35527136788E-14  0.91188000000E+02  0.91188000000E+02 0.  0.
    9900012    2    3    3    0    0 -0.35132526800E+02 -0.67576297608E+01 -0.87074646506E+01  0.54367082847E+02  0.39999996966E+02 0.  0.
         12    1    3    3    0    0  0.35132526800E+02  0.67576297608E+01  0.87074646506E+01  0.36820917153E+02  0.00000000000E+00 0. -1.
         11    1    4    4    0    0  0.11022222466E+01 -0.10913933590E+01  0.48205812306E+01  0.50639941753E+01  0.51100000000E-03 0. -1.
        -11    1    4    4    0    0  0.26663338358E+01 -0.51265285803E+01  0.35856682138E+01  0.68005623451E+01  0.51100000000E-03 0.  1.
        -12    1    4    4    0    0 -0.38901082883E+02 -0.53970782146E+00 -0.17113714095E+02  0.42502526326E+02  0.00000000000E+00 0.  1.
</event>
<event>
 8    1  0.1278459E-006  0.9118800E+02  0.7816164E-02  0.1184000E+00
        -11   -1    0    0    0    0  0.00000000000E+00  0.00000000000E+00  0.45593999997E+02  0.45594000000E+02  0.51100000000E-03 0.  1.
         11   -1    0    0    0    0 -0.00000000000E+00 -0.00000000000E+00 -0.45593999997E+02  0.45594000000E+02  0.51100000000E-03 0. -1.
         23    2    1    2    0    0 -0.35527136788E-14  0.00000000000E+00 -0.44408920985E-15  0.91188000000E+02  0.91188000000E+02 0.  0.
    9900012    2    3    3    0    0  0.17219329399E+02  0.32424451330E+02  0.28156511451E+01  0.54367105926E+02  0.40000049580E+02 0.  0.
         12    1    3    3    0    0 -0.17219329399E+02 -0.32424451330E+02 -0.28156511451E+01  0.36820894074E+02  0.00000000000E+00 0. -1.
         11    1    4    4    0    0 -0.69213230426E+01  0.97829489597E+01 -0.30490111248E+01  0.12365568006E+02  0.51100000000E-03 0. -1.
        -11    1    4    4    0    0  0.40208123424E+01  0.93336018514E+01  0.13318809474E+02  0.16753320312E+02  0.51100000000E-03 0.  1.
         12    1    4    4    0    0  0.20119840099E+02  0.13307900519E+02 -0.74541472043E+01  0.25248217608E+02  0.00000000000E+00 0. -1.
</event>
<event>
 8    1  0.1278459E-006  0.9118800E+02  0.7816164E-02  0.1184000E+00
        -11   -1    0    0    0    0  0.00000000000E+00  0.00000000000E+00  0.45593999997E+02  0.45594000000E+02  0.51100000000E-03 0.  1.
         11   -1    0    0    0    0 -0.00000000000E+00 -0.00000000000E+00 -0.45593999997E+02  0.45594000000E+02  0.51100000000E-03 0. -1.
         23    2    1    2    0    0  0.00000000000E+00  0.17763568394E-14  0.35527136788E-14  0.91188000000E+02  0.91188000000E+02 0.  0.
    9900012    2    3    3    0    0 -0.20392303185E+02  0.15471332165E+02  0.26468318362E+02  0.54367081692E+02  0.39999994334E+02 0.  0.
         12    1    3    3    0    0  0.20392303185E+02 -0.15471332165E+02 -0.26468318362E+02  0.36820918308E+02  0.00000000000E+00 0. -1.
         11    1    4    4    0    0 -0.29785639095E+01  0.12045225096E+02  0.75712361617E+01  0.14535573874E+02  0.51100000000E-03 0. -1.
        -11    1    4    4    0    0 -0.10051912802E+01  0.14782680975E+02  0.55406560295E+01  0.15818879094E+02  0.51100000000E-03 0.  1.
        -12    1    4    4    0    0 -0.16408547995E+02 -0.11356573906E+02  0.13356426170E+02  0.24012628724E+02  0.00000000000E+00 0.  1.
</event>
<event>
 8    1  0.1278459E-006  0.9118800E+02  0.7816164E-02  0.1184000E+00
        -11   -1    0    0    0    0  0.00000000000E+00  0.00000000000E+00  0.45593999997E+02  0.45594000000E+02  0.51100000000E-03 0. -1.
         11   -1    0    0    0    0 -0.00000000000E+00 -0.00000000000E+00 -0.45593999997E+02  0.45594000000E+02  0.51100000000E-03 0.  1.
         23    2    1    2    0    0  0.35527136788E-14 -0.44408920985E-15  0.35527136788E-14  0.91188000000E+02  0.91188000000E+02 0.  0.
    9900012    2    3    3    0    0 -0.26494407436E+02  0.69627896366E+00 -0.25560501828E+02  0.54367113489E+02  0.40000066821E+02 0.  0.
         12    1    3    3    0    0  0.26494407436E+02 -0.69627896366E+00  0.25560501828E+02  0.36820886511E+02  0.00000000000E+00 0. -1.
         11    1    4    4    0    0 -0.28953929072E+02 -0.29887480307E+01 -0.16978241340E+02  0.33697526657E+02  0.51100000000E-03 0. -1.
        -11    1    4    4    0    0 -0.32980863399E+01 -0.36180603196E+01 -0.10121495163E+02  0.11243326847E+02  0.51100000000E-03 0.  1.
        -12    1    4    4    0    0  0.57576079769E+01  0.73030873140E+01  0.15392346753E+01  0.94262599856E+01  0.00000000000E+00 0.  1.
</event>
<event>
 8    1  0.1278459E-006  0.9118800E+02  0.7816164E-02  0.1184000E+00
        -11   -1    0    0    0    0  0.00000000000E+00  0.00000000000E+00  0.45593999997E+02  0.45594000000E+02  0.51100000000E-03 0. -1.
         11   -1    0    0    0    0 -0.00000000000E+00 -0.00000000000E+00 -0.45593999997E+02  0.45594000000E+02  0.51100000000E-03 0.  1.
         23    2    1    2    0    0  0.00000000000E+00  0.00000000000E+00  0.71054273576E-14  0.91188000000E+02  0.91188000000E+02 0.  0.
    9900012    2    3    3    0    0 -0.18458363438E+02  0.23395736218E+02 -0.21626558091E+02  0.54367086529E+02  0.40000005360E+02 0.  0.
        -12    1    3    3    0    0  0.18458363438E+02 -0.23395736218E+02  0.21626558091E+02  0.36820913471E+02  0.00000000000E+00 0.  1.
         11    1    4    4    0    0 -0.15286795849E+02 -0.36080882021E+01 -0.12952941154E+01  0.15760146412E+02  0.51100000000E-03 0.  1.
        -11    1    4    4    0    0 -0.22660723146E+01  0.26294614318E+01  0.31956727392E+01  0.47182068282E+01  0.51100000000E-03 0. -1.
        -12    1    4    4    0    0 -0.90549527389E+00  0.24374362988E+02 -0.23526936715E+02  0.33888733289E+02  0.00000000000E+00 0.  1.
</event>
<event>
 8    1  0.1278459E-006  0.9118800E+02  0.7816164E-02  0.1184000E+00
        -11   -1    0    0    0    0  0.00000000000E+00  0.00000000000E+00  0.45593999997E+02  0.45594000000E+02  0.51100000000E-03 0.  1.
         11   -1    0    0    0    0 -0.00000000000E+00 -0.00000000000E+00 -0.45593999997E+02  0.45594000000E+02  0.51100000000E-03 0. -1.
         23    2    1    2    0    0  0.00000000000E+00  0.00000000000E+00  0.00000000000E+00  0.91188000000E+02  0.91188000000E+02 0.  0.
    9900012    2    3    3    0    0  0.15056321395E+02  0.25555581773E+02 -0.21817783347E+02  0.54366861453E+02  0.39999492252E+02 0.  0.
        -12    1    3    3    0    0 -0.15056321395E+02 -0.25555581773E+02  0.21817783347E+02  0.36821138547E+02  0.00000000000E+00 0.  1.
         11    1    4    4    0    0 -0.10830132736E+01  0.33470978664E+01 -0.35578455078E+01  0.50034235077E+01  0.51100000000E-03 0. -1.
        -11    1    4    4    0    0  0.27570089816E+02  0.10593467636E+02 -0.12624135869E+02  0.32120090531E+02  0.51100000000E-03 0.  1.
        -12    1    4    4    0    0 -0.11430755148E+02  0.11615016270E+02 -0.56358019698E+01  0.17243347414E+02  0.00000000000E+00 0.  1.
</event>
<event>
 8    1  0.1278459E-006  0.9118800E+02  0.7816164E-02  0.1184000E+00
        -11   -1    0    0    0    0  0.00000000000E+00  0.00000000000E+00  0.45593999997E+02  0.45594000000E+02  0.51100000000E-03 0.  1.
         11   -1    0    0    0    0 -0.00000000000E+00 -0.00000000000E+00 -0.45593999997E+02  0.45594000000E+02  0.51100000000E-03 0. -1.
         23    2    1    2    0    0 -0.35527136788E-14 -0.35527136788E-14  0.13322676296E-14  0.91188000000E+02  0.91188000000E+02 0.  0.
    9900012    2    3    3    0    0  0.28742485971E+02  0.22682924956E+02  0.38899901832E+01  0.54367114514E+02  0.40000069158E+02 0.  0.
         12    1    3    3    0    0 -0.28742485971E+02 -0.22682924956E+02 -0.38899901832E+01  0.36820885486E+02  0.00000000000E+00 0. -1.
         11    1    4    4    0    0 -0.26707382851E+01  0.60763582171E+01 -0.94868644856E+01  0.11578236921E+02  0.51100000000E-03 0. -1.
        -11    1    4    4    0    0  0.15570986468E+02  0.12852695048E+02  0.16664614737E+02  0.26179319589E+02  0.51100000000E-03 0.  1.
         12    1    4    4    0    0  0.15842237788E+02  0.37538716912E+01 -0.32877600682E+01  0.16609558004E+02  0.00000000000E+00 0. -1.
</event>
<event>
 8    1  0.1278459E-006  0.9118800E+02  0.7816164E-02  0.1184000E+00
        -11   -1    0    0    0    0  0.00000000000E+00  0.00000000000E+00  0.45593999997E+02  0.45594000000E+02  0.51100000000E-03 0.  1.
         11   -1    0    0    0    0 -0.00000000000E+00 -0.00000000000E+00 -0.45593999997E+02  0.45594000000E+02  0.51100000000E-03 0. -1.
         23    2    1    2    0    0  0.00000000000E+00  0.00000000000E+00  0.00000000000E+00  0.91188000000E+02  0.91188000000E+02 0.  0.
    9900012    2    3    3    0    0  0.27007288202E+02 -0.22754206086E+02  0.10423523777E+02  0.54366846317E+02  0.39999457745E+02 0.  0.
         12    1    3    3    0    0 -0.27007288202E+02  0.22754206086E+02 -0.10423523777E+02  0.36821153683E+02  0.00000000000E+00 0. -1.
         11    1    4    4    0    0  0.29788217303E+02 -0.98210256897E+01  0.22895433895E+01  0.31448886227E+02  0.51100000000E-03 0. -1.
        -11    1    4    4    0    0  0.44747838180E+01 -0.12956913737E+02  0.30075337854E+01  0.14033907636E+02  0.51100000000E-03 0.  1.
         12    1    4    4    0    0 -0.72557129191E+01  0.23733340993E-01  0.51264466023E+01  0.88840524539E+01  0.00000000000E+00 0. -1.
</event>
<event>
 8    1  0.1278459E-006  0.9118800E+02  0.7816164E-02  0.1184000E+00
        -11   -1    0    0    0    0  0.00000000000E+00  0.00000000000E+00  0.45593999997E+02  0.45594000000E+02  0.51100000000E-03 0.  1.
         11   -1    0    0    0    0 -0.00000000000E+00 -0.00000000000E+00 -0.45593999997E+02  0.45594000000E+02  0.51100000000E-03 0. -1.
         23    2    1    2    0    0  0.00000000000E+00  0.00000000000E+00  0.17763568394E-14  0.91188000000E+02  0.91188000000E+02 0.  0.
    9900012    2    3    3    0    0 -0.23220871340E+02 -0.26273709613E+02  0.11236681214E+02  0.54367086277E+02  0.40000004787E+02 0.  0.
         12    1    3    3    0    0  0.23220871340E+02  0.26273709613E+02 -0.11236681214E+02  0.36820913723E+02  0.00000000000E+00 0. -1.
         11    1    4    4    0    0 -0.29560379818E+02 -0.17089131257E+02  0.12826099366E+02  0.36474145463E+02  0.51100000000E-03 0. -1.
        -11    1    4    4    0    0 -0.21415861835E+01 -0.90841046244E+01 -0.57541390944E+00  0.93508528828E+01  0.51100000000E-03 0.  1.
         12    1    4    4    0    0  0.84810946612E+01 -0.10047373246E+00 -0.10140042420E+01  0.85420879313E+01  0.00000000000E+00 0. -1.
</event>
<event>
 8    1  0.1278459E-006  0.9118800E+02  0.7816164E-02  0.1184000E+00
        -11   -1    0    0    0    0  0.00000000000E+00  0.00000000000E+00  0.45593999997E+02  0.45594000000E+02  0.51100000000E-03 0. -1.
         11   -1    0    0    0    0 -0.00000000000E+00 -0.00000000000E+00 -0.45593999997E+02  0.45594000000E+02  0.51100000000E-03 0.  1.
         23    2    1    2    0    0 -0.35527136788E-14  0.00000000000E+00  0.35527136788E-14  0.91188000000E+02  0.91188000000E+02 0.  0.
    9900012    2    3    3    0    0 -0.31692204387E+02 -0.13626203338E+02  0.12872854086E+02  0.54367087347E+02  0.40000007224E+02 0.  0.
         12    1    3    3    0    0  0.31692204387E+02  0.13626203338E+02 -0.12872854086E+02  0.36820912653E+02  0.00000000000E+00 0. -1.
         11    1    4    4    0    0 -0.12076032359E+02 -0.63154324856E+00 -0.77391996639E+01  0.14357040646E+02  0.51100000000E-03 0. -1.
        -11    1    4    4    0    0 -0.48948834454E+01 -0.17587015354E+02  0.73818973092E+01  0.19691505812E+02  0.51100000000E-03 0.  1.
         12    1    4    4    0    0 -0.14721288582E+02  0.45923552640E+01  0.13230156441E+02  0.20318540888E+02  0.00000000000E+00 0. -1.
</event>
<event>
 8    1  0.1278459E-006  0.9118800E+02  0.7816164E-02  0.1184000E+00
        -11   -1    0    0    0    0  0.00000000000E+00  0.00000000000E+00  0.45593999997E+02  0.45594000000E+02  0.51100000000E-03 0.  1.
         11   -1    0    0    0    0 -0.00000000000E+00 -0.00000000000E+00 -0.45593999997E+02  0.45594000000E+02  0.51100000000E-03 0. -1.
         23    2    1    2    0    0  0.00000000000E+00 -0.17763568394E-14  0.00000000000E+00  0.91188000000E+02  0.91188000000E+02 0.  0.
    9900012    2    3    3    0    0 -0.57602692049E+01  0.14906180164E+02 -0.33172357457E+02  0.54367079212E+02  0.39999988680E+02 0.  0.
        -12    1    3    3    0    0  0.57602692049E+01 -0.14906180164E+02  0.33172357457E+02  0.36820920788E+02  0.00000000000E+00 0.  1.
         11    1    4    4    0    0 -0.98235880104E+01  0.22333516878E+02 -0.86173810115E+01  0.25875627785E+02  0.51100000000E-03 0. -1.
        -11    1    4    4    0    0  0.38505033281E+01 -0.55448731503E+01 -0.39947031330E+01  0.78440835994E+01  0.51100000000E-03 0.  1.
         12    1    4    4    0    0  0.21281547734E+00 -0.18824635633E+01 -0.20560273313E+02  0.20647367827E+02  0.00000000000E+00 0. -1.
</event>
<event>
 8    1  0.1278459E-006  0.9118800E+02  0.7816164E-02  0.1184000E+00
        -11   -1    0    0    0    0  0.00000000000E+00  0.00000000000E+00  0.45593999997E+02  0.45594000000E+02  0.51100000000E-03 0.  1.
         11   -1    0    0    0    0 -0.00000000000E+00 -0.00000000000E+00 -0.45593999997E+02  0.45594000000E+02  0.51100000000E-03 0. -1.
         23    2    1    2    0    0  0.00000000000E+00  0.00000000000E+00  0.00000000000E+00  0.91188000000E+02  0.91188000000E+02 0.  0.
    9900012    2    3    3    0    0  0.12587880947E+02 -0.55630362610E+01  0.34152265445E+02  0.54367090801E+02  0.40000015100E+02 0.  0.
         12    1    3    3    0    0 -0.12587880947E+02  0.55630362610E+01 -0.34152265445E+02  0.36820909199E+02  0.00000000000E+00 0. -1.
         11    1    4    4    0    0  0.12542391415E+02 -0.13464287035E+02  0.59028434283E+01  0.19324651836E+02  0.51100000000E-03 0. -1.
        -11    1    4    4    0    0 -0.14238354298E+01  0.13479220718E+02  0.13175928423E+02  0.18902957139E+02  0.51100000000E-03 0.  1.
         12    1    4    4    0    0  0.14693249622E+01 -0.55779699445E+01  0.15073493593E+02  0.16139481827E+02  0.00000000000E+00 0. -1.
</event>
<event>
 8    1  0.1278459E-006  0.9118800E+02  0.7816164E-02  0.1184000E+00
        -11   -1    0    0    0    0  0.00000000000E+00  0.00000000000E+00  0.45593999997E+02  0.45594000000E+02  0.51100000000E-03 0. -1.
         11   -1    0    0    0    0 -0.00000000000E+00 -0.00000000000E+00 -0.45593999997E+02  0.45594000000E+02  0.51100000000E-03 0.  1.
         23    2    1    2    0    0  0.24980018054E-15 -0.71054273576E-14  0.00000000000E+00  0.91188000000E+02  0.91188000000E+02 0.  0.
    9900012    2    3    3    0    0 -0.22609318966E+00  0.35479432132E+02  0.98457384647E+01  0.54367084905E+02  0.40000001658E+02 0.  0.
        -12    1    3    3    0    0  0.22609318966E+00 -0.35479432132E+02 -0.98457384647E+01  0.36820915095E+02  0.00000000000E+00 0.  1.
         11    1    4    4    0    0 -0.21767832199E+01  0.95691459818E+01  0.87415169537E+01  0.13142338411E+02  0.51100000000E-03 0. -1.
        -11    1    4    4    0    0 -0.56529058560E+01  0.10463573845E+02  0.14969697707E+02  0.19118932291E+02  0.51100000000E-03 0.  1.
        -12    1    4    4    0    0  0.76035958863E+01  0.15446712305E+02 -0.13865476196E+02  0.22105814203E+02  0.00000000000E+00 0.  1.
</event>
<event>
 8    1  0.1278459E-006  0.9118800E+02  0.7816164E-02  0.1184000E+00
        -11   -1    0    0    0    0  0.00000000000E+00  0.00000000000E+00  0.45593999997E+02  0.45594000000E+02  0.51100000000E-03 0. -1.
         11   -1    0    0    0    0 -0.00000000000E+00 -0.00000000000E+00 -0.45593999997E+02  0.45594000000E+02  0.51100000000E-03 0.  1.
         23    2    1    2    0    0  0.35527136788E-14 -0.35527136788E-14  0.00000000000E+00  0.91188000000E+02  0.91188000000E+02 0.  0.
    9900012    2    3    3    0    0 -0.13146070791E+02  0.29037597519E+02 -0.18433121046E+02  0.54367065759E+02  0.39999958010E+02 0.  0.
         12    1    3    3    0    0  0.13146070791E+02 -0.29037597519E+02  0.18433121046E+02  0.36820934241E+02  0.00000000000E+00 0. -1.
         11    1    4    4    0    0  0.11603733214E+01  0.16148763276E+02 -0.13401343940E+02  0.21017255797E+02  0.51100000000E-03 0. -1.
        -11    1    4    4    0    0  0.53178509127E+00 -0.36965289662E+01 -0.98899261128E+01  0.10571554311E+02  0.51100000000E-03 0.  1.
         12    1    4    4    0    0 -0.14838229204E+02  0.16585363209E+02  0.48581490067E+01  0.22778255650E+02  0.00000000000E+00 0. -1.
</event>
<event>
 8    1  0.1278459E-006  0.9118800E+02  0.7816164E-02  0.1184000E+00
        -11   -1    0    0    0    0  0.00000000000E+00  0.00000000000E+00  0.45593999997E+02  0.45594000000E+02  0.51100000000E-03 0.  1.
         11   -1    0    0    0    0 -0.00000000000E+00 -0.00000000000E+00 -0.45593999997E+02  0.45594000000E+02  0.51100000000E-03 0. -1.
         23    2    1    2    0    0  0.00000000000E+00  0.00000000000E+00  0.35527136788E-14  0.91188000000E+02  0.91188000000E+02 0.  0.
    9900012    2    3    3    0    0 -0.19558831804E+02  0.20154028701E+01 -0.31131496023E+02  0.54367084818E+02  0.40000001459E+02 0.  0.
        -12    1    3    3    0    0  0.19558831804E+02 -0.20154028701E+01  0.31131496023E+02  0.36820915182E+02  0.00000000000E+00 0.  1.
         11    1    4    4    0    0  0.76494120229E+01 -0.20441389027E+01 -0.34384001481E+01  0.86321841957E+01  0.51100000000E-03 0. -1.
        -11    1    4    4    0    0 -0.80888314391E+00  0.92803296688E+01 -0.52446736737E+01  0.10690435581E+02  0.51100000000E-03 0.  1.
         12    1    4    4    0    0 -0.26399360683E+02 -0.52207878960E+01 -0.22448422201E+02  0.35044465041E+02  0.00000000000E+00 0. -1.
</event>
<event>
 8    1  0.1278459E-006  0.9118800E+02  0.7816164E-02  0.1184000E+00
        -11   -1    0    0    0    0  0.00000000000E+00  0.00000000000E+00  0.45593999997E+02  0.45594000000E+02  0.51100000000E-03 0. -1.
         11   -1    0    0    0    0 -0.00000000000E+00 -0.00000000000E+00 -0.45593999997E+02  0.45594000000E+02  0.51100000000E-03 0.  1.
         23    2    1    2    0    0  0.35527136788E-14  0.00000000000E+00  0.00000000000E+00  0.91188000000E+02  0.91188000000E+02 0.  0.
    9900012    2    3    3    0    0 -0.16609273467E+02 -0.96606243470E+01 -0.31409966121E+02  0.54367060311E+02  0.39999945590E+02 0.  0.
         12    1    3    3    0    0  0.16609273467E+02  0.96606243470E+01  0.31409966121E+02  0.36820939689E+02  0.00000000000E+00 0. -1.
         11    1    4    4    0    0  0.27301842718E+01 -0.45115152689E+01  0.48427946300E+00  0.52954889329E+01  0.51100000000E-03 0. -1.
        -11    1    4    4    0    0 -0.20336027140E+02 -0.16067586134E+02 -0.18940510036E+02  0.32100844922E+02  0.51100000000E-03 0.  1.
         12    1    4    4    0    0  0.99656940127E+00  0.10918477056E+02 -0.12953735548E+02  0.16970726455E+02  0.00000000000E+00 0. -1.
</event>
<event>
 8    1  0.1278459E-006  0.9118800E+02  0.7816164E-02  0.1184000E+00
        -11   -1    0    0    0    0  0.00000000000E+00  0.00000000000E+00  0.45593999997E+02  0.45594000000E+02  0.51100000000E-03 0.  1.
         11   -1    0    0    0    0 -0.00000000000E+00 -0.00000000000E+00 -0.45593999997E+02  0.45594000000E+02  0.51100000000E-03 0. -1.
         23    2    1    2    0    0  0.17763568394E-14  0.44408920985E-15  0.00000000000E+00  0.91188000000E+02  0.91188000000E+02 0.  0.
    9900012    2    3    3    0    0 -0.96349928542E+01 -0.39257029358E+01 -0.35320484269E+02  0.54367070628E+02  0.39999969111E+02 0.  0.
        -12    1    3    3    0    0  0.96349928542E+01  0.39257029358E+01  0.35320484269E+02  0.36820929372E+02  0.00000000000E+00 0.  1.
         11    1    4    4    0    0 -0.59319967678E+01 -0.49710590726E+01 -0.36150612885E+02  0.36969809659E+02  0.51100000000E-03 0. -1.
        -11    1    4    4    0    0  0.65167963424E+00 -0.49138967742E+01  0.64398121910E+01  0.81266382453E+01  0.51100000000E-03 0.  1.
         12    1    4    4    0    0 -0.43546757207E+01  0.59592529110E+01 -0.56096835740E+01  0.92706227240E+01  0.00000000000E+00 0. -1.
</event>
<event>
 8    1  0.1278459E-006  0.9118800E+02  0.7816164E-02  0.1184000E+00
        -11   -1    0    0    0    0  0.00000000000E+00  0.00000000000E+00  0.45593999997E+02  0.45594000000E+02  0.51100000000E-03 0. -1.
         11   -1    0    0    0    0 -0.00000000000E+00 -0.00000000000E+00 -0.45593999997E+02  0.45594000000E+02  0.51100000000E-03 0.  1.
         23    2    1    2    0    0  0.00000000000E+00  0.17763568394E-14  0.00000000000E+00  0.91188000000E+02  0.91188000000E+02 0.  0.
    9900012    2    3    3    0    0 -0.21884471205E+02  0.81971694967E+01 -0.28454724136E+02  0.54366878435E+02  0.39999530966E+02 0.  0.
         12    1    3    3    0    0  0.21884471205E+02 -0.81971694967E+01  0.28454724136E+02  0.36821121565E+02  0.00000000000E+00 0. -1.
         11    1    4    4    0    0  0.33012582801E+01 -0.17719312722E+01 -0.12566578843E+02  0.13113235708E+02  0.51100000000E-03 0. -1.
        -11    1    4    4    0    0 -0.15711650788E+02  0.79789467431E+01  0.49269976113E+01  0.18297400562E+02  0.51100000000E-03 0.  1.
        -12    1    4    4    0    0 -0.94740786968E+01  0.19901540258E+01 -0.20815142904E+02  0.22956242164E+02  0.00000000000E+00 0.  1.
</event>
<event>
 8    1  0.1278459E-006  0.9118800E+02  0.7816164E-02  0.1184000E+00
        -11   -1    0    0    0    0  0.00000000000E+00  0.00000000000E+00  0.45593999997E+02  0.45594000000E+02  0.51100000000E-03 0. -1.
         11   -1    0    0    0    0 -0.00000000000E+00 -0.00000000000E+00 -0.45593999997E+02  0.45594000000E+02  0.51100000000E-03 0.  1.
         23    2    1    2    0    0  0.00000000000E+00  0.00000000000E+00  0.35527136788E-14  0.91188000000E+02  0.91188000000E+02 0.  0.
    9900012    2    3    3    0    0 -0.31112174543E+02  0.10150375768E+02 -0.16875488527E+02  0.54367086838E+02  0.40000006066E+02 0.  0.
         12    1    3    3    0    0  0.31112174543E+02 -0.10150375768E+02  0.16875488527E+02  0.36820913162E+02  0.00000000000E+00 0. -1.
         11    1    4    4    0    0 -0.21335353121E+00  0.64811555875E+01  0.58973492009E+01  0.87652510139E+01  0.51100000000E-03 0. -1.
        -11    1    4    4    0    0 -0.25473147045E+02  0.72876776130E+01 -0.53926109959E+01  0.27038337948E+02  0.51100000000E-03 0.  1.
         12    1    4    4    0    0 -0.54256739672E+01 -0.36184574324E+01 -0.17380226732E+02  0.18563497877E+02  0.00000000000E+00 0. -1.
</event>
<event>
 8    1  0.1278459E-006  0.9118800E+02  0.7816164E-02  0.1184000E+00
        -11   -1    0    0    0    0  0.00000000000E+00  0.00000000000E+00  0.45593999997E+02  0.45594000000E+02  0.51100000000E-03 0.  1.
         11   -1    0    0    0    0 -0.00000000000E+00 -0.00000000000E+00 -0.45593999997E+02  0.45594000000E+02  0.51100000000E-03 0. -1.
         23    2    1    2    0    0 -0.35527136788E-14  0.00000000000E+00 -0.11102230246E-15  0.91188000000E+02  0.91188000000E+02 0.  0.
    9900012    2    3    3    0    0  0.18010315972E+02 -0.32110290362E+02  0.58224524669E+00  0.54367065220E+02  0.39999956781E+02 0.  0.
         12    1    3    3    0    0 -0.18010315972E+02  0.32110290362E+02 -0.58224524669E+00  0.36820934780E+02  0.00000000000E+00 0. -1.
         11    1    4    4    0    0  0.94237717048E+00  0.39218898364E+01 -0.29195590550E+01  0.49792690184E+01  0.51100000000E-03 0. -1.
        -11    1    4    4    0    0  0.24213346710E+02 -0.26814942801E+02 -0.26051215081E+01  0.36223113817E+02  0.51100000000E-03 0.  1.
        -12    1    4    4    0    0 -0.71454079079E+01 -0.92172373981E+01  0.61069258098E+01  0.13164682384E+02  0.00000000000E+00 0.  1.
</event>
<event>
 8    1  0.1278459E-006  0.9118800E+02  0.7816164E-02  0.1184000E+00
        -11   -1    0    0    0    0  0.00000000000E+00  0.00000000000E+00  0.45593999997E+02  0.45594000000E+02  0.51100000000E-03 0.  1.
         11   -1    0    0    0    0 -0.00000000000E+00 -0.00000000000E+00 -0.45593999997E+02  0.45594000000E+02  0.51100000000E-03 0. -1.
         23    2    1    2    0    0  0.00000000000E+00  0.00000000000E+00  0.00000000000E+00  0.91188000000E+02  0.91188000000E+02 0.  0.
    9900012    2    3    3    0    0 -0.16778634168E+02  0.28705389971E+02 -0.15819533024E+02  0.54367087423E+02  0.40000007398E+02 0.  0.
        -12    1    3    3    0    0  0.16778634168E+02 -0.28705389971E+02  0.15819533024E+02  0.36820912577E+02  0.00000000000E+00 0.  1.
         11    1    4    4    0    0 -0.35320639152E+01 -0.76990648444E+01 -0.12087142653E+02  0.14759745687E+02  0.51100000000E-03 0. -1.
        -11    1    4    4    0    0 -0.35782874088E+01  0.19265177094E+02 -0.89842764798E-01  0.19594878444E+02  0.51100000000E-03 0.  1.
         12    1    4    4    0    0 -0.96682828440E+01  0.17139277721E+02 -0.36425476065E+01  0.20012463292E+02  0.00000000000E+00 0. -1.
</event>
<event>
 8    1  0.1278459E-006  0.9118800E+02  0.7816164E-02  0.1184000E+00
        -11   -1    0    0    0    0  0.00000000000E+00  0.00000000000E+00  0.45593999997E+02  0.45594000000E+02  0.51100000000E-03 0. -1.
         11   -1    0    0    0    0 -0.00000000000E+00 -0.00000000000E+00 -0.45593999997E+02  0.45594000000E+02  0.51100000000E-03 0.  1.
         23    2    1    2    0    0  0.88817841970E-15  0.00000000000E+00  0.00000000000E+00  0.91188000000E+02  0.91188000000E+02 0.  0.
    9900012    2    3    3    0    0  0.31336819593E+01 -0.26399067816E+02  0.25476453652E+02  0.54367076127E+02  0.39999981647E+02 0.  0.
        -12    1    3    3    0    0 -0.31336819593E+01  0.26399067816E+02 -0.25476453652E+02  0.36820923873E+02  0.00000000000E+00 0.  1.
         11    1    4    4    0    0 -0.12365664611E+02 -0.17376303465E+02  0.11193265483E+02  0.24085987126E+02  0.51100000000E-03 0. -1.
        -11    1    4    4    0    0  0.12570688814E+02 -0.66072315649E+00 -0.98696666047E+00  0.12626673188E+02  0.51100000000E-03 0.  1.
         12    1    4    4    0    0  0.29286577570E+01 -0.83620411945E+01  0.15270154830E+02  0.17654415814E+02  0.00000000000E+00 0. -1.
</event>
<event>
 8    1  0.1278459E-006  0.9118800E+02  0.7816164E-02  0.1184000E+00
        -11   -1    0    0    0    0  0.00000000000E+00  0.00000000000E+00  0.45593999997E+02  0.45594000000E+02  0.51100000000E-03 0.  1.
         11   -1    0    0    0    0 -0.00000000000E+00 -0.00000000000E+00 -0.45593999997E+02  0.45594000000E+02  0.51100000000E-03 0. -1.
         23    2    1    2    0    0  0.00000000000E+00  0.35527136788E-14  0.17763568394E-14  0.91188000000E+02  0.91188000000E+02 0.  0.
    9900012    2    3    3    0    0  0.23105101332E+02 -0.24995165720E+02  0.14041907014E+02  0.54367093309E+02  0.40000020817E+02 0.  0.
         12    1    3    3    0    0 -0.23105101332E+02  0.24995165720E+02 -0.14041907014E+02  0.36820906691E+02  0.00000000000E+00 0. -1.
         11    1    4    4    0    0  0.81799949677E+01  0.12724718750E+01 -0.69829828551E+00  0.83077748586E+01  0.51100000000E-03 0. -1.
        -11    1    4    4    0    0 -0.87746747367E+01 -0.36927946502E+01  0.84507174206E+01  0.12729739756E+02  0.51100000000E-03 0.  1.
        -12    1    4    4    0    0  0.23699781101E+02 -0.22574842945E+02  0.62894878786E+01  0.33329578695E+02  0.00000000000E+00 0.  1.
</event>
<event>
 8    1  0.1278459E-006  0.9118800E+02  0.7816164E-02  0.1184000E+00
        -11   -1    0    0    0    0  0.00000000000E+00  0.00000000000E+00  0.45593999997E+02  0.45594000000E+02  0.51100000000E-03 0.  1.
         11   -1    0    0    0    0 -0.00000000000E+00 -0.00000000000E+00 -0.45593999997E+02  0.45594000000E+02  0.51100000000E-03 0. -1.
         23    2    1    2    0    0  0.00000000000E+00  0.00000000000E+00  0.00000000000E+00  0.91188000000E+02  0.91188000000E+02 0.  0.
    9900012    2    3    3    0    0 -0.12642522857E+02  0.54936462079E+01  0.34143328142E+02  0.54367076744E+02  0.39999983053E+02 0.  0.
         12    1    3    3    0    0  0.12642522857E+02 -0.54936462079E+01 -0.34143328142E+02  0.36820923256E+02  0.00000000000E+00 0. -1.
         11    1    4    4    0    0 -0.13481225579E+02 -0.19907302596E+01  0.20561691821E+02  0.24667582388E+02  0.51100000000E-03 0. -1.
        -11    1    4    4    0    0  0.99526431856E+01  0.33638694006E+01  0.16247519287E+02  0.19348193894E+02  0.51100000000E-03 0.  1.
         12    1    4    4    0    0 -0.91139404636E+01  0.41205070669E+01 -0.26658829658E+01  0.10351300462E+02  0.00000000000E+00 0. -1.
</event>
<event>
 8    1  0.1278459E-006  0.9118800E+02  0.7816164E-02  0.1184000E+00
        -11   -1    0    0    0    0  0.00000000000E+00  0.00000000000E+00  0.45593999997E+02  0.45594000000E+02  0.51100000000E-03 0. -1.
         11   -1    0    0    0    0 -0.00000000000E+00 -0.00000000000E+00 -0.45593999997E+02  0.45594000000E+02  0.51100000000E-03 0.  1.
         23    2    1    2    0    0 -0.12490009027E-15  0.35527136788E-14  0.35527136788E-14  0.91188000000E+02  0.91188000000E+02 0.  0.
    9900012    2    3    3    0    0 -0.85134148574E-01 -0.30489740303E+02 -0.20643353342E+02  0.54367088160E+02  0.40000009078E+02 0.  0.
         12    1    3    3    0    0  0.85134148574E-01  0.30489740303E+02  0.20643353342E+02  0.36820911840E+02  0.00000000000E+00 0. -1.
         11    1    4    4    0    0 -0.92094091031E+01 -0.23018217048E+02 -0.49541539883E+01  0.25282309508E+02  0.51100000000E-03 0. -1.
        -11    1    4    4    0    0 -0.31746815004E+01  0.25530429219E+01 -0.12168083222E+02  0.12831947645E+02  0.51100000000E-03 0.  1.
        -12    1    4    4    0    0  0.12298956455E+02 -0.10024566177E+02 -0.35211161313E+01  0.16252831006E+02  0.00000000000E+00 0.  1.
</event>
<event>
 8    1  0.1278459E-006  0.9118800E+02  0.7816164E-02  0.1184000E+00
        -11   -1    0    0    0    0  0.00000000000E+00  0.00000000000E+00  0.45593999997E+02  0.45594000000E+02  0.51100000000E-03 0.  1.
         11   -1    0    0    0    0 -0.00000000000E+00 -0.00000000000E+00 -0.45593999997E+02  0.45594000000E+02  0.51100000000E-03 0. -1.
         23    2    1    2    0    0  0.44408920985E-15  0.00000000000E+00  0.00000000000E+00  0.91188000000E+02  0.91188000000E+02 0.  0.
    9900012    2    3    3    0    0 -0.38653156373E+01  0.61322531094E+01 -0.36100346797E+02  0.54367078881E+02  0.39999987925E+02 0.  0.
        -12    1    3    3    0    0  0.38653156373E+01 -0.61322531094E+01  0.36100346797E+02  0.36820921119E+02  0.00000000000E+00 0.  1.
         11    1    4    4    0    0 -0.67533799367E+01 -0.91300594555E+00 -0.18584391881E+02  0.19794477570E+02  0.51100000000E-03 0. -1.
        -11    1    4    4    0    0 -0.12669548935E+02  0.35833215855E+00 -0.55434288904E+01  0.13833852547E+02  0.51100000000E-03 0.  1.
        -12    1    4    4    0    0  0.15557613235E+02  0.66869268964E+01 -0.11972526026E+02  0.20738748765E+02  0.00000000000E+00 0.  1.
</event>
<event>
 8    1  0.1278459E-006  0.9118800E+02  0.7816164E-02  0.1184000E+00
        -11   -1    0    0    0    0  0.00000000000E+00  0.00000000000E+00  0.45593999997E+02  0.45594000000E+02  0.51100000000E-03 0. -1.
         11   -1    0    0    0    0 -0.00000000000E+00 -0.00000000000E+00 -0.45593999997E+02  0.45594000000E+02  0.51100000000E-03 0.  1.
         23    2    1    2    0    0 -0.71054273576E-14 -0.17763568394E-14 -0.17763568394E-14  0.91188000000E+02  0.91188000000E+02 0.  0.
    9900012    2    3    3    0    0 -0.32842416624E+02 -0.69920228685E+01 -0.15108486736E+02  0.54367094458E+02  0.40000023436E+02 0.  0.
         12    1    3    3    0    0  0.32842416624E+02  0.69920228685E+01  0.15108486736E+02  0.36820905542E+02  0.00000000000E+00 0. -1.
         11    1    4    4    0    0 -0.15025965927E+02 -0.47918184231E+01 -0.34468700449E+01  0.16143794139E+02  0.51100000000E-03 0.  1.
        -11    1    4    4    0    0 -0.60773138808E+01 -0.12882056840E+02  0.51097475851E+01  0.15132437116E+02  0.51100000000E-03 0. -1.
         12    1    4    4    0    0 -0.11739136816E+02  0.10681852395E+02 -0.16771364276E+02  0.23090863203E+02  0.00000000000E+00 0. -1.
</event>
<event>
 8    1  0.1278459E-006  0.9118800E+02  0.7816164E-02  0.1184000E+00
        -11   -1    0    0    0    0  0.00000000000E+00  0.00000000000E+00  0.45593999997E+02  0.45594000000E+02  0.51100000000E-03 0. -1.
         11   -1    0    0    0    0 -0.00000000000E+00 -0.00000000000E+00 -0.45593999997E+02  0.45594000000E+02  0.51100000000E-03 0.  1.
         23    2    1    2    0    0 -0.26645352591E-14  0.00000000000E+00  0.17763568394E-14  0.91188000000E+02  0.91188000000E+02 0.  0.
    9900012    2    3    3    0    0 -0.11894426108E+01  0.33916020509E+02  0.14285249575E+02  0.54367087786E+02  0.40000008225E+02 0.  0.
        -12    1    3    3    0    0  0.11894426108E+01 -0.33916020509E+02 -0.14285249575E+02  0.36820912214E+02  0.00000000000E+00 0.  1.
         11    1    4    4    0    0 -0.10327334707E+02  0.33912758350E+02  0.20085199892E+02  0.40744868094E+02  0.51100000000E-03 0. -1.
        -11    1    4    4    0    0  0.91968277407E+00 -0.32034190752E+01 -0.26397735805E+01  0.42516014622E+01  0.51100000000E-03 0.  1.
         12    1    4    4    0    0  0.82182093224E+01  0.32066812340E+01 -0.31601767359E+01  0.93706182296E+01  0.00000000000E+00 0. -1.
</event>
<event>
 8    1  0.1278459E-006  0.9118800E+02  0.7816164E-02  0.1184000E+00
        -11   -1    0    0    0    0  0.00000000000E+00  0.00000000000E+00  0.45593999997E+02  0.45594000000E+02  0.51100000000E-03 0. -1.
         11   -1    0    0    0    0 -0.00000000000E+00 -0.00000000000E+00 -0.45593999997E+02  0.45594000000E+02  0.51100000000E-03 0.  1.
         23    2    1    2    0    0  0.00000000000E+00 -0.71054273576E-14  0.00000000000E+00  0.91188000000E+02  0.91188000000E+02 0.  0.
    9900012    2    3    3    0    0 -0.10492601391E+02  0.34432222879E+02 -0.77528485936E+01  0.54367091298E+02  0.40000016232E+02 0.  0.
        -12    1    3    3    0    0  0.10492601391E+02 -0.34432222879E+02  0.77528485936E+01  0.36820908702E+02  0.00000000000E+00 0.  1.
         11    1    4    4    0    0 -0.50281779360E+01  0.11459243570E+02  0.33407394364E+01  0.12952118622E+02  0.51100000000E-03 0.  1.
        -11    1    4    4    0    0 -0.17256683577E+02  0.19984195101E+02 -0.12417546660E+02  0.29178016506E+02  0.51100000000E-03 0. -1.
        -12    1    4    4    0    0  0.11792260122E+02  0.29887842075E+01  0.13239586304E+01  0.12236956169E+02  0.00000000000E+00 0.  1.
</event>
<event>
 8    1  0.1278459E-006  0.9118800E+02  0.7816164E-02  0.1184000E+00
        -11   -1    0    0    0    0  0.00000000000E+00  0.00000000000E+00  0.45593999997E+02  0.45594000000E+02  0.51100000000E-03 0. -1.
         11   -1    0    0    0    0 -0.00000000000E+00 -0.00000000000E+00 -0.45593999997E+02  0.45594000000E+02  0.51100000000E-03 0.  1.
         23    2    1    2    0    0  0.00000000000E+00  0.22204460493E-15  0.00000000000E+00  0.91188000000E+02  0.91188000000E+02 0.  0.
    9900012    2    3    3    0    0  0.23533131876E+02 -0.12252235598E+01 -0.28292579859E+02  0.54367088228E+02  0.40000009232E+02 0.  0.
         12    1    3    3    0    0 -0.23533131876E+02  0.12252235598E+01  0.28292579859E+02  0.36820911772E+02  0.00000000000E+00 0. -1.
         11    1    4    4    0    0 -0.25039745230E+00 -0.20626757388E+01  0.60962048090E+01  0.64405778795E+01  0.51100000000E-03 0. -1.
        -11    1    4    4    0    0  0.19126245612E+02 -0.19425982187E+01 -0.37157943240E+02  0.41836583335E+02  0.51100000000E-03 0.  1.
        -12    1    4    4    0    0  0.46572837169E+01  0.27800503978E+01  0.27691585718E+01  0.60899270135E+01  0.00000000000E+00 0.  1.
</event>
<event>
 8    1  0.1278459E-006  0.9118800E+02  0.7816164E-02  0.1184000E+00
        -11   -1    0    0    0    0  0.00000000000E+00  0.00000000000E+00  0.45593999997E+02  0.45594000000E+02  0.51100000000E-03 0.  1.
         11   -1    0    0    0    0 -0.00000000000E+00 -0.00000000000E+00 -0.45593999997E+02  0.45594000000E+02  0.51100000000E-03 0. -1.
         23    2    1    2    0    0  0.71054273576E-14 -0.17763568394E-14  0.17763568394E-14  0.91188000000E+02  0.91188000000E+02 0.  0.
    9900012    2    3    3    0    0 -0.32853969033E+02  0.13149498600E+02 -0.10172821772E+02  0.54367097004E+02  0.40000029240E+02 0.  0.
        -12    1    3    3    0    0  0.32853969033E+02 -0.13149498600E+02  0.10172821772E+02  0.36820902996E+02  0.00000000000E+00 0.  1.
         11    1    4    4    0    0 -0.62833259322E+00 -0.30237841028E+01 -0.64765218735E+01  0.71751939338E+01  0.51100000000E-03 0. -1.
        -11    1    4    4    0    0 -0.91427950362E+00 -0.23717434607E+01 -0.99480086653E+01  0.10267616604E+02  0.51100000000E-03 0.  1.
         12    1    4    4    0    0 -0.31311356936E+02  0.18545026164E+02  0.62517087672E+01  0.36924286467E+02  0.00000000000E+00 0. -1.
</event>
<event>
 8    1  0.1278459E-006  0.9118800E+02  0.7816164E-02  0.1184000E+00
        -11   -1    0    0    0    0  0.00000000000E+00  0.00000000000E+00  0.45593999997E+02  0.45594000000E+02  0.51100000000E-03 0. -1.
         11   -1    0    0    0    0 -0.00000000000E+00 -0.00000000000E+00 -0.45593999997E+02  0.45594000000E+02  0.51100000000E-03 0.  1.
         23    2    1    2    0    0  0.00000000000E+00  0.35527136788E-14 -0.35527136788E-14  0.91188000000E+02  0.91188000000E+02 0.  0.
    9900012    2    3    3    0    0  0.16149692673E+02 -0.31371484591E+02  0.10526057288E+02  0.54367075231E+02  0.39999979604E+02 0.  0.
        -12    1    3    3    0    0 -0.16149692673E+02  0.31371484591E+02 -0.10526057288E+02  0.36820924769E+02  0.00000000000E+00 0.  1.
         11    1    4    4    0    0  0.15636635289E+02 -0.10546499412E+02  0.21729183474E+02  0.28773085127E+02  0.51100000000E-03 0. -1.
        -11    1    4    4    0    0 -0.59169454414E+00 -0.73764237760E+00 -0.41800043150E+01  0.42856335641E+01  0.51100000000E-03 0.  1.
         12    1    4    4    0    0  0.11047519273E+01 -0.20087342801E+02 -0.70231218709E+01  0.21308356540E+02  0.00000000000E+00 0. -1.
</event>
<event>
 8    1  0.1278459E-006  0.9118800E+02  0.7816164E-02  0.1184000E+00
        -11   -1    0    0    0    0  0.00000000000E+00  0.00000000000E+00  0.45593999997E+02  0.45594000000E+02  0.51100000000E-03 0.  1.
         11   -1    0    0    0    0 -0.00000000000E+00 -0.00000000000E+00 -0.45593999997E+02  0.45594000000E+02  0.51100000000E-03 0. -1.
         23    2    1    2    0    0 -0.35527136788E-14  0.17763568394E-14  0.35527136788E-14  0.91188000000E+02  0.91188000000E+02 0.  0.
    9900012    2    3    3    0    0 -0.18044933471E+02  0.99239051667E+01  0.30523402263E+02  0.54367060259E+02  0.39999945472E+02 0.  0.
         12    1    3    3    0    0  0.18044933471E+02 -0.99239051667E+01 -0.30523402263E+02  0.36820939741E+02  0.00000000000E+00 0. -1.
         11    1    4    4    0    0  0.75032520128E+01 -0.79821942714E+01  0.36227202510E+01  0.11538557901E+02  0.51100000000E-03 0. -1.
        -11    1    4    4    0    0 -0.17646805878E+02  0.11125588499E+02  0.24434789266E+02  0.32128607251E+02  0.51100000000E-03 0.  1.
         12    1    4    4    0    0 -0.79013796050E+01  0.67805109389E+01  0.24658927460E+01  0.10699895106E+02  0.00000000000E+00 0. -1.
</event>
<event>
 8    1  0.1278459E-006  0.9118800E+02  0.7816164E-02  0.1184000E+00
        -11   -1    0    0    0    0  0.00000000000E+00  0.00000000000E+00  0.45593999997E+02  0.45594000000E+02  0.51100000000E-03 0. -1.
         11   -1    0    0    0    0 -0.00000000000E+00 -0.00000000000E+00 -0.45593999997E+02  0.45594000000E+02  0.51100000000E-03 0.  1.
         23    2    1    2    0    0 -0.35527136788E-14 -0.35527136788E-14  0.00000000000E+00  0.91188000000E+02  0.91188000000E+02 0.  0.
    9900012    2    3    3    0    0 -0.30736497101E+02 -0.18768404429E+02  0.76678337996E+01  0.54367069349E+02  0.39999966194E+02 0.  0.
        -12    1    3    3    0    0  0.30736497101E+02  0.18768404429E+02 -0.76678337996E+01  0.36820930651E+02  0.00000000000E+00 0.  1.
         11    1    4    4    0    0 -0.81324395334E+01  0.51480204042E+01  0.45395911650E+01  0.10641737408E+02  0.51100000000E-03 0. -1.
        -11    1    4    4    0    0 -0.22470876807E+02 -0.59969753654E+01  0.88950741580E+01  0.24900328563E+02  0.51100000000E-03 0.  1.
         12    1    4    4    0    0 -0.13318076047E+00 -0.17919449468E+02 -0.57668315234E+01  0.18825003378E+02  0.00000000000E+00 0. -1.
</event>
<event>
 8    1  0.1278459E-006  0.9118800E+02  0.7816164E-02  0.1184000E+00
        -11   -1    0    0    0    0  0.00000000000E+00  0.00000000000E+00  0.45593999997E+02  0.45594000000E+02  0.51100000000E-03 0. -1.
         11   -1    0    0    0    0 -0.00000000000E+00 -0.00000000000E+00 -0.45593999997E+02  0.45594000000E+02  0.51100000000E-03 0.  1.
         23    2    1    2    0    0  0.00000000000E+00 -0.88817841970E-15  0.17763568394E-14  0.91188000000E+02  0.91188000000E+02 0.  0.
    9900012    2    3    3    0    0  0.34315905980E+02 -0.38147116064E+01  0.12792409239E+02  0.54367093411E+02  0.40000021050E+02 0.  0.
        -12    1    3    3    0    0 -0.34315905980E+02  0.38147116064E+01 -0.12792409239E+02  0.36820906589E+02  0.00000000000E+00 0.  1.
         11    1    4    4    0    0  0.32488238092E+01 -0.53294523838E+01  0.13200531010E+02  0.14601778592E+02  0.51100000000E-03 0. -1.
        -11    1    4    4    0    0  0.63415284297E+01  0.26751567249E+01  0.10629405930E+02  0.12663163784E+02  0.51100000000E-03 0.  1.
        -12    1    4    4    0    0  0.24725553741E+02 -0.11604159474E+01 -0.11037527701E+02  0.27102151035E+02  0.00000000000E+00 0.  1.
</event>
<event>
 8    1  0.1278459E-006  0.9118800E+02  0.7816164E-02  0.1184000E+00
        -11   -1    0    0    0    0  0.00000000000E+00  0.00000000000E+00  0.45593999997E+02  0.45594000000E+02  0.51100000000E-03 0. -1.
         11   -1    0    0    0    0 -0.00000000000E+00 -0.00000000000E+00 -0.45593999997E+02  0.45594000000E+02  0.51100000000E-03 0.  1.
         23    2    1    2    0    0 -0.35527136788E-14  0.00000000000E+00  0.00000000000E+00  0.91188000000E+02  0.91188000000E+02 0.  0.
    9900012    2    3    3    0    0  0.17217431633E+02 -0.72672257455E+01  0.31725826863E+02  0.54367073718E+02  0.39999976156E+02 0.  0.
        -12    1    3    3    0    0 -0.17217431633E+02  0.72672257455E+01 -0.31725826863E+02  0.36820926282E+02  0.00000000000E+00 0.  1.
         11    1    4    4    0    0  0.15686990730E+01 -0.56638265556E+01  0.31558268801E+02  0.32100842325E+02  0.51100000000E-03 0. -1.
        -11    1    4    4    0    0  0.16937083106E+02 -0.53964524954E+01  0.19481480881E+01  0.17882442923E+02  0.51100000000E-03 0.  1.
         12    1    4    4    0    0 -0.12883505456E+01  0.37930533054E+01 -0.17805900258E+01  0.43837884696E+01  0.00000000000E+00 0. -1.
</event>
<event>
 8    1  0.1278459E-006  0.9118800E+02  0.7816164E-02  0.1184000E+00
        -11   -1    0    0    0    0  0.00000000000E+00  0.00000000000E+00  0.45593999997E+02  0.45594000000E+02  0.51100000000E-03 0. -1.
         11   -1    0    0    0    0 -0.00000000000E+00 -0.00000000000E+00 -0.45593999997E+02  0.45594000000E+02  0.51100000000E-03 0.  1.
         23    2    1    2    0    0 -0.10547118734E-14  0.71054273576E-14  0.00000000000E+00  0.91188000000E+02  0.91188000000E+02 0.  0.
    9900012    2    3    3    0    0 -0.10739004755E+00 -0.34566209908E+02 -0.12686422108E+02  0.54367086026E+02  0.40000004213E+02 0.  0.
         12    1    3    3    0    0  0.10739004755E+00  0.34566209908E+02  0.12686422108E+02  0.36820913974E+02  0.00000000000E+00 0. -1.
         11    1    4    4    0    0 -0.45856004379E+01 -0.99788829207E+00  0.21241859302E+01  0.51512793117E+01  0.51100000000E-03 0. -1.
        -11    1    4    4    0    0  0.16467888180E+02 -0.72112982742E+01 -0.58230748325E+01  0.18897152290E+02  0.51100000000E-03 0.  1.
         12    1    4    4    0    0 -0.11989677790E+02 -0.26357023341E+02 -0.89875332059E+01  0.30318654424E+02  0.00000000000E+00 0. -1.
</event>
<event>
 8    1  0.1278459E-006  0.9118800E+02  0.7816164E-02  0.1184000E+00
        -11   -1    0    0    0    0  0.00000000000E+00  0.00000000000E+00  0.45593999997E+02  0.45594000000E+02  0.51100000000E-03 0. -1.
         11   -1    0    0    0    0 -0.00000000000E+00 -0.00000000000E+00 -0.45593999997E+02  0.45594000000E+02  0.51100000000E-03 0.  1.
         23    2    1    2    0    0  0.00000000000E+00 -0.35527136788E-14 -0.17763568394E-14  0.91188000000E+02  0.91188000000E+02 0.  0.
    9900012    2    3    3    0    0 -0.24565887199E+02 -0.22447727774E+02 -0.15760615196E+02  0.54367078129E+02  0.39999986211E+02 0.  0.
        -12    1    3    3    0    0  0.24565887199E+02  0.22447727774E+02  0.15760615196E+02  0.36820921871E+02  0.00000000000E+00 0.  1.
         11    1    4    4    0    0 -0.18538403393E+02 -0.29761949593E+02 -0.17847513352E+02  0.39344374147E+02  0.51100000000E-03 0. -1.
        -11    1    4    4    0    0 -0.54191484136E+01  0.10334244163E+02  0.83957415564E+00  0.11699087869E+02  0.51100000000E-03 0.  1.
        -12    1    4    4    0    0 -0.60833539174E+00 -0.30200223438E+01  0.12473240002E+01  0.33236161131E+01  0.00000000000E+00 0.  1.
</event>
<event>
 8    1  0.1278459E-006  0.9118800E+02  0.7816164E-02  0.1184000E+00
        -11   -1    0    0    0    0  0.00000000000E+00  0.00000000000E+00  0.45593999997E+02  0.45594000000E+02  0.51100000000E-03 0.  1.
         11   -1    0    0    0    0 -0.00000000000E+00 -0.00000000000E+00 -0.45593999997E+02  0.45594000000E+02  0.51100000000E-03 0. -1.
         23    2    1    2    0    0  0.88817841970E-15  0.00000000000E+00  0.00000000000E+00  0.91188000000E+02  0.91188000000E+02 0.  0.
    9900012    2    3    3    0    0  0.46017808419E+01 -0.93713696549E+01 -0.35309818355E+02  0.54367051772E+02  0.39999926125E+02 0.  0.
        -12    1    3    3    0    0 -0.46017808419E+01  0.93713696549E+01  0.35309818355E+02  0.36820948228E+02  0.00000000000E+00 0.  1.
         11    1    4    4    0    0 -0.32686636328E+01  0.51751737575E+01 -0.38985399043E+01  0.72570792342E+01  0.51100000000E-03 0. -1.
        -11    1    4    4    0    0  0.62778389550E+01 -0.15637862557E+02 -0.12611157743E+01  0.16898059669E+02  0.51100000000E-03 0.  1.
        -12    1    4    4    0    0  0.15926055197E+01  0.10913191450E+01 -0.30150162676E+02  0.30211912869E+02  0.00000000000E+00 0.  1.
</event>
<event>
 8    1  0.1278459E-006  0.9118800E+02  0.7816164E-02  0.1184000E+00
        -11   -1    0    0    0    0  0.00000000000E+00  0.00000000000E+00  0.45593999997E+02  0.45594000000E+02  0.51100000000E-03 0.  1.
         11   -1    0    0    0    0 -0.00000000000E+00 -0.00000000000E+00 -0.45593999997E+02  0.45594000000E+02  0.51100000000E-03 0. -1.
         23    2    1    2    0    0  0.00000000000E+00  0.00000000000E+00  0.35527136788E-14  0.91188000000E+02  0.91188000000E+02 0.  0.
    9900012    2    3    3    0    0  0.96394393059E+01  0.21986399173E+02  0.27918827487E+02  0.54367062112E+02  0.39999949696E+02 0.  0.
         12    1    3    3    0    0 -0.96394393059E+01 -0.21986399173E+02 -0.27918827487E+02  0.36820937888E+02  0.00000000000E+00 0. -1.
         11    1    4    4    0    0  0.83050408508E+01  0.19196362975E+01  0.96979890814E+01  0.12911611035E+02  0.51100000000E-03 0. -1.
        -11    1    4    4    0    0  0.52248114446E+00  0.13475884949E+02  0.27157468119E+02  0.30321618304E+02  0.51100000000E-03 0.  1.
        -12    1    4    4    0    0  0.81191731068E+00  0.65908779265E+01 -0.89366297131E+01  0.11133832772E+02  0.00000000000E+00 0.  1.
</event>
<event>
 8    1  0.1278459E-006  0.9118800E+02  0.7816164E-02  0.1184000E+00
        -11   -1    0    0    0    0  0.00000000000E+00  0.00000000000E+00  0.45593999997E+02  0.45594000000E+02  0.51100000000E-03 0. -1.
         11   -1    0    0    0    0 -0.00000000000E+00 -0.00000000000E+00 -0.45593999997E+02  0.45594000000E+02  0.51100000000E-03 0.  1.
         23    2    1    2    0    0 -0.71054273576E-14  0.00000000000E+00  0.00000000000E+00  0.91188000000E+02  0.91188000000E+02 0.  0.
    9900012    2    3    3    0    0 -0.34617370962E+02 -0.80377282843E+01  0.96339166566E+01  0.54367084769E+02  0.40000001348E+02 0.  0.
        -12    1    3    3    0    0  0.34617370962E+02  0.80377282843E+01 -0.96339166566E+01  0.36820915231E+02  0.00000000000E+00 0.  1.
         11    1    4    4    0    0 -0.31059995653E+02  0.74335728855E-01  0.10958895214E+02  0.32936700508E+02  0.51100000000E-03 0. -1.
        -11    1    4    4    0    0 -0.74135221202E+00 -0.55110380946E+01  0.89090139909E+01  0.10501984314E+02  0.51100000000E-03 0.  1.
        -12    1    4    4    0    0 -0.28160230968E+01 -0.26010259185E+01 -0.10233992549E+02  0.10928399947E+02  0.00000000000E+00 0.  1.
</event>
<event>
 8    1  0.1278459E-006  0.9118800E+02  0.7816164E-02  0.1184000E+00
        -11   -1    0    0    0    0  0.00000000000E+00  0.00000000000E+00  0.45593999997E+02  0.45594000000E+02  0.51100000000E-03 0. -1.
         11   -1    0    0    0    0 -0.00000000000E+00 -0.00000000000E+00 -0.45593999997E+02  0.45594000000E+02  0.51100000000E-03 0.  1.
         23    2    1    2    0    0  0.00000000000E+00  0.00000000000E+00  0.00000000000E+00  0.91188000000E+02  0.91188000000E+02 0.  0.
    9900012    2    3    3    0    0 -0.19648589031E+02  0.13298129210E+02  0.28157992816E+02  0.54367084058E+02  0.39999999727E+02 0.  0.
        -12    1    3    3    0    0  0.19648589031E+02 -0.13298129210E+02 -0.28157992816E+02  0.36820915942E+02  0.00000000000E+00 0.  1.
         11    1    4    4    0    0 -0.22354179557E+02  0.16961599930E+02  0.30712436560E+02  0.41601189593E+02  0.51100000000E-03 0. -1.
        -11    1    4    4    0    0 -0.15528570358E+01  0.26321564374E+01 -0.39950992249E+01  0.50299533361E+01  0.51100000000E-03 0.  1.
         12    1    4    4    0    0  0.42584475622E+01 -0.62956271566E+01  0.14406554805E+01  0.77359411288E+01  0.00000000000E+00 0. -1.
</event>
<event>
 8    1  0.1278459E-006  0.9118800E+02  0.7816164E-02  0.1184000E+00
        -11   -1    0    0    0    0  0.00000000000E+00  0.00000000000E+00  0.45593999997E+02  0.45594000000E+02  0.51100000000E-03 0. -1.
         11   -1    0    0    0    0 -0.00000000000E+00 -0.00000000000E+00 -0.45593999997E+02  0.45594000000E+02  0.51100000000E-03 0.  1.
         23    2    1    2    0    0  0.00000000000E+00  0.00000000000E+00  0.17763568394E-14  0.91188000000E+02  0.91188000000E+02 0.  0.
    9900012    2    3    3    0    0 -0.44290005248E+01 -0.33879912780E+02  0.13722790148E+02  0.54367088753E+02  0.40000010430E+02 0.  0.
        -12    1    3    3    0    0  0.44290005248E+01  0.33879912780E+02 -0.13722790148E+02  0.36820911247E+02  0.00000000000E+00 0.  1.
         11    1    4    4    0    0 -0.12673356287E+02 -0.28890411570E+02  0.21498080476E+02  0.38176397220E+02  0.51100000000E-03 0. -1.
        -11    1    4    4    0    0  0.65532463749E+01 -0.71730336079E+01 -0.21895942671E+01  0.99595066396E+01  0.51100000000E-03 0.  1.
         12    1    4    4    0    0  0.16911093868E+01  0.21835323979E+01 -0.55856960612E+01  0.62311848937E+01  0.00000000000E+00 0. -1.
</event>
<event>
 8    1  0.1278459E-006  0.9118800E+02  0.7816164E-02  0.1184000E+00
        -11   -1    0    0    0    0  0.00000000000E+00  0.00000000000E+00  0.45593999997E+02  0.45594000000E+02  0.51100000000E-03 0. -1.
         11   -1    0    0    0    0 -0.00000000000E+00 -0.00000000000E+00 -0.45593999997E+02  0.45594000000E+02  0.51100000000E-03 0.  1.
         23    2    1    2    0    0  0.00000000000E+00 -0.88817841970E-15  0.00000000000E+00  0.91188000000E+02  0.91188000000E+02 0.  0.
    9900012    2    3    3    0    0  0.99050114088E+01 -0.59131139734E+01 -0.34967205236E+02  0.54367087330E+02  0.40000007185E+02 0.  0.
         12    1    3    3    0    0 -0.99050114088E+01  0.59131139734E+01  0.34967205236E+02  0.36820912670E+02  0.00000000000E+00 0. -1.
         11    1    4    4    0    0  0.15343361805E+02 -0.12688029800E+02 -0.32892207621E+02  0.38448695350E+02  0.51100000000E-03 0. -1.
        -11    1    4    4    0    0  0.19282732638E+01  0.22462676159E+01 -0.57930557919E+01  0.65056476735E+01  0.51100000000E-03 0.  1.
         12    1    4    4    0    0 -0.73666236599E+01  0.45286482102E+01  0.37180581773E+01  0.94127443059E+01  0.00000000000E+00 0. -1.
</event>
<event>
 8    1  0.1278459E-006  0.9118800E+02  0.7816164E-02  0.1184000E+00
        -11   -1    0    0    0    0  0.00000000000E+00  0.00000000000E+00  0.45593999997E+02  0.45594000000E+02  0.51100000000E-03 0. -1.
         11   -1    0    0    0    0 -0.00000000000E+00 -0.00000000000E+00 -0.45593999997E+02  0.45594000000E+02  0.51100000000E-03 0.  1.
         23    2    1    2    0    0 -0.71054273576E-14 -0.88817841970E-15  0.00000000000E+00  0.91188000000E+02  0.91188000000E+02 0.  0.
    9900012    2    3    3    0    0  0.35365001296E+02  0.58908148088E+01  0.83901771249E+01  0.54367080838E+02  0.39999992386E+02 0.  0.
        -12    1    3    3    0    0 -0.35365001296E+02 -0.58908148088E+01 -0.83901771249E+01  0.36820919162E+02  0.00000000000E+00 0.  1.
         11    1    4    4    0    0 -0.63189248475E+01 -0.19190789819E+01  0.47797237675E+00  0.66211882031E+01  0.51100000000E-03 0. -1.
        -11    1    4    4    0    0  0.10889151452E+01 -0.73505323505E+00  0.60805776836E+01  0.62208893801E+01  0.51100000000E-03 0.  1.
         12    1    4    4    0    0  0.40595010998E+02  0.85449470257E+01  0.18316270646E+01  0.41525003255E+02  0.00000000000E+00 0. -1.
</event>
<event>
 8    1  0.1278459E-006  0.9118800E+02  0.7816164E-02  0.1184000E+00
        -11   -1    0    0    0    0  0.00000000000E+00  0.00000000000E+00  0.45593999997E+02  0.45594000000E+02  0.51100000000E-03 0. -1.
         11   -1    0    0    0    0 -0.00000000000E+00 -0.00000000000E+00 -0.45593999997E+02  0.45594000000E+02  0.51100000000E-03 0.  1.
         23    2    1    2    0    0  0.00000000000E+00  0.35527136788E-14 -0.35527136788E-14  0.91188000000E+02  0.91188000000E+02 0.  0.
    9900012    2    3    3    0    0 -0.28967958040E+02  0.19921479300E+02 -0.10944047204E+02  0.54367080678E+02  0.39999992021E+02 0.  0.
         12    1    3    3    0    0  0.28967958040E+02 -0.19921479300E+02  0.10944047204E+02  0.36820919322E+02  0.00000000000E+00 0. -1.
         11    1    4    4    0    0  0.14180472100E+01 -0.11847150422E+01 -0.43748087682E+01  0.47490377594E+01  0.51100000000E-03 0. -1.
        -11    1    4    4    0    0 -0.56483207496E+01 -0.73229145547E+01  0.45774369313E+01  0.10318989000E+02  0.51100000000E-03 0.  1.
        -12    1    4    4    0    0 -0.24737684500E+02  0.28429108897E+02 -0.11146675368E+02  0.39299053918E+02  0.00000000000E+00 0.  1.
</event>
<event>
 8    1  0.1278459E-006  0.9118800E+02  0.7816164E-02  0.1184000E+00
        -11   -1    0    0    0    0  0.00000000000E+00  0.00000000000E+00  0.45593999997E+02  0.45594000000E+02  0.51100000000E-03 0.  1.
         11   -1    0    0    0    0 -0.00000000000E+00 -0.00000000000E+00 -0.45593999997E+02  0.45594000000E+02  0.51100000000E-03 0. -1.
         23    2    1    2    0    0  0.00000000000E+00  0.00000000000E+00  0.00000000000E+00  0.91188000000E+02  0.91188000000E+02 0.  0.
    9900012    2    3    3    0    0 -0.22482356710E+02 -0.26482560332E+02 -0.12206349024E+02  0.54367118404E+02  0.40000078026E+02 0.  0.
         12    1    3    3    0    0  0.22482356710E+02  0.26482560332E+02  0.12206349024E+02  0.36820881596E+02  0.00000000000E+00 0. -1.
         11    1    4    4    0    0  0.22128217534E+01 -0.12301310639E+02 -0.53397757592E+01  0.13591616128E+02  0.51100000000E-03 0. -1.
        -11    1    4    4    0    0 -0.28979814876E+02 -0.11547762422E+02  0.12569847040E+01  0.31221154655E+02  0.51100000000E-03 0.  1.
        -12    1    4    4    0    0  0.42846364125E+01 -0.26334872710E+01 -0.81235579683E+01  0.95543476208E+01  0.00000000000E+00 0.  1.
</event>
<event>
 8    1  0.1278459E-006  0.9118800E+02  0.7816164E-02  0.1184000E+00
        -11   -1    0    0    0    0  0.00000000000E+00  0.00000000000E+00  0.45593999997E+02  0.45594000000E+02  0.51100000000E-03 0.  1.
         11   -1    0    0    0    0 -0.00000000000E+00 -0.00000000000E+00 -0.45593999997E+02  0.45594000000E+02  0.51100000000E-03 0. -1.
         23    2    1    2    0    0  0.00000000000E+00  0.71054273576E-14  0.00000000000E+00  0.91188000000E+02  0.91188000000E+02 0.  0.
    9900012    2    3    3    0    0 -0.19816495365E+02 -0.25248389251E+02  0.18044510968E+02  0.54367095281E+02  0.40000025312E+02 0.  0.
         12    1    3    3    0    0  0.19816495365E+02  0.25248389251E+02 -0.18044510968E+02  0.36820904719E+02  0.00000000000E+00 0. -1.
         11    1    4    4    0    0 -0.11783182777E+02 -0.18754642986E+02  0.39298347193E+01  0.22494969017E+02  0.51100000000E-03 0. -1.
        -11    1    4    4    0    0 -0.69755208545E+01  0.93038809966E+01  0.10419483592E+02  0.15613639274E+02  0.51100000000E-03 0.  1.
        -12    1    4    4    0    0 -0.10577917328E+01 -0.15797627261E+02  0.36951926565E+01  0.16258486990E+02  0.00000000000E+00 0.  1.
</event>
<event>
 8    1  0.1278459E-006  0.9118800E+02  0.7816164E-02  0.1184000E+00
        -11   -1    0    0    0    0  0.00000000000E+00  0.00000000000E+00  0.45593999997E+02  0.45594000000E+02  0.51100000000E-03 0.  1.
         11   -1    0    0    0    0 -0.00000000000E+00 -0.00000000000E+00 -0.45593999997E+02  0.45594000000E+02  0.51100000000E-03 0. -1.
         23    2    1    2    0    0  0.00000000000E+00  0.17763568394E-14 -0.71054273576E-14  0.91188000000E+02  0.91188000000E+02 0.  0.
    9900012    2    3    3    0    0  0.35981788426E+01 -0.14456526156E+02  0.33672556422E+02  0.54367094315E+02  0.40000023109E+02 0.  0.
         12    1    3    3    0    0 -0.35981788426E+01  0.14456526156E+02 -0.33672556422E+02  0.36820905685E+02  0.00000000000E+00 0. -1.
         11    1    4    4    0    0 -0.10557374916E+02 -0.11295055721E+01  0.23375343613E+01  0.10871891055E+02  0.51100000000E-03 0. -1.
        -11    1    4    4    0    0  0.10291446430E+02 -0.19282914167E+02  0.17710748143E+02  0.28132103520E+02  0.51100000000E-03 0.  1.
         12    1    4    4    0    0  0.38641073290E+01  0.59558935840E+01  0.13624273918E+02  0.15363099740E+02  0.00000000000E+00 0. -1.
</event>
<event>
 8    1  0.1278459E-006  0.9118800E+02  0.7816164E-02  0.1184000E+00
        -11   -1    0    0    0    0  0.00000000000E+00  0.00000000000E+00  0.45593999997E+02  0.45594000000E+02  0.51100000000E-03 0. -1.
         11   -1    0    0    0    0 -0.00000000000E+00 -0.00000000000E+00 -0.45593999997E+02  0.45594000000E+02  0.51100000000E-03 0.  1.
         23    2    1    2    0    0 -0.17763568394E-14  0.71054273576E-14  0.17763568394E-14  0.91188000000E+02  0.91188000000E+02 0.  0.
    9900012    2    3    3    0    0 -0.88332532324E+01 -0.34554784062E+02  0.91498600841E+01  0.54367090128E+02  0.40000013565E+02 0.  0.
        -12    1    3    3    0    0  0.88332532324E+01  0.34554784062E+02 -0.91498600841E+01  0.36820909872E+02  0.00000000000E+00 0.  1.
         11    1    4    4    0    0 -0.14153377791E+02 -0.81213730067E+01  0.12602905620E+02  0.20618148140E+02  0.51100000000E-03 0. -1.
        -11    1    4    4    0    0  0.21744057588E+01 -0.10460601415E+02 -0.11407790589E+02  0.15629776350E+02  0.51100000000E-03 0.  1.
         12    1    4    4    0    0  0.31457187994E+01 -0.15972809640E+02  0.79547450531E+01  0.18119165638E+02  0.00000000000E+00 0. -1.
</event>
<event>
 8    1  0.1278459E-006  0.9118800E+02  0.7816164E-02  0.1184000E+00
        -11   -1    0    0    0    0  0.00000000000E+00  0.00000000000E+00  0.45593999997E+02  0.45594000000E+02  0.51100000000E-03 0. -1.
         11   -1    0    0    0    0 -0.00000000000E+00 -0.00000000000E+00 -0.45593999997E+02  0.45594000000E+02  0.51100000000E-03 0.  1.
         23    2    1    2    0    0  0.35527136788E-14  0.35527136788E-14  0.00000000000E+00  0.91188000000E+02  0.91188000000E+02 0.  0.
    9900012    2    3    3    0    0 -0.21282611747E+02 -0.24519182554E+02 -0.17367807283E+02  0.54367073807E+02  0.39999976358E+02 0.  0.
         12    1    3    3    0    0  0.21282611747E+02  0.24519182554E+02  0.17367807283E+02  0.36820926193E+02  0.00000000000E+00 0. -1.
         11    1    4    4    0    0 -0.27612216463E+02 -0.11010129442E+02 -0.58521529287E+01  0.30296949392E+02  0.51100000000E-03 0.  1.
        -11    1    4    4    0    0 -0.25382428826E-01 -0.27052426414E+01  0.35556011560E+01  0.44678050381E+01  0.51100000000E-03 0. -1.
        -12    1    4    4    0    0  0.63549871443E+01 -0.10803810471E+02 -0.15071255511E+02  0.19602319377E+02  0.00000000000E+00 0.  1.
</event>
<event>
 8    1  0.1278459E-006  0.9118800E+02  0.7816164E-02  0.1184000E+00
        -11   -1    0    0    0    0  0.00000000000E+00  0.00000000000E+00  0.45593999997E+02  0.45594000000E+02  0.51100000000E-03 0.  1.
         11   -1    0    0    0    0 -0.00000000000E+00 -0.00000000000E+00 -0.45593999997E+02  0.45594000000E+02  0.51100000000E-03 0. -1.
         23    2    1    2    0    0 -0.71054273576E-14  0.00000000000E+00 -0.17763568394E-14  0.91188000000E+02  0.91188000000E+02 0.  0.
    9900012    2    3    3    0    0 -0.34052351917E+02  0.83600082031E+01  0.11239359655E+02  0.54367141595E+02  0.40000130894E+02 0.  0.
         12    1    3    3    0    0  0.34052351917E+02 -0.83600082031E+01 -0.11239359655E+02  0.36820858405E+02  0.00000000000E+00 0. -1.
         11    1    4    4    0    0  0.64927912329E+01  0.52693438043E+01 -0.13432612860E+01  0.84691601275E+01  0.51100000000E-03 0. -1.
        -11    1    4    4    0    0  0.47299107613E+00 -0.15098478071E+00 -0.21403346807E+01  0.21971685799E+01  0.51100000000E-03 0.  1.
        -12    1    4    4    0    0 -0.41018134226E+02  0.32416491795E+01  0.14722955622E+02  0.43700812887E+02  0.00000000000E+00 0.  1.
</event>
<event>
 8    1  0.1278459E-006  0.9118800E+02  0.7816164E-02  0.1184000E+00
        -11   -1    0    0    0    0  0.00000000000E+00  0.00000000000E+00  0.45593999997E+02  0.45594000000E+02  0.51100000000E-03 0.  1.
         11   -1    0    0    0    0 -0.00000000000E+00 -0.00000000000E+00 -0.45593999997E+02  0.45594000000E+02  0.51100000000E-03 0. -1.
         23    2    1    2    0    0  0.35527136788E-14  0.00000000000E+00  0.00000000000E+00  0.91188000000E+02  0.91188000000E+02 0.  0.
    9900012    2    3    3    0    0  0.11628098319E+02 -0.29636886267E+02 -0.18499242741E+02  0.54367086376E+02  0.40000005012E+02 0.  0.
         12    1    3    3    0    0 -0.11628098319E+02  0.29636886267E+02  0.18499242741E+02  0.36820913624E+02  0.00000000000E+00 0. -1.
         11    1    4    4    0    0 -0.58851319397E+01 -0.31699404092E+01 -0.14410686489E+02  0.15885565319E+02  0.51100000000E-03 0. -1.
        -11    1    4    4    0    0  0.19333099123E+02 -0.28606710867E+02 -0.60532782119E+01  0.35053599040E+02  0.51100000000E-03 0.  1.
        -12    1    4    4    0    0 -0.18198688642E+01  0.21397650089E+01  0.19647219605E+01  0.34279220175E+01  0.00000000000E+00 0.  1.
</event>
<event>
 8    1  0.1278459E-006  0.9118800E+02  0.7816164E-02  0.1184000E+00
        -11   -1    0    0    0    0  0.00000000000E+00  0.00000000000E+00  0.45593999997E+02  0.45594000000E+02  0.51100000000E-03 0.  1.
         11   -1    0    0    0    0 -0.00000000000E+00 -0.00000000000E+00 -0.45593999997E+02  0.45594000000E+02  0.51100000000E-03 0. -1.
         23    2    1    2    0    0  0.00000000000E+00  0.88817841970E-15  0.00000000000E+00  0.91188000000E+02  0.91188000000E+02 0.  0.
    9900012    2    3    3    0    0 -0.22652501115E+02  0.49047613996E+01 -0.28611029286E+02  0.54367034668E+02  0.39999887133E+02 0.  0.
        -12    1    3    3    0    0  0.22652501115E+02 -0.49047613996E+01  0.28611029286E+02  0.36820965332E+02  0.00000000000E+00 0.  1.
         11    1    4    4    0    0 -0.11403768260E+01 -0.10449679255E+02 -0.21697301450E+02  0.24109523975E+02  0.51100000000E-03 0. -1.
        -11    1    4    4    0    0 -0.11407304488E+02  0.44781562764E+01  0.27288475536E+01  0.12554962706E+02  0.51100000000E-03 0.  1.
         12    1    4    4    0    0 -0.10104819802E+02  0.10876284378E+02 -0.96425753898E+01  0.17702547987E+02  0.00000000000E+00 0. -1.
</event>
<event>
 8    1  0.1278459E-006  0.9118800E+02  0.7816164E-02  0.1184000E+00
        -11   -1    0    0    0    0  0.00000000000E+00  0.00000000000E+00  0.45593999997E+02  0.45594000000E+02  0.51100000000E-03 0. -1.
         11   -1    0    0    0    0 -0.00000000000E+00 -0.00000000000E+00 -0.45593999997E+02  0.45594000000E+02  0.51100000000E-03 0.  1.
         23    2    1    2    0    0  0.35527136788E-14  0.17763568394E-14 -0.35527136788E-14  0.91188000000E+02  0.91188000000E+02 0.  0.
    9900012    2    3    3    0    0  0.17980336966E+02 -0.15844192314E+02 -0.27954398935E+02  0.54367090624E+02  0.40000014695E+02 0.  0.
         12    1    3    3    0    0 -0.17980336966E+02  0.15844192314E+02  0.27954398935E+02  0.36820909376E+02  0.00000000000E+00 0. -1.
         11    1    4    4    0    0  0.45900156734E+00  0.66654844111E+01 -0.11897197509E+02  0.13644877197E+02  0.51100000000E-03 0. -1.
        -11    1    4    4    0    0  0.92887053133E+01 -0.72371479008E+01  0.55447040515E+01  0.13015379342E+02  0.51100000000E-03 0.  1.
        -12    1    4    4    0    0  0.82326300852E+01 -0.15272528824E+02 -0.21601905477E+02  0.27706834085E+02  0.00000000000E+00 0.  1.
</event>
<event>
 8    1  0.1278459E-006  0.9118800E+02  0.7816164E-02  0.1184000E+00
        -11   -1    0    0    0    0  0.00000000000E+00  0.00000000000E+00  0.45593999997E+02  0.45594000000E+02  0.51100000000E-03 0. -1.
         11   -1    0    0    0    0 -0.00000000000E+00 -0.00000000000E+00 -0.45593999997E+02  0.45594000000E+02  0.51100000000E-03 0.  1.
         23    2    1    2    0    0  0.00000000000E+00  0.17763568394E-14  0.00000000000E+00  0.91188000000E+02  0.91188000000E+02 0.  0.
    9900012    2    3    3    0    0  0.25365712222E+02 -0.13460837077E+02 -0.23047005241E+02  0.54367109979E+02  0.40000058818E+02 0.  0.
        -12    1    3    3    0    0 -0.25365712222E+02  0.13460837077E+02  0.23047005241E+02  0.36820890021E+02  0.00000000000E+00 0.  1.
         11    1    4    4    0    0  0.24155850502E+02 -0.77639156369E+01 -0.19971360902E+02  0.32289917250E+02  0.51100000000E-03 0. -1.
        -11    1    4    4    0    0 -0.49231123848E+01 -0.25697297315E+01  0.75766677279E+01  0.93939576625E+01  0.51100000000E-03 0.  1.
        -12    1    4    4    0    0  0.61329741056E+01 -0.31271917090E+01 -0.10652312067E+02  0.12683235066E+02  0.00000000000E+00 0.  1.
</event>
<event>
 8    1  0.1278459E-006  0.9118800E+02  0.7816164E-02  0.1184000E+00
        -11   -1    0    0    0    0  0.00000000000E+00  0.00000000000E+00  0.45593999997E+02  0.45594000000E+02  0.51100000000E-03 0.  1.
         11   -1    0    0    0    0 -0.00000000000E+00 -0.00000000000E+00 -0.45593999997E+02  0.45594000000E+02  0.51100000000E-03 0. -1.
         23    2    1    2    0    0  0.00000000000E+00 -0.17763568394E-14  0.44408920985E-15  0.91188000000E+02  0.91188000000E+02 0.  0.
    9900012    2    3    3    0    0 -0.32988221977E+02 -0.15932195395E+02  0.37043249233E+01  0.54367086616E+02  0.40000005559E+02 0.  0.
         12    1    3    3    0    0  0.32988221977E+02  0.15932195395E+02 -0.37043249233E+01  0.36820913384E+02  0.00000000000E+00 0. -1.
         11    1    4    4    0    0 -0.52820039404E+00 -0.58391869406E+01  0.17752941444E+01  0.61259096748E+01  0.51100000000E-03 0. -1.
        -11    1    4    4    0    0 -0.24039029365E+02 -0.18504312867E+02  0.12026155060E+02  0.32633003743E+02  0.51100000000E-03 0.  1.
        -12    1    4    4    0    0 -0.84209922180E+01  0.84113044129E+01 -0.10097124281E+02  0.15608173199E+02  0.00000000000E+00 0.  1.
</event>
<event>
 8    1  0.1278459E-006  0.9118800E+02  0.7816164E-02  0.1184000E+00
        -11   -1    0    0    0    0  0.00000000000E+00  0.00000000000E+00  0.45593999997E+02  0.45594000000E+02  0.51100000000E-03 0.  1.
         11   -1    0    0    0    0 -0.00000000000E+00 -0.00000000000E+00 -0.45593999997E+02  0.45594000000E+02  0.51100000000E-03 0. -1.
         23    2    1    2    0    0  0.88817841970E-15  0.44408920985E-15  0.00000000000E+00  0.91188000000E+02  0.91188000000E+02 0.  0.
    9900012    2    3    3    0    0  0.19671833435E+01 -0.14135932785E+01  0.36741143995E+02  0.54367085857E+02  0.40000003829E+02 0.  0.
         12    1    3    3    0    0 -0.19671833435E+01  0.14135932785E+01 -0.36741143995E+02  0.36820914143E+02  0.00000000000E+00 0. -1.
         11    1    4    4    0    0 -0.72887144002E+01 -0.29238341242E+01 -0.30300915636E+01  0.84175779615E+01  0.51100000000E-03 0. -1.
        -11    1    4    4    0    0  0.14758477628E+02  0.44846972585E+01  0.20281834567E+02  0.25480933755E+02  0.51100000000E-03 0.  1.
         12    1    4    4    0    0 -0.55025798841E+01 -0.29744564128E+01  0.19489400991E+02  0.20468574140E+02  0.00000000000E+00 0. -1.
</event>
<event>
 8    1  0.1278459E-006  0.9118800E+02  0.7816164E-02  0.1184000E+00
        -11   -1    0    0    0    0  0.00000000000E+00  0.00000000000E+00  0.45593999997E+02  0.45594000000E+02  0.51100000000E-03 0. -1.
         11   -1    0    0    0    0 -0.00000000000E+00 -0.00000000000E+00 -0.45593999997E+02  0.45594000000E+02  0.51100000000E-03 0.  1.
         23    2    1    2    0    0  0.00000000000E+00  0.00000000000E+00  0.00000000000E+00  0.91188000000E+02  0.91188000000E+02 0.  0.
    9900012    2    3    3    0    0  0.69050535985E+01  0.23748477396E+02  0.27278375146E+02  0.54367086181E+02  0.40000004567E+02 0.  0.
         12    1    3    3    0    0 -0.69050535985E+01 -0.23748477396E+02 -0.27278375146E+02  0.36820913819E+02  0.00000000000E+00 0. -1.
         11    1    4    4    0    0  0.10591999747E+01  0.19040381714E+02  0.21723430071E+02  0.28906149081E+02  0.51100000000E-03 0. -1.
        -11    1    4    4    0    0  0.12041059957E+02  0.10729607726E+02  0.45863348585E+01  0.16767411086E+02  0.51100000000E-03 0.  1.
         12    1    4    4    0    0 -0.61952063330E+01 -0.60215120437E+01  0.96861021634E+00  0.86935260137E+01  0.00000000000E+00 0. -1.
</event>
<event>
 8    1  0.1278459E-006  0.9118800E+02  0.7816164E-02  0.1184000E+00
        -11   -1    0    0    0    0  0.00000000000E+00  0.00000000000E+00  0.45593999997E+02  0.45594000000E+02  0.51100000000E-03 0. -1.
         11   -1    0    0    0    0 -0.00000000000E+00 -0.00000000000E+00 -0.45593999997E+02  0.45594000000E+02  0.51100000000E-03 0.  1.
         23    2    1    2    0    0  0.35527136788E-14 -0.35527136788E-14  0.00000000000E+00  0.91188000000E+02  0.91188000000E+02 0.  0.
    9900012    2    3    3    0    0 -0.19326184380E+02  0.28110641519E+02 -0.13858905384E+02  0.54367097950E+02  0.40000031397E+02 0.  0.
         12    1    3    3    0    0  0.19326184380E+02 -0.28110641519E+02  0.13858905384E+02  0.36820902050E+02  0.00000000000E+00 0. -1.
         11    1    4    4    0    0  0.12136876682E+01  0.22142805017E+02 -0.95257389805E+00  0.22196491819E+02  0.51100000000E-03 0. -1.
        -11    1    4    4    0    0  0.10747265480E+01  0.93252754041E+00 -0.96325601599E+01  0.97370868468E+01  0.51100000000E-03 0.  1.
        -12    1    4    4    0    0 -0.21614598596E+02  0.50353089621E+01 -0.32737713263E+01  0.22433519285E+02  0.00000000000E+00 0.  1.
</event>
<event>
 8    1  0.1278459E-006  0.9118800E+02  0.7816164E-02  0.1184000E+00
        -11   -1    0    0    0    0  0.00000000000E+00  0.00000000000E+00  0.45593999997E+02  0.45594000000E+02  0.51100000000E-03 0.  1.
         11   -1    0    0    0    0 -0.00000000000E+00 -0.00000000000E+00 -0.45593999997E+02  0.45594000000E+02  0.51100000000E-03 0. -1.
         23    2    1    2    0    0  0.35527136788E-14  0.00000000000E+00  0.00000000000E+00  0.91188000000E+02  0.91188000000E+02 0.  0.
    9900012    2    3    3    0    0 -0.31479637786E+02 -0.78455471145E+01 -0.17414377215E+02  0.54367072005E+02  0.39999972249E+02 0.  0.
        -12    1    3    3    0    0  0.31479637786E+02  0.78455471145E+01  0.17414377215E+02  0.36820927995E+02  0.00000000000E+00 0.  1.
         11    1    4    4    0    0 -0.30828443303E+02 -0.10212361491E+02 -0.21175940477E+02  0.38769907132E+02  0.51100000000E-03 0. -1.
        -11    1    4    4    0    0 -0.15593008929E+01  0.61832468930E+01 -0.35509222181E+01  0.72988362274E+01  0.51100000000E-03 0.  1.
        -12    1    4    4    0    0  0.90810641010E+00 -0.38164325164E+01  0.73124854797E+01  0.82983286447E+01  0.00000000000E+00 0.  1.
</event>
<event>
 8    1  0.1278459E-006  0.9118800E+02  0.7816164E-02  0.1184000E+00
        -11   -1    0    0    0    0  0.00000000000E+00  0.00000000000E+00  0.45593999997E+02  0.45594000000E+02  0.51100000000E-03 0.  1.
         11   -1    0    0    0    0 -0.00000000000E+00 -0.00000000000E+00 -0.45593999997E+02  0.45594000000E+02  0.51100000000E-03 0. -1.
         23    2    1    2    0    0 -0.35527136788E-14  0.17763568394E-14  0.00000000000E+00  0.91188000000E+02  0.91188000000E+02 0.  0.
    9900012    2    3    3    0    0 -0.23371623396E+02 -0.10640470610E+02 -0.26388019897E+02  0.54367082181E+02  0.39999995447E+02 0.  0.
        -12    1    3    3    0    0  0.23371623396E+02  0.10640470610E+02  0.26388019897E+02  0.36820917819E+02  0.00000000000E+00 0.  1.
         11    1    4    4    0    0 -0.21405070719E+01 -0.20801802827E+02 -0.17414817952E+02  0.27213464608E+02  0.51100000000E-03 0. -1.
        -11    1    4    4    0    0 -0.13998264878E+02  0.12677575751E+01 -0.36931492356E+01  0.14532652215E+02  0.51100000000E-03 0.  1.
         12    1    4    4    0    0 -0.72328514468E+01  0.88935746422E+01 -0.52800527095E+01  0.12620965359E+02  0.00000000000E+00 0. -1.
</event>
<event>
 8    1  0.1278459E-006  0.9118800E+02  0.7816164E-02  0.1184000E+00
        -11   -1    0    0    0    0  0.00000000000E+00  0.00000000000E+00  0.45593999997E+02  0.45594000000E+02  0.51100000000E-03 0.  1.
         11   -1    0    0    0    0 -0.00000000000E+00 -0.00000000000E+00 -0.45593999997E+02  0.45594000000E+02  0.51100000000E-03 0. -1.
         23    2    1    2    0    0  0.00000000000E+00  0.00000000000E+00 -0.71054273576E-14  0.91188000000E+02  0.91188000000E+02 0.  0.
    9900012    2    3    3    0    0  0.15461469856E+02 -0.40863422132E+01  0.33166643555E+02  0.54367061833E+02  0.39999949061E+02 0.  0.
         12    1    3    3    0    0 -0.15461469856E+02  0.40863422132E+01 -0.33166643555E+02  0.36820938167E+02  0.00000000000E+00 0. -1.
         11    1    4    4    0    0 -0.32483381515E+01  0.63177528616E+01 -0.47852161108E+00  0.71200200252E+01  0.51100000000E-03 0. -1.
        -11    1    4    4    0    0  0.10955959486E+02 -0.51483846760E+01  0.35665988806E+02  0.37664328891E+02  0.51100000000E-03 0.  1.
        -12    1    4    4    0    0  0.77538485207E+01 -0.52557103987E+01 -0.20208236396E+01  0.95827129175E+01  0.00000000000E+00 0.  1.
</event>
<event>
 8    1  0.1278459E-006  0.9118800E+02  0.7816164E-02  0.1184000E+00
        -11   -1    0    0    0    0  0.00000000000E+00  0.00000000000E+00  0.45593999997E+02  0.45594000000E+02  0.51100000000E-03 0.  1.
         11   -1    0    0    0    0 -0.00000000000E+00 -0.00000000000E+00 -0.45593999997E+02  0.45594000000E+02  0.51100000000E-03 0. -1.
         23    2    1    2    0    0 -0.35527136788E-14  0.77715611724E-15  0.00000000000E+00  0.91188000000E+02  0.91188000000E+02 0.  0.
    9900012    2    3    3    0    0  0.21849873015E+02 -0.67579890351E+00  0.29629470209E+02  0.54367093442E+02  0.40000021119E+02 0.  0.
         12    1    3    3    0    0 -0.21849873015E+02  0.67579890351E+00 -0.29629470209E+02  0.36820906558E+02  0.00000000000E+00 0. -1.
         11    1    4    4    0    0  0.19260975949E+02  0.17152472906E+02  0.15631127227E+02  0.30158326544E+02  0.51100000000E-03 0. -1.
        -11    1    4    4    0    0  0.23073405391E+01 -0.13894668683E+02  0.14521953851E+02  0.20230491395E+02  0.51100000000E-03 0.  1.
         12    1    4    4    0    0  0.28155652747E+00 -0.39336031263E+01 -0.52361086941E+00  0.39782755028E+01  0.00000000000E+00 0. -1.
</event>
<event>
 8    1  0.1278459E-006  0.9118800E+02  0.7816164E-02  0.1184000E+00
        -11   -1    0    0    0    0  0.00000000000E+00  0.00000000000E+00  0.45593999997E+02  0.45594000000E+02  0.51100000000E-03 0.  1.
         11   -1    0    0    0    0 -0.00000000000E+00 -0.00000000000E+00 -0.45593999997E+02  0.45594000000E+02  0.51100000000E-03 0. -1.
         23    2    1    2    0    0  0.00000000000E+00  0.00000000000E+00  0.00000000000E+00  0.91188000000E+02  0.91188000000E+02 0.  0.
    9900012    2    3    3    0    0 -0.29000686066E+02 -0.65142470783E+01 -0.21732534111E+02  0.54367105847E+02  0.40000049400E+02 0.  0.
        -12    1    3    3    0    0  0.29000686066E+02  0.65142470783E+01  0.21732534111E+02  0.36820894153E+02  0.00000000000E+00 0.  1.
         11    1    4    4    0    0  0.36513306132E+01  0.11013872945E+01 -0.64644752261E+01  0.75056451708E+01  0.51100000000E-03 0. -1.
        -11    1    4    4    0    0 -0.27235641119E+02 -0.17849786860E+02 -0.12997851087E+02  0.35061933364E+02  0.51100000000E-03 0.  1.
        -12    1    4    4    0    0 -0.54163755610E+01  0.10234152487E+02 -0.22702077979E+01  0.11799527312E+02  0.00000000000E+00 0.  1.
</event>
<event>
 8    1  0.1278459E-006  0.9118800E+02  0.7816164E-02  0.1184000E+00
        -11   -1    0    0    0    0  0.00000000000E+00  0.00000000000E+00  0.45593999997E+02  0.45594000000E+02  0.51100000000E-03 0.  1.
         11   -1    0    0    0    0 -0.00000000000E+00 -0.00000000000E+00 -0.45593999997E+02  0.45594000000E+02  0.51100000000E-03 0. -1.
         23    2    1    2    0    0  0.00000000000E+00  0.00000000000E+00  0.00000000000E+00  0.91188000000E+02  0.91188000000E+02 0.  0.
    9900012    2    3    3    0    0 -0.14328648226E+02  0.18298969730E+02  0.28559012765E+02  0.54367086604E+02  0.40000005532E+02 0.  0.
         12    1    3    3    0    0  0.14328648226E+02 -0.18298969730E+02 -0.28559012765E+02  0.36820913396E+02  0.00000000000E+00 0. -1.
         11    1    4    4    0    0 -0.91762909063E+01  0.44579571614E+01  0.27469897962E+01  0.10565209418E+02  0.51100000000E-03 0. -1.
        -11    1    4    4    0    0 -0.18193828594E+02  0.66932869845E+01  0.19946817597E+02  0.27815301941E+02  0.51100000000E-03 0.  1.
         12    1    4    4    0    0  0.13041471274E+02  0.71477255842E+01  0.58652053724E+01  0.15986575246E+02  0.00000000000E+00 0. -1.
</event>
<event>
 8    1  0.1278459E-006  0.9118800E+02  0.7816164E-02  0.1184000E+00
        -11   -1    0    0    0    0  0.00000000000E+00  0.00000000000E+00  0.45593999997E+02  0.45594000000E+02  0.51100000000E-03 0.  1.
         11   -1    0    0    0    0 -0.00000000000E+00 -0.00000000000E+00 -0.45593999997E+02  0.45594000000E+02  0.51100000000E-03 0. -1.
         23    2    1    2    0    0  0.35527136788E-14  0.35527136788E-14 -0.44408920985E-15  0.91188000000E+02  0.91188000000E+02 0.  0.
    9900012    2    3    3    0    0 -0.30130116509E+02 -0.20915794626E+02 -0.32380200395E+01  0.54367093446E+02  0.40000021130E+02 0.  0.
         12    1    3    3    0    0  0.30130116509E+02  0.20915794626E+02  0.32380200395E+01  0.36820906554E+02  0.00000000000E+00 0. -1.
         11    1    4    4    0    0 -0.26323959141E+02 -0.24272282108E+01 -0.78269862718E+01  0.27569983242E+02  0.51100000000E-03 0. -1.
        -11    1    4    4    0    0 -0.37597280129E+01 -0.16424795274E+02  0.10959645386E+02  0.20100330390E+02  0.51100000000E-03 0.  1.
         12    1    4    4    0    0 -0.46429355079E-01 -0.20637711405E+01 -0.63706791533E+01  0.66967798142E+01  0.00000000000E+00 0. -1.
</event>
<event>
 8    1  0.1278459E-006  0.9118800E+02  0.7816164E-02  0.1184000E+00
        -11   -1    0    0    0    0  0.00000000000E+00  0.00000000000E+00  0.45593999997E+02  0.45594000000E+02  0.51100000000E-03 0. -1.
         11   -1    0    0    0    0 -0.00000000000E+00 -0.00000000000E+00 -0.45593999997E+02  0.45594000000E+02  0.51100000000E-03 0.  1.
         23    2    1    2    0    0  0.00000000000E+00 -0.19984014443E-14 -0.71054273576E-14  0.91188000000E+02  0.91188000000E+02 0.  0.
    9900012    2    3    3    0    0  0.10125046436E+02  0.18081315421E+01  0.35355276257E+02  0.54367062149E+02  0.39999949781E+02 0.  0.
        -12    1    3    3    0    0 -0.10125046436E+02 -0.18081315421E+01 -0.35355276257E+02  0.36820937851E+02  0.00000000000E+00 0.  1.
         11    1    4    4    0    0  0.44051938276E+01 -0.54819405945E+01 -0.30956211380E+01  0.76837670339E+01  0.51100000000E-03 0.  1.
        -11    1    4    4    0    0 -0.21897164546E+01 -0.84444743684E+01  0.15057862566E+02  0.17402391526E+02  0.51100000000E-03 0. -1.
         12    1    4    4    0    0  0.79095690632E+01  0.15734546505E+02  0.23393034829E+02  0.29280903589E+02  0.00000000000E+00 0. -1.
</event>
<event>
 8    1  0.1278459E-006  0.9118800E+02  0.7816164E-02  0.1184000E+00
        -11   -1    0    0    0    0  0.00000000000E+00  0.00000000000E+00  0.45593999997E+02  0.45594000000E+02  0.51100000000E-03 0.  1.
         11   -1    0    0    0    0 -0.00000000000E+00 -0.00000000000E+00 -0.45593999997E+02  0.45594000000E+02  0.51100000000E-03 0. -1.
         23    2    1    2    0    0 -0.35527136788E-14  0.00000000000E+00 -0.88817841970E-15  0.91188000000E+02  0.91188000000E+02 0.  0.
    9900012    2    3    3    0    0 -0.99713877017E+01 -0.35342327065E+02  0.26966615942E+01  0.54367073358E+02  0.39999975333E+02 0.  0.
         12    1    3    3    0    0  0.99713877017E+01  0.35342327065E+02 -0.26966615942E+01  0.36820926642E+02  0.00000000000E+00 0. -1.
         11    1    4    4    0    0  0.72223010488E+01 -0.61237676043E+00 -0.74255627119E+01  0.10376686349E+02  0.51100000000E-03 0. -1.
        -11    1    4    4    0    0  0.26059794348E+01 -0.33035844519E+01 -0.23366928498E+01  0.48129962373E+01  0.51100000000E-03 0.  1.
        -12    1    4    4    0    0 -0.19799668185E+02 -0.31426365852E+02  0.12458917156E+02  0.39177390771E+02  0.00000000000E+00 0.  1.
</event>
<event>
 8    1  0.1278459E-006  0.9118800E+02  0.7816164E-02  0.1184000E+00
        -11   -1    0    0    0    0  0.00000000000E+00  0.00000000000E+00  0.45593999997E+02  0.45594000000E+02  0.51100000000E-03 0.  1.
         11   -1    0    0    0    0 -0.00000000000E+00 -0.00000000000E+00 -0.45593999997E+02  0.45594000000E+02  0.51100000000E-03 0. -1.
         23    2    1    2    0    0 -0.35527136788E-14  0.00000000000E+00  0.00000000000E+00  0.91188000000E+02  0.91188000000E+02 0.  0.
    9900012    2    3    3    0    0  0.29745782630E+02  0.13066248401E+02  0.17327452920E+02  0.54367094847E+02  0.40000024324E+02 0.  0.
         12    1    3    3    0    0 -0.29745782630E+02 -0.13066248401E+02 -0.17327452920E+02  0.36820905153E+02  0.00000000000E+00 0. -1.
         11    1    4    4    0    0  0.13602407422E+02  0.19294985646E+02  0.82875994526E+01  0.25020117180E+02  0.51100000000E-03 0. -1.
        -11    1    4    4    0    0  0.11974117462E+01 -0.35137081035E+01  0.13106043866E+02  0.13621612445E+02  0.51100000000E-03 0.  1.
        -12    1    4    4    0    0  0.14945963461E+02 -0.27150291412E+01 -0.40661903981E+01  0.15725365223E+02  0.00000000000E+00 0.  1.
</event>
<event>
 8    1  0.1278459E-006  0.9118800E+02  0.7816164E-02  0.1184000E+00
        -11   -1    0    0    0    0  0.00000000000E+00  0.00000000000E+00  0.45593999997E+02  0.45594000000E+02  0.51100000000E-03 0. -1.
         11   -1    0    0    0    0 -0.00000000000E+00 -0.00000000000E+00 -0.45593999997E+02  0.45594000000E+02  0.51100000000E-03 0.  1.
         23    2    1    2    0    0  0.17763568394E-14  0.00000000000E+00 -0.22204460493E-15  0.91188000000E+02  0.91188000000E+02 0.  0.
    9900012    2    3    3    0    0 -0.11376599745E+02  0.34999072714E+02 -0.11960328399E+01  0.54366910837E+02  0.39999604833E+02 0.  0.
        -12    1    3    3    0    0  0.11376599745E+02 -0.34999072714E+02  0.11960328399E+01  0.36821089163E+02  0.00000000000E+00 0.  1.
         11    1    4    4    0    0  0.23047919450E+01  0.25737652985E+02  0.10355266566E+02  0.27838290051E+02  0.51100000000E-03 0. -1.
        -11    1    4    4    0    0 -0.73892155006E+01  0.82501577139E+01  0.22728236296E+01  0.11306252055E+02  0.51100000000E-03 0.  1.
        -12    1    4    4    0    0 -0.62921761891E+01  0.10112620155E+01 -0.13824123036E+02  0.15222368730E+02  0.00000000000E+00 0.  1.
</event>
<event>
 8    1  0.1278459E-006  0.9118800E+02  0.7816164E-02  0.1184000E+00
        -11   -1    0    0    0    0  0.00000000000E+00  0.00000000000E+00  0.45593999997E+02  0.45594000000E+02  0.51100000000E-03 0. -1.
         11   -1    0    0    0    0 -0.00000000000E+00 -0.00000000000E+00 -0.45593999997E+02  0.45594000000E+02  0.51100000000E-03 0.  1.
         23    2    1    2    0    0  0.00000000000E+00  0.00000000000E+00  0.88817841970E-15  0.91188000000E+02  0.91188000000E+02 0.  0.
    9900012    2    3    3    0    0  0.33276254980E+02  0.14992120528E+02  0.48688991007E+01  0.54367095586E+02  0.40000026008E+02 0.  0.
        -12    1    3    3    0    0 -0.33276254980E+02 -0.14992120528E+02 -0.48688991007E+01  0.36820904414E+02  0.00000000000E+00 0.  1.
         11    1    4    4    0    0  0.15666868372E+02 -0.33089288705E+01  0.49120810504E+01  0.16748979532E+02  0.51100000000E-03 0. -1.
        -11    1    4    4    0    0  0.13351990081E+02  0.14579682836E+02 -0.12877122169E+02  0.23593708194E+02  0.51100000000E-03 0.  1.
        -12    1    4    4    0    0  0.42573965266E+01  0.37213665617E+01  0.12833940219E+02  0.14024407860E+02  0.00000000000E+00 0.  1.
</event>
<event>
 8    1  0.1278459E-006  0.9118800E+02  0.7816164E-02  0.1184000E+00
        -11   -1    0    0    0    0  0.00000000000E+00  0.00000000000E+00  0.45593999997E+02  0.45594000000E+02  0.51100000000E-03 0. -1.
         11   -1    0    0    0    0 -0.00000000000E+00 -0.00000000000E+00 -0.45593999997E+02  0.45594000000E+02  0.51100000000E-03 0.  1.
         23    2    1    2    0    0  0.00000000000E+00  0.77715611724E-15 -0.35527136788E-14  0.91188000000E+02  0.91188000000E+02 0.  0.
    9900012    2    3    3    0    0 -0.26357829415E+02 -0.29261568223E+00  0.25709141295E+02  0.54367071963E+02  0.39999972153E+02 0.  0.
        -12    1    3    3    0    0  0.26357829415E+02  0.29261568223E+00 -0.25709141295E+02  0.36820928037E+02  0.00000000000E+00 0.  1.
         11    1    4    4    0    0 -0.13996817485E+02 -0.10157062274E+02  0.32655993902E+02  0.36952547297E+02  0.51100000000E-03 0. -1.
        -11    1    4    4    0    0 -0.54941636565E+01  0.57444167437E+01 -0.31219836288E+01  0.85399613611E+01  0.51100000000E-03 0.  1.
         12    1    4    4    0    0 -0.68668482734E+01  0.41200298476E+01 -0.38248689778E+01  0.88745633049E+01  0.00000000000E+00 0. -1.
</event>
<event>
 8    1  0.1278459E-006  0.9118800E+02  0.7816164E-02  0.1184000E+00
        -11   -1    0    0    0    0  0.00000000000E+00  0.00000000000E+00  0.45593999997E+02  0.45594000000E+02  0.51100000000E-03 0.  1.
         11   -1    0    0    0    0 -0.00000000000E+00 -0.00000000000E+00 -0.45593999997E+02  0.45594000000E+02  0.51100000000E-03 0. -1.
         23    2    1    2    0    0 -0.44408920985E-15  0.00000000000E+00  0.00000000000E+00  0.91188000000E+02  0.91188000000E+02 0.  0.
    9900012    2    3    3    0    0  0.21783864937E+01 -0.20597304477E+02 -0.30443137724E+02  0.54367096237E+02  0.40000027492E+02 0.  0.
        -12    1    3    3    0    0 -0.21783864937E+01  0.20597304477E+02  0.30443137724E+02  0.36820903763E+02  0.00000000000E+00 0.  1.
         11    1    4    4    0    0  0.10375954139E+01 -0.89163764332E+01  0.20052333928E+01  0.91977896345E+01  0.51100000000E-03 0. -1.
        -11    1    4    4    0    0  0.13581967710E+02 -0.13056386166E+02 -0.20911096897E+02  0.28146279333E+02  0.51100000000E-03 0.  1.
        -12    1    4    4    0    0 -0.12441176630E+02  0.13754581223E+01 -0.11537274220E+02  0.17023027270E+02  0.00000000000E+00 0.  1.
</event>
<event>
 8    1  0.1278459E-006  0.9118800E+02  0.7816164E-02  0.1184000E+00
        -11   -1    0    0    0    0  0.00000000000E+00  0.00000000000E+00  0.45593999997E+02  0.45594000000E+02  0.51100000000E-03 0. -1.
         11   -1    0    0    0    0 -0.00000000000E+00 -0.00000000000E+00 -0.45593999997E+02  0.45594000000E+02  0.51100000000E-03 0.  1.
         23    2    1    2    0    0  0.22204460493E-15 -0.17763568394E-14 -0.71054273576E-14  0.91188000000E+02  0.91188000000E+02 0.  0.
    9900012    2    3    3    0    0  0.62205582059E+00  0.10820780517E+02  0.35189518035E+02  0.54367103434E+02  0.40000043898E+02 0.  0.
        -12    1    3    3    0    0 -0.62205582059E+00 -0.10820780517E+02 -0.35189518035E+02  0.36820896566E+02  0.00000000000E+00 0.  1.
         11    1    4    4    0    0  0.27515046889E+01 -0.67018634953E+01  0.28806655501E+02  0.29703689228E+02  0.51100000000E-03 0. -1.
        -11    1    4    4    0    0  0.66052547135E+01  0.11298402644E+02  0.38657754143E+01  0.13646520141E+02  0.51100000000E-03 0.  1.
        -12    1    4    4    0    0 -0.87347035819E+01  0.62242413675E+01  0.25170871198E+01  0.11016894065E+02  0.00000000000E+00 0.  1.
</event>
<event>
 8    1  0.1278459E-006  0.9118800E+02  0.7816164E-02  0.1184000E+00
        -11   -1    0    0    0    0  0.00000000000E+00  0.00000000000E+00  0.45593999997E+02  0.45594000000E+02  0.51100000000E-03 0.  1.
         11   -1    0    0    0    0 -0.00000000000E+00 -0.00000000000E+00 -0.45593999997E+02  0.45594000000E+02  0.51100000000E-03 0. -1.
         23    2    1    2    0    0 -0.35527136788E-14  0.33306690739E-15  0.00000000000E+00  0.91188000000E+02  0.91188000000E+02 0.  0.
    9900012    2    3    3    0    0  0.13463077435E+02 -0.88132411698E+00 -0.34260019140E+02  0.54367080705E+02  0.39999992083E+02 0.  0.
        -12    1    3    3    0    0 -0.13463077435E+02  0.88132411698E+00  0.34260019140E+02  0.36820919295E+02  0.00000000000E+00 0.  1.
         11    1    4    4    0    0  0.18640454609E+02  0.24770880860E+01 -0.37924764457E+02  0.42330724927E+02  0.51100000000E-03 0. -1.
        -11    1    4    4    0    0  0.35954440579E+00  0.24205474395E+01  0.31878485649E+01  0.40187934533E+01  0.51100000000E-03 0.  1.
         12    1    4    4    0    0 -0.55369215795E+01 -0.57789596425E+01  0.47689675198E+00  0.80175623252E+01  0.00000000000E+00 0. -1.
</event>
<event>
 8    1  0.1278459E-006  0.9118800E+02  0.7816164E-02  0.1184000E+00
        -11   -1    0    0    0    0  0.00000000000E+00  0.00000000000E+00  0.45593999997E+02  0.45594000000E+02  0.51100000000E-03 0. -1.
         11   -1    0    0    0    0 -0.00000000000E+00 -0.00000000000E+00 -0.45593999997E+02  0.45594000000E+02  0.51100000000E-03 0.  1.
         23    2    1    2    0    0  0.35527136788E-14  0.00000000000E+00  0.00000000000E+00  0.91188000000E+02  0.91188000000E+02 0.  0.
    9900012    2    3    3    0    0 -0.24487101106E+02  0.98591899966E+01 -0.25670180959E+02  0.54367082868E+02  0.39999997015E+02 0.  0.
         12    1    3    3    0    0  0.24487101106E+02 -0.98591899966E+01  0.25670180959E+02  0.36820917132E+02  0.00000000000E+00 0. -1.
         11    1    4    4    0    0 -0.11554669526E+01  0.47465191435E+01 -0.78102080637E+01  0.92121603394E+01  0.51100000000E-03 0. -1.
        -11    1    4    4    0    0 -0.61487927372E+01  0.17026903692E+02 -0.71850622369E+00  0.18117377098E+02  0.51100000000E-03 0.  1.
         12    1    4    4    0    0 -0.17182841417E+02 -0.11914232839E+02 -0.17141466671E+02  0.27037545431E+02  0.00000000000E+00 0. -1.
</event>
<event>
 8    1  0.1278459E-006  0.9118800E+02  0.7816164E-02  0.1184000E+00
        -11   -1    0    0    0    0  0.00000000000E+00  0.00000000000E+00  0.45593999997E+02  0.45594000000E+02  0.51100000000E-03 0. -1.
         11   -1    0    0    0    0 -0.00000000000E+00 -0.00000000000E+00 -0.45593999997E+02  0.45594000000E+02  0.51100000000E-03 0.  1.
         23    2    1    2    0    0  0.55511151231E-16  0.00000000000E+00  0.00000000000E+00  0.91188000000E+02  0.91188000000E+02 0.  0.
    9900012    2    3    3    0    0  0.31865466120E+00 -0.35062376854E+02  0.11238741152E+02  0.54367066903E+02  0.39999960618E+02 0.  0.
        -12    1    3    3    0    0 -0.31865466120E+00  0.35062376854E+02 -0.11238741152E+02  0.36820933097E+02  0.00000000000E+00 0.  1.
         11    1    4    4    0    0  0.43923357756E+01 -0.67341953237E+00  0.95617964565E+01  0.10543911000E+02  0.51100000000E-03 0. -1.
        -11    1    4    4    0    0 -0.44265347701E+01 -0.12095554457E+02 -0.12051785530E+02  0.17639222840E+02  0.51100000000E-03 0.  1.
         12    1    4    4    0    0  0.35285365562E+00 -0.22293402865E+02  0.13728730226E+02  0.26183933063E+02  0.00000000000E+00 0. -1.
</event>
<event>
 8    1  0.1278459E-006  0.9118800E+02  0.7816164E-02  0.1184000E+00
        -11   -1    0    0    0    0  0.00000000000E+00  0.00000000000E+00  0.45593999997E+02  0.45594000000E+02  0.51100000000E-03 0.  1.
         11   -1    0    0    0    0 -0.00000000000E+00 -0.00000000000E+00 -0.45593999997E+02  0.45594000000E+02  0.51100000000E-03 0. -1.
         23    2    1    2    0    0  0.00000000000E+00  0.00000000000E+00 -0.35527136788E-14  0.91188000000E+02  0.91188000000E+02 0.  0.
    9900012    2    3    3    0    0  0.27887979615E+02  0.14278679049E+02  0.19343227248E+02  0.54367074933E+02  0.39999978925E+02 0.  0.
         12    1    3    3    0    0 -0.27887979615E+02 -0.14278679049E+02 -0.19343227248E+02  0.36820925067E+02  0.00000000000E+00 0. -1.
         11    1    4    4    0    0 -0.56201904380E+01  0.45001459777E+01  0.69528345492E+01  0.10008984110E+02  0.51100000000E-03 0. -1.
        -11    1    4    4    0    0  0.78617702834E+01  0.50886464860E+01 -0.71451370978E+01  0.11779420166E+02  0.51100000000E-03 0.  1.
        -12    1    4    4    0    0  0.25646399770E+02  0.46898865853E+01  0.19535529797E+02  0.32578670657E+02  0.00000000000E+00 0.  1.
</event>
<event>
 8    1  0.1278459E-006  0.9118800E+02  0.7816164E-02  0.1184000E+00
        -11   -1    0    0    0    0  0.00000000000E+00  0.00000000000E+00  0.45593999997E+02  0.45594000000E+02  0.51100000000E-03 0. -1.
         11   -1    0    0    0    0 -0.00000000000E+00 -0.00000000000E+00 -0.45593999997E+02  0.45594000000E+02  0.51100000000E-03 0.  1.
         23    2    1    2    0    0 -0.71054273576E-14 -0.88817841970E-15  0.88817841970E-15  0.91188000000E+02  0.91188000000E+02 0.  0.
    9900012    2    3    3    0    0 -0.36288280152E+02 -0.44465657950E+01 -0.43778527985E+01  0.54367125229E+02  0.40000093585E+02 0.  0.
        -12    1    3    3    0    0  0.36288280152E+02  0.44465657950E+01  0.43778527985E+01  0.36820874771E+02  0.00000000000E+00 0.  1.
         11    1    4    4    0    0 -0.31953988705E+02 -0.11595746862E+01  0.61346687036E+01  0.32558196633E+02  0.51100000000E-03 0. -1.
        -11    1    4    4    0    0 -0.10779154036E+02 -0.51388972678E+01 -0.89512506703E+01  0.14923917571E+02  0.51100000000E-03 0.  1.
         12    1    4    4    0    0  0.64448625885E+01  0.18519061591E+01 -0.15612708318E+01  0.68850110252E+01  0.00000000000E+00 0. -1.
</event>
<event>
 8    1  0.1278459E-006  0.9118800E+02  0.7816164E-02  0.1184000E+00
        -11   -1    0    0    0    0  0.00000000000E+00  0.00000000000E+00  0.45593999997E+02  0.45594000000E+02  0.51100000000E-03 0.  1.
         11   -1    0    0    0    0 -0.00000000000E+00 -0.00000000000E+00 -0.45593999997E+02  0.45594000000E+02  0.51100000000E-03 0. -1.
         23    2    1    2    0    0 -0.71054273576E-14  0.00000000000E+00 -0.17763568394E-14  0.91188000000E+02  0.91188000000E+02 0.  0.
    9900012    2    3    3    0    0  0.35349893322E+02 -0.27445175096E+01 -0.99313315562E+01  0.54367099947E+02  0.40000035948E+02 0.  0.
        -12    1    3    3    0    0 -0.35349893322E+02  0.27445175096E+01  0.99313315562E+01  0.36820900053E+02  0.00000000000E+00 0.  1.
         11    1    4    4    0    0  0.31113534065E+02 -0.18045392434E+01  0.32370907241E+01  0.31333482420E+02  0.51100000000E-03 0. -1.
        -11    1    4    4    0    0  0.36580425847E+01  0.68179193338E+01  0.19576706888E-02  0.77372671976E+01  0.51100000000E-03 0.  1.
         12    1    4    4    0    0  0.57831667227E+00 -0.77578976000E+01 -0.13170379951E+02  0.15296350329E+02  0.00000000000E+00 0. -1.
</event>
<event>
 8    1  0.1278459E-006  0.9118800E+02  0.7816164E-02  0.1184000E+00
        -11   -1    0    0    0    0  0.00000000000E+00  0.00000000000E+00  0.45593999997E+02  0.45594000000E+02  0.51100000000E-03 0. -1.
         11   -1    0    0    0    0 -0.00000000000E+00 -0.00000000000E+00 -0.45593999997E+02  0.45594000000E+02  0.51100000000E-03 0.  1.
         23    2    1    2    0    0  0.00000000000E+00 -0.88817841970E-15 -0.35527136788E-14  0.91188000000E+02  0.91188000000E+02 0.  0.
    9900012    2    3    3    0    0 -0.23979671138E+02  0.44121205838E+01  0.27591424385E+02  0.54367107350E+02  0.40000052825E+02 0.  0.
        -12    1    3    3    0    0  0.23979671138E+02 -0.44121205838E+01 -0.27591424385E+02  0.36820892650E+02  0.00000000000E+00 0.  1.
         11    1    4    4    0    0  0.67311185413E+00 -0.11387754903E+02  0.41928335348E+01  0.12153760513E+02  0.51100000000E-03 0. -1.
        -11    1    4    4    0    0 -0.27800168380E+02  0.15820654185E+02  0.21393314600E+02  0.38481376932E+02  0.51100000000E-03 0.  1.
        -12    1    4    4    0    0  0.31473853870E+01 -0.20778697759E-01  0.20052762502E+01  0.37319699046E+01  0.00000000000E+00 0.  1.
</event>
<event>
 8    1  0.1278459E-006  0.9118800E+02  0.7816164E-02  0.1184000E+00
        -11   -1    0    0    0    0  0.00000000000E+00  0.00000000000E+00  0.45593999997E+02  0.45594000000E+02  0.51100000000E-03 0.  1.
         11   -1    0    0    0    0 -0.00000000000E+00 -0.00000000000E+00 -0.45593999997E+02  0.45594000000E+02  0.51100000000E-03 0. -1.
         23    2    1    2    0    0  0.99920072216E-15 -0.35527136788E-14 -0.35527136788E-14  0.91188000000E+02  0.91188000000E+02 0.  0.
    9900012    2    3    3    0    0  0.65878859677E+00  0.28225791738E+02 -0.23635675545E+02  0.54367156988E+02  0.40000165985E+02 0.  0.
        -12    1    3    3    0    0 -0.65878859677E+00 -0.28225791738E+02  0.23635675545E+02  0.36820843012E+02  0.00000000000E+00 0.  1.
         11    1    4    4    0    0  0.80823552162E+00  0.16958428488E+02 -0.11143902929E+02  0.20308326228E+02  0.51100000000E-03 0. -1.
        -11    1    4    4    0    0  0.77972693949E+01  0.71179565150E+00 -0.18088106604E+02  0.19709988936E+02  0.51100000000E-03 0.  1.
        -12    1    4    4    0    0 -0.79467163198E+01  0.10555567598E+02  0.55963339879E+01  0.14348841824E+02  0.00000000000E+00 0.  1.
</event>
<event>
 8    1  0.1278459E-006  0.9118800E+02  0.7816164E-02  0.1184000E+00
        -11   -1    0    0    0    0  0.00000000000E+00  0.00000000000E+00  0.45593999997E+02  0.45594000000E+02  0.51100000000E-03 0. -1.
         11   -1    0    0    0    0 -0.00000000000E+00 -0.00000000000E+00 -0.45593999997E+02  0.45594000000E+02  0.51100000000E-03 0.  1.
         23    2    1    2    0    0  0.00000000000E+00  0.00000000000E+00  0.00000000000E+00  0.91188000000E+02  0.91188000000E+02 0.  0.
    9900012    2    3    3    0    0  0.10049001715E+02  0.27731903563E+02  0.22039497727E+02  0.54367076997E+02  0.39999983631E+02 0.  0.
        -12    1    3    3    0    0 -0.10049001715E+02 -0.27731903563E+02 -0.22039497727E+02  0.36820923003E+02  0.00000000000E+00 0.  1.
         11    1    4    4    0    0 -0.23354644851E+01  0.51602663005E+01  0.97937993348E+01  0.11313763668E+02  0.51100000000E-03 0. -1.
        -11    1    4    4    0    0  0.18882357367E+02  0.12225123968E+01  0.47105826165E+01  0.19499424226E+02  0.51100000000E-03 0.  1.
        -12    1    4    4    0    0 -0.64978911671E+01  0.21349124866E+02  0.75351157758E+01  0.23553889104E+02  0.00000000000E+00 0.  1.
</event>
<event>
 8    1  0.1278459E-006  0.9118800E+02  0.7816164E-02  0.1184000E+00
        -11   -1    0    0    0    0  0.00000000000E+00  0.00000000000E+00  0.45593999997E+02  0.45594000000E+02  0.51100000000E-03 0.  1.
         11   -1    0    0    0    0 -0.00000000000E+00 -0.00000000000E+00 -0.45593999997E+02  0.45594000000E+02  0.51100000000E-03 0. -1.
         23    2    1    2    0    0 -0.35527136788E-14  0.00000000000E+00 -0.71054273576E-14  0.91188000000E+02  0.91188000000E+02 0.  0.
    9900012    2    3    3    0    0 -0.26327976205E+02 -0.45876864944E+01 -0.25329245277E+02  0.54367083869E+02  0.39999999297E+02 0.  0.
        -12    1    3    3    0    0  0.26327976205E+02  0.45876864944E+01  0.25329245277E+02  0.36820916131E+02  0.00000000000E+00 0.  1.
         11    1    4    4    0    0  0.25715077669E+01 -0.49883343242E+01 -0.49068204682E+01  0.74547313093E+01  0.51100000000E-03 0. -1.
        -11    1    4    4    0    0 -0.68010749330E+01 -0.12779919069E+02 -0.14539472008E+02  0.20517728875E+02  0.51100000000E-03 0.  1.
         12    1    4    4    0    0 -0.22098409039E+02  0.13180566899E+02 -0.58829528006E+01  0.26394623685E+02  0.00000000000E+00 0. -1.
</event>
<event>
 8    1  0.1278459E-006  0.9118800E+02  0.7816164E-02  0.1184000E+00
        -11   -1    0    0    0    0  0.00000000000E+00  0.00000000000E+00  0.45593999997E+02  0.45594000000E+02  0.51100000000E-03 0. -1.
         11   -1    0    0    0    0 -0.00000000000E+00 -0.00000000000E+00 -0.45593999997E+02  0.45594000000E+02  0.51100000000E-03 0.  1.
         23    2    1    2    0    0  0.00000000000E+00 -0.35527136788E-14  0.00000000000E+00  0.91188000000E+02  0.91188000000E+02 0.  0.
    9900012    2    3    3    0    0 -0.19595274875E+02  0.19922065367E+02 -0.23977373455E+02  0.54367110226E+02  0.40000059383E+02 0.  0.
         12    1    3    3    0    0  0.19595274875E+02 -0.19922065367E+02  0.23977373455E+02  0.36820889774E+02  0.00000000000E+00 0. -1.
         11    1    4    4    0    0 -0.11108797551E+02  0.19489338392E+00 -0.12947624109E+02  0.17061193885E+02  0.51100000000E-03 0.  1.
        -11    1    4    4    0    0  0.67613072003E+01  0.85064645228E+01 -0.14437961147E+02  0.18070139349E+02  0.51100000000E-03 0. -1.
         12    1    4    4    0    0 -0.15247784524E+02  0.11220707461E+02  0.34082118011E+01  0.19235776992E+02  0.00000000000E+00 0. -1.
</event>
<event>
 8    1  0.1278459E-006  0.9118800E+02  0.7816164E-02  0.1184000E+00
        -11   -1    0    0    0    0  0.00000000000E+00  0.00000000000E+00  0.45593999997E+02  0.45594000000E+02  0.51100000000E-03 0. -1.
         11   -1    0    0    0    0 -0.00000000000E+00 -0.00000000000E+00 -0.45593999997E+02  0.45594000000E+02  0.51100000000E-03 0.  1.
         23    2    1    2    0    0 -0.44408920985E-15  0.35527136788E-14  0.35527136788E-14  0.91188000000E+02  0.91188000000E+02 0.  0.
    9900012    2    3    3    0    0 -0.31378553234E+01  0.30887294317E+02  0.19796678080E+02  0.54367088153E+02  0.40000009062E+02 0.  0.
        -12    1    3    3    0    0  0.31378553234E+01 -0.30887294317E+02 -0.19796678080E+02  0.36820911847E+02  0.00000000000E+00 0.  1.
         11    1    4    4    0    0 -0.12214707911E+02  0.28592636999E+02  0.15622200721E+02  0.34796424177E+02  0.51100000000E-03 0. -1.
        -11    1    4    4    0    0  0.66375252385E+01  0.21496317959E+01  0.10603450073E+02  0.12692943388E+02  0.51100000000E-03 0.  1.
         12    1    4    4    0    0  0.24393273487E+01  0.14502552212E+00 -0.64289727139E+01  0.68777205869E+01  0.00000000000E+00 0. -1.
</event>
<event>
 8    1  0.1278459E-006  0.9118800E+02  0.7816164E-02  0.1184000E+00
        -11   -1    0    0    0    0  0.00000000000E+00  0.00000000000E+00  0.45593999997E+02  0.45594000000E+02  0.51100000000E-03 0. -1.
         11   -1    0    0    0    0 -0.00000000000E+00 -0.00000000000E+00 -0.45593999997E+02  0.45594000000E+02  0.51100000000E-03 0.  1.
         23    2    1    2    0    0  0.35527136788E-14 -0.35527136788E-14 -0.44408920985E-15  0.91188000000E+02  0.91188000000E+02 0.  0.
    9900012    2    3    3    0    0  0.27556540905E+02 -0.24297878024E+02 -0.24556390616E+01  0.54367082218E+02  0.39999995533E+02 0.  0.
        -12    1    3    3    0    0 -0.27556540905E+02  0.24297878024E+02  0.24556390616E+01  0.36820917782E+02  0.00000000000E+00 0.  1.
         11    1    4    4    0    0  0.47724593028E+01  0.44267699870E+01  0.49482142200E+00  0.65282086989E+01  0.51100000000E-03 0. -1.
        -11    1    4    4    0    0 -0.74092590924E+00  0.58023245334E+01  0.74235209391E+00  0.58963571878E+01  0.51100000000E-03 0.  1.
         12    1    4    4    0    0  0.23525007511E+02 -0.34526972544E+02 -0.36928125775E+01  0.41942516331E+02  0.00000000000E+00 0. -1.
</event>
<event>
 8    1  0.1278459E-006  0.9118800E+02  0.7816164E-02  0.1184000E+00
        -11   -1    0    0    0    0  0.00000000000E+00  0.00000000000E+00  0.45593999997E+02  0.45594000000E+02  0.51100000000E-03 0.  1.
         11   -1    0    0    0    0 -0.00000000000E+00 -0.00000000000E+00 -0.45593999997E+02  0.45594000000E+02  0.51100000000E-03 0. -1.
         23    2    1    2    0    0  0.00000000000E+00  0.35527136788E-14 -0.15543122345E-14  0.91188000000E+02  0.91188000000E+02 0.  0.
    9900012    2    3    3    0    0  0.28694172648E+02 -0.23033845635E+02 -0.13660411762E+01  0.54367086687E+02  0.40000005720E+02 0.  0.
         12    1    3    3    0    0 -0.28694172648E+02  0.23033845635E+02  0.13660411762E+01  0.36820913313E+02  0.00000000000E+00 0. -1.
         11    1    4    4    0    0 -0.41363644105E+01  0.44238507796E+00  0.17129667863E+01  0.44988299107E+01  0.51100000000E-03 0. -1.
        -11    1    4    4    0    0  0.21555532069E+02 -0.93128584903E+01  0.11943073764E+02  0.26344018433E+02  0.51100000000E-03 0.  1.
        -12    1    4    4    0    0  0.11275004990E+02 -0.14163372223E+02 -0.15022081726E+02  0.23524238343E+02  0.00000000000E+00 0.  1.
</event>
<event>
 8    1  0.1278459E-006  0.9118800E+02  0.7816164E-02  0.1184000E+00
        -11   -1    0    0    0    0  0.00000000000E+00  0.00000000000E+00  0.45593999997E+02  0.45594000000E+02  0.51100000000E-03 0.  1.
         11   -1    0    0    0    0 -0.00000000000E+00 -0.00000000000E+00 -0.45593999997E+02  0.45594000000E+02  0.51100000000E-03 0. -1.
         23    2    1    2    0    0 -0.35527136788E-14  0.00000000000E+00  0.35527136788E-14  0.91188000000E+02  0.91188000000E+02 0.  0.
    9900012    2    3    3    0    0 -0.20647541406E+02 -0.25719536584E+02  0.16369617681E+02  0.54367083237E+02  0.39999997856E+02 0.  0.
         12    1    3    3    0    0  0.20647541406E+02  0.25719536584E+02 -0.16369617681E+02  0.36820916763E+02  0.00000000000E+00 0. -1.
         11    1    4    4    0    0 -0.10764932232E+02 -0.88029016893E+01 -0.84981194825E+01  0.16297020560E+02  0.51100000000E-03 0. -1.
        -11    1    4    4    0    0  0.20210251408E+00 -0.95443660733E+01 -0.74274074792E+00  0.95753555154E+01  0.51100000000E-03 0.  1.
        -12    1    4    4    0    0 -0.10084711688E+02 -0.73722688218E+01  0.25610477911E+02  0.28494707162E+02  0.00000000000E+00 0.  1.
</event>
<event>
 8    1  0.1278459E-006  0.9118800E+02  0.7816164E-02  0.1184000E+00
        -11   -1    0    0    0    0  0.00000000000E+00  0.00000000000E+00  0.45593999997E+02  0.45594000000E+02  0.51100000000E-03 0. -1.
         11   -1    0    0    0    0 -0.00000000000E+00 -0.00000000000E+00 -0.45593999997E+02  0.45594000000E+02  0.51100000000E-03 0.  1.
         23    2    1    2    0    0  0.00000000000E+00  0.00000000000E+00  0.00000000000E+00  0.91188000000E+02  0.91188000000E+02 0.  0.
    9900012    2    3    3    0    0  0.24386383330E+02  0.92510405610E+01 -0.25990427573E+02  0.54367085171E+02  0.40000002265E+02 0.  0.
         12    1    3    3    0    0 -0.24386383330E+02 -0.92510405610E+01  0.25990427573E+02  0.36820914829E+02  0.00000000000E+00 0. -1.
         11    1    4    4    0    0 -0.24536187442E+01  0.16960119996E+01 -0.23695798320E+01  0.38094107794E+01  0.51100000000E-03 0. -1.
        -11    1    4    4    0    0  0.21573950070E+01  0.15715958361E+02 -0.17939656618E+02  0.23947379403E+02  0.51100000000E-03 0.  1.
        -12    1    4    4    0    0  0.24682607067E+02 -0.81609297995E+01 -0.56811911234E+01  0.26610294989E+02  0.00000000000E+00 0.  1.
</event>
<event>
 8    1  0.1278459E-006  0.9118800E+02  0.7816164E-02  0.1184000E+00
        -11   -1    0    0    0    0  0.00000000000E+00  0.00000000000E+00  0.45593999997E+02  0.45594000000E+02  0.51100000000E-03 0.  1.
         11   -1    0    0    0    0 -0.00000000000E+00 -0.00000000000E+00 -0.45593999997E+02  0.45594000000E+02  0.51100000000E-03 0. -1.
         23    2    1    2    0    0 -0.17763568394E-14 -0.35527136788E-14  0.00000000000E+00  0.91188000000E+02  0.91188000000E+02 0.  0.
    9900012    2    3    3    0    0  0.11633396920E+02  0.29101019715E+02  0.19328156769E+02  0.54367042429E+02  0.39999904825E+02 0.  0.
         12    1    3    3    0    0 -0.11633396920E+02 -0.29101019715E+02 -0.19328156769E+02  0.36820957571E+02  0.00000000000E+00 0. -1.
         11    1    4    4    0    0  0.13967455499E+02 -0.30514982498E+01 -0.33883549626E+01  0.14692937225E+02  0.51100000000E-03 0. -1.
        -11    1    4    4    0    0  0.80108891552E+00  0.18416630482E+02  0.13169799899E+02  0.22655190386E+02  0.51100000000E-03 0.  1.
         12    1    4    4    0    0 -0.31351474946E+01  0.13735887483E+02  0.95467118325E+01  0.17018914817E+02  0.00000000000E+00 0. -1.
</event>
<event>
 8    1  0.1278459E-006  0.9118800E+02  0.7816164E-02  0.1184000E+00
        -11   -1    0    0    0    0  0.00000000000E+00  0.00000000000E+00  0.45593999997E+02  0.45594000000E+02  0.51100000000E-03 0. -1.
         11   -1    0    0    0    0 -0.00000000000E+00 -0.00000000000E+00 -0.45593999997E+02  0.45594000000E+02  0.51100000000E-03 0.  1.
         23    2    1    2    0    0  0.71054273576E-14  0.00000000000E+00  0.88817841970E-15  0.91188000000E+02  0.91188000000E+02 0.  0.
    9900012    2    3    3    0    0  0.32397243052E+02 -0.16705596445E+02 -0.52069160630E+01  0.54367213956E+02  0.40000295855E+02 0.  0.
         12    1    3    3    0    0 -0.32397243052E+02  0.16705596445E+02  0.52069160630E+01  0.36820786044E+02  0.00000000000E+00 0. -1.
         11    1    4    4    0    0 -0.82667542066E+00 -0.20348426456E+01  0.24530015114E+01  0.32925967745E+01  0.51100000000E-03 0. -1.
        -11    1    4    4    0    0  0.33625981908E+02 -0.74113021555E+01 -0.17670408985E+02  0.38702421279E+02  0.51100000000E-03 0.  1.
        -12    1    4    4    0    0 -0.40206343506E+00 -0.72594516440E+01  0.10010491410E+02  0.12372195903E+02  0.00000000000E+00 0.  1.
</event>
<event>
 8    1  0.1278459E-006  0.9118800E+02  0.7816164E-02  0.1184000E+00
        -11   -1    0    0    0    0  0.00000000000E+00  0.00000000000E+00  0.45593999997E+02  0.45594000000E+02  0.51100000000E-03 0. -1.
         11   -1    0    0    0    0 -0.00000000000E+00 -0.00000000000E+00 -0.45593999997E+02  0.45594000000E+02  0.51100000000E-03 0.  1.
         23    2    1    2    0    0  0.00000000000E+00 -0.17763568394E-14  0.35527136788E-14  0.91188000000E+02  0.91188000000E+02 0.  0.
    9900012    2    3    3    0    0  0.14790788207E+02  0.13303908311E+02  0.30984157457E+02  0.54367090105E+02  0.40000013513E+02 0.  0.
        -12    1    3    3    0    0 -0.14790788207E+02 -0.13303908311E+02 -0.30984157457E+02  0.36820909895E+02  0.00000000000E+00 0.  1.
         11    1    4    4    0    0 -0.17002649478E+00  0.18701663630E+02  0.14211040276E+02  0.23489035688E+02  0.51100000000E-03 0. -1.
        -11    1    4    4    0    0  0.10101346464E+02  0.70995954447E+01  0.98068773449E+01  0.15767571131E+02  0.51100000000E-03 0.  1.
        -12    1    4    4    0    0  0.48594682381E+01 -0.12497350764E+02  0.69662398361E+01  0.15110483286E+02  0.00000000000E+00 0.  1.
</event>
<event>
 8    1  0.1278459E-006  0.9118800E+02  0.7816164E-02  0.1184000E+00
        -11   -1    0    0    0    0  0.00000000000E+00  0.00000000000E+00  0.45593999997E+02  0.45594000000E+02  0.51100000000E-03 0. -1.
         11   -1    0    0    0    0 -0.00000000000E+00 -0.00000000000E+00 -0.45593999997E+02  0.45594000000E+02  0.51100000000E-03 0.  1.
         23    2    1    2    0    0  0.00000000000E+00  0.17763568394E-14 -0.35527136788E-14  0.91188000000E+02  0.91188000000E+02 0.  0.
    9900012    2    3    3    0    0  0.32483287961E+02  0.12679371696E+02 -0.11825782510E+02  0.54367087527E+02  0.40000007635E+02 0.  0.
         12    1    3    3    0    0 -0.32483287961E+02 -0.12679371696E+02  0.11825782510E+02  0.36820912473E+02  0.00000000000E+00 0. -1.
         11    1    4    4    0    0  0.15219248592E+00  0.33960233428E+01 -0.76913479073E+01  0.84091004270E+01  0.51100000000E-03 0. -1.
        -11    1    4    4    0    0  0.88426211960E+01 -0.10338218798E+02 -0.68511863604E+01  0.15231857153E+02  0.51100000000E-03 0.  1.
        -12    1    4    4    0    0  0.23488474279E+02  0.19621567150E+02  0.27167517573E+01  0.30726129947E+02  0.00000000000E+00 0.  1.
</event>
<event>
 8    1  0.1278459E-006  0.9118800E+02  0.7816164E-02  0.1184000E+00
        -11   -1    0    0    0    0  0.00000000000E+00  0.00000000000E+00  0.45593999997E+02  0.45594000000E+02  0.51100000000E-03 0. -1.
         11   -1    0    0    0    0 -0.00000000000E+00 -0.00000000000E+00 -0.45593999997E+02  0.45594000000E+02  0.51100000000E-03 0.  1.
         23    2    1    2    0    0  0.17763568394E-14  0.35527136788E-14  0.17763568394E-14  0.91188000000E+02  0.91188000000E+02 0.  0.
    9900012    2    3    3    0    0  0.15392091975E+02  0.31614572365E+02  0.10926278885E+02  0.54367065038E+02  0.39999956367E+02 0.  0.
        -12    1    3    3    0    0 -0.15392091975E+02 -0.31614572365E+02 -0.10926278885E+02  0.36820934962E+02  0.00000000000E+00 0.  1.
         11    1    4    4    0    0 -0.72808110239E+01  0.82034977141E+01 -0.36825780500E+01  0.11570175680E+02  0.51100000000E-03 0. -1.
        -11    1    4    4    0    0 -0.79947372163E+00 -0.40333202605E+01  0.13808012856E+01  0.43374465999E+01  0.51100000000E-03 0.  1.
         12    1    4    4    0    0  0.23472376721E+02  0.27444394912E+02  0.13228055650E+02  0.38459442758E+02  0.00000000000E+00 0. -1.
</event>
<event>
 8    1  0.1278459E-006  0.9118800E+02  0.7816164E-02  0.1184000E+00
        -11   -1    0    0    0    0  0.00000000000E+00  0.00000000000E+00  0.45593999997E+02  0.45594000000E+02  0.51100000000E-03 0.  1.
         11   -1    0    0    0    0 -0.00000000000E+00 -0.00000000000E+00 -0.45593999997E+02  0.45594000000E+02  0.51100000000E-03 0. -1.
         23    2    1    2    0    0  0.35527136788E-14  0.00000000000E+00 -0.22204460493E-15  0.91188000000E+02  0.91188000000E+02 0.  0.
    9900012    2    3    3    0    0 -0.30410364066E+02 -0.20716355908E+02  0.13505432003E+01  0.54367060147E+02  0.39999945217E+02 0.  0.
         12    1    3    3    0    0  0.30410364066E+02  0.20716355908E+02 -0.13505432003E+01  0.36820939853E+02  0.00000000000E+00 0. -1.
         11    1    4    4    0    0  0.33697531783E+01 -0.49097880097E+01  0.27423063310E+01  0.65560276888E+01  0.51100000000E-03 0. -1.
        -11    1    4    4    0    0 -0.37818928329E+02 -0.75581883396E+01 -0.35336572030E+00  0.38568412185E+02  0.51100000000E-03 0.  1.
        -12    1    4    4    0    0  0.40388110847E+01 -0.82483795590E+01 -0.10383974104E+01  0.92426202729E+01  0.00000000000E+00 0.  1.
</event>
<event>
 8    1  0.1278459E-006  0.9118800E+02  0.7816164E-02  0.1184000E+00
        -11   -1    0    0    0    0  0.00000000000E+00  0.00000000000E+00  0.45593999997E+02  0.45594000000E+02  0.51100000000E-03 0.  1.
         11   -1    0    0    0    0 -0.00000000000E+00 -0.00000000000E+00 -0.45593999997E+02  0.45594000000E+02  0.51100000000E-03 0. -1.
         23    2    1    2    0    0 -0.71054273576E-14  0.00000000000E+00  0.17763568394E-14  0.91188000000E+02  0.91188000000E+02 0.  0.
    9900012    2    3    3    0    0  0.34229313696E+02  0.47495027191E+01 -0.12711269210E+02  0.54367081256E+02  0.39999993340E+02 0.  0.
         12    1    3    3    0    0 -0.34229313696E+02 -0.47495027191E+01  0.12711269210E+02  0.36820918744E+02  0.00000000000E+00 0. -1.
         11    1    4    4    0    0 -0.28909150277E+01  0.51905472939E+01 -0.11097187293E+02  0.12587562790E+02  0.51100000000E-03 0.  1.
        -11    1    4    4    0    0  0.15363911306E+02 -0.45556777706E+01 -0.90725692891E+01  0.18415088496E+02  0.51100000000E-03 0. -1.
        -12    1    4    4    0    0  0.21756317418E+02  0.41146331958E+01  0.74584873720E+01  0.23364429970E+02  0.00000000000E+00 0.  1.
</event>
<event>
 8    1  0.1278459E-006  0.9118800E+02  0.7816164E-02  0.1184000E+00
        -11   -1    0    0    0    0  0.00000000000E+00  0.00000000000E+00  0.45593999997E+02  0.45594000000E+02  0.51100000000E-03 0. -1.
         11   -1    0    0    0    0 -0.00000000000E+00 -0.00000000000E+00 -0.45593999997E+02  0.45594000000E+02  0.51100000000E-03 0.  1.
         23    2    1    2    0    0  0.00000000000E+00  0.00000000000E+00 -0.17763568394E-14  0.91188000000E+02  0.91188000000E+02 0.  0.
    9900012    2    3    3    0    0 -0.19596567053E+01  0.33547587310E+02 -0.15049881531E+02  0.54367084710E+02  0.40000001214E+02 0.  0.
        -12    1    3    3    0    0  0.19596567053E+01 -0.33547587310E+02  0.15049881531E+02  0.36820915290E+02  0.00000000000E+00 0.  1.
         11    1    4    4    0    0  0.61506713937E+01 -0.56039488756E+01 -0.24040693313E+01  0.86610941113E+01  0.51100000000E-03 0. -1.
        -11    1    4    4    0    0 -0.15686567183E+01  0.27802224323E+02 -0.16090555216E+02  0.32161006337E+02  0.51100000000E-03 0.  1.
        -12    1    4    4    0    0 -0.65416713807E+01  0.11349311862E+02  0.34447430168E+01  0.13544984262E+02  0.00000000000E+00 0.  1.
</event>
<event>
 8    1  0.1278459E-006  0.9118800E+02  0.7816164E-02  0.1184000E+00
        -11   -1    0    0    0    0  0.00000000000E+00  0.00000000000E+00  0.45593999997E+02  0.45594000000E+02  0.51100000000E-03 0. -1.
         11   -1    0    0    0    0 -0.00000000000E+00 -0.00000000000E+00 -0.45593999997E+02  0.45594000000E+02  0.51100000000E-03 0.  1.
         23    2    1    2    0    0  0.00000000000E+00  0.88817841970E-15  0.35527136788E-14  0.91188000000E+02  0.91188000000E+02 0.  0.
    9900012    2    3    3    0    0 -0.19092523183E+02  0.70061612998E+01  0.30694781479E+02  0.54367077310E+02  0.39999984344E+02 0.  0.
        -12    1    3    3    0    0  0.19092523183E+02 -0.70061612998E+01 -0.30694781479E+02  0.36820922690E+02  0.00000000000E+00 0.  1.
         11    1    4    4    0    0 -0.69932614277E+01 -0.15601167791E+02  0.15117151873E+02  0.22821709464E+02  0.51100000000E-03 0.  1.
        -11    1    4    4    0    0 -0.87615731369E+01  0.65290652634E+01  0.50323549252E+01  0.12029898312E+02  0.51100000000E-03 0. -1.
        -12    1    4    4    0    0 -0.33376886185E+01  0.16078263828E+02  0.10545274681E+02  0.19515469534E+02  0.00000000000E+00 0.  1.
</event>
<event>
 8    1  0.1278459E-006  0.9118800E+02  0.7816164E-02  0.1184000E+00
        -11   -1    0    0    0    0  0.00000000000E+00  0.00000000000E+00  0.45593999997E+02  0.45594000000E+02  0.51100000000E-03 0.  1.
         11   -1    0    0    0    0 -0.00000000000E+00 -0.00000000000E+00 -0.45593999997E+02  0.45594000000E+02  0.51100000000E-03 0. -1.
         23    2    1    2    0    0 -0.88817841970E-15  0.71054273576E-14  0.00000000000E+00  0.91188000000E+02  0.91188000000E+02 0.  0.
    9900012    2    3    3    0    0 -0.15319529847E+01  0.34967526505E+02 -0.11432622496E+02  0.54367086826E+02  0.40000006038E+02 0.  0.
        -12    1    3    3    0    0  0.15319529847E+01 -0.34967526505E+02  0.11432622496E+02  0.36820913174E+02  0.00000000000E+00 0.  1.
         11    1    4    4    0    0 -0.88646942036E-01  0.20889256555E+02  0.11304723508E+02  0.23752171934E+02  0.51100000000E-03 0. -1.
        -11    1    4    4    0    0 -0.65141059063E+01  0.11758851541E+02 -0.10138485888E+02  0.16837252201E+02  0.51100000000E-03 0.  1.
        -12    1    4    4    0    0  0.50707998636E+01  0.23194184089E+01 -0.12598860116E+02  0.13777662692E+02  0.00000000000E+00 0.  1.
</event>
<event>
 8    1  0.1278459E-006  0.9118800E+02  0.7816164E-02  0.1184000E+00
        -11   -1    0    0    0    0  0.00000000000E+00  0.00000000000E+00  0.45593999997E+02  0.45594000000E+02  0.51100000000E-03 0. -1.
         11   -1    0    0    0    0 -0.00000000000E+00 -0.00000000000E+00 -0.45593999997E+02  0.45594000000E+02  0.51100000000E-03 0.  1.
         23    2    1    2    0    0  0.00000000000E+00  0.00000000000E+00 -0.17763568394E-14  0.91188000000E+02  0.91188000000E+02 0.  0.
    9900012    2    3    3    0    0 -0.29015828037E+02  0.17904733851E+02 -0.13902525464E+02  0.54367109391E+02  0.40000057479E+02 0.  0.
         12    1    3    3    0    0  0.29015828037E+02 -0.17904733851E+02  0.13902525464E+02  0.36820890609E+02  0.00000000000E+00 0. -1.
         11    1    4    4    0    0 -0.27585816037E+02  0.73357891549E+01 -0.15309403213E+01  0.28585570267E+02  0.51100000000E-03 0. -1.
        -11    1    4    4    0    0 -0.47079889199E+01  0.70600824814E+01  0.35150585945E+01  0.91850727541E+01  0.51100000000E-03 0.  1.
         12    1    4    4    0    0  0.32779769196E+01  0.35088622143E+01 -0.15886643738E+02  0.16596466370E+02  0.00000000000E+00 0. -1.
</event>
<event>
 8    1  0.1278459E-006  0.9118800E+02  0.7816164E-02  0.1184000E+00
        -11   -1    0    0    0    0  0.00000000000E+00  0.00000000000E+00  0.45593999997E+02  0.45594000000E+02  0.51100000000E-03 0.  1.
         11   -1    0    0    0    0 -0.00000000000E+00 -0.00000000000E+00 -0.45593999997E+02  0.45594000000E+02  0.51100000000E-03 0. -1.
         23    2    1    2    0    0  0.71054273576E-14  0.17763568394E-14  0.22204460493E-15  0.91188000000E+02  0.91188000000E+02 0.  0.
    9900012    2    3    3    0    0  0.34774416831E+02  0.12043552875E+02  0.12141254634E+01  0.54367063939E+02  0.39999953862E+02 0.  0.
         12    1    3    3    0    0 -0.34774416831E+02 -0.12043552875E+02 -0.12141254634E+01  0.36820936061E+02  0.00000000000E+00 0. -1.
         11    1    4    4    0    0  0.11539624720E+02  0.22397455736E+02 -0.47110074482E+01  0.25632061048E+02  0.51100000000E-03 0. -1.
        -11    1    4    4    0    0 -0.10411276620E+00  0.17997360904E+01  0.43813835752E+00  0.18552236913E+01  0.51100000000E-03 0.  1.
        -12    1    4    4    0    0  0.23338904877E+02 -0.12153638951E+02  0.54869945541E+01  0.26879779200E+02  0.00000000000E+00 0.  1.
</event>
<event>
 8    1  0.1278459E-006  0.9118800E+02  0.7816164E-02  0.1184000E+00
        -11   -1    0    0    0    0  0.00000000000E+00  0.00000000000E+00  0.45593999997E+02  0.45594000000E+02  0.51100000000E-03 0.  1.
         11   -1    0    0    0    0 -0.00000000000E+00 -0.00000000000E+00 -0.45593999997E+02  0.45594000000E+02  0.51100000000E-03 0. -1.
         23    2    1    2    0    0  0.00000000000E+00  0.00000000000E+00  0.35527136788E-14  0.91188000000E+02  0.91188000000E+02 0.  0.
    9900012    2    3    3    0    0  0.22254726061E+02 -0.17184742844E+02  0.23773781822E+02  0.54367069529E+02  0.39999966605E+02 0.  0.
         12    1    3    3    0    0 -0.22254726061E+02  0.17184742844E+02 -0.23773781822E+02  0.36820930471E+02  0.00000000000E+00 0. -1.
         11    1    4    4    0    0  0.37066900096E+01  0.47212952246E+00  0.12911010652E+01  0.39534035128E+01  0.51100000000E-03 0. -1.
        -11    1    4    4    0    0  0.97068962339E+01  0.11250317923E+02  0.83443845056E+01  0.17041779276E+02  0.51100000000E-03 0.  1.
         12    1    4    4    0    0  0.88411398170E+01 -0.28907190289E+02  0.14138296252E+02  0.33371886740E+02  0.00000000000E+00 0. -1.
</event>
<event>
 8    1  0.1278459E-006  0.9118800E+02  0.7816164E-02  0.1184000E+00
        -11   -1    0    0    0    0  0.00000000000E+00  0.00000000000E+00  0.45593999997E+02  0.45594000000E+02  0.51100000000E-03 0. -1.
         11   -1    0    0    0    0 -0.00000000000E+00 -0.00000000000E+00 -0.45593999997E+02  0.45594000000E+02  0.51100000000E-03 0.  1.
         23    2    1    2    0    0  0.17763568394E-14  0.00000000000E+00  0.00000000000E+00  0.91188000000E+02  0.91188000000E+02 0.  0.
    9900012    2    3    3    0    0 -0.15853007220E+02  0.22174119331E+02  0.24754202610E+02  0.54367082672E+02  0.39999996567E+02 0.  0.
        -12    1    3    3    0    0  0.15853007220E+02 -0.22174119331E+02 -0.24754202610E+02  0.36820917328E+02  0.00000000000E+00 0.  1.
         11    1    4    4    0    0 -0.10324655289E+02  0.10132484976E+02  0.39613945303E+01  0.14998613452E+02  0.51100000000E-03 0. -1.
        -11    1    4    4    0    0 -0.66042433607E+01  0.69630567422E+01 -0.64970086801E+01  0.11589275716E+02  0.51100000000E-03 0.  1.
         12    1    4    4    0    0  0.10758914288E+01  0.50785776129E+01  0.27289816760E+02  0.27779193504E+02  0.00000000000E+00 0. -1.
</event>
<event>
 8    1  0.1278459E-006  0.9118800E+02  0.7816164E-02  0.1184000E+00
        -11   -1    0    0    0    0  0.00000000000E+00  0.00000000000E+00  0.45593999997E+02  0.45594000000E+02  0.51100000000E-03 0. -1.
         11   -1    0    0    0    0 -0.00000000000E+00 -0.00000000000E+00 -0.45593999997E+02  0.45594000000E+02  0.51100000000E-03 0.  1.
         23    2    1    2    0    0  0.35527136788E-14  0.00000000000E+00  0.35527136788E-14  0.91188000000E+02  0.91188000000E+02 0.  0.
    9900012    2    3    3    0    0 -0.11775280518E+02  0.29572304227E+02 -0.18509489785E+02  0.54367087183E+02  0.40000006851E+02 0.  0.
         12    1    3    3    0    0  0.11775280518E+02 -0.29572304227E+02  0.18509489785E+02  0.36820912817E+02  0.00000000000E+00 0. -1.
         11    1    4    4    0    0  0.10965228177E+01  0.44248318758E+01  0.36965610961E+01  0.58690768965E+01  0.51100000000E-03 0. -1.
        -11    1    4    4    0    0 -0.87900742821E+01  0.14109223608E+02  0.62067685200E+01  0.17744282810E+02  0.51100000000E-03 0.  1.
         12    1    4    4    0    0 -0.40817290537E+01  0.11038248743E+02 -0.28412819401E+02  0.30753727477E+02  0.00000000000E+00 0. -1.
</event>
<event>
 8    1  0.1278459E-006  0.9118800E+02  0.7816164E-02  0.1184000E+00
        -11   -1    0    0    0    0  0.00000000000E+00  0.00000000000E+00  0.45593999997E+02  0.45594000000E+02  0.51100000000E-03 0.  1.
         11   -1    0    0    0    0 -0.00000000000E+00 -0.00000000000E+00 -0.45593999997E+02  0.45594000000E+02  0.51100000000E-03 0. -1.
         23    2    1    2    0    0  0.35527136788E-14  0.88817841970E-15  0.35527136788E-14  0.91188000000E+02  0.91188000000E+02 0.  0.
    9900012    2    3    3    0    0 -0.18304877504E+02 -0.69686601181E+01 -0.31179288728E+02  0.54367098193E+02  0.40000031951E+02 0.  0.
        -12    1    3    3    0    0  0.18304877504E+02  0.69686601181E+01  0.31179288728E+02  0.36820901807E+02  0.00000000000E+00 0.  1.
         11    1    4    4    0    0  0.27110454092E+00 -0.86914187990E+01 -0.33654965047E+02  0.34760191757E+02  0.51100000000E-03 0. -1.
        -11    1    4    4    0    0 -0.17110215925E+02  0.17691023934E+01  0.58133014541E+00  0.17211250892E+02  0.51100000000E-03 0.  1.
        -12    1    4    4    0    0 -0.14657661208E+01 -0.46343712407E-01  0.18943461740E+01  0.23956555445E+01  0.00000000000E+00 0.  1.
</event>
<event>
 8    1  0.1278459E-006  0.9118800E+02  0.7816164E-02  0.1184000E+00
        -11   -1    0    0    0    0  0.00000000000E+00  0.00000000000E+00  0.45593999997E+02  0.45594000000E+02  0.51100000000E-03 0. -1.
         11   -1    0    0    0    0 -0.00000000000E+00 -0.00000000000E+00 -0.45593999997E+02  0.45594000000E+02  0.51100000000E-03 0.  1.
         23    2    1    2    0    0  0.00000000000E+00  0.88817841970E-15  0.00000000000E+00  0.91188000000E+02  0.91188000000E+02 0.  0.
    9900012    2    3    3    0    0  0.35163124606E+02 -0.55275960170E+01 -0.94222292257E+01  0.54367108466E+02  0.40000055370E+02 0.  0.
         12    1    3    3    0    0 -0.35163124606E+02  0.55275960170E+01  0.94222292257E+01  0.36820891534E+02  0.00000000000E+00 0. -1.
         11    1    4    4    0    0  0.16989670045E+01 -0.76001848214E+01  0.10692875994E+02  0.13228261242E+02  0.51100000000E-03 0. -1.
        -11    1    4    4    0    0 -0.55051893143E+00  0.13125843611E+01  0.30844079869E+00  0.14563944474E+01  0.51100000000E-03 0.  1.
        -12    1    4    4    0    0  0.34014676533E+02  0.76000444332E+00 -0.20423546019E+02  0.39682452776E+02  0.00000000000E+00 0.  1.
</event>
<event>
 8    1  0.1278459E-006  0.9118800E+02  0.7816164E-02  0.1184000E+00
        -11   -1    0    0    0    0  0.00000000000E+00  0.00000000000E+00  0.45593999997E+02  0.45594000000E+02  0.51100000000E-03 0. -1.
         11   -1    0    0    0    0 -0.00000000000E+00 -0.00000000000E+00 -0.45593999997E+02  0.45594000000E+02  0.51100000000E-03 0.  1.
         23    2    1    2    0    0 -0.17763568394E-14  0.00000000000E+00  0.35527136788E-14  0.91188000000E+02  0.91188000000E+02 0.  0.
    9900012    2    3    3    0    0 -0.10748714432E+02 -0.20454665419E+02 -0.28667938890E+02  0.54367096703E+02  0.40000028555E+02 0.  0.
         12    1    3    3    0    0  0.10748714432E+02  0.20454665419E+02  0.28667938890E+02  0.36820903297E+02  0.00000000000E+00 0. -1.
         11    1    4    4    0    0 -0.18922340856E+01  0.10429880812E+02 -0.69441921448E+01  0.12672204559E+02  0.51100000000E-03 0. -1.
        -11    1    4    4    0    0 -0.81997250749E+01 -0.61625664214E+01 -0.30351080960E+01  0.10696943377E+02  0.51100000000E-03 0.  1.
         12    1    4    4    0    0 -0.65675527155E+00 -0.24721979810E+02 -0.18688638649E+02  0.30997948767E+02  0.00000000000E+00 0. -1.
</event>
<event>
 8    1  0.1278459E-006  0.9118800E+02  0.7816164E-02  0.1184000E+00
        -11   -1    0    0    0    0  0.00000000000E+00  0.00000000000E+00  0.45593999997E+02  0.45594000000E+02  0.51100000000E-03 0.  1.
         11   -1    0    0    0    0 -0.00000000000E+00 -0.00000000000E+00 -0.45593999997E+02  0.45594000000E+02  0.51100000000E-03 0. -1.
         23    2    1    2    0    0  0.00000000000E+00 -0.71054273576E-14  0.17763568394E-14  0.91188000000E+02  0.91188000000E+02 0.  0.
    9900012    2    3    3    0    0 -0.11104870524E+02 -0.32706300680E+02  0.12757827595E+02  0.54367049191E+02  0.39999920241E+02 0.  0.
         12    1    3    3    0    0  0.11104870524E+02  0.32706300680E+02 -0.12757827595E+02  0.36820950809E+02  0.00000000000E+00 0. -1.
         11    1    4    4    0    0 -0.59332162397E+01  0.75415450294E+00  0.11182894365E+02  0.12681834670E+02  0.51100000000E-03 0. -1.
        -11    1    4    4    0    0 -0.69906289856E+01 -0.16256872007E+01  0.61755734383E+01  0.94683398778E+01  0.51100000000E-03 0.  1.
        -12    1    4    4    0    0  0.18189747017E+01 -0.31834767983E+02 -0.46006402084E+01  0.32216874643E+02  0.00000000000E+00 0.  1.
</event>
<event>
 8    1  0.1278459E-006  0.9118800E+02  0.7816164E-02  0.1184000E+00
        -11   -1    0    0    0    0  0.00000000000E+00  0.00000000000E+00  0.45593999997E+02  0.45594000000E+02  0.51100000000E-03 0.  1.
         11   -1    0    0    0    0 -0.00000000000E+00 -0.00000000000E+00 -0.45593999997E+02  0.45594000000E+02  0.51100000000E-03 0. -1.
         23    2    1    2    0    0  0.88817841970E-15 -0.17763568394E-14  0.00000000000E+00  0.91188000000E+02  0.91188000000E+02 0.  0.
    9900012    2    3    3    0    0 -0.63667530697E+01 -0.12022793297E+02 -0.34215429635E+02  0.54367099300E+02  0.40000034473E+02 0.  0.
        -12    1    3    3    0    0  0.63667530697E+01  0.12022793297E+02  0.34215429635E+02  0.36820900700E+02  0.00000000000E+00 0.  1.
         11    1    4    4    0    0 -0.13480490407E+02 -0.10676707498E+00 -0.35524817451E+02  0.37996679803E+02  0.51100000000E-03 0. -1.
        -11    1    4    4    0    0  0.43176858194E+01 -0.21409867701E+01 -0.26020056453E+01  0.54769214733E+01  0.51100000000E-03 0.  1.
         12    1    4    4    0    0  0.27960515177E+01 -0.97750394520E+01  0.39113934620E+01  0.10893498024E+02  0.00000000000E+00 0. -1.
</event>
<event>
 8    1  0.1278459E-006  0.9118800E+02  0.7816164E-02  0.1184000E+00
        -11   -1    0    0    0    0  0.00000000000E+00  0.00000000000E+00  0.45593999997E+02  0.45594000000E+02  0.51100000000E-03 0.  1.
         11   -1    0    0    0    0 -0.00000000000E+00 -0.00000000000E+00 -0.45593999997E+02  0.45594000000E+02  0.51100000000E-03 0. -1.
         23    2    1    2    0    0  0.00000000000E+00  0.88817841970E-15 -0.44408920985E-15  0.91188000000E+02  0.91188000000E+02 0.  0.
    9900012    2    3    3    0    0 -0.36336921926E+02 -0.45773869471E+01 -0.38020050741E+01  0.54367087343E+02  0.40000007215E+02 0.  0.
         12    1    3    3    0    0  0.36336921926E+02  0.45773869471E+01  0.38020050741E+01  0.36820912657E+02  0.00000000000E+00 0. -1.
         11    1    4    4    0    0 -0.40970121573E+01 -0.77063101585E+01 -0.20047458400E+01  0.89549835857E+01  0.51100000000E-03 0. -1.
        -11    1    4    4    0    0  0.10777870000E+01  0.10136181208E+02 -0.47342228897E+01  0.11239068508E+02  0.51100000000E-03 0.  1.
        -12    1    4    4    0    0 -0.33317696769E+02 -0.70072579963E+01  0.29369636556E+01  0.34173035249E+02  0.00000000000E+00 0.  1.
</event>
<event>
 8    1  0.1278459E-006  0.9118800E+02  0.7816164E-02  0.1184000E+00
        -11   -1    0    0    0    0  0.00000000000E+00  0.00000000000E+00  0.45593999997E+02  0.45594000000E+02  0.51100000000E-03 0.  1.
         11   -1    0    0    0    0 -0.00000000000E+00 -0.00000000000E+00 -0.45593999997E+02  0.45594000000E+02  0.51100000000E-03 0. -1.
         23    2    1    2    0    0  0.00000000000E+00  0.00000000000E+00  0.35527136788E-14  0.91188000000E+02  0.91188000000E+02 0.  0.
    9900012    2    3    3    0    0 -0.10930868021E+02 -0.21593035500E+02 -0.27749518393E+02  0.54367097936E+02  0.40000031364E+02 0.  0.
        -12    1    3    3    0    0  0.10930868021E+02  0.21593035500E+02  0.27749518393E+02  0.36820902064E+02  0.00000000000E+00 0.  1.
         11    1    4    4    0    0 -0.22729150055E+01 -0.22241451089E+02 -0.30122161363E+02  0.37512569822E+02  0.51100000000E-03 0. -1.
        -11    1    4    4    0    0 -0.10256256395E+02 -0.45403139852E+01  0.21510226225E+01  0.11420689336E+02  0.51100000000E-03 0.  1.
        -12    1    4    4    0    0  0.15983033794E+01  0.51887295747E+01  0.22162034737E+00  0.54338387784E+01  0.00000000000E+00 0.  1.
</event>
<event>
 8    1  0.1278459E-006  0.9118800E+02  0.7816164E-02  0.1184000E+00
        -11   -1    0    0    0    0  0.00000000000E+00  0.00000000000E+00  0.45593999997E+02  0.45594000000E+02  0.51100000000E-03 0. -1.
         11   -1    0    0    0    0 -0.00000000000E+00 -0.00000000000E+00 -0.45593999997E+02  0.45594000000E+02  0.51100000000E-03 0.  1.
         23    2    1    2    0    0 -0.35527136788E-14 -0.35527136788E-14 -0.17763568394E-14  0.91188000000E+02  0.91188000000E+02 0.  0.
    9900012    2    3    3    0    0 -0.27258883680E+02  0.19512696293E+02 -0.15231138644E+02  0.54367086914E+02  0.40000006237E+02 0.  0.
        -12    1    3    3    0    0  0.27258883680E+02 -0.19512696293E+02  0.15231138644E+02  0.36820913086E+02  0.00000000000E+00 0.  1.
         11    1    4    4    0    0 -0.32642501637E+01 -0.39912582864E+01  0.61934691252E+01  0.80588170290E+01  0.51100000000E-03 0. -1.
        -11    1    4    4    0    0 -0.23333327492E+02  0.26642571613E+02 -0.23486004817E+02  0.42495449363E+02  0.51100000000E-03 0.  1.
        -12    1    4    4    0    0 -0.66130602428E+00 -0.31386170338E+01  0.20613970476E+01  0.38128205217E+01  0.00000000000E+00 0.  1.
</event>
<event>
 8    1  0.1278459E-006  0.9118800E+02  0.7816164E-02  0.1184000E+00
        -11   -1    0    0    0    0  0.00000000000E+00  0.00000000000E+00  0.45593999997E+02  0.45594000000E+02  0.51100000000E-03 0.  1.
         11   -1    0    0    0    0 -0.00000000000E+00 -0.00000000000E+00 -0.45593999997E+02  0.45594000000E+02  0.51100000000E-03 0. -1.
         23    2    1    2    0    0  0.35527136788E-14  0.35527136788E-14  0.00000000000E+00  0.91188000000E+02  0.91188000000E+02 0.  0.
    9900012    2    3    3    0    0  0.26665337107E+02  0.16845441445E+02  0.18999209847E+02  0.54367094589E+02  0.40000023734E+02 0.  0.
         12    1    3    3    0    0 -0.26665337107E+02 -0.16845441445E+02 -0.18999209847E+02  0.36820905411E+02  0.00000000000E+00 0. -1.
         11    1    4    4    0    0  0.18604368975E+02 -0.70648678757E+01  0.10540154404E+02  0.22519541696E+02  0.51100000000E-03 0. -1.
        -11    1    4    4    0    0 -0.65798203865E+00 -0.23009345882E+01  0.27407552729E+01  0.36385409259E+01  0.51100000000E-03 0.  1.
        -12    1    4    4    0    0  0.87189501708E+01  0.26211243909E+02  0.57183001701E+01  0.28209011967E+02  0.00000000000E+00 0.  1.
</event>
<event>
 8    1  0.1278459E-006  0.9118800E+02  0.7816164E-02  0.1184000E+00
        -11   -1    0    0    0    0  0.00000000000E+00  0.00000000000E+00  0.45593999997E+02  0.45594000000E+02  0.51100000000E-03 0.  1.
         11   -1    0    0    0    0 -0.00000000000E+00 -0.00000000000E+00 -0.45593999997E+02  0.45594000000E+02  0.51100000000E-03 0. -1.
         23    2    1    2    0    0  0.17763568394E-14  0.35527136788E-14  0.00000000000E+00  0.91188000000E+02  0.91188000000E+02 0.  0.
    9900012    2    3    3    0    0  0.14470440971E+02  0.30929387032E+02 -0.13775304704E+02  0.54367086598E+02  0.40000005517E+02 0.  0.
         12    1    3    3    0    0 -0.14470440971E+02 -0.30929387032E+02  0.13775304704E+02  0.36820913402E+02  0.00000000000E+00 0. -1.
         11    1    4    4    0    0  0.15828121290E+02  0.30246900701E+01  0.16362226513E+00  0.16115363666E+02  0.51100000000E-03 0. -1.
        -11    1    4    4    0    0 -0.71656619420E+01  0.52202444687E+01  0.29909143790E+01  0.93564540540E+01  0.51100000000E-03 0.  1.
        -12    1    4    4    0    0  0.58079816229E+01  0.22684452493E+02 -0.16929841348E+02  0.28895268878E+02  0.00000000000E+00 0.  1.
</event>
<event>
 8    1  0.1278459E-006  0.9118800E+02  0.7816164E-02  0.1184000E+00
        -11   -1    0    0    0    0  0.00000000000E+00  0.00000000000E+00  0.45593999997E+02  0.45594000000E+02  0.51100000000E-03 0.  1.
         11   -1    0    0    0    0 -0.00000000000E+00 -0.00000000000E+00 -0.45593999997E+02  0.45594000000E+02  0.51100000000E-03 0. -1.
         23    2    1    2    0    0  0.00000000000E+00  0.00000000000E+00  0.00000000000E+00  0.91188000000E+02  0.91188000000E+02 0.  0.
    9900012    2    3    3    0    0 -0.19435739158E+02  0.10939449628E+02  0.29297791642E+02  0.54367080539E+02  0.39999991706E+02 0.  0.
         12    1    3    3    0    0  0.19435739158E+02 -0.10939449628E+02 -0.29297791642E+02  0.36820919461E+02  0.00000000000E+00 0. -1.
         11    1    4    4    0    0  0.10284885853E+01 -0.41472824394E+01  0.26241464679E+00  0.42809580832E+01  0.51100000000E-03 0. -1.
        -11    1    4    4    0    0 -0.10723005670E+02  0.16199975519E+02  0.33952413874E+02  0.39117623465E+02  0.51100000000E-03 0.  1.
        -12    1    4    4    0    0 -0.97412220734E+01 -0.11132434513E+01 -0.49170368781E+01  0.10968498991E+02  0.00000000000E+00 0.  1.
</event>
<event>
 8    1  0.1278459E-006  0.9118800E+02  0.7816164E-02  0.1184000E+00
        -11   -1    0    0    0    0  0.00000000000E+00  0.00000000000E+00  0.45593999997E+02  0.45594000000E+02  0.51100000000E-03 0.  1.
         11   -1    0    0    0    0 -0.00000000000E+00 -0.00000000000E+00 -0.45593999997E+02  0.45594000000E+02  0.51100000000E-03 0. -1.
         23    2    1    2    0    0  0.35527136788E-14 -0.17763568394E-14  0.00000000000E+00  0.91188000000E+02  0.91188000000E+02 0.  0.
    9900012    2    3    3    0    0 -0.31059465066E+02  0.94507627624E+01  0.17371612256E+02  0.54367079325E+02  0.39999988938E+02 0.  0.
         12    1    3    3    0    0  0.31059465066E+02 -0.94507627624E+01 -0.17371612256E+02  0.36820920675E+02  0.00000000000E+00 0. -1.
         11    1    4    4    0    0  0.74710872267E+01  0.32651751467E+01  0.70829025941E+01  0.10800278816E+02  0.51100000000E-03 0. -1.
        -11    1    4    4    0    0 -0.20714954990E+02  0.11563050776E+02  0.59363626025E+01  0.24455140660E+02  0.51100000000E-03 0.  1.
        -12    1    4    4    0    0 -0.17815597302E+02 -0.53774631599E+01  0.43523470597E+01  0.19111659849E+02  0.00000000000E+00 0.  1.
</event>
<event>
 8    1  0.1278459E-006  0.9118800E+02  0.7816164E-02  0.1184000E+00
        -11   -1    0    0    0    0  0.00000000000E+00  0.00000000000E+00  0.45593999997E+02  0.45594000000E+02  0.51100000000E-03 0. -1.
         11   -1    0    0    0    0 -0.00000000000E+00 -0.00000000000E+00 -0.45593999997E+02  0.45594000000E+02  0.51100000000E-03 0.  1.
         23    2    1    2    0    0  0.00000000000E+00  0.88817841970E-15  0.00000000000E+00  0.91188000000E+02  0.91188000000E+02 0.  0.
    9900012    2    3    3    0    0  0.28295730723E+02  0.76460765519E+01  0.22286047291E+02  0.54367098766E+02  0.40000033257E+02 0.  0.
        -12    1    3    3    0    0 -0.28295730723E+02 -0.76460765519E+01 -0.22286047291E+02  0.36820901234E+02  0.00000000000E+00 0.  1.
         11    1    4    4    0    0  0.95642025963E+01  0.12820085848E+02  0.69711263348E+01  0.17447784246E+02  0.51100000000E-03 0. -1.
        -11    1    4    4    0    0 -0.11584648559E+00 -0.16809259047E+01 -0.71743135253E+01  0.73695120005E+01  0.51100000000E-03 0.  1.
        -12    1    4    4    0    0  0.18847374613E+02 -0.34930833914E+01  0.22489234482E+02  0.29549802520E+02  0.00000000000E+00 0.  1.
</event>
<event>
 8    1  0.1278459E-006  0.9118800E+02  0.7816164E-02  0.1184000E+00
        -11   -1    0    0    0    0  0.00000000000E+00  0.00000000000E+00  0.45593999997E+02  0.45594000000E+02  0.51100000000E-03 0. -1.
         11   -1    0    0    0    0 -0.00000000000E+00 -0.00000000000E+00 -0.45593999997E+02  0.45594000000E+02  0.51100000000E-03 0.  1.
         23    2    1    2    0    0  0.00000000000E+00  0.00000000000E+00 -0.71054273576E-14  0.91188000000E+02  0.91188000000E+02 0.  0.
    9900012    2    3    3    0    0  0.16147328131E+02  0.45572301804E+01 -0.32776101417E+02  0.54367117653E+02  0.40000076314E+02 0.  0.
         12    1    3    3    0    0 -0.16147328131E+02 -0.45572301804E+01  0.32776101417E+02  0.36820882347E+02  0.00000000000E+00 0. -1.
         11    1    4    4    0    0  0.78559330589E+01 -0.33807562605E+01 -0.32682924973E+02  0.33783409866E+02  0.51100000000E-03 0. -1.
        -11    1    4    4    0    0  0.34020024149E+01  0.69412772912E+01 -0.80698351550E+01  0.11174846332E+02  0.51100000000E-03 0.  1.
         12    1    4    4    0    0  0.48893926569E+01  0.99670914963E+00  0.79766587109E+01  0.94088614547E+01  0.00000000000E+00 0. -1.
</event>
<event>
 8    1  0.1278459E-006  0.9118800E+02  0.7816164E-02  0.1184000E+00
        -11   -1    0    0    0    0  0.00000000000E+00  0.00000000000E+00  0.45593999997E+02  0.45594000000E+02  0.51100000000E-03 0. -1.
         11   -1    0    0    0    0 -0.00000000000E+00 -0.00000000000E+00 -0.45593999997E+02  0.45594000000E+02  0.51100000000E-03 0.  1.
         23    2    1    2    0    0  0.15543122345E-14  0.00000000000E+00  0.00000000000E+00  0.91188000000E+02  0.91188000000E+02 0.  0.
    9900012    2    3    3    0    0  0.33624913188E+00 -0.17139597130E+02  0.32586772569E+02  0.54367128205E+02  0.40000100370E+02 0.  0.
        -12    1    3    3    0    0 -0.33624913188E+00  0.17139597130E+02 -0.32586772569E+02  0.36820871795E+02  0.00000000000E+00 0.  1.
         11    1    4    4    0    0  0.71420436521E+01 -0.11552020731E+01  0.12162465845E+02  0.14151637893E+02  0.51100000000E-03 0. -1.
        -11    1    4    4    0    0  0.90804380524E+01 -0.76698269932E+01  0.18759142368E+02  0.22207791965E+02  0.51100000000E-03 0.  1.
        -12    1    4    4    0    0 -0.15886232573E+02 -0.83145680633E+01  0.16651643559E+01  0.18007698347E+02  0.00000000000E+00 0.  1.
</event>
<event>
 8    1  0.1278459E-006  0.9118800E+02  0.7816164E-02  0.1184000E+00
        -11   -1    0    0    0    0  0.00000000000E+00  0.00000000000E+00  0.45593999997E+02  0.45594000000E+02  0.51100000000E-03 0. -1.
         11   -1    0    0    0    0 -0.00000000000E+00 -0.00000000000E+00 -0.45593999997E+02  0.45594000000E+02  0.51100000000E-03 0.  1.
         23    2    1    2    0    0 -0.44408920985E-15 -0.33306690739E-15  0.00000000000E+00  0.91188000000E+02  0.91188000000E+02 0.  0.
    9900012    2    3    3    0    0  0.35764199062E+01  0.96178636857E+00 -0.36634193091E+02  0.54367083175E+02  0.39999997714E+02 0.  0.
         12    1    3    3    0    0 -0.35764199062E+01 -0.96178636857E+00  0.36634193091E+02  0.36820916825E+02  0.00000000000E+00 0. -1.
         11    1    4    4    0    0  0.89608410947E+01  0.16262730177E+02 -0.14704587103E+02  0.23685395248E+02  0.51100000000E-03 0. -1.
        -11    1    4    4    0    0  0.39332745841E+01 -0.76231517645E+01 -0.13357259893E+02  0.15874491610E+02  0.51100000000E-03 0.  1.
         12    1    4    4    0    0 -0.93176957726E+01 -0.76777920438E+01 -0.85723460957E+01  0.14807196317E+02  0.00000000000E+00 0. -1.
</event>
<event>
 8    1  0.1278459E-006  0.9118800E+02  0.7816164E-02  0.1184000E+00
        -11   -1    0    0    0    0  0.00000000000E+00  0.00000000000E+00  0.45593999997E+02  0.45594000000E+02  0.51100000000E-03 0. -1.
         11   -1    0    0    0    0 -0.00000000000E+00 -0.00000000000E+00 -0.45593999997E+02  0.45594000000E+02  0.51100000000E-03 0.  1.
         23    2    1    2    0    0  0.00000000000E+00  0.00000000000E+00  0.44408920985E-15  0.91188000000E+02  0.91188000000E+02 0.  0.
    9900012    2    3    3    0    0  0.36174787825E+02  0.59794918491E+01 -0.33768107789E+01  0.54367184583E+02  0.40000228893E+02 0.  0.
         12    1    3    3    0    0 -0.36174787825E+02 -0.59794918491E+01  0.33768107789E+01  0.36820815417E+02  0.00000000000E+00 0. -1.
         11    1    4    4    0    0  0.17013456768E+02 -0.39016575970E+01  0.46766968949E+01  0.18070753645E+02  0.51100000000E-03 0. -1.
        -11    1    4    4    0    0 -0.38127075490E+01  0.44890663086E+01 -0.11037103849E+02  0.12510240478E+02  0.51100000000E-03 0.  1.
        -12    1    4    4    0    0  0.22974038606E+02  0.53920831374E+01  0.29835961755E+01  0.23786190459E+02  0.00000000000E+00 0.  1.
</event>
<event>
 8    1  0.1278459E-006  0.9118800E+02  0.7816164E-02  0.1184000E+00
        -11   -1    0    0    0    0  0.00000000000E+00  0.00000000000E+00  0.45593999997E+02  0.45594000000E+02  0.51100000000E-03 0.  1.
         11   -1    0    0    0    0 -0.00000000000E+00 -0.00000000000E+00 -0.45593999997E+02  0.45594000000E+02  0.51100000000E-03 0. -1.
         23    2    1    2    0    0  0.00000000000E+00  0.00000000000E+00 -0.35527136788E-14  0.91188000000E+02  0.91188000000E+02 0.  0.
    9900012    2    3    3    0    0 -0.32457974442E+02  0.41790697008E+01  0.16875844360E+02  0.54367097631E+02  0.40000030669E+02 0.  0.
         12    1    3    3    0    0  0.32457974442E+02 -0.41790697008E+01 -0.16875844360E+02  0.36820902369E+02  0.00000000000E+00 0. -1.
         11    1    4    4    0    0 -0.71727044176E+01  0.62867277144E+01 -0.10753469378E+02  0.14373856057E+02  0.51100000000E-03 0. -1.
        -11    1    4    4    0    0 -0.22921478087E+02  0.15191204501E+01  0.17188540837E+02  0.28690552818E+02  0.51100000000E-03 0.  1.
         12    1    4    4    0    0 -0.23637919367E+01 -0.36267784637E+01  0.10440772901E+02  0.11302688756E+02  0.00000000000E+00 0. -1.
</event>
<event>
 8    1  0.1278459E-006  0.9118800E+02  0.7816164E-02  0.1184000E+00
        -11   -1    0    0    0    0  0.00000000000E+00  0.00000000000E+00  0.45593999997E+02  0.45594000000E+02  0.51100000000E-03 0.  1.
         11   -1    0    0    0    0 -0.00000000000E+00 -0.00000000000E+00 -0.45593999997E+02  0.45594000000E+02  0.51100000000E-03 0. -1.
         23    2    1    2    0    0 -0.35527136788E-14  0.00000000000E+00  0.00000000000E+00  0.91188000000E+02  0.91188000000E+02 0.  0.
    9900012    2    3    3    0    0  0.15804064846E+02 -0.14449935530E+02 -0.29953472216E+02  0.54367087460E+02  0.40000007483E+02 0.  0.
        -12    1    3    3    0    0 -0.15804064846E+02  0.14449935530E+02  0.29953472216E+02  0.36820912540E+02  0.00000000000E+00 0.  1.
         11    1    4    4    0    0  0.13121599927E+02 -0.21702547227E+01  0.14101222016E+01  0.13374409709E+02  0.51100000000E-03 0. -1.
        -11    1    4    4    0    0  0.15590846074E+01  0.39036913893E+01  0.14019670320E+01  0.44311469279E+01  0.51100000000E-03 0.  1.
        -12    1    4    4    0    0  0.11233803117E+01 -0.16183372197E+02 -0.32765561450E+02  0.36561530823E+02  0.00000000000E+00 0.  1.
</event>
<event>
 8    1  0.1278459E-006  0.9118800E+02  0.7816164E-02  0.1184000E+00
        -11   -1    0    0    0    0  0.00000000000E+00  0.00000000000E+00  0.45593999997E+02  0.45594000000E+02  0.51100000000E-03 0.  1.
         11   -1    0    0    0    0 -0.00000000000E+00 -0.00000000000E+00 -0.45593999997E+02  0.45594000000E+02  0.51100000000E-03 0. -1.
         23    2    1    2    0    0  0.88817841970E-15 -0.35527136788E-14  0.35527136788E-14  0.91188000000E+02  0.91188000000E+02 0.  0.
    9900012    2    3    3    0    0 -0.66467075044E+01 -0.24358651367E+02  0.26800353767E+02  0.54367060589E+02  0.39999946224E+02 0.  0.
         12    1    3    3    0    0  0.66467075044E+01  0.24358651367E+02 -0.26800353767E+02  0.36820939411E+02  0.00000000000E+00 0. -1.
         11    1    4    4    0    0 -0.93718996332E+01 -0.64069102519E+01  0.10127544446E+02  0.15213420341E+02  0.51100000000E-03 0. -1.
        -11    1    4    4    0    0 -0.56761419748E+01 -0.23835507642E+02  0.81622057786E+01  0.25825793612E+02  0.51100000000E-03 0.  1.
         12    1    4    4    0    0  0.84013341036E+01  0.58837665272E+01  0.85106035429E+01  0.13327846635E+02  0.00000000000E+00 0. -1.
</event>
<event>
 8    1  0.1278459E-006  0.9118800E+02  0.7816164E-02  0.1184000E+00
        -11   -1    0    0    0    0  0.00000000000E+00  0.00000000000E+00  0.45593999997E+02  0.45594000000E+02  0.51100000000E-03 0. -1.
         11   -1    0    0    0    0 -0.00000000000E+00 -0.00000000000E+00 -0.45593999997E+02  0.45594000000E+02  0.51100000000E-03 0.  1.
         23    2    1    2    0    0  0.00000000000E+00  0.35527136788E-14  0.00000000000E+00  0.91188000000E+02  0.91188000000E+02 0.  0.
    9900012    2    3    3    0    0  0.11226312906E+02 -0.31719750423E+02  0.14952961001E+02  0.54367303224E+02  0.40000499357E+02 0.  0.
        -12    1    3    3    0    0 -0.11226312906E+02  0.31719750423E+02 -0.14952961001E+02  0.36820696776E+02  0.00000000000E+00 0.  1.
         11    1    4    4    0    0  0.20062505836E+02 -0.17031744440E+02  0.13737241534E+02  0.29686634439E+02  0.51100000000E-03 0. -1.
        -11    1    4    4    0    0 -0.10911675535E+02 -0.14171231405E+01 -0.10706227322E+01  0.11055276310E+02  0.51100000000E-03 0.  1.
        -12    1    4    4    0    0  0.20754826051E+01 -0.13270882842E+02  0.22863421993E+01  0.13625392475E+02  0.00000000000E+00 0.  1.
</event>
<event>
 8    1  0.1278459E-006  0.9118800E+02  0.7816164E-02  0.1184000E+00
        -11   -1    0    0    0    0  0.00000000000E+00  0.00000000000E+00  0.45593999997E+02  0.45594000000E+02  0.51100000000E-03 0. -1.
         11   -1    0    0    0    0 -0.00000000000E+00 -0.00000000000E+00 -0.45593999997E+02  0.45594000000E+02  0.51100000000E-03 0.  1.
         23    2    1    2    0    0 -0.88817841970E-15  0.00000000000E+00  0.00000000000E+00  0.91188000000E+02  0.91188000000E+02 0.  0.
    9900012    2    3    3    0    0  0.73244469086E+01 -0.31507389717E+02 -0.17590285744E+02  0.54367064625E+02  0.39999955426E+02 0.  0.
         12    1    3    3    0    0 -0.73244469086E+01  0.31507389717E+02  0.17590285744E+02  0.36820935375E+02  0.00000000000E+00 0. -1.
         11    1    4    4    0    0 -0.13541667665E+02 -0.14749441918E+02 -0.16501060443E+02  0.25946248207E+02  0.51100000000E-03 0.  1.
        -11    1    4    4    0    0  0.67505482469E+01 -0.89587352438E+01  0.33267069502E+01  0.11700248638E+02  0.51100000000E-03 0. -1.
        -12    1    4    4    0    0  0.14115566327E+02 -0.77992125557E+01 -0.44159322516E+01  0.16720567780E+02  0.00000000000E+00 0.  1.
</event>
<event>
 8    1  0.1278459E-006  0.9118800E+02  0.7816164E-02  0.1184000E+00
        -11   -1    0    0    0    0  0.00000000000E+00  0.00000000000E+00  0.45593999997E+02  0.45594000000E+02  0.51100000000E-03 0.  1.
         11   -1    0    0    0    0 -0.00000000000E+00 -0.00000000000E+00 -0.45593999997E+02  0.45594000000E+02  0.51100000000E-03 0. -1.
         23    2    1    2    0    0  0.24424906542E-14  0.00000000000E+00  0.00000000000E+00  0.91188000000E+02  0.91188000000E+02 0.  0.
    9900012    2    3    3    0    0 -0.15445140690E+01 -0.11571047700E+02 -0.34921434885E+02  0.54367064610E+02  0.39999955392E+02 0.  0.
        -12    1    3    3    0    0  0.15445140690E+01  0.11571047700E+02  0.34921434885E+02  0.36820935390E+02  0.00000000000E+00 0.  1.
         11    1    4    4    0    0 -0.11423071559E+02 -0.10210289120E+02 -0.23994574433E+02  0.28468863171E+02  0.51100000000E-03 0. -1.
        -11    1    4    4    0    0  0.13527045428E+02 -0.67793680418E+01 -0.11957063759E+02  0.19285024321E+02  0.51100000000E-03 0.  1.
         12    1    4    4    0    0 -0.36484879378E+01  0.54186094622E+01  0.10302033079E+01  0.66131771179E+01  0.00000000000E+00 0. -1.
</event>
<event>
 8    1  0.1278459E-006  0.9118800E+02  0.7816164E-02  0.1184000E+00
        -11   -1    0    0    0    0  0.00000000000E+00  0.00000000000E+00  0.45593999997E+02  0.45594000000E+02  0.51100000000E-03 0.  1.
         11   -1    0    0    0    0 -0.00000000000E+00 -0.00000000000E+00 -0.45593999997E+02  0.45594000000E+02  0.51100000000E-03 0. -1.
         23    2    1    2    0    0  0.44408920985E-15 -0.35527136788E-14 -0.35527136788E-14  0.91188000000E+02  0.91188000000E+02 0.  0.
    9900012    2    3    3    0    0  0.14088778677E+01  0.24415187954E+02  0.27526212834E+02  0.54367099242E+02  0.40000034342E+02 0.  0.
         12    1    3    3    0    0 -0.14088778677E+01 -0.24415187954E+02 -0.27526212834E+02  0.36820900758E+02  0.00000000000E+00 0. -1.
         11    1    4    4    0    0 -0.14057199241E+01  0.77800359999E+01  0.21921086941E+02  0.23303198528E+02  0.51100000000E-03 0. -1.
        -11    1    4    4    0    0 -0.43826983461E+01 -0.55090144987E+01  0.29344005737E+01  0.76267943809E+01  0.51100000000E-03 0.  1.
        -12    1    4    4    0    0  0.71972961379E+01  0.22144166452E+02  0.26707253185E+01  0.23437106334E+02  0.00000000000E+00 0.  1.
</event>
<event>
 8    1  0.1278459E-006  0.9118800E+02  0.7816164E-02  0.1184000E+00
        -11   -1    0    0    0    0  0.00000000000E+00  0.00000000000E+00  0.45593999997E+02  0.45594000000E+02  0.51100000000E-03 0.  1.
         11   -1    0    0    0    0 -0.00000000000E+00 -0.00000000000E+00 -0.45593999997E+02  0.45594000000E+02  0.51100000000E-03 0. -1.
         23    2    1    2    0    0  0.17763568394E-14 -0.35527136788E-14 -0.35527136788E-14  0.91188000000E+02  0.91188000000E+02 0.  0.
    9900012    2    3    3    0    0  0.14789563095E+02 -0.23287641789E+02 -0.24387182077E+02  0.54367080860E+02  0.39999992437E+02 0.  0.
        -12    1    3    3    0    0 -0.14789563095E+02  0.23287641789E+02  0.24387182077E+02  0.36820919140E+02  0.00000000000E+00 0.  1.
         11    1    4    4    0    0 -0.57607670880E+01 -0.49635301868E+01  0.12129197647E+01  0.77002755778E+01  0.51100000000E-03 0.  1.
        -11    1    4    4    0    0 -0.61901285646E+01 -0.26363719717E+01 -0.44533589437E+00  0.67428831474E+01  0.51100000000E-03 0. -1.
         12    1    4    4    0    0  0.26740458748E+02 -0.15687739630E+02 -0.25154765948E+02  0.39923922135E+02  0.00000000000E+00 0. -1.
</event>
<event>
 8    1  0.1278459E-006  0.9118800E+02  0.7816164E-02  0.1184000E+00
        -11   -1    0    0    0    0  0.00000000000E+00  0.00000000000E+00  0.45593999997E+02  0.45594000000E+02  0.51100000000E-03 0. -1.
         11   -1    0    0    0    0 -0.00000000000E+00 -0.00000000000E+00 -0.45593999997E+02  0.45594000000E+02  0.51100000000E-03 0.  1.
         23    2    1    2    0    0 -0.17763568394E-14  0.00000000000E+00  0.00000000000E+00  0.91188000000E+02  0.91188000000E+02 0.  0.
    9900012    2    3    3    0    0  0.12515998173E+02  0.32660722539E+02  0.11506822517E+02  0.54367082419E+02  0.39999995991E+02 0.  0.
         12    1    3    3    0    0 -0.12515998173E+02 -0.32660722539E+02 -0.11506822517E+02  0.36820917581E+02  0.00000000000E+00 0. -1.
         11    1    4    4    0    0  0.38478230926E+01  0.75246454511E+01  0.10974479230E+02  0.13851542382E+02  0.51100000000E-03 0. -1.
        -11    1    4    4    0    0  0.13674099519E+01  0.27486874497E+02  0.91282763546E+01  0.28995232523E+02  0.51100000000E-03 0.  1.
         12    1    4    4    0    0  0.73007651285E+01 -0.23507974088E+01 -0.85959330678E+01  0.11520307514E+02  0.00000000000E+00 0. -1.
</event>
<event>
 8    1  0.1278459E-006  0.9118800E+02  0.7816164E-02  0.1184000E+00
        -11   -1    0    0    0    0  0.00000000000E+00  0.00000000000E+00  0.45593999997E+02  0.45594000000E+02  0.51100000000E-03 0.  1.
         11   -1    0    0    0    0 -0.00000000000E+00 -0.00000000000E+00 -0.45593999997E+02  0.45594000000E+02  0.51100000000E-03 0. -1.
         23    2    1    2    0    0  0.00000000000E+00  0.00000000000E+00  0.00000000000E+00  0.91188000000E+02  0.91188000000E+02 0.  0.
    9900012    2    3    3    0    0 -0.84827535142E+01  0.34785331463E+02 -0.85909809114E+01  0.54367063765E+02  0.39999953466E+02 0.  0.
        -12    1    3    3    0    0  0.84827535142E+01 -0.34785331463E+02  0.85909809114E+01  0.36820936235E+02  0.00000000000E+00 0.  1.
         11    1    4    4    0    0 -0.35012909887E+01  0.26195377068E+01 -0.86242841116E+01  0.96695032490E+01  0.51100000000E-03 0. -1.
        -11    1    4    4    0    0 -0.17221290678E+02  0.24452527745E+02 -0.24901439156E+01  0.30011660779E+02  0.51100000000E-03 0.  1.
        -12    1    4    4    0    0  0.12239828152E+02  0.77132660108E+01  0.25234471157E+01  0.14685899737E+02  0.00000000000E+00 0.  1.
</event>
<event>
 8    1  0.1278459E-006  0.9118800E+02  0.7816164E-02  0.1184000E+00
        -11   -1    0    0    0    0  0.00000000000E+00  0.00000000000E+00  0.45593999997E+02  0.45594000000E+02  0.51100000000E-03 0.  1.
         11   -1    0    0    0    0 -0.00000000000E+00 -0.00000000000E+00 -0.45593999997E+02  0.45594000000E+02  0.51100000000E-03 0. -1.
         23    2    1    2    0    0  0.55511151231E-15  0.35527136788E-14  0.00000000000E+00  0.91188000000E+02  0.91188000000E+02 0.  0.
    9900012    2    3    3    0    0  0.81805187456E+00 -0.14263093242E+02 -0.33936314946E+02  0.54367102267E+02  0.40000041239E+02 0.  0.
        -12    1    3    3    0    0 -0.81805187456E+00  0.14263093242E+02  0.33936314946E+02  0.36820897733E+02  0.00000000000E+00 0.  1.
         11    1    4    4    0    0  0.16400459976E+01 -0.11601280604E+02 -0.18577743646E+02  0.21963879934E+02  0.51100000000E-03 0. -1.
        -11    1    4    4    0    0  0.12650193775E+02 -0.39187568158E+01 -0.20075686185E+01  0.13394565672E+02  0.51100000000E-03 0.  1.
        -12    1    4    4    0    0 -0.13472187898E+02  0.12569441777E+01 -0.13351002682E+02  0.19008656661E+02  0.00000000000E+00 0.  1.
</event>
<event>
 8    1  0.1278459E-006  0.9118800E+02  0.7816164E-02  0.1184000E+00
        -11   -1    0    0    0    0  0.00000000000E+00  0.00000000000E+00  0.45593999997E+02  0.45594000000E+02  0.51100000000E-03 0.  1.
         11   -1    0    0    0    0 -0.00000000000E+00 -0.00000000000E+00 -0.45593999997E+02  0.45594000000E+02  0.51100000000E-03 0. -1.
         23    2    1    2    0    0  0.00000000000E+00  0.00000000000E+00  0.00000000000E+00  0.91188000000E+02  0.91188000000E+02 0.  0.
    9900012    2    3    3    0    0 -0.17487488514E+02  0.31921989020E+02  0.55636599644E+01  0.54367082715E+02  0.39999996665E+02 0.  0.
        -12    1    3    3    0    0  0.17487488514E+02 -0.31921989020E+02 -0.55636599644E+01  0.36820917285E+02  0.00000000000E+00 0.  1.
         11    1    4    4    0    0  0.59932674749E+01  0.16866504974E+01 -0.82714684382E+01  0.10352837066E+02  0.51100000000E-03 0. -1.
        -11    1    4    4    0    0 -0.15036712033E+02  0.66460221799E+01  0.29760815245E+01  0.16707165561E+02  0.51100000000E-03 0.  1.
        -12    1    4    4    0    0 -0.84440439562E+01  0.23589316343E+02  0.10859046878E+02  0.27307080088E+02  0.00000000000E+00 0.  1.
</event>
<event>
 8    1  0.1278459E-006  0.9118800E+02  0.7816164E-02  0.1184000E+00
        -11   -1    0    0    0    0  0.00000000000E+00  0.00000000000E+00  0.45593999997E+02  0.45594000000E+02  0.51100000000E-03 0.  1.
         11   -1    0    0    0    0 -0.00000000000E+00 -0.00000000000E+00 -0.45593999997E+02  0.45594000000E+02  0.51100000000E-03 0. -1.
         23    2    1    2    0    0  0.00000000000E+00  0.00000000000E+00  0.00000000000E+00  0.91188000000E+02  0.91188000000E+02 0.  0.
    9900012    2    3    3    0    0 -0.14850471239E+02  0.33390890203E+02  0.45050036244E+01  0.54367039906E+02  0.39999899074E+02 0.  0.
         12    1    3    3    0    0  0.14850471239E+02 -0.33390890203E+02 -0.45050036244E+01  0.36820960094E+02  0.00000000000E+00 0. -1.
         11    1    4    4    0    0 -0.97449228061E+01  0.90897194808E+01 -0.67769801544E+01  0.14950383975E+02  0.51100000000E-03 0. -1.
        -11    1    4    4    0    0  0.32283961307E+01  0.12550817892E+02  0.19057572804E+02  0.23046402166E+02  0.51100000000E-03 0.  1.
        -12    1    4    4    0    0 -0.83339445637E+01  0.11750352830E+02 -0.77755890256E+01  0.16370253765E+02  0.00000000000E+00 0.  1.
</event>
<event>
 8    1  0.1278459E-006  0.9118800E+02  0.7816164E-02  0.1184000E+00
        -11   -1    0    0    0    0  0.00000000000E+00  0.00000000000E+00  0.45593999997E+02  0.45594000000E+02  0.51100000000E-03 0.  1.
         11   -1    0    0    0    0 -0.00000000000E+00 -0.00000000000E+00 -0.45593999997E+02  0.45594000000E+02  0.51100000000E-03 0. -1.
         23    2    1    2    0    0  0.00000000000E+00 -0.35527136788E-14 -0.35527136788E-14  0.91188000000E+02  0.91188000000E+02 0.  0.
    9900012    2    3    3    0    0  0.23985953366E+02  0.22868050922E+02  0.16047053785E+02  0.54367059667E+02  0.39999944122E+02 0.  0.
         12    1    3    3    0    0 -0.23985953366E+02 -0.22868050922E+02 -0.16047053785E+02  0.36820940333E+02  0.00000000000E+00 0. -1.
         11    1    4    4    0    0  0.12308102316E+02 -0.65737167721E+01  0.97841963826E+01  0.17042113541E+02  0.51100000000E-03 0. -1.
        -11    1    4    4    0    0  0.10696882082E+02  0.20242723520E+02  0.12579017080E+02  0.26123223629E+02  0.51100000000E-03 0.  1.
         12    1    4    4    0    0  0.98096896745E+00  0.91990441734E+01 -0.63161596775E+01  0.11201722497E+02  0.00000000000E+00 0. -1.
</event>
<event>
 8    1  0.1278459E-006  0.9118800E+02  0.7816164E-02  0.1184000E+00
        -11   -1    0    0    0    0  0.00000000000E+00  0.00000000000E+00  0.45593999997E+02  0.45594000000E+02  0.51100000000E-03 0.  1.
         11   -1    0    0    0    0 -0.00000000000E+00 -0.00000000000E+00 -0.45593999997E+02  0.45594000000E+02  0.51100000000E-03 0. -1.
         23    2    1    2    0    0 -0.11102230246E-14  0.00000000000E+00  0.00000000000E+00  0.91188000000E+02  0.91188000000E+02 0.  0.
    9900012    2    3    3    0    0 -0.86564485272E+00 -0.14375635644E+02  0.33887544840E+02  0.54367164371E+02  0.40000182816E+02 0.  0.
         12    1    3    3    0    0  0.86564485272E+00  0.14375635644E+02 -0.33887544840E+02  0.36820835629E+02  0.00000000000E+00 0. -1.
         11    1    4    4    0    0 -0.24587831220E+01  0.34618611025E+01  0.31082697731E+01  0.52622654796E+01  0.51100000000E-03 0. -1.
        -11    1    4    4    0    0  0.28498947344E+01 -0.87606365559E+01  0.36934484191E+02  0.38066084322E+02  0.51100000000E-03 0.  1.
        -12    1    4    4    0    0 -0.12567564651E+01 -0.90768601902E+01 -0.61552091247E+01  0.11038814569E+02  0.00000000000E+00 0.  1.
</event>
<event>
 8    1  0.1278459E-006  0.9118800E+02  0.7816164E-02  0.1184000E+00
        -11   -1    0    0    0    0  0.00000000000E+00  0.00000000000E+00  0.45593999997E+02  0.45594000000E+02  0.51100000000E-03 0. -1.
         11   -1    0    0    0    0 -0.00000000000E+00 -0.00000000000E+00 -0.45593999997E+02  0.45594000000E+02  0.51100000000E-03 0.  1.
         23    2    1    2    0    0  0.88817841970E-15 -0.88817841970E-15  0.00000000000E+00  0.91188000000E+02  0.91188000000E+02 0.  0.
    9900012    2    3    3    0    0 -0.78346991843E+01  0.41274109157E+01 -0.35740200833E+02  0.54367082199E+02  0.39999995488E+02 0.  0.
         12    1    3    3    0    0  0.78346991843E+01 -0.41274109157E+01  0.35740200833E+02  0.36820917801E+02  0.00000000000E+00 0. -1.
         11    1    4    4    0    0 -0.17183469594E+02 -0.45154545621E+01 -0.87151612675E+01  0.19789264599E+02  0.51100000000E-03 0. -1.
        -11    1    4    4    0    0  0.13796459225E+01  0.20712016774E+01 -0.23547843111E+02  0.23678982552E+02  0.51100000000E-03 0.  1.
         12    1    4    4    0    0  0.79691244875E+01  0.65716638004E+01 -0.34771964538E+01  0.10898835047E+02  0.00000000000E+00 0. -1.
</event>
<event>
 8    1  0.1278459E-006  0.9118800E+02  0.7816164E-02  0.1184000E+00
        -11   -1    0    0    0    0  0.00000000000E+00  0.00000000000E+00  0.45593999997E+02  0.45594000000E+02  0.51100000000E-03 0.  1.
         11   -1    0    0    0    0 -0.00000000000E+00 -0.00000000000E+00 -0.45593999997E+02  0.45594000000E+02  0.51100000000E-03 0. -1.
         23    2    1    2    0    0  0.00000000000E+00  0.00000000000E+00  0.00000000000E+00  0.91188000000E+02  0.91188000000E+02 0.  0.
    9900012    2    3    3    0    0 -0.17735830928E+02  0.28717880729E+02 -0.14714078530E+02  0.54367075524E+02  0.39999980273E+02 0.  0.
        -12    1    3    3    0    0  0.17735830928E+02 -0.28717880729E+02  0.14714078530E+02  0.36820924476E+02  0.00000000000E+00 0.  1.
         11    1    4    4    0    0  0.35426523667E+01  0.30162617908E+01 -0.91613611323E+01  0.10275152507E+02  0.51100000000E-03 0. -1.
        -11    1    4    4    0    0 -0.19312711209E+02  0.14038124517E+01 -0.24814591302E+01  0.19522016887E+02  0.51100000000E-03 0.  1.
        -12    1    4    4    0    0 -0.19657720855E+01  0.24297806486E+02 -0.30712582679E+01  0.24569906131E+02  0.00000000000E+00 0.  1.
</event>
<event>
 8    1  0.1278459E-006  0.9118800E+02  0.7816164E-02  0.1184000E+00
        -11   -1    0    0    0    0  0.00000000000E+00  0.00000000000E+00  0.45593999997E+02  0.45594000000E+02  0.51100000000E-03 0.  1.
         11   -1    0    0    0    0 -0.00000000000E+00 -0.00000000000E+00 -0.45593999997E+02  0.45594000000E+02  0.51100000000E-03 0. -1.
         23    2    1    2    0    0  0.00000000000E+00  0.00000000000E+00 -0.88817841970E-15  0.91188000000E+02  0.91188000000E+02 0.  0.
    9900012    2    3    3    0    0  0.22220028291E+02  0.28944290498E+02  0.49272496079E+01  0.54367090201E+02  0.40000013732E+02 0.  0.
         12    1    3    3    0    0 -0.22220028291E+02 -0.28944290498E+02 -0.49272496079E+01  0.36820909799E+02  0.00000000000E+00 0. -1.
         11    1    4    4    0    0  0.16996870340E+02  0.45946868198E+01 -0.10058290649E+02  0.20277424870E+02  0.51100000000E-03 0. -1.
        -11    1    4    4    0    0  0.11326215829E+01  0.58382254357E+01  0.13878970298E+02  0.15099454450E+02  0.51100000000E-03 0.  1.
         12    1    4    4    0    0  0.40905363684E+01  0.18511378243E+02  0.11065699588E+01  0.18990210881E+02  0.00000000000E+00 0. -1.
</event>
<event>
 8    1  0.1278459E-006  0.9118800E+02  0.7816164E-02  0.1184000E+00
        -11   -1    0    0    0    0  0.00000000000E+00  0.00000000000E+00  0.45593999997E+02  0.45594000000E+02  0.51100000000E-03 0. -1.
         11   -1    0    0    0    0 -0.00000000000E+00 -0.00000000000E+00 -0.45593999997E+02  0.45594000000E+02  0.51100000000E-03 0.  1.
         23    2    1    2    0    0  0.13322676296E-14 -0.17763568394E-14  0.00000000000E+00  0.91188000000E+02  0.91188000000E+02 0.  0.
    9900012    2    3    3    0    0  0.26855125834E+01 -0.41053771085E+01 -0.36492661575E+02  0.54367075950E+02  0.39999981244E+02 0.  0.
         12    1    3    3    0    0 -0.26855125834E+01  0.41053771085E+01  0.36492661575E+02  0.36820924050E+02  0.00000000000E+00 0. -1.
         11    1    4    4    0    0 -0.15368413718E+02 -0.24406379870E+01 -0.12710783129E+02  0.20092507609E+02  0.51100000000E-03 0. -1.
        -11    1    4    4    0    0 -0.75711522901E+00  0.47451662916E+01 -0.48438535013E+01  0.68229571015E+01  0.51100000000E-03 0.  1.
        -12    1    4    4    0    0  0.18811041530E+02 -0.64099054131E+01 -0.18938024945E+02  0.27451611240E+02  0.00000000000E+00 0.  1.
</event>
<event>
 8    1  0.1278459E-006  0.9118800E+02  0.7816164E-02  0.1184000E+00
        -11   -1    0    0    0    0  0.00000000000E+00  0.00000000000E+00  0.45593999997E+02  0.45594000000E+02  0.51100000000E-03 0.  1.
         11   -1    0    0    0    0 -0.00000000000E+00 -0.00000000000E+00 -0.45593999997E+02  0.45594000000E+02  0.51100000000E-03 0. -1.
         23    2    1    2    0    0  0.35527136788E-14 -0.44408920985E-15 -0.71054273576E-14  0.91188000000E+02  0.91188000000E+02 0.  0.
    9900012    2    3    3    0    0 -0.18634607863E+02  0.25741744823E+01  0.31652851794E+02  0.54367109039E+02  0.40000056675E+02 0.  0.
         12    1    3    3    0    0  0.18634607863E+02 -0.25741744823E+01 -0.31652851794E+02  0.36820890961E+02  0.00000000000E+00 0. -1.
         11    1    4    4    0    0  0.56183044042E+01 -0.25938178987E+00  0.16345689339E+02  0.17286242609E+02  0.51100000000E-03 0. -1.
        -11    1    4    4    0    0  0.10228918383E+01 -0.43372667470E+01 -0.27171006668E+01  0.52192745513E+01  0.51100000000E-03 0.  1.
         12    1    4    4    0    0 -0.25275804105E+02  0.71708230192E+01  0.18024263122E+02  0.31861591878E+02  0.00000000000E+00 0. -1.
</event>
<event>
 8    1  0.1278459E-006  0.9118800E+02  0.7816164E-02  0.1184000E+00
        -11   -1    0    0    0    0  0.00000000000E+00  0.00000000000E+00  0.45593999997E+02  0.45594000000E+02  0.51100000000E-03 0. -1.
         11   -1    0    0    0    0 -0.00000000000E+00 -0.00000000000E+00 -0.45593999997E+02  0.45594000000E+02  0.51100000000E-03 0.  1.
         23    2    1    2    0    0  0.00000000000E+00 -0.71054273576E-14  0.17763568394E-14  0.91188000000E+02  0.91188000000E+02 0.  0.
    9900012    2    3    3    0    0 -0.15215360929E+02 -0.30842678316E+02 -0.13152915995E+02  0.54367119876E+02  0.40000081382E+02 0.  0.
         12    1    3    3    0    0  0.15215360929E+02  0.30842678316E+02  0.13152915995E+02  0.36820880124E+02  0.00000000000E+00 0. -1.
         11    1    4    4    0    0 -0.14463552602E+02 -0.40868015205E+01  0.99122239379E+01  0.18004124089E+02  0.51100000000E-03 0. -1.
        -11    1    4    4    0    0 -0.21652224220E+01 -0.14435446052E+02 -0.73466559987E+01  0.16341470114E+02  0.51100000000E-03 0.  1.
         12    1    4    4    0    0  0.14134140954E+01 -0.12320430744E+02 -0.15718483934E+02  0.20021525674E+02  0.00000000000E+00 0. -1.
</event>
<event>
 8    1  0.1278459E-006  0.9118800E+02  0.7816164E-02  0.1184000E+00
        -11   -1    0    0    0    0  0.00000000000E+00  0.00000000000E+00  0.45593999997E+02  0.45594000000E+02  0.51100000000E-03 0.  1.
         11   -1    0    0    0    0 -0.00000000000E+00 -0.00000000000E+00 -0.45593999997E+02  0.45594000000E+02  0.51100000000E-03 0. -1.
         23    2    1    2    0    0  0.35527136788E-14  0.00000000000E+00  0.00000000000E+00  0.91188000000E+02  0.91188000000E+02 0.  0.
    9900012    2    3    3    0    0  0.89591309183E+01  0.25649142425E+02 -0.24852285125E+02  0.54367073750E+02  0.39999976228E+02 0.  0.
        -12    1    3    3    0    0 -0.89591309183E+01 -0.25649142425E+02  0.24852285125E+02  0.36820926250E+02  0.00000000000E+00 0.  1.
         11    1    4    4    0    0 -0.99444785369E+01  0.44336988547E+01 -0.15156048642E+02  0.18661622374E+02  0.51100000000E-03 0. -1.
        -11    1    4    4    0    0  0.20909092330E+02  0.21702509370E+02 -0.12155203504E+02  0.32495200068E+02  0.51100000000E-03 0.  1.
         12    1    4    4    0    0 -0.20054828745E+01 -0.48706579960E+00  0.24589670209E+01  0.32102513084E+01  0.00000000000E+00 0. -1.
</event>
<event>
 8    1  0.1278459E-006  0.9118800E+02  0.7816164E-02  0.1184000E+00
        -11   -1    0    0    0    0  0.00000000000E+00  0.00000000000E+00  0.45593999997E+02  0.45594000000E+02  0.51100000000E-03 0. -1.
         11   -1    0    0    0    0 -0.00000000000E+00 -0.00000000000E+00 -0.45593999997E+02  0.45594000000E+02  0.51100000000E-03 0.  1.
         23    2    1    2    0    0 -0.17763568394E-14  0.00000000000E+00  0.00000000000E+00  0.91188000000E+02  0.91188000000E+02 0.  0.
    9900012    2    3    3    0    0  0.14093557466E+02 -0.18627664501E+02 -0.28463317103E+02  0.54367100129E+02  0.40000036364E+02 0.  0.
         12    1    3    3    0    0 -0.14093557466E+02  0.18627664501E+02  0.28463317103E+02  0.36820899871E+02  0.00000000000E+00 0. -1.
         11    1    4    4    0    0  0.58909770241E+01 -0.27430999920E+02 -0.21469172264E+02  0.35328299207E+02  0.51100000000E-03 0. -1.
        -11    1    4    4    0    0 -0.34474155352E+01  0.10373368066E+01 -0.61247471384E+00  0.36518306449E+01  0.51100000000E-03 0.  1.
         12    1    4    4    0    0  0.11649995977E+02  0.77659986124E+01 -0.63816701251E+01  0.15386970277E+02  0.00000000000E+00 0. -1.
</event>
<event>
 8    1  0.1278459E-006  0.9118800E+02  0.7816164E-02  0.1184000E+00
        -11   -1    0    0    0    0  0.00000000000E+00  0.00000000000E+00  0.45593999997E+02  0.45594000000E+02  0.51100000000E-03 0.  1.
         11   -1    0    0    0    0 -0.00000000000E+00 -0.00000000000E+00 -0.45593999997E+02  0.45594000000E+02  0.51100000000E-03 0. -1.
         23    2    1    2    0    0 -0.53290705182E-14  0.00000000000E+00  0.00000000000E+00  0.91188000000E+02  0.91188000000E+02 0.  0.
    9900012    2    3    3    0    0  0.15179070643E+02  0.50754408429E+01 -0.33160458934E+02  0.54367077659E+02  0.39999985139E+02 0.  0.
        -12    1    3    3    0    0 -0.15179070643E+02 -0.50754408429E+01  0.33160458934E+02  0.36820922341E+02  0.00000000000E+00 0.  1.
         11    1    4    4    0    0 -0.43569388582E+01  0.29225846607E+00 -0.95551077701E+01  0.10505637343E+02  0.51100000000E-03 0. -1.
        -11    1    4    4    0    0 -0.39176508482E+01  0.60836741380E+01  0.34631059153E+01  0.80219811784E+01  0.51100000000E-03 0.  1.
        -12    1    4    4    0    0  0.23453660349E+02 -0.13004917611E+01 -0.27068457079E+02  0.35839459137E+02  0.00000000000E+00 0.  1.
</event>
<event>
 8    1  0.1278459E-006  0.9118800E+02  0.7816164E-02  0.1184000E+00
        -11   -1    0    0    0    0  0.00000000000E+00  0.00000000000E+00  0.45593999997E+02  0.45594000000E+02  0.51100000000E-03 0. -1.
         11   -1    0    0    0    0 -0.00000000000E+00 -0.00000000000E+00 -0.45593999997E+02  0.45594000000E+02  0.51100000000E-03 0.  1.
         23    2    1    2    0    0  0.00000000000E+00  0.71054273576E-14 -0.88817841970E-15  0.91188000000E+02  0.91188000000E+02 0.  0.
    9900012    2    3    3    0    0  0.14752043570E+02  0.33098362401E+02  0.65312774775E+01  0.54367055300E+02  0.39999934166E+02 0.  0.
         12    1    3    3    0    0 -0.14752043570E+02 -0.33098362401E+02 -0.65312774775E+01  0.36820944700E+02  0.00000000000E+00 0. -1.
         11    1    4    4    0    0  0.16966839670E+02  0.20226141359E+02  0.91165497261E+01  0.27929946685E+02  0.51100000000E-03 0. -1.
        -11    1    4    4    0    0 -0.11103786566E+02  0.98418512287E+00 -0.31457947306E+01  0.11582690586E+02  0.51100000000E-03 0.  1.
        -12    1    4    4    0    0  0.88889904657E+01  0.11888035920E+02  0.56052248199E+00  0.14854418029E+02  0.00000000000E+00 0.  1.
</event>
<event>
 8    1  0.1278459E-006  0.9118800E+02  0.7816164E-02  0.1184000E+00
        -11   -1    0    0    0    0  0.00000000000E+00  0.00000000000E+00  0.45593999997E+02  0.45594000000E+02  0.51100000000E-03 0.  1.
         11   -1    0    0    0    0 -0.00000000000E+00 -0.00000000000E+00 -0.45593999997E+02  0.45594000000E+02  0.51100000000E-03 0. -1.
         23    2    1    2    0    0  0.13322676296E-14 -0.11102230246E-15  0.00000000000E+00  0.91188000000E+02  0.91188000000E+02 0.  0.
    9900012    2    3    3    0    0 -0.17059044992E+01 -0.57197799165E+00  0.36776964023E+02  0.54367050097E+02  0.39999922307E+02 0.  0.
         12    1    3    3    0    0  0.17059044992E+01  0.57197799165E+00 -0.36776964023E+02  0.36820949903E+02  0.00000000000E+00 0. -1.
         11    1    4    4    0    0  0.10761922693E+01  0.50046973766E+01 -0.49245572920E+01  0.71032704028E+01  0.51100000000E-03 0. -1.
        -11    1    4    4    0    0 -0.11769530387E+02 -0.15094276391E+01  0.17651077979E+02  0.21268774563E+02  0.51100000000E-03 0.  1.
        -12    1    4    4    0    0  0.89874336184E+01 -0.40672477291E+01  0.24050443336E+02  0.25995005132E+02  0.00000000000E+00 0.  1.
</event>
<event>
 8    1  0.1278459E-006  0.9118800E+02  0.7816164E-02  0.1184000E+00
        -11   -1    0    0    0    0  0.00000000000E+00  0.00000000000E+00  0.45593999997E+02  0.45594000000E+02  0.51100000000E-03 0. -1.
         11   -1    0    0    0    0 -0.00000000000E+00 -0.00000000000E+00 -0.45593999997E+02  0.45594000000E+02  0.51100000000E-03 0.  1.
         23    2    1    2    0    0  0.00000000000E+00  0.17763568394E-14  0.71054273576E-14  0.91188000000E+02  0.91188000000E+02 0.  0.
    9900012    2    3    3    0    0 -0.11271809576E+02  0.83593208949E+01 -0.34041861880E+02  0.54367077997E+02  0.39999985909E+02 0.  0.
         12    1    3    3    0    0  0.11271809576E+02 -0.83593208949E+01  0.34041861880E+02  0.36820922003E+02  0.00000000000E+00 0. -1.
         11    1    4    4    0    0  0.11629373983E+02  0.20474828305E+01 -0.16443681039E+02  0.20244237984E+02  0.51100000000E-03 0. -1.
        -11    1    4    4    0    0 -0.67865414295E+01  0.10109870214E+02 -0.43904769303E+01  0.12943836690E+02  0.51100000000E-03 0.  1.
         12    1    4    4    0    0 -0.16114642129E+02 -0.37980321494E+01 -0.13207703910E+02  0.21179003323E+02  0.00000000000E+00 0. -1.
</event>
<event>
 8    1  0.1278459E-006  0.9118800E+02  0.7816164E-02  0.1184000E+00
        -11   -1    0    0    0    0  0.00000000000E+00  0.00000000000E+00  0.45593999997E+02  0.45594000000E+02  0.51100000000E-03 0.  1.
         11   -1    0    0    0    0 -0.00000000000E+00 -0.00000000000E+00 -0.45593999997E+02  0.45594000000E+02  0.51100000000E-03 0. -1.
         23    2    1    2    0    0  0.17763568394E-14  0.00000000000E+00  0.00000000000E+00  0.91188000000E+02  0.91188000000E+02 0.  0.
    9900012    2    3    3    0    0  0.12770657894E+02 -0.30681069429E+02 -0.15854471948E+02  0.54367054805E+02  0.39999933038E+02 0.  0.
        -12    1    3    3    0    0 -0.12770657894E+02  0.30681069429E+02  0.15854471948E+02  0.36820945195E+02  0.00000000000E+00 0.  1.
         11    1    4    4    0    0  0.17176984492E+02 -0.90993614488E+01 -0.21886438433E+02  0.29272228520E+02  0.51100000000E-03 0. -1.
        -11    1    4    4    0    0  0.37628814967E+00 -0.13377827341E+02  0.77195243518E+01  0.15449883935E+02  0.51100000000E-03 0.  1.
         12    1    4    4    0    0 -0.47826147476E+01 -0.82038806392E+01 -0.16875578667E+01  0.96449423492E+01  0.00000000000E+00 0. -1.
</event>
<event>
 8    1  0.1278459E-006  0.9118800E+02  0.7816164E-02  0.1184000E+00
        -11   -1    0    0    0    0  0.00000000000E+00  0.00000000000E+00  0.45593999997E+02  0.45594000000E+02  0.51100000000E-03 0.  1.
         11   -1    0    0    0    0 -0.00000000000E+00 -0.00000000000E+00 -0.45593999997E+02  0.45594000000E+02  0.51100000000E-03 0. -1.
         23    2    1    2    0    0  0.00000000000E+00  0.00000000000E+00 -0.35527136788E-14  0.91188000000E+02  0.91188000000E+02 0.  0.
    9900012    2    3    3    0    0  0.28464531311E+02  0.10008049464E+02  0.21104255737E+02  0.54367079220E+02  0.39999988699E+02 0.  0.
         12    1    3    3    0    0 -0.28464531311E+02 -0.10008049464E+02 -0.21104255737E+02  0.36820920780E+02  0.00000000000E+00 0. -1.
         11    1    4    4    0    0  0.18927453855E+02 -0.11519830305E+01 -0.69850645323E+01  0.20208085043E+02  0.51100000000E-03 0. -1.
        -11    1    4    4    0    0  0.80618870880E+01  0.10448459095E+01  0.18213892897E+02  0.19945716861E+02  0.51100000000E-03 0.  1.
         12    1    4    4    0    0  0.14751903683E+01  0.10115186585E+02  0.98754273729E+01  0.14213277316E+02  0.00000000000E+00 0. -1.
</event>
<event>
 8    1  0.1278459E-006  0.9118800E+02  0.7816164E-02  0.1184000E+00
        -11   -1    0    0    0    0  0.00000000000E+00  0.00000000000E+00  0.45593999997E+02  0.45594000000E+02  0.51100000000E-03 0. -1.
         11   -1    0    0    0    0 -0.00000000000E+00 -0.00000000000E+00 -0.45593999997E+02  0.45594000000E+02  0.51100000000E-03 0.  1.
         23    2    1    2    0    0 -0.71054273576E-14  0.00000000000E+00  0.00000000000E+00  0.91188000000E+02  0.91188000000E+02 0.  0.
    9900012    2    3    3    0    0 -0.35397735417E+02  0.21914159963E+01 -0.98983993742E+01  0.54367078137E+02  0.39999986228E+02 0.  0.
         12    1    3    3    0    0  0.35397735417E+02 -0.21914159963E+01  0.98983993742E+01  0.36820921863E+02  0.00000000000E+00 0. -1.
         11    1    4    4    0    0 -0.21583585839E+02 -0.43653660260E+00 -0.17975860413E+02  0.28092228457E+02  0.51100000000E-03 0. -1.
        -11    1    4    4    0    0  0.50473843837E+01  0.47198776844E+00  0.48544141681E+01  0.70188459697E+01  0.51100000000E-03 0.  1.
        -12    1    4    4    0    0 -0.18861533962E+02  0.21559648305E+01  0.32230468705E+01  0.19256003710E+02  0.00000000000E+00 0.  1.
</event>
<event>
 8    1  0.1278459E-006  0.9118800E+02  0.7816164E-02  0.1184000E+00
        -11   -1    0    0    0    0  0.00000000000E+00  0.00000000000E+00  0.45593999997E+02  0.45594000000E+02  0.51100000000E-03 0.  1.
         11   -1    0    0    0    0 -0.00000000000E+00 -0.00000000000E+00 -0.45593999997E+02  0.45594000000E+02  0.51100000000E-03 0. -1.
         23    2    1    2    0    0  0.00000000000E+00  0.00000000000E+00  0.00000000000E+00  0.91188000000E+02  0.91188000000E+02 0.  0.
    9900012    2    3    3    0    0  0.32090094107E+02 -0.10588280065E+02 -0.14625171309E+02  0.54367062337E+02  0.39999950210E+02 0.  0.
        -12    1    3    3    0    0 -0.32090094107E+02  0.10588280065E+02  0.14625171309E+02  0.36820937663E+02  0.00000000000E+00 0.  1.
         11    1    4    4    0    0  0.15108505450E+02 -0.58148622144E+01 -0.20953655884E+01  0.16323912420E+02  0.51100000000E-03 0.  1.
        -11    1    4    4    0    0  0.14068868494E+02  0.96298865132E+01 -0.15510857470E+02  0.23048958212E+02  0.51100000000E-03 0. -1.
        -12    1    4    4    0    0  0.29127201638E+01 -0.14403304364E+02  0.29810517493E+01  0.14994191705E+02  0.00000000000E+00 0.  1.
</event>
<event>
 8    1  0.1278459E-006  0.9118800E+02  0.7816164E-02  0.1184000E+00
        -11   -1    0    0    0    0  0.00000000000E+00  0.00000000000E+00  0.45593999997E+02  0.45594000000E+02  0.51100000000E-03 0. -1.
         11   -1    0    0    0    0 -0.00000000000E+00 -0.00000000000E+00 -0.45593999997E+02  0.45594000000E+02  0.51100000000E-03 0.  1.
         23    2    1    2    0    0  0.00000000000E+00  0.00000000000E+00 -0.49960036108E-15  0.91188000000E+02  0.91188000000E+02 0.  0.
    9900012    2    3    3    0    0  0.12152644388E+02  0.34754254578E+02  0.48216494949E+00  0.54367116524E+02  0.40000073740E+02 0.  0.
         12    1    3    3    0    0 -0.12152644388E+02 -0.34754254578E+02 -0.48216494949E+00  0.36820883476E+02  0.00000000000E+00 0. -1.
         11    1    4    4    0    0 -0.38042322698E+00 -0.86188734606E+01  0.26157829429E+01  0.90150996792E+01  0.51100000000E-03 0. -1.
        -11    1    4    4    0    0  0.61337523872E+01  0.27303185996E+02 -0.19872780856E+01  0.28054164724E+02  0.51100000000E-03 0.  1.
         12    1    4    4    0    0  0.63993152274E+01  0.16069942043E+02 -0.14633990784E+00  0.17297852121E+02  0.00000000000E+00 0. -1.
</event>
<event>
 8    1  0.1278459E-006  0.9118800E+02  0.7816164E-02  0.1184000E+00
        -11   -1    0    0    0    0  0.00000000000E+00  0.00000000000E+00  0.45593999997E+02  0.45594000000E+02  0.51100000000E-03 0.  1.
         11   -1    0    0    0    0 -0.00000000000E+00 -0.00000000000E+00 -0.45593999997E+02  0.45594000000E+02  0.51100000000E-03 0. -1.
         23    2    1    2    0    0  0.35527136788E-14  0.00000000000E+00  0.00000000000E+00  0.91188000000E+02  0.91188000000E+02 0.  0.
    9900012    2    3    3    0    0 -0.14653580207E+02  0.32047898327E+02  0.10676370992E+02  0.54367080706E+02  0.39999992086E+02 0.  0.
        -12    1    3    3    0    0  0.14653580207E+02 -0.32047898327E+02 -0.10676370992E+02  0.36820919294E+02  0.00000000000E+00 0.  1.
         11    1    4    4    0    0 -0.77584172196E+01  0.14911686512E+02 -0.44299305902E+01  0.17383202170E+02  0.51100000000E-03 0. -1.
        -11    1    4    4    0    0  0.81159863340E+01 -0.98789531437E+00  0.99751840976E+01  0.12897653638E+02  0.51100000000E-03 0.  1.
        -12    1    4    4    0    0 -0.15011149322E+02  0.18124107130E+02  0.51311174843E+01  0.24086224898E+02  0.00000000000E+00 0.  1.
</event>
<event>
 8    1  0.1278459E-006  0.9118800E+02  0.7816164E-02  0.1184000E+00
        -11   -1    0    0    0    0  0.00000000000E+00  0.00000000000E+00  0.45593999997E+02  0.45594000000E+02  0.51100000000E-03 0. -1.
         11   -1    0    0    0    0 -0.00000000000E+00 -0.00000000000E+00 -0.45593999997E+02  0.45594000000E+02  0.51100000000E-03 0.  1.
         23    2    1    2    0    0  0.00000000000E+00  0.00000000000E+00  0.35527136788E-14  0.91188000000E+02  0.91188000000E+02 0.  0.
    9900012    2    3    3    0    0 -0.68434443284E+01  0.31990870119E+02 -0.16897691676E+02  0.54367075443E+02  0.39999980088E+02 0.  0.
         12    1    3    3    0    0  0.68434443284E+01 -0.31990870119E+02  0.16897691676E+02  0.36820924557E+02  0.00000000000E+00 0. -1.
         11    1    4    4    0    0  0.14128657527E+01  0.18312583972E+01  0.25762807587E+01  0.34622131305E+01  0.51100000000E-03 0. -1.
        -11    1    4    4    0    0  0.86316103261E+01  0.16906366504E+02 -0.22263041786E+02  0.29257015484E+02  0.51100000000E-03 0.  1.
         12    1    4    4    0    0 -0.16887920407E+02  0.13253245218E+02  0.27890693514E+01  0.21647846829E+02  0.00000000000E+00 0. -1.
</event>
<event>
 8    1  0.1278459E-006  0.9118800E+02  0.7816164E-02  0.1184000E+00
        -11   -1    0    0    0    0  0.00000000000E+00  0.00000000000E+00  0.45593999997E+02  0.45594000000E+02  0.51100000000E-03 0.  1.
         11   -1    0    0    0    0 -0.00000000000E+00 -0.00000000000E+00 -0.45593999997E+02  0.45594000000E+02  0.51100000000E-03 0. -1.
         23    2    1    2    0    0 -0.35527136788E-14  0.00000000000E+00  0.00000000000E+00  0.91188000000E+02  0.91188000000E+02 0.  0.
    9900012    2    3    3    0    0 -0.29815398649E+02  0.19982219045E+02  0.82178420693E+01  0.54367081994E+02  0.39999995021E+02 0.  0.
        -12    1    3    3    0    0  0.29815398649E+02 -0.19982219045E+02 -0.82178420693E+01  0.36820918006E+02  0.00000000000E+00 0.  1.
         11    1    4    4    0    0 -0.33808227277E+02  0.41558700326E+01  0.67894424020E+01  0.34732751341E+02  0.51100000000E-03 0. -1.
        -11    1    4    4    0    0  0.76105462502E+01  0.85546625649E+01  0.11506760168E+01  0.11507680973E+02  0.51100000000E-03 0.  1.
        -12    1    4    4    0    0 -0.36177176221E+01  0.72716864472E+01  0.27772365057E+00  0.81266496791E+01  0.00000000000E+00 0.  1.
</event>
<event>
 8    1  0.1278459E-006  0.9118800E+02  0.7816164E-02  0.1184000E+00
        -11   -1    0    0    0    0  0.00000000000E+00  0.00000000000E+00  0.45593999997E+02  0.45594000000E+02  0.51100000000E-03 0. -1.
         11   -1    0    0    0    0 -0.00000000000E+00 -0.00000000000E+00 -0.45593999997E+02  0.45594000000E+02  0.51100000000E-03 0.  1.
         23    2    1    2    0    0 -0.17763568394E-14  0.00000000000E+00  0.00000000000E+00  0.91188000000E+02  0.91188000000E+02 0.  0.
    9900012    2    3    3    0    0 -0.67003280206E+01 -0.18034694950E+02 -0.31394831968E+02  0.54367080786E+02  0.39999992267E+02 0.  0.
         12    1    3    3    0    0  0.67003280206E+01  0.18034694950E+02  0.31394831968E+02  0.36820919214E+02  0.00000000000E+00 0. -1.
         11    1    4    4    0    0  0.96420680561E+01 -0.10010168063E+02 -0.25460921098E+02  0.29007437744E+02  0.51100000000E-03 0. -1.
        -11    1    4    4    0    0 -0.92366577761E+01  0.35193740113E+01 -0.64354992094E+01  0.11794807783E+02  0.51100000000E-03 0.  1.
         12    1    4    4    0    0 -0.71057383006E+01 -0.11543900898E+02  0.50158833934E+00  0.13564835259E+02  0.00000000000E+00 0. -1.
</event>
<event>
 8    1  0.1278459E-006  0.9118800E+02  0.7816164E-02  0.1184000E+00
        -11   -1    0    0    0    0  0.00000000000E+00  0.00000000000E+00  0.45593999997E+02  0.45594000000E+02  0.51100000000E-03 0.  1.
         11   -1    0    0    0    0 -0.00000000000E+00 -0.00000000000E+00 -0.45593999997E+02  0.45594000000E+02  0.51100000000E-03 0. -1.
         23    2    1    2    0    0 -0.88817841970E-15  0.00000000000E+00  0.17763568394E-14  0.91188000000E+02  0.91188000000E+02 0.  0.
    9900012    2    3    3    0    0  0.12471324870E+01  0.35519046432E+02 -0.96241844239E+01  0.54367042317E+02  0.39999904570E+02 0.  0.
        -12    1    3    3    0    0 -0.12471324870E+01 -0.35519046432E+02  0.96241844239E+01  0.36820957683E+02  0.00000000000E+00 0.  1.
         11    1    4    4    0    0 -0.81399659591E+01  0.12168573825E+02  0.20339643202E+01  0.14780739016E+02  0.51100000000E-03 0. -1.
        -11    1    4    4    0    0 -0.88072997453E+01  0.10991277371E+02  0.11537842882E+01  0.14131805458E+02  0.51100000000E-03 0.  1.
        -12    1    4    4    0    0  0.18194398191E+02  0.12359195236E+02 -0.12811933032E+02  0.25454497844E+02  0.00000000000E+00 0.  1.
</event>
<event>
 8    1  0.1278459E-006  0.9118800E+02  0.7816164E-02  0.1184000E+00
        -11   -1    0    0    0    0  0.00000000000E+00  0.00000000000E+00  0.45593999997E+02  0.45594000000E+02  0.51100000000E-03 0. -1.
         11   -1    0    0    0    0 -0.00000000000E+00 -0.00000000000E+00 -0.45593999997E+02  0.45594000000E+02  0.51100000000E-03 0.  1.
         23    2    1    2    0    0 -0.17763568394E-14  0.00000000000E+00 -0.44408920985E-15  0.91188000000E+02  0.91188000000E+02 0.  0.
    9900012    2    3    3    0    0  0.92321914444E+01  0.35478386370E+02  0.34396528693E+01  0.54367075648E+02  0.39999980554E+02 0.  0.
        -12    1    3    3    0    0 -0.92321914444E+01 -0.35478386370E+02 -0.34396528693E+01  0.36820924352E+02  0.00000000000E+00 0.  1.
         11    1    4    4    0    0 -0.10789806182E+02  0.24673331693E+02  0.39135159848E+01  0.27212291743E+02  0.51100000000E-03 0. -1.
        -11    1    4    4    0    0  0.16084906480E+02  0.13863067668E+02 -0.31976298351E+01  0.21474023807E+02  0.51100000000E-03 0.  1.
        -12    1    4    4    0    0  0.39370911469E+01 -0.30580129908E+01  0.27237667197E+01  0.56807600983E+01  0.00000000000E+00 0.  1.
</event>
<event>
 8    1  0.1278459E-006  0.9118800E+02  0.7816164E-02  0.1184000E+00
        -11   -1    0    0    0    0  0.00000000000E+00  0.00000000000E+00  0.45593999997E+02  0.45594000000E+02  0.51100000000E-03 0. -1.
         11   -1    0    0    0    0 -0.00000000000E+00 -0.00000000000E+00 -0.45593999997E+02  0.45594000000E+02  0.51100000000E-03 0.  1.
         23    2    1    2    0    0  0.00000000000E+00  0.00000000000E+00  0.88817841970E-15  0.91188000000E+02  0.91188000000E+02 0.  0.
    9900012    2    3    3    0    0 -0.32992577836E+02  0.16150220254E+02  0.25375122011E+01  0.54367098671E+02  0.40000033039E+02 0.  0.
        -12    1    3    3    0    0  0.32992577836E+02 -0.16150220254E+02 -0.25375122011E+01  0.36820901329E+02  0.00000000000E+00 0.  1.
         11    1    4    4    0    0  0.10462900053E+01  0.97102449384E+01  0.10026350344E+02  0.13996831107E+02  0.51100000000E-03 0.  1.
        -11    1    4    4    0    0 -0.29467258114E+02  0.11424361202E+02 -0.20136100825E+01  0.31668437843E+02  0.51100000000E-03 0. -1.
        -12    1    4    4    0    0 -0.45716097279E+01 -0.49843858863E+01 -0.54752280608E+01  0.87018297205E+01  0.00000000000E+00 0.  1.
</event>
<event>
 8    1  0.1278459E-006  0.9118800E+02  0.7816164E-02  0.1184000E+00
        -11   -1    0    0    0    0  0.00000000000E+00  0.00000000000E+00  0.45593999997E+02  0.45594000000E+02  0.51100000000E-03 0. -1.
         11   -1    0    0    0    0 -0.00000000000E+00 -0.00000000000E+00 -0.45593999997E+02  0.45594000000E+02  0.51100000000E-03 0.  1.
         23    2    1    2    0    0  0.35527136788E-14  0.17763568394E-14 -0.71054273576E-14  0.91188000000E+02  0.91188000000E+02 0.  0.
    9900012    2    3    3    0    0 -0.20024450522E+02 -0.12801226031E+02  0.28123476392E+02  0.54367082969E+02  0.39999997245E+02 0.  0.
        -12    1    3    3    0    0  0.20024450522E+02  0.12801226031E+02 -0.28123476392E+02  0.36820917031E+02  0.00000000000E+00 0.  1.
         11    1    4    4    0    0 -0.16944234532E+02 -0.64858104408E+01  0.14978906756E+02  0.23527440762E+02  0.51100000000E-03 0. -1.
        -11    1    4    4    0    0 -0.18135187277E+01  0.58150572987E+01  0.16991954957E+02  0.18050769377E+02  0.51100000000E-03 0.  1.
         12    1    4    4    0    0 -0.12666972624E+01 -0.12130472889E+02 -0.38473853211E+01  0.12788872830E+02  0.00000000000E+00 0. -1.
</event>
<event>
 8    1  0.1278459E-006  0.9118800E+02  0.7816164E-02  0.1184000E+00
        -11   -1    0    0    0    0  0.00000000000E+00  0.00000000000E+00  0.45593999997E+02  0.45594000000E+02  0.51100000000E-03 0. -1.
         11   -1    0    0    0    0 -0.00000000000E+00 -0.00000000000E+00 -0.45593999997E+02  0.45594000000E+02  0.51100000000E-03 0.  1.
         23    2    1    2    0    0  0.88817841970E-15  0.00000000000E+00  0.00000000000E+00  0.91188000000E+02  0.91188000000E+02 0.  0.
    9900012    2    3    3    0    0 -0.65350623181E+01 -0.21652391285E+02  0.29055924570E+02  0.54367084198E+02  0.40000000047E+02 0.  0.
        -12    1    3    3    0    0  0.65350623181E+01  0.21652391285E+02 -0.29055924570E+02  0.36820915802E+02  0.00000000000E+00 0.  1.
         11    1    4    4    0    0 -0.11072060873E+02 -0.74668588050E+01  0.30634433066E+01  0.13701430492E+02  0.51100000000E-03 0. -1.
        -11    1    4    4    0    0  0.14274769390E+02 -0.56085849180E+00  0.94659181951E+01  0.17137304657E+02  0.51100000000E-03 0.  1.
         12    1    4    4    0    0 -0.97377708349E+01 -0.13624673988E+02  0.16526563068E+02  0.23528349049E+02  0.00000000000E+00 0. -1.
</event>
<event>
 8    1  0.1278459E-006  0.9118800E+02  0.7816164E-02  0.1184000E+00
        -11   -1    0    0    0    0  0.00000000000E+00  0.00000000000E+00  0.45593999997E+02  0.45594000000E+02  0.51100000000E-03 0. -1.
         11   -1    0    0    0    0 -0.00000000000E+00 -0.00000000000E+00 -0.45593999997E+02  0.45594000000E+02  0.51100000000E-03 0.  1.
         23    2    1    2    0    0  0.00000000000E+00  0.00000000000E+00  0.00000000000E+00  0.91188000000E+02  0.91188000000E+02 0.  0.
    9900012    2    3    3    0    0  0.30567232813E+02  0.12642550893E+02 -0.16173619786E+02  0.54367139175E+02  0.40000125377E+02 0.  0.
        -12    1    3    3    0    0 -0.30567232813E+02 -0.12642550893E+02  0.16173619786E+02  0.36820860825E+02  0.00000000000E+00 0.  1.
         11    1    4    4    0    0  0.33292159559E+02  0.86345925908E+01  0.23179737919E+01  0.34471685193E+02  0.51100000000E-03 0. -1.
        -11    1    4    4    0    0 -0.10420665498E+01 -0.44269606969E+00 -0.10743320487E+02  0.10802815274E+02  0.51100000000E-03 0.  1.
         12    1    4    4    0    0 -0.16828601963E+01  0.44506543715E+01 -0.77482730908E+01  0.90926387074E+01  0.00000000000E+00 0. -1.
</event>
<event>
 8    1  0.1278459E-006  0.9118800E+02  0.7816164E-02  0.1184000E+00
        -11   -1    0    0    0    0  0.00000000000E+00  0.00000000000E+00  0.45593999997E+02  0.45594000000E+02  0.51100000000E-03 0. -1.
         11   -1    0    0    0    0 -0.00000000000E+00 -0.00000000000E+00 -0.45593999997E+02  0.45594000000E+02  0.51100000000E-03 0.  1.
         23    2    1    2    0    0 -0.22204460493E-15  0.00000000000E+00  0.00000000000E+00  0.91188000000E+02  0.91188000000E+02 0.  0.
    9900012    2    3    3    0    0 -0.11757828799E+01  0.30124688874E+02 -0.21140025977E+02  0.54367081442E+02  0.39999993763E+02 0.  0.
         12    1    3    3    0    0  0.11757828799E+01 -0.30124688874E+02  0.21140025977E+02  0.36820918558E+02  0.00000000000E+00 0. -1.
         11    1    4    4    0    0 -0.75501495611E+01 -0.36156729448E+01 -0.42148211830E+01  0.93724365618E+01  0.51100000000E-03 0. -1.
        -11    1    4    4    0    0 -0.24745934929E+01  0.41374764064E+00  0.39552177054E+01  0.46838603121E+01  0.51100000000E-03 0.  1.
        -12    1    4    4    0    0  0.88489601741E+01  0.33326614178E+02 -0.20880422499E+02  0.40310784568E+02  0.00000000000E+00 0.  1.
</event>
<event>
 8    1  0.1278459E-006  0.9118800E+02  0.7816164E-02  0.1184000E+00
        -11   -1    0    0    0    0  0.00000000000E+00  0.00000000000E+00  0.45593999997E+02  0.45594000000E+02  0.51100000000E-03 0. -1.
         11   -1    0    0    0    0 -0.00000000000E+00 -0.00000000000E+00 -0.45593999997E+02  0.45594000000E+02  0.51100000000E-03 0.  1.
         23    2    1    2    0    0  0.00000000000E+00  0.00000000000E+00  0.00000000000E+00  0.91188000000E+02  0.91188000000E+02 0.  0.
    9900012    2    3    3    0    0 -0.35036009928E+02  0.85534898693E+01 -0.74226227702E+01  0.54367088694E+02  0.40000010296E+02 0.  0.
         12    1    3    3    0    0  0.35036009928E+02 -0.85534898693E+01  0.74226227702E+01  0.36820911306E+02  0.00000000000E+00 0. -1.
         11    1    4    4    0    0 -0.26196220400E+02 -0.23394306011E+01 -0.12271747656E+02  0.29022589298E+02  0.51100000000E-03 0. -1.
        -11    1    4    4    0    0 -0.13481546125E+02  0.85949205977E+01 -0.26744877396E+01  0.16210417358E+02  0.51100000000E-03 0.  1.
        -12    1    4    4    0    0  0.46417565975E+01  0.22979998727E+01  0.75236126255E+01  0.91340820373E+01  0.00000000000E+00 0.  1.
</event>
<event>
 8    1  0.1278459E-006  0.9118800E+02  0.7816164E-02  0.1184000E+00
        -11   -1    0    0    0    0  0.00000000000E+00  0.00000000000E+00  0.45593999997E+02  0.45594000000E+02  0.51100000000E-03 0.  1.
         11   -1    0    0    0    0 -0.00000000000E+00 -0.00000000000E+00 -0.45593999997E+02  0.45594000000E+02  0.51100000000E-03 0. -1.
         23    2    1    2    0    0  0.26645352591E-14  0.88817841970E-15  0.00000000000E+00  0.91188000000E+02  0.91188000000E+02 0.  0.
    9900012    2    3    3    0    0  0.39267631273E+01 -0.58190676338E+01  0.36145497960E+02  0.54367108654E+02  0.40000055797E+02 0.  0.
         12    1    3    3    0    0 -0.39267631273E+01  0.58190676338E+01 -0.36145497960E+02  0.36820891346E+02  0.00000000000E+00 0. -1.
         11    1    4    4    0    0  0.37345570844E+01  0.52285115453E+01  0.37622016844E+01  0.74456975073E+01  0.51100000000E-03 0. -1.
        -11    1    4    4    0    0 -0.11096220690E+02 -0.12066519190E+02  0.31552335439E+02  0.35556671257E+02  0.51100000000E-03 0.  1.
        -12    1    4    4    0    0  0.11288426733E+02  0.10189400106E+01  0.83096083671E+00  0.11364739890E+02  0.00000000000E+00 0.  1.
</event>
<event>
 8    1  0.1278459E-006  0.9118800E+02  0.7816164E-02  0.1184000E+00
        -11   -1    0    0    0    0  0.00000000000E+00  0.00000000000E+00  0.45593999997E+02  0.45594000000E+02  0.51100000000E-03 0. -1.
         11   -1    0    0    0    0 -0.00000000000E+00 -0.00000000000E+00 -0.45593999997E+02  0.45594000000E+02  0.51100000000E-03 0.  1.
         23    2    1    2    0    0  0.00000000000E+00 -0.17763568394E-14 -0.35527136788E-14  0.91188000000E+02  0.91188000000E+02 0.  0.
    9900012    2    3    3    0    0  0.18076247742E+02  0.60771907207E+01  0.31497576018E+02  0.54367078305E+02  0.39999986612E+02 0.  0.
        -12    1    3    3    0    0 -0.18076247742E+02 -0.60771907207E+01 -0.31497576018E+02  0.36820921695E+02  0.00000000000E+00 0.  1.
         11    1    4    4    0    0  0.15013604754E+02  0.11112417694E+02  0.33547603788E+02  0.38397081594E+02  0.51100000000E-03 0. -1.
        -11    1    4    4    0    0  0.51927953260E+01  0.54083750889E+00  0.46537162045E+01  0.69939047235E+01  0.51100000000E-03 0.  1.
         12    1    4    4    0    0 -0.21301523382E+01 -0.55760644819E+01 -0.67037439753E+01  0.89760919879E+01  0.00000000000E+00 0. -1.
</event>
<event>
 8    1  0.1278459E-006  0.9118800E+02  0.7816164E-02  0.1184000E+00
        -11   -1    0    0    0    0  0.00000000000E+00  0.00000000000E+00  0.45593999997E+02  0.45594000000E+02  0.51100000000E-03 0.  1.
         11   -1    0    0    0    0 -0.00000000000E+00 -0.00000000000E+00 -0.45593999997E+02  0.45594000000E+02  0.51100000000E-03 0. -1.
         23    2    1    2    0    0  0.00000000000E+00  0.00000000000E+00 -0.88817841970E-15  0.91188000000E+02  0.91188000000E+02 0.  0.
    9900012    2    3    3    0    0 -0.35140523444E+02  0.91659553365E+01  0.60748903942E+01  0.54367144246E+02  0.40000136938E+02 0.  0.
        -12    1    3    3    0    0  0.35140523444E+02 -0.91659553365E+01 -0.60748903942E+01  0.36820855754E+02  0.00000000000E+00 0.  1.
         11    1    4    4    0    0  0.34397717607E+00 -0.85746859804E+01  0.66475050667E+01  0.10855085621E+02  0.51100000000E-03 0. -1.
        -11    1    4    4    0    0 -0.80347571890E+01  0.10944303819E+02 -0.57832680837E+01  0.14757415057E+02  0.51100000000E-03 0.  1.
        -12    1    4    4    0    0 -0.27449743431E+02  0.67963374980E+01  0.52106534112E+01  0.28754643569E+02  0.00000000000E+00 0.  1.
</event>
<event>
 8    1  0.1278459E-006  0.9118800E+02  0.7816164E-02  0.1184000E+00
        -11   -1    0    0    0    0  0.00000000000E+00  0.00000000000E+00  0.45593999997E+02  0.45594000000E+02  0.51100000000E-03 0. -1.
         11   -1    0    0    0    0 -0.00000000000E+00 -0.00000000000E+00 -0.45593999997E+02  0.45594000000E+02  0.51100000000E-03 0.  1.
         23    2    1    2    0    0  0.00000000000E+00  0.00000000000E+00 -0.35527136788E-14  0.91188000000E+02  0.91188000000E+02 0.  0.
    9900012    2    3    3    0    0  0.17376622658E+02  0.15304882885E+02 -0.28628438578E+02  0.54367164179E+02  0.40000182379E+02 0.  0.
         12    1    3    3    0    0 -0.17376622658E+02 -0.15304882885E+02  0.28628438578E+02  0.36820835821E+02  0.00000000000E+00 0. -1.
         11    1    4    4    0    0  0.45503394053E+01  0.18538725903E+02 -0.81947816685E+01  0.20773646615E+02  0.51100000000E-03 0. -1.
        -11    1    4    4    0    0  0.17137999397E+02  0.20951065564E+01 -0.72334858916E+01  0.18719610392E+02  0.51100000000E-03 0.  1.
        -12    1    4    4    0    0 -0.43117161444E+01 -0.53289495744E+01 -0.13200171017E+02  0.14873907172E+02  0.00000000000E+00 0.  1.
</event>
<event>
 8    1  0.1278459E-006  0.9118800E+02  0.7816164E-02  0.1184000E+00
        -11   -1    0    0    0    0  0.00000000000E+00  0.00000000000E+00  0.45593999997E+02  0.45594000000E+02  0.51100000000E-03 0. -1.
         11   -1    0    0    0    0 -0.00000000000E+00 -0.00000000000E+00 -0.45593999997E+02  0.45594000000E+02  0.51100000000E-03 0.  1.
         23    2    1    2    0    0  0.00000000000E+00 -0.71054273576E-14  0.00000000000E+00  0.91188000000E+02  0.91188000000E+02 0.  0.
    9900012    2    3    3    0    0  0.47145058378E+01 -0.26022940809E+02 -0.25619529008E+02  0.54367078226E+02  0.39999986432E+02 0.  0.
         12    1    3    3    0    0 -0.47145058378E+01  0.26022940809E+02  0.25619529008E+02  0.36820921774E+02  0.00000000000E+00 0. -1.
         11    1    4    4    0    0 -0.47010286237E+01 -0.25502661691E+01 -0.12869507511E+02  0.13936561681E+02  0.51100000000E-03 0. -1.
        -11    1    4    4    0    0  0.12200810153E+02 -0.39466885465E+01  0.51275449982E+01  0.13810424933E+02  0.51100000000E-03 0.  1.
        -12    1    4    4    0    0 -0.27852756913E+01 -0.19525986094E+02 -0.17877566495E+02  0.26620091612E+02  0.00000000000E+00 0.  1.
</event>
<event>
 8    1  0.1278459E-006  0.9118800E+02  0.7816164E-02  0.1184000E+00
        -11   -1    0    0    0    0  0.00000000000E+00  0.00000000000E+00  0.45593999997E+02  0.45594000000E+02  0.51100000000E-03 0.  1.
         11   -1    0    0    0    0 -0.00000000000E+00 -0.00000000000E+00 -0.45593999997E+02  0.45594000000E+02  0.51100000000E-03 0. -1.
         23    2    1    2    0    0  0.88817841970E-15  0.00000000000E+00  0.71054273576E-14  0.91188000000E+02  0.91188000000E+02 0.  0.
    9900012    2    3    3    0    0  0.53450728872E+01 -0.21045430582E+01 -0.36370140128E+02  0.54367000576E+02  0.39999809412E+02 0.  0.
        -12    1    3    3    0    0 -0.53450728872E+01  0.21045430582E+01  0.36370140128E+02  0.36820999424E+02  0.00000000000E+00 0.  1.
         11    1    4    4    0    0  0.57934777651E+01 -0.17136336549E+02 -0.42153016398E+01  0.18573830599E+02  0.51100000000E-03 0. -1.
        -11    1    4    4    0    0 -0.24455133654E+01  0.78963553057E+01 -0.15568352555E+02  0.17626870518E+02  0.51100000000E-03 0.  1.
         12    1    4    4    0    0  0.19971084875E+01  0.71354381848E+01 -0.16586485934E+02  0.18166299459E+02  0.00000000000E+00 0. -1.
</event>
<event>
 8    1  0.1278459E-006  0.9118800E+02  0.7816164E-02  0.1184000E+00
        -11   -1    0    0    0    0  0.00000000000E+00  0.00000000000E+00  0.45593999997E+02  0.45594000000E+02  0.51100000000E-03 0.  1.
         11   -1    0    0    0    0 -0.00000000000E+00 -0.00000000000E+00 -0.45593999997E+02  0.45594000000E+02  0.51100000000E-03 0. -1.
         23    2    1    2    0    0  0.17763568394E-14  0.17763568394E-14  0.00000000000E+00  0.91188000000E+02  0.91188000000E+02 0.  0.
    9900012    2    3    3    0    0  0.92367952041E+01  0.51329951261E+01  0.35271997133E+02  0.54367084661E+02  0.40000001102E+02 0.  0.
         12    1    3    3    0    0 -0.92367952041E+01 -0.51329951261E+01 -0.35271997133E+02  0.36820915339E+02  0.00000000000E+00 0. -1.
         11    1    4    4    0    0 -0.26949674778E+01 -0.11693544291E+02  0.72060984274E+01  0.13997488439E+02  0.51100000000E-03 0.  1.
        -11    1    4    4    0    0  0.17266300577E+02  0.15787358819E+02  0.24458752247E+02  0.33846660039E+02  0.51100000000E-03 0. -1.
         12    1    4    4    0    0 -0.53345378947E+01  0.10391805980E+01  0.36071464592E+01  0.65229361827E+01  0.00000000000E+00 0. -1.
</event>
<event>
 8    1  0.1278459E-006  0.9118800E+02  0.7816164E-02  0.1184000E+00
        -11   -1    0    0    0    0  0.00000000000E+00  0.00000000000E+00  0.45593999997E+02  0.45594000000E+02  0.51100000000E-03 0. -1.
         11   -1    0    0    0    0 -0.00000000000E+00 -0.00000000000E+00 -0.45593999997E+02  0.45594000000E+02  0.51100000000E-03 0.  1.
         23    2    1    2    0    0  0.00000000000E+00  0.00000000000E+00  0.35527136788E-14  0.91188000000E+02  0.91188000000E+02 0.  0.
    9900012    2    3    3    0    0 -0.10043034358E+02  0.25544318252E+02  0.24543923237E+02  0.54367096943E+02  0.40000029100E+02 0.  0.
        -12    1    3    3    0    0  0.10043034358E+02 -0.25544318252E+02 -0.24543923237E+02  0.36820903057E+02  0.00000000000E+00 0.  1.
         11    1    4    4    0    0  0.60245814307E+01  0.13420729315E+02  0.22111243964E+01  0.14876176529E+02  0.51100000000E-03 0. -1.
        -11    1    4    4    0    0 -0.52043368028E+01 -0.50993459761E+01 -0.21974224010E+01  0.76103295862E+01  0.51100000000E-03 0.  1.
         12    1    4    4    0    0 -0.10863278986E+02  0.17222934913E+02  0.24530221242E+02  0.31880590828E+02  0.00000000000E+00 0. -1.
</event>
<event>
 8    1  0.1278459E-006  0.9118800E+02  0.7816164E-02  0.1184000E+00
        -11   -1    0    0    0    0  0.00000000000E+00  0.00000000000E+00  0.45593999997E+02  0.45594000000E+02  0.51100000000E-03 0. -1.
         11   -1    0    0    0    0 -0.00000000000E+00 -0.00000000000E+00 -0.45593999997E+02  0.45594000000E+02  0.51100000000E-03 0.  1.
         23    2    1    2    0    0  0.00000000000E+00  0.00000000000E+00  0.00000000000E+00  0.91188000000E+02  0.91188000000E+02 0.  0.
    9900012    2    3    3    0    0  0.25601313205E+02  0.23821615095E+02 -0.11527483739E+02  0.54367089299E+02  0.40000011674E+02 0.  0.
         12    1    3    3    0    0 -0.25601313205E+02 -0.23821615095E+02  0.11527483739E+02  0.36820910701E+02  0.00000000000E+00 0. -1.
         11    1    4    4    0    0  0.13713078361E+02 -0.48636703671E+01 -0.14684669847E+02  0.20672284256E+02  0.51100000000E-03 0. -1.
        -11    1    4    4    0    0  0.88801370974E+01  0.61746796173E+01  0.47570949331E+00  0.10826347631E+02  0.51100000000E-03 0.  1.
         12    1    4    4    0    0  0.30080977463E+01  0.22510605845E+02  0.26814766152E+01  0.22868457411E+02  0.00000000000E+00 0. -1.
</event>
<event>
 8    1  0.1278459E-006  0.9118800E+02  0.7816164E-02  0.1184000E+00
        -11   -1    0    0    0    0  0.00000000000E+00  0.00000000000E+00  0.45593999997E+02  0.45594000000E+02  0.51100000000E-03 0.  1.
         11   -1    0    0    0    0 -0.00000000000E+00 -0.00000000000E+00 -0.45593999997E+02  0.45594000000E+02  0.51100000000E-03 0. -1.
         23    2    1    2    0    0  0.35527136788E-14  0.35527136788E-14  0.00000000000E+00  0.91188000000E+02  0.91188000000E+02 0.  0.
    9900012    2    3    3    0    0  0.13264604470E+02 -0.25274576519E+02  0.23259960032E+02  0.54367086233E+02  0.40000004685E+02 0.  0.
         12    1    3    3    0    0 -0.13264604470E+02  0.25274576519E+02 -0.23259960032E+02  0.36820913767E+02  0.00000000000E+00 0. -1.
         11    1    4    4    0    0 -0.33348141829E+01 -0.48595467936E+01  0.69628138652E+01  0.91223329174E+01  0.51100000000E-03 0. -1.
        -11    1    4    4    0    0  0.19392090974E+01  0.45996793993E+01  0.15452066123E+02  0.16238347522E+02  0.51100000000E-03 0.  1.
         12    1    4    4    0    0  0.14660209556E+02 -0.25014709124E+02  0.84508004379E+00  0.29006405794E+02  0.00000000000E+00 0. -1.
</event>
<event>
 8    1  0.1278459E-006  0.9118800E+02  0.7816164E-02  0.1184000E+00
        -11   -1    0    0    0    0  0.00000000000E+00  0.00000000000E+00  0.45593999997E+02  0.45594000000E+02  0.51100000000E-03 0. -1.
         11   -1    0    0    0    0 -0.00000000000E+00 -0.00000000000E+00 -0.45593999997E+02  0.45594000000E+02  0.51100000000E-03 0.  1.
         23    2    1    2    0    0  0.35527136788E-14  0.17763568394E-14 -0.35527136788E-14  0.91188000000E+02  0.91188000000E+02 0.  0.
    9900012    2    3    3    0    0 -0.16792306417E+02 -0.15982842467E+02  0.28606728770E+02  0.54367112734E+02  0.40000065099E+02 0.  0.
        -12    1    3    3    0    0  0.16792306417E+02  0.15982842467E+02 -0.28606728770E+02  0.36820887266E+02  0.00000000000E+00 0.  1.
         11    1    4    4    0    0 -0.10528716332E+01 -0.32243230498E+01  0.30623984170E+01  0.45698011041E+01  0.51100000000E-03 0. -1.
        -11    1    4    4    0    0  0.74338269061E+01  0.62484055289E+01  0.15304172808E+02  0.18125177508E+02  0.51100000000E-03 0.  1.
         12    1    4    4    0    0 -0.23173261690E+02 -0.19006924946E+02  0.10240157546E+02  0.31672134121E+02  0.00000000000E+00 0. -1.
</event>
<event>
 8    1  0.1278459E-006  0.9118800E+02  0.7816164E-02  0.1184000E+00
        -11   -1    0    0    0    0  0.00000000000E+00  0.00000000000E+00  0.45593999997E+02  0.45594000000E+02  0.51100000000E-03 0.  1.
         11   -1    0    0    0    0 -0.00000000000E+00 -0.00000000000E+00 -0.45593999997E+02  0.45594000000E+02  0.51100000000E-03 0. -1.
         23    2    1    2    0    0  0.00000000000E+00  0.35527136788E-14  0.17763568394E-14  0.91188000000E+02  0.91188000000E+02 0.  0.
    9900012    2    3    3    0    0  0.23590443794E+02 -0.23932748587E+02 -0.15049846931E+02  0.54367036053E+02  0.39999890291E+02 0.  0.
        -12    1    3    3    0    0 -0.23590443794E+02  0.23932748587E+02  0.15049846931E+02  0.36820963947E+02  0.00000000000E+00 0.  1.
         11    1    4    4    0    0  0.80884915982E+01 -0.74161907711E+01  0.12679779734E+01  0.11046780087E+02  0.51100000000E-03 0. -1.
        -11    1    4    4    0    0  0.13359226098E+02 -0.77583772294E+01  0.79910715513E+01  0.17393060800E+02  0.51100000000E-03 0.  1.
        -12    1    4    4    0    0  0.21427260974E+01 -0.87581805861E+01 -0.24308896456E+02  0.25927195167E+02  0.00000000000E+00 0.  1.
</event>
<event>
 8    1  0.1278459E-006  0.9118800E+02  0.7816164E-02  0.1184000E+00
        -11   -1    0    0    0    0  0.00000000000E+00  0.00000000000E+00  0.45593999997E+02  0.45594000000E+02  0.51100000000E-03 0.  1.
         11   -1    0    0    0    0 -0.00000000000E+00 -0.00000000000E+00 -0.45593999997E+02  0.45594000000E+02  0.51100000000E-03 0. -1.
         23    2    1    2    0    0 -0.35527136788E-14 -0.17763568394E-14  0.00000000000E+00  0.91188000000E+02  0.91188000000E+02 0.  0.
    9900012    2    3    3    0    0  0.25491518944E+02  0.15580236524E+02 -0.21522519870E+02  0.54367079727E+02  0.39999989854E+02 0.  0.
        -12    1    3    3    0    0 -0.25491518944E+02 -0.15580236524E+02  0.21522519870E+02  0.36820920273E+02  0.00000000000E+00 0.  1.
         11    1    4    4    0    0  0.19848188129E+02  0.69937951456E+00 -0.85954537548E+01  0.21640737723E+02  0.51100000000E-03 0. -1.
        -11    1    4    4    0    0  0.12472784021E+02  0.18423390951E+02 -0.82858498354E+01  0.23741250664E+02  0.51100000000E-03 0.  1.
        -12    1    4    4    0    0 -0.68294532057E+01 -0.35425339417E+01 -0.46412162800E+01  0.89850913393E+01  0.00000000000E+00 0.  1.
</event>
<event>
 8    1  0.1278459E-006  0.9118800E+02  0.7816164E-02  0.1184000E+00
        -11   -1    0    0    0    0  0.00000000000E+00  0.00000000000E+00  0.45593999997E+02  0.45594000000E+02  0.51100000000E-03 0.  1.
         11   -1    0    0    0    0 -0.00000000000E+00 -0.00000000000E+00 -0.45593999997E+02  0.45594000000E+02  0.51100000000E-03 0. -1.
         23    2    1    2    0    0  0.35527136788E-14  0.00000000000E+00  0.17763568394E-14  0.91188000000E+02  0.91188000000E+02 0.  0.
    9900012    2    3    3    0    0  0.27405071962E+02  0.22716998988E+02  0.94170276435E+01  0.54367076302E+02  0.39999982046E+02 0.  0.
         12    1    3    3    0    0 -0.27405071962E+02 -0.22716998988E+02 -0.94170276435E+01  0.36820923698E+02  0.00000000000E+00 0. -1.
         11    1    4    4    0    0  0.12352341259E+01 -0.10424159356E+02  0.21732322945E+01  0.10719694049E+02  0.51100000000E-03 0. -1.
        -11    1    4    4    0    0  0.18842917255E+01  0.53491435083E+01 -0.11746262494E+01  0.57916870311E+01  0.51100000000E-03 0.  1.
        -12    1    4    4    0    0  0.24285546111E+02  0.27792014836E+02  0.84184215984E+01  0.37855695223E+02  0.00000000000E+00 0.  1.
</event>
<event>
 8    1  0.1278459E-006  0.9118800E+02  0.7816164E-02  0.1184000E+00
        -11   -1    0    0    0    0  0.00000000000E+00  0.00000000000E+00  0.45593999997E+02  0.45594000000E+02  0.51100000000E-03 0.  1.
         11   -1    0    0    0    0 -0.00000000000E+00 -0.00000000000E+00 -0.45593999997E+02  0.45594000000E+02  0.51100000000E-03 0. -1.
         23    2    1    2    0    0  0.35527136788E-14  0.00000000000E+00  0.00000000000E+00  0.91188000000E+02  0.91188000000E+02 0.  0.
    9900012    2    3    3    0    0 -0.12108074025E+02 -0.26737716812E+02 -0.22232168807E+02  0.54367078138E+02  0.39999986232E+02 0.  0.
         12    1    3    3    0    0  0.12108074025E+02  0.26737716812E+02  0.22232168807E+02  0.36820921862E+02  0.00000000000E+00 0. -1.
         11    1    4    4    0    0 -0.11314546098E+01  0.21202539325E+01 -0.43165156406E+01  0.49404426733E+01  0.51100000000E-03 0. -1.
        -11    1    4    4    0    0  0.72457602435E-02 -0.22080727558E+02 -0.26066650592E+02  0.34161804041E+02  0.51100000000E-03 0.  1.
        -12    1    4    4    0    0 -0.10983865175E+02 -0.67772431862E+01  0.81509974254E+01  0.15264831424E+02  0.00000000000E+00 0.  1.
</event>
<event>
 8    1  0.1278459E-006  0.9118800E+02  0.7816164E-02  0.1184000E+00
        -11   -1    0    0    0    0  0.00000000000E+00  0.00000000000E+00  0.45593999997E+02  0.45594000000E+02  0.51100000000E-03 0.  1.
         11   -1    0    0    0    0 -0.00000000000E+00 -0.00000000000E+00 -0.45593999997E+02  0.45594000000E+02  0.51100000000E-03 0. -1.
         23    2    1    2    0    0 -0.35527136788E-14 -0.35527136788E-14  0.00000000000E+00  0.91188000000E+02  0.91188000000E+02 0.  0.
    9900012    2    3    3    0    0  0.19033845814E+02 -0.30461719925E+02  0.80979238496E+01  0.54367081516E+02  0.39999993933E+02 0.  0.
         12    1    3    3    0    0 -0.19033845814E+02  0.30461719925E+02 -0.80979238496E+01  0.36820918484E+02  0.00000000000E+00 0. -1.
         11    1    4    4    0    0  0.83784607190E+01 -0.26083366232E+01 -0.53501046773E+01  0.10277433740E+02  0.51100000000E-03 0. -1.
        -11    1    4    4    0    0  0.20322277202E+02 -0.19223984685E+02  0.44796541658E+01  0.28330616646E+02  0.51100000000E-03 0.  1.
        -12    1    4    4    0    0 -0.96668921064E+01 -0.86293986170E+01  0.89683743612E+01  0.15759031130E+02  0.00000000000E+00 0.  1.
</event>
<event>
 8    1  0.1278459E-006  0.9118800E+02  0.7816164E-02  0.1184000E+00
        -11   -1    0    0    0    0  0.00000000000E+00  0.00000000000E+00  0.45593999997E+02  0.45594000000E+02  0.51100000000E-03 0.  1.
         11   -1    0    0    0    0 -0.00000000000E+00 -0.00000000000E+00 -0.45593999997E+02  0.45594000000E+02  0.51100000000E-03 0. -1.
         23    2    1    2    0    0  0.00000000000E+00 -0.17763568394E-14  0.66613381478E-15  0.91188000000E+02  0.91188000000E+02 0.  0.
    9900012    2    3    3    0    0  0.33725323659E+02  0.14760048643E+02 -0.72366445044E+00  0.54367079559E+02  0.39999989471E+02 0.  0.
        -12    1    3    3    0    0 -0.33725323659E+02 -0.14760048643E+02  0.72366445044E+00  0.36820920441E+02  0.00000000000E+00 0.  1.
         11    1    4    4    0    0  0.48213225928E+01  0.92974990140E+01  0.93149524710E+01  0.14016311186E+02  0.51100000000E-03 0.  1.
        -11    1    4    4    0    0  0.49327257934E+01  0.12600684158E+02 -0.67566637444E+01  0.15124864635E+02  0.51100000000E-03 0. -1.
        -12    1    4    4    0    0  0.23971275273E+02 -0.71381345293E+01 -0.32819531770E+01  0.25225903739E+02  0.00000000000E+00 0.  1.
</event>
<event>
 8    1  0.1278459E-006  0.9118800E+02  0.7816164E-02  0.1184000E+00
        -11   -1    0    0    0    0  0.00000000000E+00  0.00000000000E+00  0.45593999997E+02  0.45594000000E+02  0.51100000000E-03 0.  1.
         11   -1    0    0    0    0 -0.00000000000E+00 -0.00000000000E+00 -0.45593999997E+02  0.45594000000E+02  0.51100000000E-03 0. -1.
         23    2    1    2    0    0  0.00000000000E+00  0.00000000000E+00  0.13322676296E-14  0.91188000000E+02  0.91188000000E+02 0.  0.
    9900012    2    3    3    0    0 -0.12778057584E+02  0.34424798613E+02  0.27265670090E+01  0.54367086339E+02  0.40000004928E+02 0.  0.
        -12    1    3    3    0    0  0.12778057584E+02 -0.34424798613E+02 -0.27265670090E+01  0.36820913661E+02  0.00000000000E+00 0.  1.
         11    1    4    4    0    0 -0.73601744513E+01  0.26038312569E+02  0.15602767139E+02  0.31234792012E+02  0.51100000000E-03 0. -1.
        -11    1    4    4    0    0 -0.11192481816E+02  0.44741003316E+01 -0.96817300429E+01  0.15460437247E+02  0.51100000000E-03 0.  1.
        -12    1    4    4    0    0  0.57745986834E+01  0.39123857123E+01 -0.31944700875E+01  0.76718570800E+01  0.00000000000E+00 0.  1.
</event>
<event>
 8    1  0.1278459E-006  0.9118800E+02  0.7816164E-02  0.1184000E+00
        -11   -1    0    0    0    0  0.00000000000E+00  0.00000000000E+00  0.45593999997E+02  0.45594000000E+02  0.51100000000E-03 0.  1.
         11   -1    0    0    0    0 -0.00000000000E+00 -0.00000000000E+00 -0.45593999997E+02  0.45594000000E+02  0.51100000000E-03 0. -1.
         23    2    1    2    0    0  0.44408920985E-15 -0.71054273576E-14  0.00000000000E+00  0.91188000000E+02  0.91188000000E+02 0.  0.
    9900012    2    3    3    0    0 -0.86395144472E+00 -0.34238038219E+02  0.13519942102E+02  0.54367102297E+02  0.40000041307E+02 0.  0.
         12    1    3    3    0    0  0.86395144472E+00  0.34238038219E+02 -0.13519942102E+02  0.36820897703E+02  0.00000000000E+00 0. -1.
         11    1    4    4    0    0  0.83363399830E+00  0.48044356730E+01  0.19561493748E+01  0.52539574053E+01  0.51100000000E-03 0.  1.
        -11    1    4    4    0    0  0.10107216608E+02 -0.32690762458E+02  0.67998875959E+01  0.34886677245E+02  0.51100000000E-03 0. -1.
        -12    1    4    4    0    0 -0.11804802051E+02 -0.63517114340E+01  0.47639051315E+01  0.14226467646E+02  0.00000000000E+00 0.  1.
</event>
<event>
 8    1  0.1278459E-006  0.9118800E+02  0.7816164E-02  0.1184000E+00
        -11   -1    0    0    0    0  0.00000000000E+00  0.00000000000E+00  0.45593999997E+02  0.45594000000E+02  0.51100000000E-03 0. -1.
         11   -1    0    0    0    0 -0.00000000000E+00 -0.00000000000E+00 -0.45593999997E+02  0.45594000000E+02  0.51100000000E-03 0.  1.
         23    2    1    2    0    0  0.00000000000E+00  0.00000000000E+00 -0.35527136788E-14  0.91188000000E+02  0.91188000000E+02 0.  0.
    9900012    2    3    3    0    0  0.18604810772E+02 -0.16814475491E+02 -0.26961345441E+02  0.54367085863E+02  0.40000003841E+02 0.  0.
         12    1    3    3    0    0 -0.18604810772E+02  0.16814475491E+02  0.26961345441E+02  0.36820914137E+02  0.00000000000E+00 0. -1.
         11    1    4    4    0    0 -0.96102007356E+01 -0.46410897455E+01  0.23058411716E+01  0.10918451171E+02  0.51100000000E-03 0. -1.
        -11    1    4    4    0    0  0.24621188536E+02 -0.13461202430E+02 -0.27317965158E+02  0.39162202650E+02  0.51100000000E-03 0.  1.
         12    1    4    4    0    0  0.35938229717E+01  0.12878166850E+01 -0.19492214550E+01  0.42864320416E+01  0.00000000000E+00 0. -1.
</event>
<event>
 8    1  0.1278459E-006  0.9118800E+02  0.7816164E-02  0.1184000E+00
        -11   -1    0    0    0    0  0.00000000000E+00  0.00000000000E+00  0.45593999997E+02  0.45594000000E+02  0.51100000000E-03 0. -1.
         11   -1    0    0    0    0 -0.00000000000E+00 -0.00000000000E+00 -0.45593999997E+02  0.45594000000E+02  0.51100000000E-03 0.  1.
         23    2    1    2    0    0  0.00000000000E+00 -0.44408920985E-15  0.35527136788E-14  0.91188000000E+02  0.91188000000E+02 0.  0.
    9900012    2    3    3    0    0 -0.27038611930E+02 -0.28138130488E+01  0.24834966986E+02  0.54367086593E+02  0.40000005505E+02 0.  0.
        -12    1    3    3    0    0  0.27038611930E+02  0.28138130488E+01 -0.24834966986E+02  0.36820913407E+02  0.00000000000E+00 0.  1.
         11    1    4    4    0    0  0.37395177488E+01 -0.24995709618E+01  0.20481516748E+02  0.20969606018E+02  0.51100000000E-03 0. -1.
        -11    1    4    4    0    0 -0.25232281125E+02  0.38644846379E+01  0.60832318667E+01  0.26241340714E+02  0.51100000000E-03 0.  1.
        -12    1    4    4    0    0 -0.55458485543E+01 -0.41787267249E+01 -0.17297816288E+01  0.71561398611E+01  0.00000000000E+00 0.  1.
</event>
<event>
 8    1  0.1278459E-006  0.9118800E+02  0.7816164E-02  0.1184000E+00
        -11   -1    0    0    0    0  0.00000000000E+00  0.00000000000E+00  0.45593999997E+02  0.45594000000E+02  0.51100000000E-03 0.  1.
         11   -1    0    0    0    0 -0.00000000000E+00 -0.00000000000E+00 -0.45593999997E+02  0.45594000000E+02  0.51100000000E-03 0. -1.
         23    2    1    2    0    0 -0.88817841970E-15  0.00000000000E+00  0.00000000000E+00  0.91188000000E+02  0.91188000000E+02 0.  0.
    9900012    2    3    3    0    0  0.21568444557E+01 -0.13916848890E+02 -0.34021303875E+02  0.54367085042E+02  0.40000001970E+02 0.  0.
        -12    1    3    3    0    0 -0.21568444557E+01  0.13916848890E+02  0.34021303875E+02  0.36820914958E+02  0.00000000000E+00 0.  1.
         11    1    4    4    0    0  0.15907222524E+01 -0.56722463357E+01 -0.18123034657E+02  0.19056472948E+02  0.51100000000E-03 0. -1.
        -11    1    4    4    0    0 -0.76499219837E+01 -0.12134683773E+02 -0.20579526556E+02  0.25085628758E+02  0.51100000000E-03 0.  1.
        -12    1    4    4    0    0  0.82160441870E+01  0.38900812180E+01  0.46812573383E+01  0.10224983337E+02  0.00000000000E+00 0.  1.
</event>
<event>
 8    1  0.1278459E-006  0.9118800E+02  0.7816164E-02  0.1184000E+00
        -11   -1    0    0    0    0  0.00000000000E+00  0.00000000000E+00  0.45593999997E+02  0.45594000000E+02  0.51100000000E-03 0.  1.
         11   -1    0    0    0    0 -0.00000000000E+00 -0.00000000000E+00 -0.45593999997E+02  0.45594000000E+02  0.51100000000E-03 0. -1.
         23    2    1    2    0    0  0.00000000000E+00  0.00000000000E+00 -0.17763568394E-14  0.91188000000E+02  0.91188000000E+02 0.  0.
    9900012    2    3    3    0    0  0.26952161429E+02  0.20543045357E+02  0.14399450113E+02  0.54367083637E+02  0.39999998768E+02 0.  0.
         12    1    3    3    0    0 -0.26952161429E+02 -0.20543045357E+02 -0.14399450113E+02  0.36820916363E+02  0.00000000000E+00 0. -1.
         11    1    4    4    0    0  0.50225375666E+01  0.48356481108E+01 -0.82438332899E+01  0.10796766360E+02  0.51100000000E-03 0. -1.
        -11    1    4    4    0    0  0.25514639661E+02  0.89876876185E+01  0.23593962126E+02  0.35894991500E+02  0.51100000000E-03 0.  1.
        -12    1    4    4    0    0 -0.35850157980E+01  0.67197096274E+01 -0.95067872362E+00  0.76753257771E+01  0.00000000000E+00 0.  1.
</event>
<event>
 8    1  0.1278459E-006  0.9118800E+02  0.7816164E-02  0.1184000E+00
        -11   -1    0    0    0    0  0.00000000000E+00  0.00000000000E+00  0.45593999997E+02  0.45594000000E+02  0.51100000000E-03 0.  1.
         11   -1    0    0    0    0 -0.00000000000E+00 -0.00000000000E+00 -0.45593999997E+02  0.45594000000E+02  0.51100000000E-03 0. -1.
         23    2    1    2    0    0  0.00000000000E+00  0.00000000000E+00  0.00000000000E+00  0.91188000000E+02  0.91188000000E+02 0.  0.
    9900012    2    3    3    0    0  0.23144417960E+02 -0.27336805866E+02 -0.85331245787E+01  0.54367092180E+02  0.40000018242E+02 0.  0.
         12    1    3    3    0    0 -0.23144417960E+02  0.27336805866E+02  0.85331245787E+01  0.36820907820E+02  0.00000000000E+00 0. -1.
         11    1    4    4    0    0  0.22882019902E+02 -0.21563487586E+02 -0.15944696734E+02  0.35253428001E+02  0.51100000000E-03 0. -1.
        -11    1    4    4    0    0  0.85143853301E+00 -0.10496262794E+02  0.27347109046E+00  0.10534290053E+02  0.51100000000E-03 0.  1.
         12    1    4    4    0    0 -0.58904047483E+00  0.47229445143E+01  0.71381010650E+01  0.85793741252E+01  0.00000000000E+00 0. -1.
</event>
<event>
 8    1  0.1278459E-006  0.9118800E+02  0.7816164E-02  0.1184000E+00
        -11   -1    0    0    0    0  0.00000000000E+00  0.00000000000E+00  0.45593999997E+02  0.45594000000E+02  0.51100000000E-03 0.  1.
         11   -1    0    0    0    0 -0.00000000000E+00 -0.00000000000E+00 -0.45593999997E+02  0.45594000000E+02  0.51100000000E-03 0. -1.
         23    2    1    2    0    0  0.00000000000E+00 -0.17763568394E-14 -0.35527136788E-14  0.91188000000E+02  0.91188000000E+02 0.  0.
    9900012    2    3    3    0    0  0.13887831275E+02  0.14407257709E+02 -0.30908556479E+02  0.54367084804E+02  0.40000001429E+02 0.  0.
        -12    1    3    3    0    0 -0.13887831275E+02 -0.14407257709E+02  0.30908556479E+02  0.36820915196E+02  0.00000000000E+00 0.  1.
         11    1    4    4    0    0  0.23038643576E+02  0.18394977727E+02 -0.26168925112E+02  0.39420387431E+02  0.51100000000E-03 0. -1.
        -11    1    4    4    0    0  0.10114069876E+01 -0.87709987964E+00  0.19673653643E+01  0.23796585955E+01  0.51100000000E-03 0.  1.
         12    1    4    4    0    0 -0.10162219288E+02 -0.31106201376E+01 -0.67069967311E+01  0.12567038778E+02  0.00000000000E+00 0. -1.
</event>
<event>
 8    1  0.1278459E-006  0.9118800E+02  0.7816164E-02  0.1184000E+00
        -11   -1    0    0    0    0  0.00000000000E+00  0.00000000000E+00  0.45593999997E+02  0.45594000000E+02  0.51100000000E-03 0. -1.
         11   -1    0    0    0    0 -0.00000000000E+00 -0.00000000000E+00 -0.45593999997E+02  0.45594000000E+02  0.51100000000E-03 0.  1.
         23    2    1    2    0    0 -0.44408920985E-15  0.35527136788E-14 -0.35527136788E-14  0.91188000000E+02  0.91188000000E+02 0.  0.
    9900012    2    3    3    0    0 -0.38332345275E+01  0.27446517689E+02 -0.24244060990E+02  0.54367088639E+02  0.40000010170E+02 0.  0.
         12    1    3    3    0    0  0.38332345275E+01 -0.27446517689E+02  0.24244060990E+02  0.36820911361E+02  0.00000000000E+00 0. -1.
         11    1    4    4    0    0  0.64465044019E+01  0.15923195575E+01 -0.18096752788E+01  0.68824287467E+01  0.51100000000E-03 0. -1.
        -11    1    4    4    0    0 -0.13272373384E+02  0.28770158080E+02 -0.83106664567E+01  0.32755840219E+02  0.51100000000E-03 0.  1.
         12    1    4    4    0    0  0.29926344547E+01 -0.29159599490E+01 -0.14123719254E+02  0.14728819674E+02  0.00000000000E+00 0. -1.
</event>
<event>
 8    1  0.1278459E-006  0.9118800E+02  0.7816164E-02  0.1184000E+00
        -11   -1    0    0    0    0  0.00000000000E+00  0.00000000000E+00  0.45593999997E+02  0.45594000000E+02  0.51100000000E-03 0.  1.
         11   -1    0    0    0    0 -0.00000000000E+00 -0.00000000000E+00 -0.45593999997E+02  0.45594000000E+02  0.51100000000E-03 0. -1.
         23    2    1    2    0    0  0.00000000000E+00  0.00000000000E+00  0.00000000000E+00  0.91188000000E+02  0.91188000000E+02 0.  0.
    9900012    2    3    3    0    0  0.22672515876E+02 -0.21181262096E+02 -0.19826541651E+02  0.54367073966E+02  0.39999976721E+02 0.  0.
        -12    1    3    3    0    0 -0.22672515876E+02  0.21181262096E+02  0.19826541651E+02  0.36820926034E+02  0.00000000000E+00 0.  1.
         11    1    4    4    0    0  0.15480507220E+01 -0.15405467221E+00 -0.68979828650E+01  0.70712348106E+01  0.51100000000E-03 0. -1.
        -11    1    4    4    0    0 -0.76705790576E+01  0.27296309364E+01 -0.28897947434E+01  0.86394202380E+01  0.51100000000E-03 0.  1.
         12    1    4    4    0    0  0.28795044212E+02 -0.23756838360E+02 -0.10038764042E+02  0.38656418918E+02  0.00000000000E+00 0. -1.
</event>
<event>
 8    1  0.1278459E-006  0.9118800E+02  0.7816164E-02  0.1184000E+00
        -11   -1    0    0    0    0  0.00000000000E+00  0.00000000000E+00  0.45593999997E+02  0.45594000000E+02  0.51100000000E-03 0. -1.
         11   -1    0    0    0    0 -0.00000000000E+00 -0.00000000000E+00 -0.45593999997E+02  0.45594000000E+02  0.51100000000E-03 0.  1.
         23    2    1    2    0    0  0.00000000000E+00  0.00000000000E+00  0.88817841970E-15  0.91188000000E+02  0.91188000000E+02 0.  0.
    9900012    2    3    3    0    0 -0.28508322454E+02 -0.21937864237E+02  0.78604613432E+01  0.54367065887E+02  0.39999958303E+02 0.  0.
        -12    1    3    3    0    0  0.28508322454E+02  0.21937864237E+02 -0.78604613432E+01  0.36820934113E+02  0.00000000000E+00 0.  1.
         11    1    4    4    0    0 -0.20004056945E+02 -0.23980830170E+02 -0.13120607758E-01  0.31228875777E+02  0.51100000000E-03 0. -1.
        -11    1    4    4    0    0 -0.12459728688E+02  0.74788741139E+00  0.11973076965E+02  0.17296206140E+02  0.51100000000E-03 0.  1.
         12    1    4    4    0    0  0.39554631790E+01  0.12950785211E+01 -0.40994950144E+01  0.58419839703E+01  0.00000000000E+00 0. -1.
</event>
<event>
 8    1  0.1278459E-006  0.9118800E+02  0.7816164E-02  0.1184000E+00
        -11   -1    0    0    0    0  0.00000000000E+00  0.00000000000E+00  0.45593999997E+02  0.45594000000E+02  0.51100000000E-03 0.  1.
         11   -1    0    0    0    0 -0.00000000000E+00 -0.00000000000E+00 -0.45593999997E+02  0.45594000000E+02  0.51100000000E-03 0. -1.
         23    2    1    2    0    0  0.00000000000E+00  0.35527136788E-14  0.00000000000E+00  0.91188000000E+02  0.91188000000E+02 0.  0.
    9900012    2    3    3    0    0  0.16151019776E+02 -0.29677343599E+02  0.14634842859E+02  0.54367098485E+02  0.40000032616E+02 0.  0.
        -12    1    3    3    0    0 -0.16151019776E+02  0.29677343599E+02 -0.14634842859E+02  0.36820901515E+02  0.00000000000E+00 0.  1.
         11    1    4    4    0    0 -0.12887685355E+01  0.27796495870E+00  0.64620976054E+01  0.65952175536E+01  0.51100000000E-03 0. -1.
        -11    1    4    4    0    0  0.24948309889E+02 -0.19481027747E+02 -0.14526739998E+01  0.31686572399E+02  0.51100000000E-03 0.  1.
        -12    1    4    4    0    0 -0.75085215771E+01 -0.10474280811E+02  0.96254192533E+01  0.16085308532E+02  0.00000000000E+00 0.  1.
</event>
<event>
 8    1  0.1278459E-006  0.9118800E+02  0.7816164E-02  0.1184000E+00
        -11   -1    0    0    0    0  0.00000000000E+00  0.00000000000E+00  0.45593999997E+02  0.45594000000E+02  0.51100000000E-03 0. -1.
         11   -1    0    0    0    0 -0.00000000000E+00 -0.00000000000E+00 -0.45593999997E+02  0.45594000000E+02  0.51100000000E-03 0.  1.
         23    2    1    2    0    0  0.00000000000E+00 -0.26367796835E-15 -0.55511151231E-15  0.91188000000E+02  0.91188000000E+02 0.  0.
    9900012    2    3    3    0    0 -0.36812689264E+02 -0.83147972351E-01  0.77208657630E+00  0.54367121111E+02  0.40000084197E+02 0.  0.
         12    1    3    3    0    0  0.36812689264E+02  0.83147972351E-01 -0.77208657630E+00  0.36820878889E+02  0.00000000000E+00 0. -1.
         11    1    4    4    0    0 -0.65226456938E+01  0.15618350311E+02 -0.41898439251E+01  0.17436529633E+02  0.51100000000E-03 0. -1.
        -11    1    4    4    0    0 -0.18845059058E+02 -0.59685370647E+01 -0.28912964740E+01  0.19977969896E+02  0.51100000000E-03 0.  1.
         12    1    4    4    0    0 -0.11444984513E+02 -0.97329612184E+01  0.78532269755E+01  0.16952621582E+02  0.00000000000E+00 0. -1.
</event>
<event>
 8    1  0.1278459E-006  0.9118800E+02  0.7816164E-02  0.1184000E+00
        -11   -1    0    0    0    0  0.00000000000E+00  0.00000000000E+00  0.45593999997E+02  0.45594000000E+02  0.51100000000E-03 0.  1.
         11   -1    0    0    0    0 -0.00000000000E+00 -0.00000000000E+00 -0.45593999997E+02  0.45594000000E+02  0.51100000000E-03 0. -1.
         23    2    1    2    0    0 -0.35527136788E-14  0.35527136788E-14 -0.88817841970E-15  0.91188000000E+02  0.91188000000E+02 0.  0.
    9900012    2    3    3    0    0  0.30237355107E+02  0.20481532330E+02 -0.46891694843E+01  0.54367093970E+02  0.40000022322E+02 0.  0.
         12    1    3    3    0    0 -0.30237355107E+02 -0.20481532330E+02  0.46891694843E+01  0.36820906030E+02  0.00000000000E+00 0. -1.
         11    1    4    4    0    0 -0.23566890701E+01 -0.74074685441E+01  0.39827526014E+00  0.77835208646E+01  0.51100000000E-03 0. -1.
        -11    1    4    4    0    0  0.27117302261E+02  0.29091081051E+02 -0.12507982807E+01  0.39789490763E+02  0.51100000000E-03 0.  1.
         12    1    4    4    0    0  0.54767419167E+01 -0.12020801773E+01 -0.38366464637E+01  0.67940823415E+01  0.00000000000E+00 0. -1.
</event>
<event>
 8    1  0.1278459E-006  0.9118800E+02  0.7816164E-02  0.1184000E+00
        -11   -1    0    0    0    0  0.00000000000E+00  0.00000000000E+00  0.45593999997E+02  0.45594000000E+02  0.51100000000E-03 0. -1.
         11   -1    0    0    0    0 -0.00000000000E+00 -0.00000000000E+00 -0.45593999997E+02  0.45594000000E+02  0.51100000000E-03 0.  1.
         23    2    1    2    0    0  0.00000000000E+00  0.00000000000E+00  0.17763568394E-14  0.91188000000E+02  0.91188000000E+02 0.  0.
    9900012    2    3    3    0    0  0.30979392192E+02  0.16515993109E+02 -0.11103186804E+02  0.54367061308E+02  0.39999947864E+02 0.  0.
        -12    1    3    3    0    0 -0.30979392192E+02 -0.16515993109E+02  0.11103186804E+02  0.36820938692E+02  0.00000000000E+00 0.  1.
         11    1    4    4    0    0  0.11112194178E+02  0.16635874942E+02  0.13961610668E+00  0.20006316189E+02  0.51100000000E-03 0. -1.
        -11    1    4    4    0    0  0.12049203221E+02  0.23141617647E+00 -0.19538479367E+02  0.22956241591E+02  0.51100000000E-03 0.  1.
         12    1    4    4    0    0  0.78179947923E+01 -0.35129800949E+00  0.82956764563E+01  0.11404503529E+02  0.00000000000E+00 0. -1.
</event>
<event>
 8    1  0.1278459E-006  0.9118800E+02  0.7816164E-02  0.1184000E+00
        -11   -1    0    0    0    0  0.00000000000E+00  0.00000000000E+00  0.45593999997E+02  0.45594000000E+02  0.51100000000E-03 0. -1.
         11   -1    0    0    0    0 -0.00000000000E+00 -0.00000000000E+00 -0.45593999997E+02  0.45594000000E+02  0.51100000000E-03 0.  1.
         23    2    1    2    0    0  0.00000000000E+00  0.88817841970E-15 -0.17763568394E-14  0.91188000000E+02  0.91188000000E+02 0.  0.
    9900012    2    3    3    0    0 -0.36028915379E+02 -0.73023792203E+01 -0.20911383175E+01  0.54367077345E+02  0.39999984424E+02 0.  0.
        -12    1    3    3    0    0  0.36028915379E+02  0.73023792203E+01  0.20911383175E+01  0.36820922655E+02  0.00000000000E+00 0.  1.
         11    1    4    4    0    0 -0.10766781357E+02  0.95455168238E+01  0.78706651568E+01  0.16400848834E+02  0.51100000000E-03 0. -1.
        -11    1    4    4    0    0 -0.22600534173E+02 -0.18858833410E+02 -0.14110521354E+02  0.32642710605E+02  0.51100000000E-03 0.  1.
        -12    1    4    4    0    0 -0.26615998492E+01  0.20109373657E+01  0.41487178801E+01  0.53235179059E+01  0.00000000000E+00 0.  1.
</event>
<event>
 8    1  0.1278459E-006  0.9118800E+02  0.7816164E-02  0.1184000E+00
        -11   -1    0    0    0    0  0.00000000000E+00  0.00000000000E+00  0.45593999997E+02  0.45594000000E+02  0.51100000000E-03 0. -1.
         11   -1    0    0    0    0 -0.00000000000E+00 -0.00000000000E+00 -0.45593999997E+02  0.45594000000E+02  0.51100000000E-03 0.  1.
         23    2    1    2    0    0  0.00000000000E+00  0.71054273576E-14  0.00000000000E+00  0.91188000000E+02  0.91188000000E+02 0.  0.
    9900012    2    3    3    0    0 -0.11731377358E+02 -0.34323052807E+02  0.63310746968E+01  0.54367086438E+02  0.40000005153E+02 0.  0.
        -12    1    3    3    0    0  0.11731377358E+02  0.34323052807E+02 -0.63310746968E+01  0.36820913562E+02  0.00000000000E+00 0.  1.
         11    1    4    4    0    0 -0.85929012270E+01 -0.32571570700E+02  0.72035275932E+01  0.34447583070E+02  0.51100000000E-03 0. -1.
        -11    1    4    4    0    0  0.58612983603E+01 -0.23538964337E+01  0.58975494280E+01  0.86415702511E+01  0.51100000000E-03 0.  1.
        -12    1    4    4    0    0 -0.89997744914E+01  0.60241432645E+00 -0.67700023244E+01  0.11277933117E+02  0.00000000000E+00 0.  1.
</event>
<event>
 8    1  0.1278459E-006  0.9118800E+02  0.7816164E-02  0.1184000E+00
        -11   -1    0    0    0    0  0.00000000000E+00  0.00000000000E+00  0.45593999997E+02  0.45594000000E+02  0.51100000000E-03 0.  1.
         11   -1    0    0    0    0 -0.00000000000E+00 -0.00000000000E+00 -0.45593999997E+02  0.45594000000E+02  0.51100000000E-03 0. -1.
         23    2    1    2    0    0  0.88817841970E-15  0.35527136788E-14  0.35527136788E-14  0.91188000000E+02  0.91188000000E+02 0.  0.
    9900012    2    3    3    0    0 -0.44725846057E+01 -0.29311124279E+02 -0.21832060238E+02  0.54367015849E+02  0.39999844232E+02 0.  0.
        -12    1    3    3    0    0  0.44725846057E+01  0.29311124279E+02  0.21832060238E+02  0.36820984151E+02  0.00000000000E+00 0.  1.
         11    1    4    4    0    0  0.71345050768E+01 -0.14270216653E+02 -0.16772654555E+02  0.23148697309E+02  0.51100000000E-03 0. -1.
        -11    1    4    4    0    0  0.46746999937E+01  0.35668153753E+01 -0.23976146553E+01  0.63500825388E+01  0.51100000000E-03 0.  1.
         12    1    4    4    0    0 -0.16281789676E+02 -0.18607723002E+02 -0.26617910278E+01  0.24868236002E+02  0.00000000000E+00 0. -1.
</event>
<event>
 8    1  0.1278459E-006  0.9118800E+02  0.7816164E-02  0.1184000E+00
        -11   -1    0    0    0    0  0.00000000000E+00  0.00000000000E+00  0.45593999997E+02  0.45594000000E+02  0.51100000000E-03 0.  1.
         11   -1    0    0    0    0 -0.00000000000E+00 -0.00000000000E+00 -0.45593999997E+02  0.45594000000E+02  0.51100000000E-03 0. -1.
         23    2    1    2    0    0 -0.17763568394E-14  0.00000000000E+00  0.35527136788E-14  0.91188000000E+02  0.91188000000E+02 0.  0.
    9900012    2    3    3    0    0 -0.15840081700E+02  0.17896212781E+02  0.28010652888E+02  0.54367091600E+02  0.40000016920E+02 0.  0.
         12    1    3    3    0    0  0.15840081700E+02 -0.17896212781E+02 -0.28010652888E+02  0.36820908400E+02  0.00000000000E+00 0. -1.
         11    1    4    4    0    0 -0.29001370335E+01  0.84208547330E+01  0.12261635579E+02  0.15154843998E+02  0.51100000000E-03 0.  1.
        -11    1    4    4    0    0  0.50956867761E+01  0.93281214315E+01  0.18133450304E+02  0.21019084027E+02  0.51100000000E-03 0. -1.
         12    1    4    4    0    0 -0.18035631443E+02  0.14723661682E+00 -0.23844329948E+01  0.18193163575E+02  0.00000000000E+00 0. -1.
</event>
<event>
 8    1  0.1278459E-006  0.9118800E+02  0.7816164E-02  0.1184000E+00
        -11   -1    0    0    0    0  0.00000000000E+00  0.00000000000E+00  0.45593999997E+02  0.45594000000E+02  0.51100000000E-03 0.  1.
         11   -1    0    0    0    0 -0.00000000000E+00 -0.00000000000E+00 -0.45593999997E+02  0.45594000000E+02  0.51100000000E-03 0. -1.
         23    2    1    2    0    0 -0.88817841970E-15  0.00000000000E+00 -0.71054273576E-14  0.91188000000E+02  0.91188000000E+02 0.  0.
    9900012    2    3    3    0    0  0.53776140640E+01 -0.13478149575E+02 -0.33840817445E+02  0.54367079664E+02  0.39999989710E+02 0.  0.
        -12    1    3    3    0    0 -0.53776140640E+01  0.13478149575E+02  0.33840817445E+02  0.36820920336E+02  0.00000000000E+00 0.  1.
         11    1    4    4    0    0  0.10232695337E+01  0.81043241068E+00 -0.15786430377E+02  0.15840305097E+02  0.51100000000E-03 0. -1.
        -11    1    4    4    0    0 -0.95645570278E+01 -0.17271327238E+02 -0.11583647019E+02  0.22890180738E+02  0.51100000000E-03 0.  1.
         12    1    4    4    0    0  0.13918901558E+02  0.29827452513E+01 -0.64707400492E+01  0.15636593830E+02  0.00000000000E+00 0. -1.
</event>
<event>
 8    1  0.1278459E-006  0.9118800E+02  0.7816164E-02  0.1184000E+00
        -11   -1    0    0    0    0  0.00000000000E+00  0.00000000000E+00  0.45593999997E+02  0.45594000000E+02  0.51100000000E-03 0. -1.
         11   -1    0    0    0    0 -0.00000000000E+00 -0.00000000000E+00 -0.45593999997E+02  0.45594000000E+02  0.51100000000E-03 0.  1.
         23    2    1    2    0    0  0.35527136788E-14  0.35527136788E-14 -0.35527136788E-14  0.91188000000E+02  0.91188000000E+02 0.  0.
    9900012    2    3    3    0    0 -0.17144579768E+02 -0.25552836165E+02  0.20221241786E+02  0.54367045764E+02  0.39999912428E+02 0.  0.
        -12    1    3    3    0    0  0.17144579768E+02  0.25552836165E+02 -0.20221241786E+02  0.36820954236E+02  0.00000000000E+00 0.  1.
         11    1    4    4    0    0 -0.13177789853E+02 -0.14679279121E+02  0.28601813481E+01  0.19932787525E+02  0.51100000000E-03 0. -1.
        -11    1    4    4    0    0 -0.54207677996E+01 -0.16014461336E+02  0.21730161673E+02  0.27532664637E+02  0.51100000000E-03 0.  1.
        -12    1    4    4    0    0  0.14539778842E+01  0.51409042929E+01 -0.43691012353E+01  0.69015936015E+01  0.00000000000E+00 0.  1.
</event>
<event>
 8    1  0.1278459E-006  0.9118800E+02  0.7816164E-02  0.1184000E+00
        -11   -1    0    0    0    0  0.00000000000E+00  0.00000000000E+00  0.45593999997E+02  0.45594000000E+02  0.51100000000E-03 0.  1.
         11   -1    0    0    0    0 -0.00000000000E+00 -0.00000000000E+00 -0.45593999997E+02  0.45594000000E+02  0.51100000000E-03 0. -1.
         23    2    1    2    0    0 -0.44408920985E-14  0.00000000000E+00 -0.35527136788E-14  0.91188000000E+02  0.91188000000E+02 0.  0.
    9900012    2    3    3    0    0  0.72698828987E+01  0.22182710528E+02  0.28475531595E+02  0.54367085518E+02  0.40000003055E+02 0.  0.
         12    1    3    3    0    0 -0.72698828987E+01 -0.22182710528E+02 -0.28475531595E+02  0.36820914482E+02  0.00000000000E+00 0. -1.
         11    1    4    4    0    0 -0.43609687880E+01  0.16649289043E+01 -0.25745422543E+01  0.53308822072E+01  0.51100000000E-03 0. -1.
        -11    1    4    4    0    0 -0.99295602384E+01  0.37366602272E+01  0.94492925825E+01  0.14207319478E+02  0.51100000000E-03 0.  1.
        -12    1    4    4    0    0  0.21560411925E+02  0.16781121396E+02  0.21600781266E+02  0.34828883832E+02  0.00000000000E+00 0.  1.
</event>
<event>
 8    1  0.1278459E-006  0.9118800E+02  0.7816164E-02  0.1184000E+00
        -11   -1    0    0    0    0  0.00000000000E+00  0.00000000000E+00  0.45593999997E+02  0.45594000000E+02  0.51100000000E-03 0. -1.
         11   -1    0    0    0    0 -0.00000000000E+00 -0.00000000000E+00 -0.45593999997E+02  0.45594000000E+02  0.51100000000E-03 0.  1.
         23    2    1    2    0    0  0.00000000000E+00  0.35527136788E-14 -0.88817841970E-15  0.91188000000E+02  0.91188000000E+02 0.  0.
    9900012    2    3    3    0    0  0.29178215332E+02 -0.21991711149E+02 -0.45581184582E+01  0.54367081311E+02  0.39999993464E+02 0.  0.
         12    1    3    3    0    0 -0.29178215332E+02  0.21991711149E+02  0.45581184582E+01  0.36820918689E+02  0.00000000000E+00 0. -1.
         11    1    4    4    0    0  0.11485039404E+02 -0.38476141772E+01 -0.10387585621E+01  0.12156861625E+02  0.51100000000E-03 0.  1.
        -11    1    4    4    0    0 -0.76190547324E+01 -0.44371800578E+01  0.73121938646E+01  0.11454551115E+02  0.51100000000E-03 0. -1.
        -12    1    4    4    0    0  0.25312230661E+02 -0.13706916914E+02 -0.10831553761E+02  0.30755668570E+02  0.00000000000E+00 0.  1.
</event>
<event>
 8    1  0.1278459E-006  0.9118800E+02  0.7816164E-02  0.1184000E+00
        -11   -1    0    0    0    0  0.00000000000E+00  0.00000000000E+00  0.45593999997E+02  0.45594000000E+02  0.51100000000E-03 0.  1.
         11   -1    0    0    0    0 -0.00000000000E+00 -0.00000000000E+00 -0.45593999997E+02  0.45594000000E+02  0.51100000000E-03 0. -1.
         23    2    1    2    0    0  0.00000000000E+00  0.00000000000E+00  0.00000000000E+00  0.91188000000E+02  0.91188000000E+02 0.  0.
    9900012    2    3    3    0    0 -0.11549518430E+02 -0.33344386813E+02  0.10513808842E+02  0.54367086319E+02  0.40000004882E+02 0.  0.
         12    1    3    3    0    0  0.11549518430E+02  0.33344386813E+02 -0.10513808842E+02  0.36820913681E+02  0.00000000000E+00 0. -1.
         11    1    4    4    0    0 -0.10935007089E+02 -0.17531533964E+02  0.10220919358E+02  0.23052033663E+02  0.51100000000E-03 0. -1.
        -11    1    4    4    0    0  0.10168866525E+00 -0.58727823598E+01  0.13527605229E+02  0.14747746157E+02  0.51100000000E-03 0.  1.
         12    1    4    4    0    0 -0.71620000556E+00 -0.99400704892E+01 -0.13234715746E+02  0.16567306499E+02  0.00000000000E+00 0. -1.
</event>
<event>
 8    1  0.1278459E-006  0.9118800E+02  0.7816164E-02  0.1184000E+00
        -11   -1    0    0    0    0  0.00000000000E+00  0.00000000000E+00  0.45593999997E+02  0.45594000000E+02  0.51100000000E-03 0. -1.
         11   -1    0    0    0    0 -0.00000000000E+00 -0.00000000000E+00 -0.45593999997E+02  0.45594000000E+02  0.51100000000E-03 0.  1.
         23    2    1    2    0    0 -0.17763568394E-14 -0.11102230246E-15  0.00000000000E+00  0.91188000000E+02  0.91188000000E+02 0.  0.
    9900012    2    3    3    0    0  0.15591943457E+02  0.59782702671E+00  0.33351349921E+02  0.54367100507E+02  0.40000037226E+02 0.  0.
        -12    1    3    3    0    0 -0.15591943457E+02 -0.59782702671E+00 -0.33351349921E+02  0.36820899493E+02  0.00000000000E+00 0.  1.
         11    1    4    4    0    0  0.47001411002E+01 -0.53530557757E+01 -0.25989018797E+01  0.75829297597E+01  0.51100000000E-03 0. -1.
        -11    1    4    4    0    0  0.15575559055E+02  0.11837864514E+02  0.33639037409E+02  0.38914237937E+02  0.51100000000E-03 0.  1.
        -12    1    4    4    0    0 -0.46837566979E+01 -0.58869817118E+01  0.23112143911E+01  0.78699328105E+01  0.00000000000E+00 0.  1.
</event>
<event>
 8    1  0.1278459E-006  0.9118800E+02  0.7816164E-02  0.1184000E+00
        -11   -1    0    0    0    0  0.00000000000E+00  0.00000000000E+00  0.45593999997E+02  0.45594000000E+02  0.51100000000E-03 0.  1.
         11   -1    0    0    0    0 -0.00000000000E+00 -0.00000000000E+00 -0.45593999997E+02  0.45594000000E+02  0.51100000000E-03 0. -1.
         23    2    1    2    0    0  0.00000000000E+00  0.17763568394E-14  0.00000000000E+00  0.91188000000E+02  0.91188000000E+02 0.  0.
    9900012    2    3    3    0    0  0.32836338338E+02 -0.71359079144E+01 -0.15054372776E+02  0.54367076099E+02  0.39999981584E+02 0.  0.
        -12    1    3    3    0    0 -0.32836338338E+02  0.71359079144E+01  0.15054372776E+02  0.36820923901E+02  0.00000000000E+00 0.  1.
         11    1    4    4    0    0  0.17912017646E+02 -0.71059840137E+01 -0.22905110710E+01  0.19405716327E+02  0.51100000000E-03 0. -1.
        -11    1    4    4    0    0  0.14960965878E+02  0.79327484829E+01 -0.18551048749E+02  0.25117730958E+02  0.51100000000E-03 0.  1.
        -12    1    4    4    0    0 -0.36645186437E-01 -0.79626723836E+01  0.57871870435E+01  0.98436288144E+01  0.00000000000E+00 0.  1.
</event>
<event>
 8    1  0.1278459E-006  0.9118800E+02  0.7816164E-02  0.1184000E+00
        -11   -1    0    0    0    0  0.00000000000E+00  0.00000000000E+00  0.45593999997E+02  0.45594000000E+02  0.51100000000E-03 0.  1.
         11   -1    0    0    0    0 -0.00000000000E+00 -0.00000000000E+00 -0.45593999997E+02  0.45594000000E+02  0.51100000000E-03 0. -1.
         23    2    1    2    0    0 -0.35527136788E-14  0.00000000000E+00  0.35527136788E-14  0.91188000000E+02  0.91188000000E+02 0.  0.
    9900012    2    3    3    0    0  0.27457279642E+02  0.13563074663E+02  0.20443131497E+02  0.54367070829E+02  0.39999969568E+02 0.  0.
         12    1    3    3    0    0 -0.27457279642E+02 -0.13563074663E+02 -0.20443131497E+02  0.36820929171E+02  0.00000000000E+00 0. -1.
         11    1    4    4    0    0  0.23976869922E+01  0.84255455287E+00 -0.41152813225E+01  0.48367697600E+01  0.51100000000E-03 0. -1.
        -11    1    4    4    0    0 -0.66973868281E+01 -0.33508225575E+00 -0.92735698495E+00  0.67695835679E+01  0.51100000000E-03 0.  1.
        -12    1    4    4    0    0  0.31756979478E+02  0.13055602366E+02  0.25485769804E+02  0.42760717501E+02  0.00000000000E+00 0.  1.
</event>
<event>
 8    1  0.1278459E-006  0.9118800E+02  0.7816164E-02  0.1184000E+00
        -11   -1    0    0    0    0  0.00000000000E+00  0.00000000000E+00  0.45593999997E+02  0.45594000000E+02  0.51100000000E-03 0. -1.
         11   -1    0    0    0    0 -0.00000000000E+00 -0.00000000000E+00 -0.45593999997E+02  0.45594000000E+02  0.51100000000E-03 0.  1.
         23    2    1    2    0    0  0.35527136788E-14 -0.71054273576E-14  0.88817841970E-15  0.91188000000E+02  0.91188000000E+02 0.  0.
    9900012    2    3    3    0    0  0.10717374136E+02 -0.34811633116E+02  0.53913876096E+01  0.54367096033E+02  0.40000027027E+02 0.  0.
         12    1    3    3    0    0 -0.10717374136E+02  0.34811633116E+02 -0.53913876096E+01  0.36820903967E+02  0.00000000000E+00 0. -1.
         11    1    4    4    0    0 -0.52699068096E+01 -0.13502439724E+01 -0.22613380896E+01  0.58914112726E+01  0.51100000000E-03 0. -1.
        -11    1    4    4    0    0  0.19365965063E+02 -0.18547303992E+02 -0.65523750985E+01  0.27603925589E+02  0.51100000000E-03 0.  1.
         12    1    4    4    0    0 -0.33786841176E+01 -0.14914085151E+02  0.14205100798E+02  0.20871759172E+02  0.00000000000E+00 0. -1.
</event>
<event>
 8    1  0.1278459E-006  0.9118800E+02  0.7816164E-02  0.1184000E+00
        -11   -1    0    0    0    0  0.00000000000E+00  0.00000000000E+00  0.45593999997E+02  0.45594000000E+02  0.51100000000E-03 0.  1.
         11   -1    0    0    0    0 -0.00000000000E+00 -0.00000000000E+00 -0.45593999997E+02  0.45594000000E+02  0.51100000000E-03 0. -1.
         23    2    1    2    0    0  0.14210854715E-13 -0.17763568394E-14  0.35527136788E-14  0.91188000000E+02  0.91188000000E+02 0.  0.
    9900012    2    3    3    0    0 -0.32873024013E+02  0.90765745240E+01 -0.13883889273E+02  0.54367050879E+02  0.39999924088E+02 0.  0.
        -12    1    3    3    0    0  0.32873024013E+02 -0.90765745240E+01  0.13883889273E+02  0.36820949121E+02  0.00000000000E+00 0.  1.
         11    1    4    4    0    0 -0.38467781801E+00  0.10866248713E+02 -0.58424622825E+01  0.12343326290E+02  0.51100000000E-03 0. -1.
        -11    1    4    4    0    0  0.36369808544E+01  0.51930209780E+00 -0.42635657285E+01  0.56280811460E+01  0.51100000000E-03 0.  1.
         12    1    4    4    0    0 -0.36125327049E+02 -0.23089762868E+01 -0.37778612622E+01  0.36395643443E+02  0.00000000000E+00 0. -1.
</event>
<event>
 8    1  0.1278459E-006  0.9118800E+02  0.7816164E-02  0.1184000E+00
        -11   -1    0    0    0    0  0.00000000000E+00  0.00000000000E+00  0.45593999997E+02  0.45594000000E+02  0.51100000000E-03 0.  1.
         11   -1    0    0    0    0 -0.00000000000E+00 -0.00000000000E+00 -0.45593999997E+02  0.45594000000E+02  0.51100000000E-03 0. -1.
         23    2    1    2    0    0  0.00000000000E+00  0.17763568394E-14  0.00000000000E+00  0.91188000000E+02  0.91188000000E+02 0.  0.
    9900012    2    3    3    0    0 -0.24915036808E+02 -0.77474537622E+01  0.25980709920E+02  0.54367090358E+02  0.40000014089E+02 0.  0.
         12    1    3    3    0    0  0.24915036808E+02  0.77474537622E+01 -0.25980709920E+02  0.36820909642E+02  0.00000000000E+00 0. -1.
         11    1    4    4    0    0 -0.14207900961E+02 -0.13379730243E+02 -0.30778401217E+01  0.19757396872E+02  0.51100000000E-03 0. -1.
        -11    1    4    4    0    0 -0.54766421006E+01  0.89875588225E+00  0.95146702518E+00  0.56308667712E+01  0.51100000000E-03 0.  1.
        -12    1    4    4    0    0 -0.52304937467E+01  0.47335205982E+01  0.28107083016E+02  0.28978826715E+02  0.00000000000E+00 0.  1.
</event>
<event>
 8    1  0.1278459E-006  0.9118800E+02  0.7816164E-02  0.1184000E+00
        -11   -1    0    0    0    0  0.00000000000E+00  0.00000000000E+00  0.45593999997E+02  0.45594000000E+02  0.51100000000E-03 0. -1.
         11   -1    0    0    0    0 -0.00000000000E+00 -0.00000000000E+00 -0.45593999997E+02  0.45594000000E+02  0.51100000000E-03 0.  1.
         23    2    1    2    0    0  0.00000000000E+00 -0.35527136788E-14  0.35527136788E-14  0.91188000000E+02  0.91188000000E+02 0.  0.
    9900012    2    3    3    0    0  0.47531208047E+01  0.19609867894E+02  0.30800009438E+02  0.54367086682E+02  0.40000005710E+02 0.  0.
        -12    1    3    3    0    0 -0.47531208047E+01 -0.19609867894E+02 -0.30800009438E+02  0.36820913318E+02  0.00000000000E+00 0.  1.
         11    1    4    4    0    0  0.17209600412E+02  0.14366720124E+02  0.25241691611E+02  0.33759679932E+02  0.51100000000E-03 0. -1.
        -11    1    4    4    0    0  0.27380749927E+01 -0.14393614052E+01 -0.28032095416E-01  0.30934773282E+01  0.51100000000E-03 0.  1.
         12    1    4    4    0    0 -0.15194554600E+02  0.66825091746E+01  0.55863499223E+01  0.17513929422E+02  0.00000000000E+00 0. -1.
</event>
<event>
 8    1  0.1278459E-006  0.9118800E+02  0.7816164E-02  0.1184000E+00
        -11   -1    0    0    0    0  0.00000000000E+00  0.00000000000E+00  0.45593999997E+02  0.45594000000E+02  0.51100000000E-03 0.  1.
         11   -1    0    0    0    0 -0.00000000000E+00 -0.00000000000E+00 -0.45593999997E+02  0.45594000000E+02  0.51100000000E-03 0. -1.
         23    2    1    2    0    0 -0.35527136788E-14  0.00000000000E+00  0.26645352591E-14  0.91188000000E+02  0.91188000000E+02 0.  0.
    9900012    2    3    3    0    0 -0.31875257333E+02 -0.18263867529E+02  0.24854391695E+01  0.54367105185E+02  0.40000047890E+02 0.  0.
         12    1    3    3    0    0  0.31875257333E+02  0.18263867529E+02 -0.24854391695E+01  0.36820894815E+02  0.00000000000E+00 0. -1.
         11    1    4    4    0    0 -0.11799115299E+02 -0.13214782171E+02 -0.13188879844E+02  0.22086107431E+02  0.51100000000E-03 0. -1.
        -11    1    4    4    0    0 -0.10787189394E+02 -0.37970190329E+01 -0.26138242460E+01  0.11730851888E+02  0.51100000000E-03 0.  1.
         12    1    4    4    0    0 -0.92889526401E+01 -0.12520663248E+01  0.18288143260E+02  0.20550145866E+02  0.00000000000E+00 0. -1.
</event>
<event>
 8    1  0.1278459E-006  0.9118800E+02  0.7816164E-02  0.1184000E+00
        -11   -1    0    0    0    0  0.00000000000E+00  0.00000000000E+00  0.45593999997E+02  0.45594000000E+02  0.51100000000E-03 0.  1.
         11   -1    0    0    0    0 -0.00000000000E+00 -0.00000000000E+00 -0.45593999997E+02  0.45594000000E+02  0.51100000000E-03 0. -1.
         23    2    1    2    0    0  0.00000000000E+00  0.00000000000E+00  0.00000000000E+00  0.91188000000E+02  0.91188000000E+02 0.  0.
    9900012    2    3    3    0    0 -0.20914147244E+02 -0.22569368803E+02  0.20223827488E+02  0.54367066261E+02  0.39999959155E+02 0.  0.
         12    1    3    3    0    0  0.20914147244E+02  0.22569368803E+02 -0.20223827488E+02  0.36820933739E+02  0.00000000000E+00 0. -1.
         11    1    4    4    0    0  0.18370243704E+01 -0.81392277755E-01 -0.99479380962E+00  0.20906693247E+01  0.51100000000E-03 0. -1.
        -11    1    4    4    0    0 -0.18180317902E+02 -0.40866148130E+01  0.26681791185E+02  0.32544467437E+02  0.51100000000E-03 0.  1.
        -12    1    4    4    0    0 -0.45708537124E+01 -0.18401361713E+02 -0.54631698874E+01  0.19731929499E+02  0.00000000000E+00 0.  1.
</event>
<event>
 8    1  0.1278459E-006  0.9118800E+02  0.7816164E-02  0.1184000E+00
        -11   -1    0    0    0    0  0.00000000000E+00  0.00000000000E+00  0.45593999997E+02  0.45594000000E+02  0.51100000000E-03 0. -1.
         11   -1    0    0    0    0 -0.00000000000E+00 -0.00000000000E+00 -0.45593999997E+02  0.45594000000E+02  0.51100000000E-03 0.  1.
         23    2    1    2    0    0  0.00000000000E+00  0.00000000000E+00 -0.66613381478E-15  0.91188000000E+02  0.91188000000E+02 0.  0.
    9900012    2    3    3    0    0  0.36153912787E+02 -0.68138848934E+01 -0.14984972665E+01  0.54367082966E+02  0.39999997238E+02 0.  0.
        -12    1    3    3    0    0 -0.36153912787E+02  0.68138848934E+01  0.14984972665E+01  0.36820917034E+02  0.00000000000E+00 0.  1.
         11    1    4    4    0    0  0.18017615824E+02 -0.47915352033E+01 -0.26468435095E+01  0.18830801109E+02  0.51100000000E-03 0. -1.
        -11    1    4    4    0    0  0.24896284730E+02 -0.21779369385E+01  0.76700747723E+01  0.26141890711E+02  0.51100000000E-03 0.  1.
        -12    1    4    4    0    0 -0.67599877670E+01  0.15558724848E+00 -0.65217285293E+01  0.93943911464E+01  0.00000000000E+00 0.  1.
</event>
<event>
 8    1  0.1278459E-006  0.9118800E+02  0.7816164E-02  0.1184000E+00
        -11   -1    0    0    0    0  0.00000000000E+00  0.00000000000E+00  0.45593999997E+02  0.45594000000E+02  0.51100000000E-03 0. -1.
         11   -1    0    0    0    0 -0.00000000000E+00 -0.00000000000E+00 -0.45593999997E+02  0.45594000000E+02  0.51100000000E-03 0.  1.
         23    2    1    2    0    0  0.00000000000E+00  0.00000000000E+00 -0.17763568394E-14  0.91188000000E+02  0.91188000000E+02 0.  0.
    9900012    2    3    3    0    0  0.31508911595E+02 -0.12898528631E+02 -0.14021384290E+02  0.54367044443E+02  0.39999909416E+02 0.  0.
         12    1    3    3    0    0 -0.31508911595E+02  0.12898528631E+02  0.14021384290E+02  0.36820955557E+02  0.00000000000E+00 0. -1.
         11    1    4    4    0    0  0.20872535832E+02  0.68776009085E+01 -0.16484819970E+02  0.27472048268E+02  0.51100000000E-03 0. -1.
        -11    1    4    4    0    0 -0.26513534125E+01 -0.32585226379E+01 -0.28048677492E+01  0.50512303502E+01  0.51100000000E-03 0.  1.
         12    1    4    4    0    0  0.13287729175E+02 -0.16517606902E+02  0.52683034292E+01  0.21843765825E+02  0.00000000000E+00 0. -1.
</event>
<event>
 8    1  0.1278459E-006  0.9118800E+02  0.7816164E-02  0.1184000E+00
        -11   -1    0    0    0    0  0.00000000000E+00  0.00000000000E+00  0.45593999997E+02  0.45594000000E+02  0.51100000000E-03 0. -1.
         11   -1    0    0    0    0 -0.00000000000E+00 -0.00000000000E+00 -0.45593999997E+02  0.45594000000E+02  0.51100000000E-03 0.  1.
         23    2    1    2    0    0  0.71054273576E-14 -0.44408920985E-15  0.55511151231E-16  0.91188000000E+02  0.91188000000E+02 0.  0.
    9900012    2    3    3    0    0 -0.36805237296E+02  0.10514338740E+01  0.22235260849E+00  0.54367075972E+02  0.39999981293E+02 0.  0.
         12    1    3    3    0    0  0.36805237296E+02 -0.10514338740E+01 -0.22235260849E+00  0.36820924028E+02  0.00000000000E+00 0. -1.
         11    1    4    4    0    0  0.19126541938E+01 -0.88183577728E+01  0.15867126456E+01  0.91618413627E+01  0.51100000000E-03 0. -1.
        -11    1    4    4    0    0 -0.77656652652E+01 -0.97764698948E+00  0.79032207029E+01  0.11123050318E+02  0.51100000000E-03 0.  1.
        -12    1    4    4    0    0 -0.30952226225E+02  0.10847438636E+02 -0.92675807401E+01  0.34082184291E+02  0.00000000000E+00 0.  1.
</event>
<event>
 8    1  0.1278459E-006  0.9118800E+02  0.7816164E-02  0.1184000E+00
        -11   -1    0    0    0    0  0.00000000000E+00  0.00000000000E+00  0.45593999997E+02  0.45594000000E+02  0.51100000000E-03 0.  1.
         11   -1    0    0    0    0 -0.00000000000E+00 -0.00000000000E+00 -0.45593999997E+02  0.45594000000E+02  0.51100000000E-03 0. -1.
         23    2    1    2    0    0 -0.35527136788E-14  0.00000000000E+00  0.00000000000E+00  0.91188000000E+02  0.91188000000E+02 0.  0.
    9900012    2    3    3    0    0  0.22970030186E+02 -0.19206784569E+02  0.21430302187E+02  0.54367072363E+02  0.39999973065E+02 0.  0.
        -12    1    3    3    0    0 -0.22970030186E+02  0.19206784569E+02 -0.21430302187E+02  0.36820927637E+02  0.00000000000E+00 0.  1.
         11    1    4    4    0    0 -0.19727346148E+01 -0.13757026629E+02  0.10292754075E+02  0.17294168099E+02  0.51100000000E-03 0. -1.
        -11    1    4    4    0    0 -0.27003689703E+01  0.12243187475E+01 -0.39041962402E+01  0.49024175173E+01  0.51100000000E-03 0.  1.
         12    1    4    4    0    0  0.27643133771E+02 -0.66740766877E+01  0.15041744352E+02  0.32170486746E+02  0.00000000000E+00 0. -1.
</event>
<event>
 8    1  0.1278459E-006  0.9118800E+02  0.7816164E-02  0.1184000E+00
        -11   -1    0    0    0    0  0.00000000000E+00  0.00000000000E+00  0.45593999997E+02  0.45594000000E+02  0.51100000000E-03 0. -1.
         11   -1    0    0    0    0 -0.00000000000E+00 -0.00000000000E+00 -0.45593999997E+02  0.45594000000E+02  0.51100000000E-03 0.  1.
         23    2    1    2    0    0  0.88817841970E-15  0.00000000000E+00  0.17763568394E-14  0.91188000000E+02  0.91188000000E+02 0.  0.
    9900012    2    3    3    0    0  0.62894103481E+01 -0.35920543800E+02 -0.50929364120E+01  0.54367079985E+02  0.39999990443E+02 0.  0.
         12    1    3    3    0    0 -0.62894103481E+01  0.35920543800E+02  0.50929364120E+01  0.36820920015E+02  0.00000000000E+00 0. -1.
         11    1    4    4    0    0  0.99270695011E+01 -0.24402965163E+02  0.11088997129E+02  0.28583514046E+02  0.51100000000E-03 0. -1.
        -11    1    4    4    0    0  0.26972050773E+01 -0.12861119957E+02 -0.81373946307E+01  0.15456406873E+02  0.51100000000E-03 0.  1.
         12    1    4    4    0    0 -0.63348642303E+01  0.13435413206E+01 -0.80445389102E+01  0.10327159066E+02  0.00000000000E+00 0. -1.
</event>
<event>
 8    1  0.1278459E-006  0.9118800E+02  0.7816164E-02  0.1184000E+00
        -11   -1    0    0    0    0  0.00000000000E+00  0.00000000000E+00  0.45593999997E+02  0.45594000000E+02  0.51100000000E-03 0. -1.
         11   -1    0    0    0    0 -0.00000000000E+00 -0.00000000000E+00 -0.45593999997E+02  0.45594000000E+02  0.51100000000E-03 0.  1.
         23    2    1    2    0    0 -0.35527136788E-14  0.00000000000E+00  0.35527136788E-14  0.91188000000E+02  0.91188000000E+02 0.  0.
    9900012    2    3    3    0    0 -0.24980625528E+02 -0.10931473471E+02  0.24743737011E+02  0.54367064579E+02  0.39999955320E+02 0.  0.
        -12    1    3    3    0    0  0.24980625528E+02  0.10931473471E+02 -0.24743737011E+02  0.36820935421E+02  0.00000000000E+00 0.  1.
         11    1    4    4    0    0  0.41407367296E+01  0.58680946831E+01  0.39211580260E+01  0.81826472734E+01  0.51100000000E-03 0. -1.
        -11    1    4    4    0    0 -0.20958127120E+02 -0.51229724729E+01  0.77386037943E+00  0.21589043505E+02  0.51100000000E-03 0.  1.
         12    1    4    4    0    0 -0.81632351384E+01 -0.11676595681E+02  0.20048718606E+02  0.24595373800E+02  0.00000000000E+00 0. -1.
</event>
<event>
 8    1  0.1278459E-006  0.9118800E+02  0.7816164E-02  0.1184000E+00
        -11   -1    0    0    0    0  0.00000000000E+00  0.00000000000E+00  0.45593999997E+02  0.45594000000E+02  0.51100000000E-03 0.  1.
         11   -1    0    0    0    0 -0.00000000000E+00 -0.00000000000E+00 -0.45593999997E+02  0.45594000000E+02  0.51100000000E-03 0. -1.
         23    2    1    2    0    0  0.00000000000E+00  0.00000000000E+00  0.00000000000E+00  0.91188000000E+02  0.91188000000E+02 0.  0.
    9900012    2    3    3    0    0 -0.24024915843E+02 -0.18270167807E+02 -0.21089864532E+02  0.54367109205E+02  0.40000057056E+02 0.  0.
        -12    1    3    3    0    0  0.24024915843E+02  0.18270167807E+02  0.21089864532E+02  0.36820890795E+02  0.00000000000E+00 0.  1.
         11    1    4    4    0    0 -0.27768342209E+01  0.99115934290E+00 -0.10042167462E+02  0.10466056217E+02  0.51100000000E-03 0. -1.
        -11    1    4    4    0    0 -0.18570855845E+02 -0.21373175328E+01 -0.17305409535E+02  0.25473947721E+02  0.51100000000E-03 0.  1.
         12    1    4    4    0    0 -0.26772257766E+01 -0.17124009617E+02  0.62577124661E+01  0.18427105267E+02  0.00000000000E+00 0. -1.
</event>
<event>
 8    1  0.1278459E-006  0.9118800E+02  0.7816164E-02  0.1184000E+00
        -11   -1    0    0    0    0  0.00000000000E+00  0.00000000000E+00  0.45593999997E+02  0.45594000000E+02  0.51100000000E-03 0. -1.
         11   -1    0    0    0    0 -0.00000000000E+00 -0.00000000000E+00 -0.45593999997E+02  0.45594000000E+02  0.51100000000E-03 0.  1.
         23    2    1    2    0    0 -0.17763568394E-14  0.44408920985E-15  0.00000000000E+00  0.91188000000E+02  0.91188000000E+02 0.  0.
    9900012    2    3    3    0    0  0.47103826467E+01 -0.29529326421E+01  0.36398800112E+02  0.54367079785E+02  0.39999989987E+02 0.  0.
        -12    1    3    3    0    0 -0.47103826467E+01  0.29529326421E+01 -0.36398800112E+02  0.36820920215E+02  0.00000000000E+00 0.  1.
         11    1    4    4    0    0  0.31974126359E+01  0.30033751534E+01  0.16648664888E+02  0.17216903110E+02  0.51100000000E-03 0. -1.
        -11    1    4    4    0    0 -0.13568154164E+02 -0.75772913378E+01  0.14038217116E+02  0.20942342073E+02  0.51100000000E-03 0.  1.
         12    1    4    4    0    0  0.15081124175E+02  0.16209835423E+01  0.57119181076E+01  0.16207834603E+02  0.00000000000E+00 0. -1.
</event>
<event>
 8    1  0.1278459E-006  0.9118800E+02  0.7816164E-02  0.1184000E+00
        -11   -1    0    0    0    0  0.00000000000E+00  0.00000000000E+00  0.45593999997E+02  0.45594000000E+02  0.51100000000E-03 0.  1.
         11   -1    0    0    0    0 -0.00000000000E+00 -0.00000000000E+00 -0.45593999997E+02  0.45594000000E+02  0.51100000000E-03 0. -1.
         23    2    1    2    0    0  0.00000000000E+00  0.00000000000E+00  0.71054273576E-14  0.91188000000E+02  0.91188000000E+02 0.  0.
    9900012    2    3    3    0    0  0.93815923516E+01 -0.11403248639E+02 -0.33730263894E+02  0.54367094838E+02  0.40000024303E+02 0.  0.
        -12    1    3    3    0    0 -0.93815923516E+01  0.11403248639E+02  0.33730263894E+02  0.36820905162E+02  0.00000000000E+00 0.  1.
         11    1    4    4    0    0 -0.23481930163E+01  0.45665339411E+01 -0.32315571920E+01  0.60671414046E+01  0.51100000000E-03 0. -1.
        -11    1    4    4    0    0 -0.97114035029E+01 -0.23101824349E+01 -0.21306967677E+01  0.10207260644E+02  0.51100000000E-03 0.  1.
         12    1    4    4    0    0  0.21441188871E+02 -0.13659600146E+02 -0.28368009934E+02  0.38092692790E+02  0.00000000000E+00 0. -1.
</event>
<event>
 8    1  0.1278459E-006  0.9118800E+02  0.7816164E-02  0.1184000E+00
        -11   -1    0    0    0    0  0.00000000000E+00  0.00000000000E+00  0.45593999997E+02  0.45594000000E+02  0.51100000000E-03 0.  1.
         11   -1    0    0    0    0 -0.00000000000E+00 -0.00000000000E+00 -0.45593999997E+02  0.45594000000E+02  0.51100000000E-03 0. -1.
         23    2    1    2    0    0 -0.35527136788E-14 -0.17763568394E-14  0.35527136788E-14  0.91188000000E+02  0.91188000000E+02 0.  0.
    9900012    2    3    3    0    0 -0.21464231443E+02 -0.79035064713E+01  0.28854839978E+02  0.54367076109E+02  0.39999981607E+02 0.  0.
         12    1    3    3    0    0  0.21464231443E+02  0.79035064713E+01 -0.28854839978E+02  0.36820923891E+02  0.00000000000E+00 0. -1.
         11    1    4    4    0    0 -0.16875030047E+02  0.68119249756E+01  0.31004892855E+01  0.18460281554E+02  0.51100000000E-03 0. -1.
        -11    1    4    4    0    0 -0.93528081204E+00 -0.18963141934E+02  0.16843080523E+02  0.25380403148E+02  0.51100000000E-03 0.  1.
        -12    1    4    4    0    0 -0.36539205839E+01  0.42477104875E+01  0.89112701697E+01  0.10526391407E+02  0.00000000000E+00 0.  1.
</event>
<event>
 8    1  0.1278459E-006  0.9118800E+02  0.7816164E-02  0.1184000E+00
        -11   -1    0    0    0    0  0.00000000000E+00  0.00000000000E+00  0.45593999997E+02  0.45594000000E+02  0.51100000000E-03 0. -1.
         11   -1    0    0    0    0 -0.00000000000E+00 -0.00000000000E+00 -0.45593999997E+02  0.45594000000E+02  0.51100000000E-03 0.  1.
         23    2    1    2    0    0  0.35527136788E-14  0.17763568394E-14  0.00000000000E+00  0.91188000000E+02  0.91188000000E+02 0.  0.
    9900012    2    3    3    0    0  0.20057930964E+02  0.13391809593E+02  0.27823001090E+02  0.54367074585E+02  0.39999978132E+02 0.  0.
        -12    1    3    3    0    0 -0.20057930964E+02 -0.13391809593E+02 -0.27823001090E+02  0.36820925415E+02  0.00000000000E+00 0.  1.
         11    1    4    4    0    0  0.11792575827E+02 -0.31031461223E+01  0.48663009407E+01  0.13129175358E+02  0.51100000000E-03 0. -1.
        -11    1    4    4    0    0  0.32255940663E+01 -0.58660852334E+00  0.23196225662E+02  0.23426767849E+02  0.51100000000E-03 0.  1.
        -12    1    4    4    0    0  0.50397610711E+01  0.17081564239E+02 -0.23952551192E+00  0.17811131378E+02  0.00000000000E+00 0.  1.
</event>
<event>
 8    1  0.1278459E-006  0.9118800E+02  0.7816164E-02  0.1184000E+00
        -11   -1    0    0    0    0  0.00000000000E+00  0.00000000000E+00  0.45593999997E+02  0.45594000000E+02  0.51100000000E-03 0. -1.
         11   -1    0    0    0    0 -0.00000000000E+00 -0.00000000000E+00 -0.45593999997E+02  0.45594000000E+02  0.51100000000E-03 0.  1.
         23    2    1    2    0    0 -0.35527136788E-14  0.35527136788E-14  0.35527136788E-14  0.91188000000E+02  0.91188000000E+02 0.  0.
    9900012    2    3    3    0    0 -0.26728391822E+02  0.87896435775E+01  0.23751106804E+02  0.54367084231E+02  0.40000000122E+02 0.  0.
        -12    1    3    3    0    0  0.26728391822E+02 -0.87896435775E+01 -0.23751106804E+02  0.36820915769E+02  0.00000000000E+00 0.  1.
         11    1    4    4    0    0 -0.24587453464E+02  0.81899167187E+01  0.33343434503E+01  0.26129206843E+02  0.51100000000E-03 0. -1.
        -11    1    4    4    0    0  0.25483707436E+01 -0.78355592031E+01  0.39179396439E+01  0.91236195004E+01  0.51100000000E-03 0.  1.
        -12    1    4    4    0    0 -0.46893091015E+01  0.84352860619E+01  0.16498823710E+02  0.19114257888E+02  0.00000000000E+00 0.  1.
</event>
<event>
 8    1  0.1278459E-006  0.9118800E+02  0.7816164E-02  0.1184000E+00
        -11   -1    0    0    0    0  0.00000000000E+00  0.00000000000E+00  0.45593999997E+02  0.45594000000E+02  0.51100000000E-03 0. -1.
         11   -1    0    0    0    0 -0.00000000000E+00 -0.00000000000E+00 -0.45593999997E+02  0.45594000000E+02  0.51100000000E-03 0.  1.
         23    2    1    2    0    0  0.00000000000E+00  0.00000000000E+00  0.00000000000E+00  0.91188000000E+02  0.91188000000E+02 0.  0.
    9900012    2    3    3    0    0  0.69357873103E+01  0.18294943749E+02 -0.31192467825E+02  0.54367079841E+02  0.39999990113E+02 0.  0.
         12    1    3    3    0    0 -0.69357873103E+01 -0.18294943749E+02  0.31192467825E+02  0.36820920159E+02  0.00000000000E+00 0. -1.
         11    1    4    4    0    0  0.69683092787E+00  0.10487879642E+02 -0.49999043229E+00  0.10522888550E+02  0.51100000000E-03 0. -1.
        -11    1    4    4    0    0  0.16421786297E+02  0.78726319806E+01 -0.99866648302E+01  0.20769854939E+02  0.51100000000E-03 0.  1.
         12    1    4    4    0    0 -0.10182829915E+02 -0.65567873910E-01 -0.20705812562E+02  0.23074336352E+02  0.00000000000E+00 0. -1.
</event>
<event>
 8    1  0.1278459E-006  0.9118800E+02  0.7816164E-02  0.1184000E+00
        -11   -1    0    0    0    0  0.00000000000E+00  0.00000000000E+00  0.45593999997E+02  0.45594000000E+02  0.51100000000E-03 0.  1.
         11   -1    0    0    0    0 -0.00000000000E+00 -0.00000000000E+00 -0.45593999997E+02  0.45594000000E+02  0.51100000000E-03 0. -1.
         23    2    1    2    0    0  0.00000000000E+00  0.17763568394E-14  0.35527136788E-14  0.91188000000E+02  0.91188000000E+02 0.  0.
    9900012    2    3    3    0    0  0.24291193819E+02  0.10841290868E+02  0.25459461314E+02  0.54367083998E+02  0.39999999590E+02 0.  0.
        -12    1    3    3    0    0 -0.24291193819E+02 -0.10841290868E+02 -0.25459461314E+02  0.36820916002E+02  0.00000000000E+00 0.  1.
         11    1    4    4    0    0 -0.22298095139E+01  0.79886988406E+00  0.96245352447E+01  0.99117063363E+01  0.51100000000E-03 0. -1.
        -11    1    4    4    0    0  0.23633573993E+01  0.95840531883E+01  0.17652632144E+02  0.20225107060E+02  0.51100000000E-03 0.  1.
        -12    1    4    4    0    0  0.24157645933E+02  0.45836779528E+00 -0.18177060738E+01  0.24230270602E+02  0.00000000000E+00 0.  1.
</event>
<event>
 8    1  0.1278459E-006  0.9118800E+02  0.7816164E-02  0.1184000E+00
        -11   -1    0    0    0    0  0.00000000000E+00  0.00000000000E+00  0.45593999997E+02  0.45594000000E+02  0.51100000000E-03 0. -1.
         11   -1    0    0    0    0 -0.00000000000E+00 -0.00000000000E+00 -0.45593999997E+02  0.45594000000E+02  0.51100000000E-03 0.  1.
         23    2    1    2    0    0  0.35527136788E-14  0.00000000000E+00 -0.17763568394E-14  0.91188000000E+02  0.91188000000E+02 0.  0.
    9900012    2    3    3    0    0 -0.22105718511E+02 -0.26535729548E+02  0.12766306448E+02  0.54366996295E+02  0.39999799653E+02 0.  0.
        -12    1    3    3    0    0  0.22105718511E+02  0.26535729548E+02 -0.12766306448E+02  0.36821003705E+02  0.00000000000E+00 0.  1.
         11    1    4    4    0    0 -0.22296961580E+02 -0.93466453403E+01  0.22888421551E+02  0.33292553464E+02  0.51100000000E-03 0. -1.
        -11    1    4    4    0    0  0.19563514211E+01 -0.49752804788E+01 -0.60629322267E+01  0.80833083680E+01  0.51100000000E-03 0.  1.
        -12    1    4    4    0    0 -0.17651083523E+01 -0.12213803729E+02 -0.40591828761E+01  0.12991134463E+02  0.00000000000E+00 0.  1.
</event>
<event>
 8    1  0.1278459E-006  0.9118800E+02  0.7816164E-02  0.1184000E+00
        -11   -1    0    0    0    0  0.00000000000E+00  0.00000000000E+00  0.45593999997E+02  0.45594000000E+02  0.51100000000E-03 0.  1.
         11   -1    0    0    0    0 -0.00000000000E+00 -0.00000000000E+00 -0.45593999997E+02  0.45594000000E+02  0.51100000000E-03 0. -1.
         23    2    1    2    0    0  0.00000000000E+00  0.00000000000E+00  0.00000000000E+00  0.91188000000E+02  0.91188000000E+02 0.  0.
    9900012    2    3    3    0    0  0.45186102421E+01  0.34520155488E+02  0.11988308674E+02  0.54367102152E+02  0.40000040976E+02 0.  0.
         12    1    3    3    0    0 -0.45186102421E+01 -0.34520155488E+02 -0.11988308674E+02  0.36820897848E+02  0.00000000000E+00 0. -1.
         11    1    4    4    0    0  0.68607787927E+01  0.66490308253E+00 -0.34413759360E+01  0.77042488501E+01  0.51100000000E-03 0. -1.
        -11    1    4    4    0    0  0.12855402362E+02  0.13601131856E+02  0.63907577530E+01  0.19776095231E+02  0.51100000000E-03 0.  1.
        -12    1    4    4    0    0 -0.15197570912E+02  0.20254120549E+02  0.90389268571E+01  0.26886758071E+02  0.00000000000E+00 0.  1.
</event>
<event>
 8    1  0.1278459E-006  0.9118800E+02  0.7816164E-02  0.1184000E+00
        -11   -1    0    0    0    0  0.00000000000E+00  0.00000000000E+00  0.45593999997E+02  0.45594000000E+02  0.51100000000E-03 0.  1.
         11   -1    0    0    0    0 -0.00000000000E+00 -0.00000000000E+00 -0.45593999997E+02  0.45594000000E+02  0.51100000000E-03 0. -1.
         23    2    1    2    0    0  0.00000000000E+00  0.00000000000E+00  0.35527136788E-14  0.91188000000E+02  0.91188000000E+02 0.  0.
    9900012    2    3    3    0    0  0.18039712603E+02 -0.18705045487E+02 -0.26085810115E+02  0.54367089544E+02  0.40000012233E+02 0.  0.
        -12    1    3    3    0    0 -0.18039712603E+02  0.18705045487E+02  0.26085810115E+02  0.36820910456E+02  0.00000000000E+00 0.  1.
         11    1    4    4    0    0  0.16231048342E+02 -0.19888954756E+02 -0.94694764043E+01  0.27362171609E+02  0.51100000000E-03 0. -1.
        -11    1    4    4    0    0  0.77219574966E+01 -0.11974399377E+01 -0.18725268471E+02  0.20290346708E+02  0.51100000000E-03 0.  1.
        -12    1    4    4    0    0 -0.59132932356E+01  0.23813492058E+01  0.21089347600E+01  0.67145712262E+01  0.00000000000E+00 0.  1.
</event>
<event>
 8    1  0.1278459E-006  0.9118800E+02  0.7816164E-02  0.1184000E+00
        -11   -1    0    0    0    0  0.00000000000E+00  0.00000000000E+00  0.45593999997E+02  0.45594000000E+02  0.51100000000E-03 0. -1.
         11   -1    0    0    0    0 -0.00000000000E+00 -0.00000000000E+00 -0.45593999997E+02  0.45594000000E+02  0.51100000000E-03 0.  1.
         23    2    1    2    0    0  0.17763568394E-14 -0.71054273576E-14 -0.17763568394E-14  0.91188000000E+02  0.91188000000E+02 0.  0.
    9900012    2    3    3    0    0 -0.47326848577E+01  0.35149840273E+02  0.98928782804E+01  0.54367100800E+02  0.40000037895E+02 0.  0.
         12    1    3    3    0    0  0.47326848577E+01 -0.35149840273E+02 -0.98928782804E+01  0.36820899200E+02  0.00000000000E+00 0. -1.
         11    1    4    4    0    0 -0.71009699362E+01  0.24578680703E+02  0.21552934196E+02  0.33452418326E+02  0.51100000000E-03 0. -1.
        -11    1    4    4    0    0  0.20871052576E+01  0.23458102639E+01  0.28452002586E+01  0.42372159401E+01  0.51100000000E-03 0.  1.
        -12    1    4    4    0    0  0.28117982093E+00  0.82253493062E+01 -0.14505256175E+02  0.16677466534E+02  0.00000000000E+00 0.  1.
</event>
<event>
 8    1  0.1278459E-006  0.9118800E+02  0.7816164E-02  0.1184000E+00
        -11   -1    0    0    0    0  0.00000000000E+00  0.00000000000E+00  0.45593999997E+02  0.45594000000E+02  0.51100000000E-03 0. -1.
         11   -1    0    0    0    0 -0.00000000000E+00 -0.00000000000E+00 -0.45593999997E+02  0.45594000000E+02  0.51100000000E-03 0.  1.
         23    2    1    2    0    0 -0.71054273576E-14 -0.35527136788E-14  0.00000000000E+00  0.91188000000E+02  0.91188000000E+02 0.  0.
    9900012    2    3    3    0    0  0.21387083344E+02  0.29861712260E+02 -0.25793076790E+01  0.54367054586E+02  0.39999932540E+02 0.  0.
         12    1    3    3    0    0 -0.21387083344E+02 -0.29861712260E+02  0.25793076790E+01  0.36820945414E+02  0.00000000000E+00 0. -1.
         11    1    4    4    0    0 -0.75158965892E+01  0.93137271562E+01  0.84383889362E+01  0.14643791284E+02  0.51100000000E-03 0. -1.
        -11    1    4    4    0    0  0.99276427663E+01  0.70085002827E+00  0.45863864713E+00  0.99629127933E+01  0.51100000000E-03 0.  1.
         12    1    4    4    0    0  0.18975337167E+02  0.19847135076E+02 -0.11476335262E+02  0.29760350508E+02  0.00000000000E+00 0. -1.
</event>
<event>
 8    1  0.1278459E-006  0.9118800E+02  0.7816164E-02  0.1184000E+00
        -11   -1    0    0    0    0  0.00000000000E+00  0.00000000000E+00  0.45593999997E+02  0.45594000000E+02  0.51100000000E-03 0.  1.
         11   -1    0    0    0    0 -0.00000000000E+00 -0.00000000000E+00 -0.45593999997E+02  0.45594000000E+02  0.51100000000E-03 0. -1.
         23    2    1    2    0    0  0.26645352591E-14  0.71054273576E-14  0.88817841970E-15  0.91188000000E+02  0.91188000000E+02 0.  0.
    9900012    2    3    3    0    0  0.43578780186E+01 -0.36247565845E+02  0.47856814017E+01  0.54367083703E+02  0.39999998917E+02 0.  0.
         12    1    3    3    0    0 -0.43578780186E+01  0.36247565845E+02 -0.47856814017E+01  0.36820916297E+02  0.00000000000E+00 0. -1.
         11    1    4    4    0    0 -0.82100767525E+01  0.28326937186E+01  0.84705817539E+01  0.12131787564E+02  0.51100000000E-03 0. -1.
        -11    1    4    4    0    0  0.36945545240E+01 -0.11218388407E+02  0.31136496587E+01  0.12214613626E+02  0.51100000000E-03 0.  1.
         12    1    4    4    0    0  0.88734002472E+01 -0.27861871156E+02 -0.67985500109E+01  0.30020682513E+02  0.00000000000E+00 0. -1.
</event>
<event>
 8    1  0.1278459E-006  0.9118800E+02  0.7816164E-02  0.1184000E+00
        -11   -1    0    0    0    0  0.00000000000E+00  0.00000000000E+00  0.45593999997E+02  0.45594000000E+02  0.51100000000E-03 0.  1.
         11   -1    0    0    0    0 -0.00000000000E+00 -0.00000000000E+00 -0.45593999997E+02  0.45594000000E+02  0.51100000000E-03 0. -1.
         23    2    1    2    0    0 -0.35527136788E-14  0.35527136788E-14  0.35527136788E-14  0.91188000000E+02  0.91188000000E+02 0.  0.
    9900012    2    3    3    0    0  0.16006912766E+02 -0.25426510522E+02 -0.21285007826E+02  0.54367078613E+02  0.39999987314E+02 0.  0.
        -12    1    3    3    0    0 -0.16006912766E+02  0.25426510522E+02  0.21285007826E+02  0.36820921387E+02  0.00000000000E+00 0.  1.
         11    1    4    4    0    0  0.15119051922E+02 -0.22323739675E+02 -0.10374769425E+02  0.28888941223E+02  0.51100000000E-03 0. -1.
        -11    1    4    4    0    0  0.55219512302E+01  0.60296999342E+01  0.25503835598E+01  0.85646764824E+01  0.51100000000E-03 0.  1.
         12    1    4    4    0    0 -0.46340903863E+01 -0.91324707812E+01 -0.13460621961E+02  0.16913460907E+02  0.00000000000E+00 0. -1.
</event>
<event>
 8    1  0.1278459E-006  0.9118800E+02  0.7816164E-02  0.1184000E+00
        -11   -1    0    0    0    0  0.00000000000E+00  0.00000000000E+00  0.45593999997E+02  0.45594000000E+02  0.51100000000E-03 0. -1.
         11   -1    0    0    0    0 -0.00000000000E+00 -0.00000000000E+00 -0.45593999997E+02  0.45594000000E+02  0.51100000000E-03 0.  1.
         23    2    1    2    0    0  0.00000000000E+00  0.00000000000E+00  0.00000000000E+00  0.91188000000E+02  0.91188000000E+02 0.  0.
    9900012    2    3    3    0    0  0.21246317701E+02 -0.21795165081E+02  0.20720601439E+02  0.54367101576E+02  0.40000039662E+02 0.  0.
        -12    1    3    3    0    0 -0.21246317701E+02  0.21795165081E+02 -0.20720601439E+02  0.36820898424E+02  0.00000000000E+00 0.  1.
         11    1    4    4    0    0  0.11249093505E+02 -0.25221136438E+02  0.17453634548E+02  0.32669208548E+02  0.51100000000E-03 0. -1.
        -11    1    4    4    0    0  0.14830676969E+01  0.47017889595E+01 -0.68334135104E+01  0.84262595307E+01  0.51100000000E-03 0.  1.
        -12    1    4    4    0    0  0.85141564994E+01 -0.12758176025E+01  0.10100380401E+02  0.13271633498E+02  0.00000000000E+00 0.  1.
</event>
<event>
 8    1  0.1278459E-006  0.9118800E+02  0.7816164E-02  0.1184000E+00
        -11   -1    0    0    0    0  0.00000000000E+00  0.00000000000E+00  0.45593999997E+02  0.45594000000E+02  0.51100000000E-03 0.  1.
         11   -1    0    0    0    0 -0.00000000000E+00 -0.00000000000E+00 -0.45593999997E+02  0.45594000000E+02  0.51100000000E-03 0. -1.
         23    2    1    2    0    0 -0.88817841970E-15  0.71054273576E-14 -0.71054273576E-14  0.91188000000E+02  0.91188000000E+02 0.  0.
    9900012    2    3    3    0    0 -0.64366923062E+01  0.32049607065E+02 -0.16946121250E+02  0.54367090909E+02  0.40000015345E+02 0.  0.
        -12    1    3    3    0    0  0.64366923062E+01 -0.32049607065E+02  0.16946121250E+02  0.36820909091E+02  0.00000000000E+00 0.  1.
         11    1    4    4    0    0 -0.29802506484E+01  0.83615460546E+01  0.79817346898E+01  0.11937564043E+02  0.51100000000E-03 0. -1.
        -11    1    4    4    0    0 -0.52425096974E+01 -0.39884580195E+01 -0.52554853868E+01  0.84268518566E+01  0.51100000000E-03 0.  1.
         12    1    4    4    0    0  0.17860680397E+01  0.27676519030E+02 -0.19672370553E+02  0.34002675010E+02  0.00000000000E+00 0. -1.
</event>
<event>
 8    1  0.1278459E-006  0.9118800E+02  0.7816164E-02  0.1184000E+00
        -11   -1    0    0    0    0  0.00000000000E+00  0.00000000000E+00  0.45593999997E+02  0.45594000000E+02  0.51100000000E-03 0.  1.
         11   -1    0    0    0    0 -0.00000000000E+00 -0.00000000000E+00 -0.45593999997E+02  0.45594000000E+02  0.51100000000E-03 0. -1.
         23    2    1    2    0    0  0.17763568394E-14 -0.35527136788E-14 -0.35527136788E-14  0.91188000000E+02  0.91188000000E+02 0.  0.
    9900012    2    3    3    0    0 -0.14060254479E+02 -0.22258415915E+02 -0.25742080262E+02  0.54367047659E+02  0.39999916748E+02 0.  0.
        -12    1    3    3    0    0  0.14060254479E+02  0.22258415915E+02  0.25742080262E+02  0.36820952341E+02  0.00000000000E+00 0.  1.
         11    1    4    4    0    0 -0.10276132107E+02 -0.55189986355E+01 -0.12919519322E+02  0.17406097115E+02  0.51100000000E-03 0. -1.
        -11    1    4    4    0    0 -0.91855083569E+01  0.60511286703E+01 -0.61736516355E+01  0.12613631386E+02  0.51100000000E-03 0.  1.
        -12    1    4    4    0    0  0.54013859841E+01 -0.22790545950E+02 -0.66489093047E+01  0.24347319158E+02  0.00000000000E+00 0.  1.
</event>
<event>
 8    1  0.1278459E-006  0.9118800E+02  0.7816164E-02  0.1184000E+00
        -11   -1    0    0    0    0  0.00000000000E+00  0.00000000000E+00  0.45593999997E+02  0.45594000000E+02  0.51100000000E-03 0.  1.
         11   -1    0    0    0    0 -0.00000000000E+00 -0.00000000000E+00 -0.45593999997E+02  0.45594000000E+02  0.51100000000E-03 0. -1.
         23    2    1    2    0    0 -0.35527136788E-14 -0.71054273576E-14  0.00000000000E+00  0.91188000000E+02  0.91188000000E+02 0.  0.
    9900012    2    3    3    0    0  0.27054898744E+02  0.18801631632E+02  0.16441121574E+02  0.54367090496E+02  0.40000014404E+02 0.  0.
         12    1    3    3    0    0 -0.27054898744E+02 -0.18801631632E+02 -0.16441121574E+02  0.36820909504E+02  0.00000000000E+00 0. -1.
         11    1    4    4    0    0  0.12443252302E+02  0.26060664135E+02  0.10966581375E+02  0.30891077196E+02  0.51100000000E-03 0. -1.
        -11    1    4    4    0    0  0.32903727937E+01 -0.85488794197E+01  0.75786018592E+01  0.11888864490E+02  0.51100000000E-03 0.  1.
        -12    1    4    4    0    0  0.11321273648E+02  0.12898469167E+01 -0.21040616602E+01  0.11587148810E+02  0.00000000000E+00 0.  1.
</event>
<event>
 8    1  0.1278459E-006  0.9118800E+02  0.7816164E-02  0.1184000E+00
        -11   -1    0    0    0    0  0.00000000000E+00  0.00000000000E+00  0.45593999997E+02  0.45594000000E+02  0.51100000000E-03 0.  1.
         11   -1    0    0    0    0 -0.00000000000E+00 -0.00000000000E+00 -0.45593999997E+02  0.45594000000E+02  0.51100000000E-03 0. -1.
         23    2    1    2    0    0  0.00000000000E+00  0.00000000000E+00 -0.17763568394E-14  0.91188000000E+02  0.91188000000E+02 0.  0.
    9900012    2    3    3    0    0 -0.60778994532E+01 -0.32652372973E+02 -0.15895345018E+02  0.54367077745E+02  0.39999985335E+02 0.  0.
        -12    1    3    3    0    0  0.60778994532E+01  0.32652372973E+02  0.15895345018E+02  0.36820922255E+02  0.00000000000E+00 0.  1.
         11    1    4    4    0    0 -0.13110553926E+02 -0.14273807917E+02 -0.21403702045E+02  0.28874671915E+02  0.51100000000E-03 0. -1.
        -11    1    4    4    0    0  0.58774212742E+01  0.51799428873E+00  0.20573203475E+01  0.62485971378E+01  0.51100000000E-03 0.  1.
         12    1    4    4    0    0  0.11552331989E+01 -0.18896559345E+02  0.34510366800E+01  0.19243808692E+02  0.00000000000E+00 0. -1.
</event>
<event>
 8    1  0.1278459E-006  0.9118800E+02  0.7816164E-02  0.1184000E+00
        -11   -1    0    0    0    0  0.00000000000E+00  0.00000000000E+00  0.45593999997E+02  0.45594000000E+02  0.51100000000E-03 0. -1.
         11   -1    0    0    0    0 -0.00000000000E+00 -0.00000000000E+00 -0.45593999997E+02  0.45594000000E+02  0.51100000000E-03 0.  1.
         23    2    1    2    0    0  0.35527136788E-14  0.35527136788E-14  0.00000000000E+00  0.91188000000E+02  0.91188000000E+02 0.  0.
    9900012    2    3    3    0    0  0.23785798121E+02 -0.18874649390E+02 -0.20826935913E+02  0.54367111345E+02  0.40000061932E+02 0.  0.
        -12    1    3    3    0    0 -0.23785798121E+02  0.18874649390E+02  0.20826935913E+02  0.36820888655E+02  0.00000000000E+00 0.  1.
         11    1    4    4    0    0  0.79314377255E+01  0.38007958557E+01 -0.13561108876E+02  0.16163459646E+02  0.51100000000E-03 0. -1.
        -11    1    4    4    0    0 -0.18486303560E+01  0.74437523510E+00 -0.85878442030E+01  0.88160420258E+01  0.51100000000E-03 0.  1.
         12    1    4    4    0    0  0.17702990752E+02 -0.23419820481E+02  0.13220171658E+01  0.29387609673E+02  0.00000000000E+00 0. -1.
</event>
<event>
 8    1  0.1278459E-006  0.9118800E+02  0.7816164E-02  0.1184000E+00
        -11   -1    0    0    0    0  0.00000000000E+00  0.00000000000E+00  0.45593999997E+02  0.45594000000E+02  0.51100000000E-03 0.  1.
         11   -1    0    0    0    0 -0.00000000000E+00 -0.00000000000E+00 -0.45593999997E+02  0.45594000000E+02  0.51100000000E-03 0. -1.
         23    2    1    2    0    0  0.00000000000E+00 -0.35527136788E-14 -0.17763568394E-14  0.91188000000E+02  0.91188000000E+02 0.  0.
    9900012    2    3    3    0    0  0.28663937525E+02  0.18390667781E+02  0.13997923889E+02  0.54367084082E+02  0.39999999782E+02 0.  0.
         12    1    3    3    0    0 -0.28663937525E+02 -0.18390667781E+02 -0.13997923889E+02  0.36820915918E+02  0.00000000000E+00 0. -1.
         11    1    4    4    0    0  0.19598969510E+02  0.23869170165E+02 -0.18966929773E+01  0.30942759003E+02  0.51100000000E-03 0. -1.
        -11    1    4    4    0    0  0.34431016226E+01  0.36344801066E+01  0.10044098851E+02  0.11222669754E+02  0.51100000000E-03 0.  1.
        -12    1    4    4    0    0  0.56218663921E+01 -0.91129824907E+01  0.58505180159E+01  0.12201655325E+02  0.00000000000E+00 0.  1.
</event>
<event>
 8    1  0.1278459E-006  0.9118800E+02  0.7816164E-02  0.1184000E+00
        -11   -1    0    0    0    0  0.00000000000E+00  0.00000000000E+00  0.45593999997E+02  0.45594000000E+02  0.51100000000E-03 0.  1.
         11   -1    0    0    0    0 -0.00000000000E+00 -0.00000000000E+00 -0.45593999997E+02  0.45594000000E+02  0.51100000000E-03 0. -1.
         23    2    1    2    0    0 -0.35527136788E-14  0.00000000000E+00  0.00000000000E+00  0.91188000000E+02  0.91188000000E+02 0.  0.
    9900012    2    3    3    0    0 -0.19810077248E+02  0.19258724749E+02  0.24340145182E+02  0.54367077863E+02  0.39999985604E+02 0.  0.
         12    1    3    3    0    0  0.19810077248E+02 -0.19258724749E+02 -0.24340145182E+02  0.36820922137E+02  0.00000000000E+00 0. -1.
         11    1    4    4    0    0  0.52703717819E+01  0.10861062281E+02 -0.50113162216E+01  0.13071066641E+02  0.51100000000E-03 0. -1.
        -11    1    4    4    0    0 -0.30167004960E+01  0.23247947995E+01  0.11964008624E+02  0.12555582637E+02  0.51100000000E-03 0.  1.
         12    1    4    4    0    0 -0.22063748534E+02  0.60728676689E+01  0.17387452780E+02  0.28740428585E+02  0.00000000000E+00 0. -1.
</event>
<event>
 8    1  0.1278459E-006  0.9118800E+02  0.7816164E-02  0.1184000E+00
        -11   -1    0    0    0    0  0.00000000000E+00  0.00000000000E+00  0.45593999997E+02  0.45594000000E+02  0.51100000000E-03 0.  1.
         11   -1    0    0    0    0 -0.00000000000E+00 -0.00000000000E+00 -0.45593999997E+02  0.45594000000E+02  0.51100000000E-03 0. -1.
         23    2    1    2    0    0  0.17763568394E-14  0.00000000000E+00 -0.55511151231E-15  0.91188000000E+02  0.91188000000E+02 0.  0.
    9900012    2    3    3    0    0 -0.12030690538E+02 -0.34789824192E+02  0.84317805111E+00  0.54367077533E+02  0.39999984852E+02 0.  0.
        -12    1    3    3    0    0  0.12030690538E+02  0.34789824192E+02 -0.84317805111E+00  0.36820922467E+02  0.00000000000E+00 0.  1.
         11    1    4    4    0    0  0.77277858775E+01 -0.69432742375E+01 -0.91611926989E+01  0.13851179864E+02  0.51100000000E-03 0. -1.
        -11    1    4    4    0    0 -0.39343922150E+01 -0.11610036532E+02  0.12739261568E+02  0.17679399762E+02  0.51100000000E-03 0.  1.
         12    1    4    4    0    0 -0.15824084200E+02 -0.16236513422E+02 -0.27348908177E+01  0.22836497907E+02  0.00000000000E+00 0. -1.
</event>
<event>
 8    1  0.1278459E-006  0.9118800E+02  0.7816164E-02  0.1184000E+00
        -11   -1    0    0    0    0  0.00000000000E+00  0.00000000000E+00  0.45593999997E+02  0.45594000000E+02  0.51100000000E-03 0. -1.
         11   -1    0    0    0    0 -0.00000000000E+00 -0.00000000000E+00 -0.45593999997E+02  0.45594000000E+02  0.51100000000E-03 0.  1.
         23    2    1    2    0    0  0.17763568394E-14 -0.71054273576E-14  0.88817841970E-15  0.91188000000E+02  0.91188000000E+02 0.  0.
    9900012    2    3    3    0    0 -0.69009062095E+01  0.35993172039E+02 -0.35579331191E+01  0.54366948575E+02  0.39999690865E+02 0.  0.
        -12    1    3    3    0    0  0.69009062095E+01 -0.35993172039E+02  0.35579331191E+01  0.36821051425E+02  0.00000000000E+00 0.  1.
         11    1    4    4    0    0 -0.13990070642E+02  0.13610097082E+02  0.35039697888E+01  0.19830144319E+02  0.51100000000E-03 0. -1.
        -11    1    4    4    0    0 -0.11544437339E+01  0.15674523631E+01  0.75532816133E+01  0.78001096554E+01  0.51100000000E-03 0.  1.
         12    1    4    4    0    0  0.82436081667E+01  0.20815622594E+02 -0.14615184521E+02  0.26736694601E+02  0.00000000000E+00 0. -1.
</event>
<event>
 8    1  0.1278459E-006  0.9118800E+02  0.7816164E-02  0.1184000E+00
        -11   -1    0    0    0    0  0.00000000000E+00  0.00000000000E+00  0.45593999997E+02  0.45594000000E+02  0.51100000000E-03 0.  1.
         11   -1    0    0    0    0 -0.00000000000E+00 -0.00000000000E+00 -0.45593999997E+02  0.45594000000E+02  0.51100000000E-03 0. -1.
         23    2    1    2    0    0  0.00000000000E+00  0.00000000000E+00  0.00000000000E+00  0.91188000000E+02  0.91188000000E+02 0.  0.
    9900012    2    3    3    0    0 -0.21345387078E+02  0.18994715358E+02  0.23224024135E+02  0.54367081244E+02  0.39999993311E+02 0.  0.
         12    1    3    3    0    0  0.21345387078E+02 -0.18994715358E+02 -0.23224024135E+02  0.36820918756E+02  0.00000000000E+00 0. -1.
         11    1    4    4    0    0  0.40485292567E+01  0.68056965217E+01 -0.35227972441E+01  0.86670753413E+01  0.51100000000E-03 0. -1.
        -11    1    4    4    0    0 -0.10357783777E+01  0.11042666610E+02  0.14940103737E+02  0.18606988543E+02  0.51100000000E-03 0.  1.
        -12    1    4    4    0    0 -0.24358137957E+02  0.11463522260E+01  0.11806717642E+02  0.27093017360E+02  0.00000000000E+00 0.  1.
</event>
<event>
 8    1  0.1278459E-006  0.9118800E+02  0.7816164E-02  0.1184000E+00
        -11   -1    0    0    0    0  0.00000000000E+00  0.00000000000E+00  0.45593999997E+02  0.45594000000E+02  0.51100000000E-03 0. -1.
         11   -1    0    0    0    0 -0.00000000000E+00 -0.00000000000E+00 -0.45593999997E+02  0.45594000000E+02  0.51100000000E-03 0.  1.
         23    2    1    2    0    0  0.00000000000E+00  0.00000000000E+00  0.35527136788E-14  0.91188000000E+02  0.91188000000E+02 0.  0.
    9900012    2    3    3    0    0 -0.59125981536E+01 -0.18089989508E+02 -0.31520988793E+02  0.54367091920E+02  0.40000017650E+02 0.  0.
         12    1    3    3    0    0  0.59125981536E+01  0.18089989508E+02  0.31520988793E+02  0.36820908080E+02  0.00000000000E+00 0. -1.
         11    1    4    4    0    0  0.95633204380E+01 -0.39447426798E+00  0.26447188398E+01  0.99301181137E+01  0.51100000000E-03 0. -1.
        -11    1    4    4    0    0 -0.15760562539E+02 -0.62458459445E+01 -0.19883386373E+02  0.26129580499E+02  0.51100000000E-03 0.  1.
        -12    1    4    4    0    0  0.28464394731E+00 -0.11449669295E+02 -0.14282321260E+02  0.18307393308E+02  0.00000000000E+00 0.  1.
</event>
<event>
 8    1  0.1278459E-006  0.9118800E+02  0.7816164E-02  0.1184000E+00
        -11   -1    0    0    0    0  0.00000000000E+00  0.00000000000E+00  0.45593999997E+02  0.45594000000E+02  0.51100000000E-03 0.  1.
         11   -1    0    0    0    0 -0.00000000000E+00 -0.00000000000E+00 -0.45593999997E+02  0.45594000000E+02  0.51100000000E-03 0. -1.
         23    2    1    2    0    0  0.00000000000E+00  0.00000000000E+00  0.00000000000E+00  0.91188000000E+02  0.91188000000E+02 0.  0.
    9900012    2    3    3    0    0  0.25763234451E+02  0.25640773383E+02  0.58811562276E+01  0.54367061560E+02  0.39999948438E+02 0.  0.
         12    1    3    3    0    0 -0.25763234451E+02 -0.25640773383E+02 -0.58811562276E+01  0.36820938440E+02  0.00000000000E+00 0. -1.
         11    1    4    4    0    0 -0.67317184222E+01  0.93120420501E+01  0.30611172720E+01  0.11891198395E+02  0.51100000000E-03 0. -1.
        -11    1    4    4    0    0  0.29059829943E+02  0.19849110426E+02 -0.24376671355E+01  0.35276098457E+02  0.51100000000E-03 0.  1.
        -12    1    4    4    0    0  0.34351229302E+01 -0.35203790935E+01  0.52577060911E+01  0.71997647078E+01  0.00000000000E+00 0.  1.
</event>
<event>
 8    1  0.1278459E-006  0.9118800E+02  0.7816164E-02  0.1184000E+00
        -11   -1    0    0    0    0  0.00000000000E+00  0.00000000000E+00  0.45593999997E+02  0.45594000000E+02  0.51100000000E-03 0. -1.
         11   -1    0    0    0    0 -0.00000000000E+00 -0.00000000000E+00 -0.45593999997E+02  0.45594000000E+02  0.51100000000E-03 0.  1.
         23    2    1    2    0    0  0.35527136788E-14  0.88817841970E-15  0.00000000000E+00  0.91188000000E+02  0.91188000000E+02 0.  0.
    9900012    2    3    3    0    0  0.30087266597E+02 -0.49293803779E+01 -0.20645494471E+02  0.54367097728E+02  0.40000030890E+02 0.  0.
         12    1    3    3    0    0 -0.30087266597E+02  0.49293803779E+01  0.20645494471E+02  0.36820902272E+02  0.00000000000E+00 0. -1.
         11    1    4    4    0    0  0.60371577781E+01 -0.96031650408E+01 -0.98035650965E+01  0.14992596229E+02  0.51100000000E-03 0.  1.
        -11    1    4    4    0    0  0.30472838782E+02  0.12002427442E+01 -0.95693868355E+01  0.31962597684E+02  0.51100000000E-03 0. -1.
         12    1    4    4    0    0 -0.64227299626E+01  0.34735419187E+01 -0.12725425392E+01  0.74119038139E+01  0.00000000000E+00 0. -1.
</event>
<event>
 8    1  0.1278459E-006  0.9118800E+02  0.7816164E-02  0.1184000E+00
        -11   -1    0    0    0    0  0.00000000000E+00  0.00000000000E+00  0.45593999997E+02  0.45594000000E+02  0.51100000000E-03 0. -1.
         11   -1    0    0    0    0 -0.00000000000E+00 -0.00000000000E+00 -0.45593999997E+02  0.45594000000E+02  0.51100000000E-03 0.  1.
         23    2    1    2    0    0  0.35527136788E-14  0.00000000000E+00  0.35527136788E-14  0.91188000000E+02  0.91188000000E+02 0.  0.
    9900012    2    3    3    0    0 -0.17769948717E+02 -0.98567253958E+01 -0.30705925744E+02  0.54367082185E+02  0.39999995457E+02 0.  0.
         12    1    3    3    0    0  0.17769948717E+02  0.98567253958E+01  0.30705925744E+02  0.36820917815E+02  0.00000000000E+00 0. -1.
         11    1    4    4    0    0  0.18860632126E+01 -0.93988550290E+01 -0.26170581311E+01  0.99370369739E+01  0.51100000000E-03 0. -1.
        -11    1    4    4    0    0  0.22975722737E+01  0.57357552751E+01 -0.18819853416E+02  0.19808195520E+02  0.51100000000E-03 0.  1.
        -12    1    4    4    0    0 -0.21953584204E+02 -0.61936256420E+01 -0.92690141976E+01  0.24621849691E+02  0.00000000000E+00 0.  1.
</event>
<event>
 8    1  0.1278459E-006  0.9118800E+02  0.7816164E-02  0.1184000E+00
        -11   -1    0    0    0    0  0.00000000000E+00  0.00000000000E+00  0.45593999997E+02  0.45594000000E+02  0.51100000000E-03 0.  1.
         11   -1    0    0    0    0 -0.00000000000E+00 -0.00000000000E+00 -0.45593999997E+02  0.45594000000E+02  0.51100000000E-03 0. -1.
         23    2    1    2    0    0  0.00000000000E+00  0.00000000000E+00  0.00000000000E+00  0.91188000000E+02  0.91188000000E+02 0.  0.
    9900012    2    3    3    0    0  0.28115981973E+02  0.20788474146E+02  0.11537340271E+02  0.54367091264E+02  0.40000016154E+02 0.  0.
        -12    1    3    3    0    0 -0.28115981973E+02 -0.20788474146E+02 -0.11537340271E+02  0.36820908736E+02  0.00000000000E+00 0.  1.
         11    1    4    4    0    0 -0.36208893790E+01 -0.36844272485E-01 -0.63958937161E+01  0.73498063977E+01  0.51100000000E-03 0. -1.
        -11    1    4    4    0    0  0.10356099007E+02 -0.49426945163E+00  0.12664790953E+02  0.16367346122E+02  0.51100000000E-03 0.  1.
         12    1    4    4    0    0  0.21380772345E+02  0.21319587870E+02  0.52684430341E+01  0.30649938744E+02  0.00000000000E+00 0. -1.
</event>
<event>
 8    1  0.1278459E-006  0.9118800E+02  0.7816164E-02  0.1184000E+00
        -11   -1    0    0    0    0  0.00000000000E+00  0.00000000000E+00  0.45593999997E+02  0.45594000000E+02  0.51100000000E-03 0. -1.
         11   -1    0    0    0    0 -0.00000000000E+00 -0.00000000000E+00 -0.45593999997E+02  0.45594000000E+02  0.51100000000E-03 0.  1.
         23    2    1    2    0    0  0.00000000000E+00 -0.88817841970E-15 -0.66613381478E-15  0.91188000000E+02  0.91188000000E+02 0.  0.
    9900012    2    3    3    0    0 -0.36443455638E+02 -0.51894726466E+01  0.85914274358E+00  0.54366889052E+02  0.39999555169E+02 0.  0.
         12    1    3    3    0    0  0.36443455638E+02  0.51894726466E+01 -0.85914274358E+00  0.36821110948E+02  0.00000000000E+00 0. -1.
         11    1    4    4    0    0  0.15129727129E+01 -0.11456976014E+02 -0.26845539535E+01  0.11864156776E+02  0.51100000000E-03 0. -1.
        -11    1    4    4    0    0 -0.18875579638E+02  0.99093539657E+01  0.76473385630E+01  0.22648721598E+02  0.51100000000E-03 0.  1.
         12    1    4    4    0    0 -0.19080848714E+02 -0.36418505982E+01 -0.41036418659E+01  0.19854010677E+02  0.00000000000E+00 0. -1.
</event>
<event>
 8    1  0.1278459E-006  0.9118800E+02  0.7816164E-02  0.1184000E+00
        -11   -1    0    0    0    0  0.00000000000E+00  0.00000000000E+00  0.45593999997E+02  0.45594000000E+02  0.51100000000E-03 0.  1.
         11   -1    0    0    0    0 -0.00000000000E+00 -0.00000000000E+00 -0.45593999997E+02  0.45594000000E+02  0.51100000000E-03 0. -1.
         23    2    1    2    0    0  0.00000000000E+00  0.00000000000E+00  0.00000000000E+00  0.91188000000E+02  0.91188000000E+02 0.  0.
    9900012    2    3    3    0    0 -0.28258398608E+02 -0.18669395765E+02 -0.14446362152E+02  0.54367071039E+02  0.39999970049E+02 0.  0.
        -12    1    3    3    0    0  0.28258398608E+02  0.18669395765E+02  0.14446362152E+02  0.36820928961E+02  0.00000000000E+00 0.  1.
         11    1    4    4    0    0 -0.17347109842E+02 -0.87523158292E+01 -0.64013136601E+01  0.20457323116E+02  0.51100000000E-03 0. -1.
        -11    1    4    4    0    0 -0.51194236129E+01 -0.16088766138E+02 -0.15282839045E+02  0.22773275204E+02  0.51100000000E-03 0.  1.
        -12    1    4    4    0    0 -0.57918651529E+01  0.61716862022E+01  0.72377905539E+01  0.11136472719E+02  0.00000000000E+00 0.  1.
</event>
<event>
 8    1  0.1278459E-006  0.9118800E+02  0.7816164E-02  0.1184000E+00
        -11   -1    0    0    0    0  0.00000000000E+00  0.00000000000E+00  0.45593999997E+02  0.45594000000E+02  0.51100000000E-03 0. -1.
         11   -1    0    0    0    0 -0.00000000000E+00 -0.00000000000E+00 -0.45593999997E+02  0.45594000000E+02  0.51100000000E-03 0.  1.
         23    2    1    2    0    0 -0.44408920985E-15  0.00000000000E+00  0.00000000000E+00  0.91188000000E+02  0.91188000000E+02 0.  0.
    9900012    2    3    3    0    0 -0.22665777403E+01  0.36714594569E+02 -0.16372107192E+01  0.54367091701E+02  0.40000017152E+02 0.  0.
        -12    1    3    3    0    0  0.22665777403E+01 -0.36714594569E+02  0.16372107192E+01  0.36820908299E+02  0.00000000000E+00 0.  1.
         11    1    4    4    0    0 -0.58220837481E+01  0.90589393726E+01  0.17070001790E+02  0.20182814548E+02  0.51100000000E-03 0. -1.
        -11    1    4    4    0    0 -0.16687903047E+01  0.48346720903E+01 -0.23755840877E+01  0.56393541581E+01  0.51100000000E-03 0.  1.
        -12    1    4    4    0    0  0.52242963125E+01  0.22820983106E+02 -0.16331628422E+02  0.28544922995E+02  0.00000000000E+00 0.  1.
</event>
<event>
 8    1  0.1278459E-006  0.9118800E+02  0.7816164E-02  0.1184000E+00
        -11   -1    0    0    0    0  0.00000000000E+00  0.00000000000E+00  0.45593999997E+02  0.45594000000E+02  0.51100000000E-03 0.  1.
         11   -1    0    0    0    0 -0.00000000000E+00 -0.00000000000E+00 -0.45593999997E+02  0.45594000000E+02  0.51100000000E-03 0. -1.
         23    2    1    2    0    0 -0.71054273576E-14 -0.11102230246E-15 -0.17763568394E-14  0.91188000000E+02  0.91188000000E+02 0.  0.
    9900012    2    3    3    0    0  0.35078656516E+02  0.12888707942E+00  0.11191578363E+02  0.54367079573E+02  0.39999989503E+02 0.  0.
         12    1    3    3    0    0 -0.35078656516E+02 -0.12888707942E+00 -0.11191578363E+02  0.36820920427E+02  0.00000000000E+00 0. -1.
         11    1    4    4    0    0  0.10835174347E+02 -0.50819312132E+00 -0.12694860341E+02  0.16697866412E+02  0.51100000000E-03 0. -1.
        -11    1    4    4    0    0  0.20390577838E+02 -0.21269066921E+01  0.96403589494E+01  0.22654710715E+02  0.51100000000E-03 0.  1.
        -12    1    4    4    0    0  0.38529043310E+01  0.27639868928E+01  0.14246079754E+02  0.15014502446E+02  0.00000000000E+00 0.  1.
</event>
<event>
 8    1  0.1278459E-006  0.9118800E+02  0.7816164E-02  0.1184000E+00
        -11   -1    0    0    0    0  0.00000000000E+00  0.00000000000E+00  0.45593999997E+02  0.45594000000E+02  0.51100000000E-03 0.  1.
         11   -1    0    0    0    0 -0.00000000000E+00 -0.00000000000E+00 -0.45593999997E+02  0.45594000000E+02  0.51100000000E-03 0. -1.
         23    2    1    2    0    0  0.00000000000E+00 -0.35527136788E-14 -0.44408920985E-15  0.91188000000E+02  0.91188000000E+02 0.  0.
    9900012    2    3    3    0    0  0.19382726508E+02  0.31115715710E+02  0.34499415167E+01  0.54367082745E+02  0.39999996734E+02 0.  0.
        -12    1    3    3    0    0 -0.19382726508E+02 -0.31115715710E+02 -0.34499415167E+01  0.36820917255E+02  0.00000000000E+00 0.  1.
         11    1    4    4    0    0  0.84994571031E+01  0.21480954375E+02  0.94632095000E+01  0.24964464870E+02  0.51100000000E-03 0. -1.
        -11    1    4    4    0    0  0.15416018167E+02  0.85166640949E+01  0.42585005158E+01  0.18119658119E+02  0.51100000000E-03 0.  1.
         12    1    4    4    0    0 -0.45327487617E+01  0.11180972396E+01 -0.10271768499E+02  0.11282959757E+02  0.00000000000E+00 0. -1.
</event>
<event>
 8    1  0.1278459E-006  0.9118800E+02  0.7816164E-02  0.1184000E+00
        -11   -1    0    0    0    0  0.00000000000E+00  0.00000000000E+00  0.45593999997E+02  0.45594000000E+02  0.51100000000E-03 0.  1.
         11   -1    0    0    0    0 -0.00000000000E+00 -0.00000000000E+00 -0.45593999997E+02  0.45594000000E+02  0.51100000000E-03 0. -1.
         23    2    1    2    0    0  0.35527136788E-14  0.00000000000E+00  0.00000000000E+00  0.91188000000E+02  0.91188000000E+02 0.  0.
    9900012    2    3    3    0    0  0.23710957428E+02  0.24149644756E+02 -0.14503934911E+02  0.54367095993E+02  0.40000026935E+02 0.  0.
         12    1    3    3    0    0 -0.23710957428E+02 -0.24149644756E+02  0.14503934911E+02  0.36820904007E+02  0.00000000000E+00 0. -1.
         11    1    4    4    0    0  0.68521591104E+01  0.12021678624E+02 -0.17906064045E+02  0.22629625964E+02  0.51100000000E-03 0. -1.
        -11    1    4    4    0    0  0.21949368453E+02  0.13393386970E+02  0.44706260493E+00  0.25716871024E+02  0.51100000000E-03 0.  1.
        -12    1    4    4    0    0 -0.50905701349E+01 -0.12654208377E+01  0.29550665294E+01  0.60205990057E+01  0.00000000000E+00 0.  1.
</event>
<event>
 8    1  0.1278459E-006  0.9118800E+02  0.7816164E-02  0.1184000E+00
        -11   -1    0    0    0    0  0.00000000000E+00  0.00000000000E+00  0.45593999997E+02  0.45594000000E+02  0.51100000000E-03 0.  1.
         11   -1    0    0    0    0 -0.00000000000E+00 -0.00000000000E+00 -0.45593999997E+02  0.45594000000E+02  0.51100000000E-03 0. -1.
         23    2    1    2    0    0  0.71054273576E-14  0.11102230246E-14 -0.35527136788E-14  0.91188000000E+02  0.91188000000E+02 0.  0.
    9900012    2    3    3    0    0 -0.34645793008E+02 -0.18766209721E+01  0.12325871438E+02  0.54367084936E+02  0.40000001729E+02 0.  0.
         12    1    3    3    0    0  0.34645793008E+02  0.18766209721E+01 -0.12325871438E+02  0.36820915064E+02  0.00000000000E+00 0. -1.
         11    1    4    4    0    0  0.22511454768E+01  0.25464407472E+00  0.62190688771E+01  0.66188607420E+01  0.51100000000E-03 0. -1.
        -11    1    4    4    0    0 -0.40920917472E+01 -0.81500547456E+01  0.10724381017E+02  0.14077675791E+02  0.51100000000E-03 0.  1.
         12    1    4    4    0    0 -0.32804846738E+02  0.60187896988E+01 -0.46175784563E+01  0.33670548403E+02  0.00000000000E+00 0. -1.
</event>
<event>
 8    1  0.1278459E-006  0.9118800E+02  0.7816164E-02  0.1184000E+00
        -11   -1    0    0    0    0  0.00000000000E+00  0.00000000000E+00  0.45593999997E+02  0.45594000000E+02  0.51100000000E-03 0. -1.
         11   -1    0    0    0    0 -0.00000000000E+00 -0.00000000000E+00 -0.45593999997E+02  0.45594000000E+02  0.51100000000E-03 0.  1.
         23    2    1    2    0    0  0.00000000000E+00  0.00000000000E+00  0.00000000000E+00  0.91188000000E+02  0.91188000000E+02 0.  0.
    9900012    2    3    3    0    0  0.64344876608E+01 -0.27267106538E+02  0.23893137744E+02  0.54367085269E+02  0.40000002488E+02 0.  0.
        -12    1    3    3    0    0 -0.64344876608E+01  0.27267106538E+02 -0.23893137744E+02  0.36820914731E+02  0.00000000000E+00 0.  1.
         11    1    4    4    0    0  0.14515811617E+02 -0.22761747778E+02  0.13650862582E+02  0.30251479275E+02  0.51100000000E-03 0. -1.
        -11    1    4    4    0    0 -0.14252640943E+02 -0.50453951463E+01  0.95483347804E+01  0.17881959718E+02  0.51100000000E-03 0.  1.
        -12    1    4    4    0    0  0.61713169861E+01  0.54003638660E+00  0.69394038151E+00  0.62336462761E+01  0.00000000000E+00 0.  1.
</event>
<event>
 8    1  0.1278459E-006  0.9118800E+02  0.7816164E-02  0.1184000E+00
        -11   -1    0    0    0    0  0.00000000000E+00  0.00000000000E+00  0.45593999997E+02  0.45594000000E+02  0.51100000000E-03 0. -1.
         11   -1    0    0    0    0 -0.00000000000E+00 -0.00000000000E+00 -0.45593999997E+02  0.45594000000E+02  0.51100000000E-03 0.  1.
         23    2    1    2    0    0 -0.22204460493E-15  0.00000000000E+00  0.00000000000E+00  0.91188000000E+02  0.91188000000E+02 0.  0.
    9900012    2    3    3    0    0 -0.13641897204E+01 -0.33922806871E+01  0.36638933287E+02  0.54367081838E+02  0.39999994667E+02 0.  0.
        -12    1    3    3    0    0  0.13641897204E+01  0.33922806871E+01 -0.36638933287E+02  0.36820918162E+02  0.00000000000E+00 0.  1.
         11    1    4    4    0    0 -0.19866897080E+01 -0.15044191841E+00  0.73634207326E+01  0.76282064677E+01  0.51100000000E-03 0. -1.
        -11    1    4    4    0    0 -0.20884010896E+01 -0.18811866633E+01  0.37689856267E+02  0.37794517433E+02  0.51100000000E-03 0.  1.
        -12    1    4    4    0    0  0.27109010772E+01 -0.13606521053E+01 -0.84143437122E+01  0.89443579373E+01  0.00000000000E+00 0.  1.
</event>
<event>
 8    1  0.1278459E-006  0.9118800E+02  0.7816164E-02  0.1184000E+00
        -11   -1    0    0    0    0  0.00000000000E+00  0.00000000000E+00  0.45593999997E+02  0.45594000000E+02  0.51100000000E-03 0.  1.
         11   -1    0    0    0    0 -0.00000000000E+00 -0.00000000000E+00 -0.45593999997E+02  0.45594000000E+02  0.51100000000E-03 0. -1.
         23    2    1    2    0    0 -0.35527136788E-14  0.00000000000E+00  0.17763568394E-14  0.91188000000E+02  0.91188000000E+02 0.  0.
    9900012    2    3    3    0    0 -0.25622809370E+02 -0.21469536149E+02 -0.15437266700E+02  0.54367101781E+02  0.40000040130E+02 0.  0.
        -12    1    3    3    0    0  0.25622809370E+02  0.21469536149E+02  0.15437266700E+02  0.36820898219E+02  0.00000000000E+00 0.  1.
         11    1    4    4    0    0 -0.81161014761E+01 -0.10466884816E+02 -0.27295839783E+02  0.30339572355E+02  0.51100000000E-03 0. -1.
        -11    1    4    4    0    0 -0.11901198652E+02 -0.67187885861E+01  0.92634135971E+01  0.16510344671E+02  0.51100000000E-03 0.  1.
         12    1    4    4    0    0 -0.56055092413E+01 -0.42838627468E+01  0.25951594858E+01  0.75171847553E+01  0.00000000000E+00 0. -1.
</event>
<event>
 8    1  0.1278459E-006  0.9118800E+02  0.7816164E-02  0.1184000E+00
        -11   -1    0    0    0    0  0.00000000000E+00  0.00000000000E+00  0.45593999997E+02  0.45594000000E+02  0.51100000000E-03 0.  1.
         11   -1    0    0    0    0 -0.00000000000E+00 -0.00000000000E+00 -0.45593999997E+02  0.45594000000E+02  0.51100000000E-03 0. -1.
         23    2    1    2    0    0 -0.35527136788E-14 -0.35527136788E-14  0.35527136788E-14  0.91188000000E+02  0.91188000000E+02 0.  0.
    9900012    2    3    3    0    0 -0.24529781701E+02 -0.22467047169E+02 -0.15789308007E+02  0.54367073259E+02  0.39999975107E+02 0.  0.
        -12    1    3    3    0    0  0.24529781701E+02  0.22467047169E+02  0.15789308007E+02  0.36820926741E+02  0.00000000000E+00 0.  1.
         11    1    4    4    0    0  0.38418695764E+01 -0.18725167415E+01 -0.11823683180E+01  0.44344420043E+01  0.51100000000E-03 0. -1.
        -11    1    4    4    0    0 -0.81313862960E+01 -0.31127042701E+01  0.10230228518E+02  0.13433761452E+02  0.51100000000E-03 0.  1.
         12    1    4    4    0    0 -0.20240264981E+02 -0.17481826157E+02 -0.24837168207E+02  0.36498869802E+02  0.00000000000E+00 0. -1.
</event>
<event>
 8    1  0.1278459E-006  0.9118800E+02  0.7816164E-02  0.1184000E+00
        -11   -1    0    0    0    0  0.00000000000E+00  0.00000000000E+00  0.45593999997E+02  0.45594000000E+02  0.51100000000E-03 0. -1.
         11   -1    0    0    0    0 -0.00000000000E+00 -0.00000000000E+00 -0.45593999997E+02  0.45594000000E+02  0.51100000000E-03 0.  1.
         23    2    1    2    0    0  0.00000000000E+00 -0.88817841970E-15 -0.44408920985E-15  0.91188000000E+02  0.91188000000E+02 0.  0.
    9900012    2    3    3    0    0 -0.36618256480E+02 -0.17978765421E+01  0.34133153786E+01  0.54367084890E+02  0.40000001623E+02 0.  0.
        -12    1    3    3    0    0  0.36618256480E+02  0.17978765421E+01 -0.34133153786E+01  0.36820915110E+02  0.00000000000E+00 0.  1.
         11    1    4    4    0    0 -0.16478504459E+02  0.89918811544E+01  0.17006886419E+02  0.25330401138E+02  0.51100000000E-03 0. -1.
        -11    1    4    4    0    0 -0.38610491552E+01 -0.79149827905E+01 -0.69598018904E+01  0.11224682435E+02  0.51100000000E-03 0.  1.
         12    1    4    4    0    0 -0.16278702866E+02 -0.28747749061E+01 -0.66337691503E+01  0.17812001316E+02  0.00000000000E+00 0. -1.
</event>
<event>
 8    1  0.1278459E-006  0.9118800E+02  0.7816164E-02  0.1184000E+00
        -11   -1    0    0    0    0  0.00000000000E+00  0.00000000000E+00  0.45593999997E+02  0.45594000000E+02  0.51100000000E-03 0.  1.
         11   -1    0    0    0    0 -0.00000000000E+00 -0.00000000000E+00 -0.45593999997E+02  0.45594000000E+02  0.51100000000E-03 0. -1.
         23    2    1    2    0    0  0.00000000000E+00 -0.35527136788E-14 -0.35527136788E-14  0.91188000000E+02  0.91188000000E+02 0.  0.
    9900012    2    3    3    0    0  0.18609578030E+02  0.17089447466E+02 -0.26784601140E+02  0.54367075685E+02  0.39999980640E+02 0.  0.
        -12    1    3    3    0    0 -0.18609578030E+02 -0.17089447466E+02  0.26784601140E+02  0.36820924315E+02  0.00000000000E+00 0.  1.
         11    1    4    4    0    0  0.24752593515E+01  0.10714445246E+02 -0.65567018542E+01  0.12802991262E+02  0.51100000000E-03 0. -1.
        -11    1    4    4    0    0  0.11317448331E+02  0.85534431063E+01  0.55623036216E+01  0.15237626046E+02  0.51100000000E-03 0.  1.
         12    1    4    4    0    0  0.48168703480E+01 -0.21784408869E+01 -0.25790202908E+02  0.26326458377E+02  0.00000000000E+00 0. -1.
</event>
<event>
 8    1  0.1278459E-006  0.9118800E+02  0.7816164E-02  0.1184000E+00
        -11   -1    0    0    0    0  0.00000000000E+00  0.00000000000E+00  0.45593999997E+02  0.45594000000E+02  0.51100000000E-03 0.  1.
         11   -1    0    0    0    0 -0.00000000000E+00 -0.00000000000E+00 -0.45593999997E+02  0.45594000000E+02  0.51100000000E-03 0. -1.
         23    2    1    2    0    0  0.88817841970E-15  0.71054273576E-14  0.00000000000E+00  0.91188000000E+02  0.91188000000E+02 0.  0.
    9900012    2    3    3    0    0 -0.14014493293E+01  0.33658084036E+02 -0.14864359508E+02  0.54367083869E+02  0.39999999296E+02 0.  0.
        -12    1    3    3    0    0  0.14014493293E+01 -0.33658084036E+02  0.14864359508E+02  0.36820916131E+02  0.00000000000E+00 0.  1.
         11    1    4    4    0    0 -0.12382734952E+02  0.62931096278E+01 -0.14369835420E+02  0.19985682974E+02  0.51100000000E-03 0. -1.
        -11    1    4    4    0    0  0.15198481243E+02  0.24303149128E+02 -0.25539554153E+01  0.28777761869E+02  0.51100000000E-03 0.  1.
        -12    1    4    4    0    0 -0.42171956205E+01  0.30618252799E+01  0.20594313273E+01  0.56036390264E+01  0.00000000000E+00 0.  1.
</event>
<event>
 8    1  0.1278459E-006  0.9118800E+02  0.7816164E-02  0.1184000E+00
        -11   -1    0    0    0    0  0.00000000000E+00  0.00000000000E+00  0.45593999997E+02  0.45594000000E+02  0.51100000000E-03 0.  1.
         11   -1    0    0    0    0 -0.00000000000E+00 -0.00000000000E+00 -0.45593999997E+02  0.45594000000E+02  0.51100000000E-03 0. -1.
         23    2    1    2    0    0  0.35527136788E-14  0.00000000000E+00  0.88817841970E-15  0.91188000000E+02  0.91188000000E+02 0.  0.
    9900012    2    3    3    0    0  0.15121002886E+02  0.32665496110E+02 -0.77524646416E+01  0.54367081048E+02  0.39999992866E+02 0.  0.
        -12    1    3    3    0    0 -0.15121002886E+02 -0.32665496110E+02  0.77524646416E+01  0.36820918952E+02  0.00000000000E+00 0.  1.
         11    1    4    4    0    0 -0.58418652854E+01  0.20838269778E+02 -0.29373641600E+01  0.21840077514E+02  0.51100000000E-03 0. -1.
        -11    1    4    4    0    0 -0.24405558309E+01 -0.30739027310E+01  0.12654253174E+01  0.41238928525E+01  0.51100000000E-03 0.  1.
         12    1    4    4    0    0  0.23403424002E+02  0.14901129063E+02 -0.60805257990E+01  0.28403110682E+02  0.00000000000E+00 0. -1.
</event>
<event>
 8    1  0.1278459E-006  0.9118800E+02  0.7816164E-02  0.1184000E+00
        -11   -1    0    0    0    0  0.00000000000E+00  0.00000000000E+00  0.45593999997E+02  0.45594000000E+02  0.51100000000E-03 0.  1.
         11   -1    0    0    0    0 -0.00000000000E+00 -0.00000000000E+00 -0.45593999997E+02  0.45594000000E+02  0.51100000000E-03 0. -1.
         23    2    1    2    0    0  0.00000000000E+00 -0.35527136788E-14 -0.17763568394E-14  0.91188000000E+02  0.91188000000E+02 0.  0.
    9900012    2    3    3    0    0 -0.18689481346E+02  0.29750519181E+02 -0.11017679702E+02  0.54367090579E+02  0.40000014594E+02 0.  0.
        -12    1    3    3    0    0  0.18689481346E+02 -0.29750519181E+02  0.11017679702E+02  0.36820909421E+02  0.00000000000E+00 0.  1.
         11    1    4    4    0    0 -0.17415325434E+01  0.31494570767E+01  0.61695213363E+01  0.71424792095E+01  0.51100000000E-03 0. -1.
        -11    1    4    4    0    0 -0.11842729085E+02 -0.28542988662E+01  0.10158854332E+01  0.12224126868E+02  0.51100000000E-03 0.  1.
         12    1    4    4    0    0 -0.51052197173E+01  0.29455360971E+02 -0.18203086472E+02  0.35000484502E+02  0.00000000000E+00 0. -1.
</event>
<event>
 8    1  0.1278459E-006  0.9118800E+02  0.7816164E-02  0.1184000E+00
        -11   -1    0    0    0    0  0.00000000000E+00  0.00000000000E+00  0.45593999997E+02  0.45594000000E+02  0.51100000000E-03 0.  1.
         11   -1    0    0    0    0 -0.00000000000E+00 -0.00000000000E+00 -0.45593999997E+02  0.45594000000E+02  0.51100000000E-03 0. -1.
         23    2    1    2    0    0  0.00000000000E+00  0.88817841970E-15 -0.71054273576E-14  0.91188000000E+02  0.91188000000E+02 0.  0.
    9900012    2    3    3    0    0  0.50252479808E+01  0.44965789643E+01 -0.36198132164E+02  0.54367121251E+02  0.40000084517E+02 0.  0.
        -12    1    3    3    0    0 -0.50252479808E+01 -0.44965789643E+01  0.36198132164E+02  0.36820878749E+02  0.00000000000E+00 0.  1.
         11    1    4    4    0    0 -0.98592375317E+00 -0.58284988278E+00 -0.26155525665E+02  0.26180589808E+02  0.51100000000E-03 0. -1.
        -11    1    4    4    0    0 -0.87692085631E+01  0.59901458438E+01 -0.62719113083E+00  0.10638337982E+02  0.51100000000E-03 0.  1.
         12    1    4    4    0    0  0.14780380297E+02 -0.91071699673E+00 -0.94154153682E+01  0.17548193461E+02  0.00000000000E+00 0. -1.
</event>
<event>
 8    1  0.1278459E-006  0.9118800E+02  0.7816164E-02  0.1184000E+00
        -11   -1    0    0    0    0  0.00000000000E+00  0.00000000000E+00  0.45593999997E+02  0.45594000000E+02  0.51100000000E-03 0.  1.
         11   -1    0    0    0    0 -0.00000000000E+00 -0.00000000000E+00 -0.45593999997E+02  0.45594000000E+02  0.51100000000E-03 0. -1.
         23    2    1    2    0    0  0.17763568394E-14  0.00000000000E+00  0.71054273576E-14  0.91188000000E+02  0.91188000000E+02 0.  0.
    9900012    2    3    3    0    0 -0.25154172470E+01  0.21017921670E+02 -0.30128038930E+02  0.54367094457E+02  0.40000023434E+02 0.  0.
        -12    1    3    3    0    0  0.25154172470E+01 -0.21017921670E+02  0.30128038930E+02  0.36820905543E+02  0.00000000000E+00 0.  1.
         11    1    4    4    0    0  0.10551714770E+02  0.77668167262E+01 -0.20739145700E+01  0.13265113967E+02  0.51100000000E-03 0. -1.
        -11    1    4    4    0    0  0.40045395019E+01 -0.23952004353E+01  0.75461177687E-01  0.46667993741E+01  0.51100000000E-03 0.  1.
         12    1    4    4    0    0 -0.17071671519E+02  0.15646305379E+02 -0.28129585537E+02  0.36435181116E+02  0.00000000000E+00 0. -1.
</event>
<event>
 8    1  0.1278459E-006  0.9118800E+02  0.7816164E-02  0.1184000E+00
        -11   -1    0    0    0    0  0.00000000000E+00  0.00000000000E+00  0.45593999997E+02  0.45594000000E+02  0.51100000000E-03 0.  1.
         11   -1    0    0    0    0 -0.00000000000E+00 -0.00000000000E+00 -0.45593999997E+02  0.45594000000E+02  0.51100000000E-03 0. -1.
         23    2    1    2    0    0  0.35527136788E-14 -0.17763568394E-14  0.00000000000E+00  0.91188000000E+02  0.91188000000E+02 0.  0.
    9900012    2    3    3    0    0 -0.20515791163E+02  0.59330846028E+01  0.29994692947E+02  0.54367071373E+02  0.39999970810E+02 0.  0.
         12    1    3    3    0    0  0.20515791163E+02 -0.59330846028E+01 -0.29994692947E+02  0.36820928627E+02  0.00000000000E+00 0. -1.
         11    1    4    4    0    0  0.63894080461E+01 -0.40656577276E+01  0.10725989589E+02  0.13130154639E+02  0.51100000000E-03 0. -1.
        -11    1    4    4    0    0 -0.71417041875E+01 -0.32540462849E+01  0.15185316629E+02  0.17093466510E+02  0.51100000000E-03 0.  1.
         12    1    4    4    0    0 -0.19763495022E+02  0.13252788615E+02  0.40833867286E+01  0.24143450224E+02  0.00000000000E+00 0. -1.
</event>
<event>
 8    1  0.1278459E-006  0.9118800E+02  0.7816164E-02  0.1184000E+00
        -11   -1    0    0    0    0  0.00000000000E+00  0.00000000000E+00  0.45593999997E+02  0.45594000000E+02  0.51100000000E-03 0. -1.
         11   -1    0    0    0    0 -0.00000000000E+00 -0.00000000000E+00 -0.45593999997E+02  0.45594000000E+02  0.51100000000E-03 0.  1.
         23    2    1    2    0    0  0.00000000000E+00 -0.44408920985E-15 -0.71054273576E-14  0.91188000000E+02  0.91188000000E+02 0.  0.
    9900012    2    3    3    0    0 -0.15338191306E+02  0.17447699364E+01  0.33428664325E+02  0.54367082939E+02  0.39999997177E+02 0.  0.
        -12    1    3    3    0    0  0.15338191306E+02 -0.17447699364E+01 -0.33428664325E+02  0.36820917061E+02  0.00000000000E+00 0.  1.
         11    1    4    4    0    0  0.39390540362E+01  0.33404919840E+01 -0.63625793177E+01  0.81949648706E+01  0.51100000000E-03 0. -1.
        -11    1    4    4    0    0 -0.12047783912E+02  0.38534965107E+01  0.14149388867E+02  0.18979034172E+02  0.51100000000E-03 0.  1.
         12    1    4    4    0    0 -0.72294614299E+01 -0.54492185583E+01  0.25641854776E+02  0.27193083897E+02  0.00000000000E+00 0. -1.
</event>
<event>
 8    1  0.1278459E-006  0.9118800E+02  0.7816164E-02  0.1184000E+00
        -11   -1    0    0    0    0  0.00000000000E+00  0.00000000000E+00  0.45593999997E+02  0.45594000000E+02  0.51100000000E-03 0.  1.
         11   -1    0    0    0    0 -0.00000000000E+00 -0.00000000000E+00 -0.45593999997E+02  0.45594000000E+02  0.51100000000E-03 0. -1.
         23    2    1    2    0    0  0.00000000000E+00 -0.17763568394E-14 -0.35527136788E-14  0.91188000000E+02  0.91188000000E+02 0.  0.
    9900012    2    3    3    0    0  0.22096862506E+02 -0.41399995790E+01  0.29161082288E+02  0.54367086794E+02  0.40000005964E+02 0.  0.
         12    1    3    3    0    0 -0.22096862506E+02  0.41399995790E+01 -0.29161082288E+02  0.36820913206E+02  0.00000000000E+00 0. -1.
         11    1    4    4    0    0  0.17165489364E+02  0.11134135546E+02 -0.55636288695E-01  0.20460354228E+02  0.51100000000E-03 0. -1.
        -11    1    4    4    0    0 -0.11057503695E+01 -0.54709080562E+01  0.77960243679E+01  0.95880923570E+01  0.51100000000E-03 0.  1.
         12    1    4    4    0    0  0.60371235121E+01 -0.98032270690E+01  0.21420694208E+02  0.24318640209E+02  0.00000000000E+00 0. -1.
</event>
<event>
 8    1  0.1278459E-006  0.9118800E+02  0.7816164E-02  0.1184000E+00
        -11   -1    0    0    0    0  0.00000000000E+00  0.00000000000E+00  0.45593999997E+02  0.45594000000E+02  0.51100000000E-03 0. -1.
         11   -1    0    0    0    0 -0.00000000000E+00 -0.00000000000E+00 -0.45593999997E+02  0.45594000000E+02  0.51100000000E-03 0.  1.
         23    2    1    2    0    0  0.00000000000E+00  0.00000000000E+00  0.00000000000E+00  0.91188000000E+02  0.91188000000E+02 0.  0.
    9900012    2    3    3    0    0 -0.26090571755E+02 -0.12026369310E+02 -0.23030978934E+02  0.54367116198E+02  0.40000072996E+02 0.  0.
         12    1    3    3    0    0  0.26090571755E+02  0.12026369310E+02  0.23030978934E+02  0.36820883802E+02  0.00000000000E+00 0. -1.
         11    1    4    4    0    0 -0.76561300197E+00  0.48547942410E+01  0.47503469736E+01  0.68352751973E+01  0.51100000000E-03 0. -1.
        -11    1    4    4    0    0 -0.13120372912E+02 -0.92594193278E+01  0.20853079823E+00  0.16060028549E+02  0.51100000000E-03 0.  1.
        -12    1    4    4    0    0 -0.12204585842E+02 -0.76217442237E+01 -0.27989856706E+02  0.31471812452E+02  0.00000000000E+00 0.  1.
</event>
<event>
 8    1  0.1278459E-006  0.9118800E+02  0.7816164E-02  0.1184000E+00
        -11   -1    0    0    0    0  0.00000000000E+00  0.00000000000E+00  0.45593999997E+02  0.45594000000E+02  0.51100000000E-03 0. -1.
         11   -1    0    0    0    0 -0.00000000000E+00 -0.00000000000E+00 -0.45593999997E+02  0.45594000000E+02  0.51100000000E-03 0.  1.
         23    2    1    2    0    0  0.00000000000E+00  0.17763568394E-14  0.17763568394E-14  0.91188000000E+02  0.91188000000E+02 0.  0.
    9900012    2    3    3    0    0 -0.33274895185E+02  0.98980890952E+01  0.12271458188E+02  0.54367088776E+02  0.40000010482E+02 0.  0.
        -12    1    3    3    0    0  0.33274895185E+02 -0.98980890952E+01 -0.12271458188E+02  0.36820911224E+02  0.00000000000E+00 0.  1.
         11    1    4    4    0    0 -0.18765599031E+00  0.82393748716E+01  0.16663200356E+02  0.18589910151E+02  0.51100000000E-03 0. -1.
        -11    1    4    4    0    0 -0.10190394790E+02 -0.51717596990E+01  0.27870579298E+00  0.11431050763E+02  0.51100000000E-03 0.  1.
        -12    1    4    4    0    0 -0.22896844405E+02  0.68304739227E+01 -0.46704479611E+01  0.24346127862E+02  0.00000000000E+00 0.  1.
</event>
<event>
 8    1  0.1278459E-006  0.9118800E+02  0.7816164E-02  0.1184000E+00
        -11   -1    0    0    0    0  0.00000000000E+00  0.00000000000E+00  0.45593999997E+02  0.45594000000E+02  0.51100000000E-03 0.  1.
         11   -1    0    0    0    0 -0.00000000000E+00 -0.00000000000E+00 -0.45593999997E+02  0.45594000000E+02  0.51100000000E-03 0. -1.
         23    2    1    2    0    0  0.00000000000E+00  0.22204460493E-15  0.35527136788E-14  0.91188000000E+02  0.91188000000E+02 0.  0.
    9900012    2    3    3    0    0  0.32745709391E+02  0.17060556051E+01  0.16750812830E+02  0.54367057050E+02  0.39999938157E+02 0.  0.
         12    1    3    3    0    0 -0.32745709391E+02 -0.17060556051E+01 -0.16750812830E+02  0.36820942950E+02  0.00000000000E+00 0. -1.
         11    1    4    4    0    0 -0.12625728196E+01  0.33370135653E+01 -0.28556631500E+00  0.35792873650E+01  0.51100000000E-03 0. -1.
        -11    1    4    4    0    0  0.20517786216E+01 -0.75448458825E+00 -0.91847070701E+01  0.94412862858E+01  0.51100000000E-03 0.  1.
        -12    1    4    4    0    0  0.31956503589E+02 -0.87647337188E+00  0.26221086215E+02  0.41346483399E+02  0.00000000000E+00 0.  1.
</event>
<event>
 8    1  0.1278459E-006  0.9118800E+02  0.7816164E-02  0.1184000E+00
        -11   -1    0    0    0    0  0.00000000000E+00  0.00000000000E+00  0.45593999997E+02  0.45594000000E+02  0.51100000000E-03 0. -1.
         11   -1    0    0    0    0 -0.00000000000E+00 -0.00000000000E+00 -0.45593999997E+02  0.45594000000E+02  0.51100000000E-03 0.  1.
         23    2    1    2    0    0  0.00000000000E+00 -0.17763568394E-14  0.00000000000E+00  0.91188000000E+02  0.91188000000E+02 0.  0.
    9900012    2    3    3    0    0 -0.29549331915E+02  0.39216651789E+01  0.21615675099E+02  0.54367083602E+02  0.39999998688E+02 0.  0.
        -12    1    3    3    0    0  0.29549331915E+02 -0.39216651789E+01 -0.21615675099E+02  0.36820916398E+02  0.00000000000E+00 0.  1.
         11    1    4    4    0    0 -0.53123027191E+01 -0.22157407811E+01 -0.16198204695E+01  0.59794553266E+01  0.51100000000E-03 0. -1.
        -11    1    4    4    0    0 -0.30416361981E+02  0.11972328985E+02  0.13239996118E+02  0.35267396203E+02  0.51100000000E-03 0.  1.
        -12    1    4    4    0    0  0.61793327853E+01 -0.58349230247E+01  0.99954994502E+01  0.13120232073E+02  0.00000000000E+00 0.  1.
</event>
<event>
 8    1  0.1278459E-006  0.9118800E+02  0.7816164E-02  0.1184000E+00
        -11   -1    0    0    0    0  0.00000000000E+00  0.00000000000E+00  0.45593999997E+02  0.45594000000E+02  0.51100000000E-03 0. -1.
         11   -1    0    0    0    0 -0.00000000000E+00 -0.00000000000E+00 -0.45593999997E+02  0.45594000000E+02  0.51100000000E-03 0.  1.
         23    2    1    2    0    0  0.00000000000E+00  0.35527136788E-14  0.44408920985E-15  0.91188000000E+02  0.91188000000E+02 0.  0.
    9900012    2    3    3    0    0 -0.29695177623E+02  0.21708834030E+02 -0.16439215185E+01  0.54367088456E+02  0.40000009752E+02 0.  0.
        -12    1    3    3    0    0  0.29695177623E+02 -0.21708834030E+02  0.16439215185E+01  0.36820911544E+02  0.00000000000E+00 0.  1.
         11    1    4    4    0    0  0.55682838369E+01  0.16775082081E+01 -0.54083524369E+01  0.79416682768E+01  0.51100000000E-03 0. -1.
        -11    1    4    4    0    0  0.22473831735E+01  0.30338815769E+00  0.33447970324E+01  0.40410942766E+01  0.51100000000E-03 0.  1.
         12    1    4    4    0    0 -0.37510844634E+02  0.19727937664E+02  0.41963388596E+00  0.42384325902E+02  0.00000000000E+00 0. -1.
</event>
<event>
 8    1  0.1278459E-006  0.9118800E+02  0.7816164E-02  0.1184000E+00
        -11   -1    0    0    0    0  0.00000000000E+00  0.00000000000E+00  0.45593999997E+02  0.45594000000E+02  0.51100000000E-03 0. -1.
         11   -1    0    0    0    0 -0.00000000000E+00 -0.00000000000E+00 -0.45593999997E+02  0.45594000000E+02  0.51100000000E-03 0.  1.
         23    2    1    2    0    0  0.35527136788E-14  0.00000000000E+00  0.00000000000E+00  0.91188000000E+02  0.91188000000E+02 0.  0.
    9900012    2    3    3    0    0  0.23943992683E+02 -0.13943591405E+02 -0.24249594461E+02  0.54367063586E+02  0.39999953057E+02 0.  0.
         12    1    3    3    0    0 -0.23943992683E+02  0.13943591405E+02  0.24249594461E+02  0.36820936414E+02  0.00000000000E+00 0. -1.
         11    1    4    4    0    0  0.28538108773E+02 -0.11494887669E+02 -0.63740287489E+01  0.31419489773E+02  0.51100000000E-03 0. -1.
        -11    1    4    4    0    0 -0.54087630647E+01 -0.59973900860E+01 -0.48451023225E+01  0.94179839940E+01  0.51100000000E-03 0.  1.
         12    1    4    4    0    0  0.81464697454E+00  0.35486863502E+01 -0.13030463390E+02  0.13529589819E+02  0.00000000000E+00 0. -1.
</event>
<event>
 8    1  0.1278459E-006  0.9118800E+02  0.7816164E-02  0.1184000E+00
        -11   -1    0    0    0    0  0.00000000000E+00  0.00000000000E+00  0.45593999997E+02  0.45594000000E+02  0.51100000000E-03 0. -1.
         11   -1    0    0    0    0 -0.00000000000E+00 -0.00000000000E+00 -0.45593999997E+02  0.45594000000E+02  0.51100000000E-03 0.  1.
         23    2    1    2    0    0  0.23869795029E-14  0.17763568394E-14  0.00000000000E+00  0.91188000000E+02  0.91188000000E+02 0.  0.
    9900012    2    3    3    0    0 -0.32012285023E+00 -0.14023396847E+02  0.34044384905E+02  0.54367105370E+02  0.40000048312E+02 0.  0.
        -12    1    3    3    0    0  0.32012285023E+00  0.14023396847E+02 -0.34044384905E+02  0.36820894630E+02  0.00000000000E+00 0.  1.
         11    1    4    4    0    0  0.16112707594E+02 -0.41897591917E+01  0.16660546646E+02  0.23553072897E+02  0.51100000000E-03 0. -1.
        -11    1    4    4    0    0 -0.19055146777E+02 -0.10755790796E+02  0.17519976103E+02  0.28030968896E+02  0.51100000000E-03 0.  1.
        -12    1    4    4    0    0  0.26223163324E+01  0.92215314093E+00 -0.13613784324E+00  0.27830635772E+01  0.00000000000E+00 0.  1.
</event>
<event>
 8    1  0.1278459E-006  0.9118800E+02  0.7816164E-02  0.1184000E+00
        -11   -1    0    0    0    0  0.00000000000E+00  0.00000000000E+00  0.45593999997E+02  0.45594000000E+02  0.51100000000E-03 0.  1.
         11   -1    0    0    0    0 -0.00000000000E+00 -0.00000000000E+00 -0.45593999997E+02  0.45594000000E+02  0.51100000000E-03 0. -1.
         23    2    1    2    0    0  0.17763568394E-14  0.17763568394E-14  0.00000000000E+00  0.91188000000E+02  0.91188000000E+02 0.  0.
    9900012    2    3    3    0    0  0.10325693498E+02 -0.15748565532E+02  0.31640841190E+02  0.54367080759E+02  0.39999992207E+02 0.  0.
         12    1    3    3    0    0 -0.10325693498E+02  0.15748565532E+02 -0.31640841190E+02  0.36820919241E+02  0.00000000000E+00 0. -1.
         11    1    4    4    0    0 -0.10932675463E+01 -0.17059269877E+02  0.34969579503E+02  0.38924098108E+02  0.51100000000E-03 0. -1.
        -11    1    4    4    0    0  0.55580405568E+01 -0.42237433325E+01 -0.99836215323E+00  0.70518472629E+01  0.51100000000E-03 0.  1.
         12    1    4    4    0    0  0.58609204875E+01  0.55344476777E+01 -0.23303761596E+01  0.83911353882E+01  0.00000000000E+00 0. -1.
</event>
<event>
 8    1  0.1278459E-006  0.9118800E+02  0.7816164E-02  0.1184000E+00
        -11   -1    0    0    0    0  0.00000000000E+00  0.00000000000E+00  0.45593999997E+02  0.45594000000E+02  0.51100000000E-03 0.  1.
         11   -1    0    0    0    0 -0.00000000000E+00 -0.00000000000E+00 -0.45593999997E+02  0.45594000000E+02  0.51100000000E-03 0. -1.
         23    2    1    2    0    0 -0.17763568394E-14  0.00000000000E+00  0.00000000000E+00  0.91188000000E+02  0.91188000000E+02 0.  0.
    9900012    2    3    3    0    0 -0.10557504464E+02 -0.13700143765E+02  0.32505786843E+02  0.54367068209E+02  0.39999963595E+02 0.  0.
         12    1    3    3    0    0  0.10557504464E+02  0.13700143765E+02 -0.32505786843E+02  0.36820931791E+02  0.00000000000E+00 0. -1.
         11    1    4    4    0    0 -0.18434423526E+02 -0.13564455897E+01  0.59325262560E+01  0.19412954011E+02  0.51100000000E-03 0. -1.
        -11    1    4    4    0    0 -0.51314418049E+01 -0.57599702736E+00  0.58060038072E+01  0.77700159616E+01  0.51100000000E-03 0.  1.
         12    1    4    4    0    0  0.13008360867E+02 -0.11767701148E+02  0.20767256780E+02  0.27184098236E+02  0.00000000000E+00 0. -1.
</event>
<event>
 8    1  0.1278459E-006  0.9118800E+02  0.7816164E-02  0.1184000E+00
        -11   -1    0    0    0    0  0.00000000000E+00  0.00000000000E+00  0.45593999997E+02  0.45594000000E+02  0.51100000000E-03 0.  1.
         11   -1    0    0    0    0 -0.00000000000E+00 -0.00000000000E+00 -0.45593999997E+02  0.45594000000E+02  0.51100000000E-03 0. -1.
         23    2    1    2    0    0 -0.35527136788E-14  0.17763568394E-14  0.71054273576E-14  0.91188000000E+02  0.91188000000E+02 0.  0.
    9900012    2    3    3    0    0 -0.17741963197E+02  0.96761518614E+01  0.30779590596E+02  0.54366968372E+02  0.39999735996E+02 0.  0.
        -12    1    3    3    0    0  0.17741963197E+02 -0.96761518614E+01 -0.30779590596E+02  0.36821031628E+02  0.00000000000E+00 0.  1.
         11    1    4    4    0    0 -0.88592126421E+00  0.87128737496E+01 -0.34610160299E+01  0.94168815264E+01  0.51100000000E-03 0. -1.
        -11    1    4    4    0    0  0.28382004731E+01  0.64625115961E+01  0.16242123683E+02  0.17709489548E+02  0.51100000000E-03 0.  1.
         12    1    4    4    0    0 -0.19694242406E+02 -0.54992334843E+01  0.17998482943E+02  0.27240597297E+02  0.00000000000E+00 0. -1.
</event>
<event>
 8    1  0.1278459E-006  0.9118800E+02  0.7816164E-02  0.1184000E+00
        -11   -1    0    0    0    0  0.00000000000E+00  0.00000000000E+00  0.45593999997E+02  0.45594000000E+02  0.51100000000E-03 0.  1.
         11   -1    0    0    0    0 -0.00000000000E+00 -0.00000000000E+00 -0.45593999997E+02  0.45594000000E+02  0.51100000000E-03 0. -1.
         23    2    1    2    0    0  0.35527136788E-14  0.35527136788E-14 -0.71054273576E-14  0.91188000000E+02  0.91188000000E+02 0.  0.
    9900012    2    3    3    0    0 -0.18581968628E+02 -0.19039474265E+02  0.25455589952E+02  0.54367106499E+02  0.40000050886E+02 0.  0.
        -12    1    3    3    0    0  0.18581968628E+02  0.19039474265E+02 -0.25455589952E+02  0.36820893501E+02  0.00000000000E+00 0.  1.
         11    1    4    4    0    0  0.66756691090E+01 -0.58385057245E+01  0.25680830617E+01  0.92329712455E+01  0.51100000000E-03 0. -1.
        -11    1    4    4    0    0 -0.30358815482E+01 -0.49448535981E+01  0.20503424754E+02  0.21308650375E+02  0.51100000000E-03 0.  1.
         12    1    4    4    0    0 -0.22221756189E+02 -0.82561149424E+01  0.23840821366E+01  0.23825484879E+02  0.00000000000E+00 0. -1.
</event>
<event>
 8    1  0.1278459E-006  0.9118800E+02  0.7816164E-02  0.1184000E+00
        -11   -1    0    0    0    0  0.00000000000E+00  0.00000000000E+00  0.45593999997E+02  0.45594000000E+02  0.51100000000E-03 0.  1.
         11   -1    0    0    0    0 -0.00000000000E+00 -0.00000000000E+00 -0.45593999997E+02  0.45594000000E+02  0.51100000000E-03 0. -1.
         23    2    1    2    0    0  0.00000000000E+00 -0.88817841970E-15  0.00000000000E+00  0.91188000000E+02  0.91188000000E+02 0.  0.
    9900012    2    3    3    0    0 -0.22478411935E+02  0.46686706784E+01  0.28787207650E+02  0.54367098147E+02  0.40000031845E+02 0.  0.
         12    1    3    3    0    0  0.22478411935E+02 -0.46686706784E+01 -0.28787207650E+02  0.36820901853E+02  0.00000000000E+00 0. -1.
         11    1    4    4    0    0 -0.78116963600E+01 -0.15191335256E+02  0.50471374242E+01  0.17812154932E+02  0.51100000000E-03 0. -1.
        -11    1    4    4    0    0 -0.18175421534E+01  0.12929298801E+02  0.13052925125E+02  0.18462098514E+02  0.51100000000E-03 0.  1.
         12    1    4    4    0    0 -0.12849173421E+02  0.69307071331E+01  0.10687145101E+02  0.18092844701E+02  0.00000000000E+00 0. -1.
</event>
<event>
 8    1  0.1278459E-006  0.9118800E+02  0.7816164E-02  0.1184000E+00
        -11   -1    0    0    0    0  0.00000000000E+00  0.00000000000E+00  0.45593999997E+02  0.45594000000E+02  0.51100000000E-03 0. -1.
         11   -1    0    0    0    0 -0.00000000000E+00 -0.00000000000E+00 -0.45593999997E+02  0.45594000000E+02  0.51100000000E-03 0.  1.
         23    2    1    2    0    0  0.00000000000E+00 -0.88817841970E-15  0.17763568394E-14  0.91188000000E+02  0.91188000000E+02 0.  0.
    9900012    2    3    3    0    0 -0.36128778198E+02 -0.38041217294E+01 -0.60013324952E+01  0.54367137056E+02  0.40000120546E+02 0.  0.
        -12    1    3    3    0    0  0.36128778198E+02  0.38041217294E+01  0.60013324952E+01  0.36820862944E+02  0.00000000000E+00 0.  1.
         11    1    4    4    0    0 -0.26537367268E+02  0.10544250456E+01  0.60819152186E+01  0.27245795394E+02  0.51100000000E-03 0. -1.
        -11    1    4    4    0    0  0.53587437043E+01  0.31489931766E+01  0.13815581274E+00  0.62170233556E+01  0.51100000000E-03 0.  1.
         12    1    4    4    0    0 -0.14950154635E+02 -0.80075399515E+01 -0.12221403527E+02  0.20904318306E+02  0.00000000000E+00 0. -1.
</event>
<event>
 8    1  0.1278459E-006  0.9118800E+02  0.7816164E-02  0.1184000E+00
        -11   -1    0    0    0    0  0.00000000000E+00  0.00000000000E+00  0.45593999997E+02  0.45594000000E+02  0.51100000000E-03 0.  1.
         11   -1    0    0    0    0 -0.00000000000E+00 -0.00000000000E+00 -0.45593999997E+02  0.45594000000E+02  0.51100000000E-03 0. -1.
         23    2    1    2    0    0  0.71054273576E-14  0.00000000000E+00  0.00000000000E+00  0.91188000000E+02  0.91188000000E+02 0.  0.
    9900012    2    3    3    0    0 -0.30867298060E+02 -0.15607630541E+02 -0.12625049973E+02  0.54367080573E+02  0.39999991783E+02 0.  0.
         12    1    3    3    0    0  0.30867298060E+02  0.15607630541E+02  0.12625049973E+02  0.36820919427E+02  0.00000000000E+00 0. -1.
         11    1    4    4    0    0 -0.12189106949E+02 -0.33913125589E+01  0.12176683137E+01  0.12710548590E+02  0.51100000000E-03 0. -1.
        -11    1    4    4    0    0 -0.99203097071E+01  0.10735903043E+02 -0.36985707067E+01  0.15078182396E+02  0.51100000000E-03 0.  1.
         12    1    4    4    0    0 -0.87578814041E+01 -0.22952221025E+02 -0.10144147580E+02  0.26578349587E+02  0.00000000000E+00 0. -1.
</event>
<event>
 8    1  0.1278459E-006  0.9118800E+02  0.7816164E-02  0.1184000E+00
        -11   -1    0    0    0    0  0.00000000000E+00  0.00000000000E+00  0.45593999997E+02  0.45594000000E+02  0.51100000000E-03 0.  1.
         11   -1    0    0    0    0 -0.00000000000E+00 -0.00000000000E+00 -0.45593999997E+02  0.45594000000E+02  0.51100000000E-03 0. -1.
         23    2    1    2    0    0  0.44408920985E-15  0.00000000000E+00  0.00000000000E+00  0.91188000000E+02  0.91188000000E+02 0.  0.
    9900012    2    3    3    0    0 -0.10057034219E+01  0.32199536869E+02 -0.17831390338E+02  0.54367080737E+02  0.39999992157E+02 0.  0.
        -12    1    3    3    0    0  0.10057034219E+01 -0.32199536869E+02  0.17831390338E+02  0.36820919263E+02  0.00000000000E+00 0.  1.
         11    1    4    4    0    0 -0.43477719380E+01  0.24229893710E+02 -0.27714633922E+02  0.37068744296E+02  0.51100000000E-03 0. -1.
        -11    1    4    4    0    0  0.32870805399E+01 -0.19336596356E+01  0.87939501494E+00  0.39137289016E+01  0.51100000000E-03 0.  1.
         12    1    4    4    0    0  0.54987976199E-01  0.99033027951E+01  0.90038485693E+01  0.13384607540E+02  0.00000000000E+00 0. -1.
</event>
<event>
 8    1  0.1278459E-006  0.9118800E+02  0.7816164E-02  0.1184000E+00
        -11   -1    0    0    0    0  0.00000000000E+00  0.00000000000E+00  0.45593999997E+02  0.45594000000E+02  0.51100000000E-03 0.  1.
         11   -1    0    0    0    0 -0.00000000000E+00 -0.00000000000E+00 -0.45593999997E+02  0.45594000000E+02  0.51100000000E-03 0. -1.
         23    2    1    2    0    0  0.00000000000E+00  0.00000000000E+00  0.00000000000E+00  0.91188000000E+02  0.91188000000E+02 0.  0.
    9900012    2    3    3    0    0  0.15924746525E+02  0.25352655293E+02 -0.21434210181E+02  0.54367081375E+02  0.39999993611E+02 0.  0.
        -12    1    3    3    0    0 -0.15924746525E+02 -0.25352655293E+02  0.21434210181E+02  0.36820918625E+02  0.00000000000E+00 0.  1.
         11    1    4    4    0    0 -0.36553011817E+01 -0.37950743707E+01 -0.71796712523E+01  0.89057001836E+01  0.51100000000E-03 0. -1.
        -11    1    4    4    0    0  0.12394965287E+02  0.10857778315E+02  0.57186483520E+01  0.17442174568E+02  0.51100000000E-03 0.  1.
         12    1    4    4    0    0  0.71850824198E+01  0.18289951348E+02 -0.19973187280E+02  0.28019206624E+02  0.00000000000E+00 0. -1.
</event>
<event>
 8    1  0.1278459E-006  0.9118800E+02  0.7816164E-02  0.1184000E+00
        -11   -1    0    0    0    0  0.00000000000E+00  0.00000000000E+00  0.45593999997E+02  0.45594000000E+02  0.51100000000E-03 0.  1.
         11   -1    0    0    0    0 -0.00000000000E+00 -0.00000000000E+00 -0.45593999997E+02  0.45594000000E+02  0.51100000000E-03 0. -1.
         23    2    1    2    0    0 -0.17763568394E-14  0.00000000000E+00  0.00000000000E+00  0.91188000000E+02  0.91188000000E+02 0.  0.
    9900012    2    3    3    0    0  0.12529927779E+02  0.27709994865E+02  0.20759011377E+02  0.54367089380E+02  0.40000011859E+02 0.  0.
         12    1    3    3    0    0 -0.12529927779E+02 -0.27709994865E+02 -0.20759011377E+02  0.36820910620E+02  0.00000000000E+00 0. -1.
         11    1    4    4    0    0  0.26301413902E+00 -0.12216038199E+01  0.12378575171E+02  0.12441487687E+02  0.51100000000E-03 0. -1.
        -11    1    4    4    0    0 -0.23088799221E+00  0.51917321271E+01 -0.86908729992E+01  0.10126137738E+02  0.51100000000E-03 0.  1.
        -12    1    4    4    0    0  0.12497801632E+02  0.23739866558E+02  0.17071309205E+02  0.31799463954E+02  0.00000000000E+00 0.  1.
</event>
<event>
 8    1  0.1278459E-006  0.9118800E+02  0.7816164E-02  0.1184000E+00
        -11   -1    0    0    0    0  0.00000000000E+00  0.00000000000E+00  0.45593999997E+02  0.45594000000E+02  0.51100000000E-03 0.  1.
         11   -1    0    0    0    0 -0.00000000000E+00 -0.00000000000E+00 -0.45593999997E+02  0.45594000000E+02  0.51100000000E-03 0. -1.
         23    2    1    2    0    0  0.00000000000E+00  0.00000000000E+00  0.00000000000E+00  0.91188000000E+02  0.91188000000E+02 0.  0.
    9900012    2    3    3    0    0 -0.24724589061E+02 -0.17296712397E+02  0.21102084943E+02  0.54367088103E+02  0.40000008949E+02 0.  0.
         12    1    3    3    0    0  0.24724589061E+02  0.17296712397E+02 -0.21102084943E+02  0.36820911897E+02  0.00000000000E+00 0. -1.
         11    1    4    4    0    0  0.27598737328E+00  0.39201662314E+01 -0.35758830376E+01  0.53132675513E+01  0.51100000000E-03 0. -1.
        -11    1    4    4    0    0 -0.61100848775E+01 -0.90193376916E+01  0.24226310934E+02  0.26563051996E+02  0.51100000000E-03 0.  1.
         12    1    4    4    0    0 -0.18890491557E+02 -0.12197540937E+02  0.45165704678E+00  0.22490768556E+02  0.00000000000E+00 0. -1.
</event>
<event>
 8    1  0.1278459E-006  0.9118800E+02  0.7816164E-02  0.1184000E+00
        -11   -1    0    0    0    0  0.00000000000E+00  0.00000000000E+00  0.45593999997E+02  0.45594000000E+02  0.51100000000E-03 0.  1.
         11   -1    0    0    0    0 -0.00000000000E+00 -0.00000000000E+00 -0.45593999997E+02  0.45594000000E+02  0.51100000000E-03 0. -1.
         23    2    1    2    0    0 -0.88817841970E-15 -0.35527136788E-14  0.35527136788E-14  0.91188000000E+02  0.91188000000E+02 0.  0.
    9900012    2    3    3    0    0  0.27736731363E+01 -0.29354306396E+02  0.22054705249E+02  0.54367101175E+02  0.40000038749E+02 0.  0.
         12    1    3    3    0    0 -0.27736731363E+01  0.29354306396E+02 -0.22054705249E+02  0.36820898825E+02  0.00000000000E+00 0. -1.
         11    1    4    4    0    0 -0.79115005595E+01 -0.79544953279E+01  0.95104201877E+01  0.14707614675E+02  0.51100000000E-03 0. -1.
        -11    1    4    4    0    0  0.82769407165E+01  0.53634520293E+01  0.73263601459E+01  0.12286167773E+02  0.51100000000E-03 0.  1.
        -12    1    4    4    0    0  0.24082329793E+01 -0.26763263098E+02  0.52179249153E+01  0.27373318727E+02  0.00000000000E+00 0.  1.
</event>
<event>
 8    1  0.1278459E-006  0.9118800E+02  0.7816164E-02  0.1184000E+00
        -11   -1    0    0    0    0  0.00000000000E+00  0.00000000000E+00  0.45593999997E+02  0.45594000000E+02  0.51100000000E-03 0.  1.
         11   -1    0    0    0    0 -0.00000000000E+00 -0.00000000000E+00 -0.45593999997E+02  0.45594000000E+02  0.51100000000E-03 0. -1.
         23    2    1    2    0    0  0.00000000000E+00 -0.71054273576E-14 -0.26645352591E-14  0.91188000000E+02  0.91188000000E+02 0.  0.
    9900012    2    3    3    0    0  0.89767241298E+01 -0.35646078979E+02  0.21341370982E+01  0.54367094744E+02  0.40000024089E+02 0.  0.
         12    1    3    3    0    0 -0.89767241298E+01  0.35646078979E+02 -0.21341370982E+01  0.36820905256E+02  0.00000000000E+00 0. -1.
         11    1    4    4    0    0 -0.53130128530E+00 -0.44325129293E+01  0.11326203902E+02  0.12174249340E+02  0.51100000000E-03 0. -1.
        -11    1    4    4    0    0 -0.18735237472E+01 -0.24471431923E+02 -0.13834051708E+02  0.28173428234E+02  0.51100000000E-03 0.  1.
        -12    1    4    4    0    0  0.11381549162E+02 -0.67421341272E+01  0.46419849043E+01  0.14019417170E+02  0.00000000000E+00 0.  1.
</event>
<event>
 8    1  0.1278459E-006  0.9118800E+02  0.7816164E-02  0.1184000E+00
        -11   -1    0    0    0    0  0.00000000000E+00  0.00000000000E+00  0.45593999997E+02  0.45594000000E+02  0.51100000000E-03 0. -1.
         11   -1    0    0    0    0 -0.00000000000E+00 -0.00000000000E+00 -0.45593999997E+02  0.45594000000E+02  0.51100000000E-03 0.  1.
         23    2    1    2    0    0  0.71054273576E-14 -0.35527136788E-14  0.35527136788E-14  0.91188000000E+02  0.91188000000E+02 0.  0.
    9900012    2    3    3    0    0  0.13632840103E+02 -0.30308980364E+02  0.15852172480E+02  0.54367082136E+02  0.39999995346E+02 0.  0.
        -12    1    3    3    0    0 -0.13632840103E+02  0.30308980364E+02 -0.15852172480E+02  0.36820917864E+02  0.00000000000E+00 0.  1.
         11    1    4    4    0    0 -0.38298073763E+01 -0.11334523602E+02  0.87242708928E+01  0.14807152079E+02  0.51100000000E-03 0. -1.
        -11    1    4    4    0    0  0.17579072146E+02  0.14532423166E+01 -0.77609398791E+00  0.17656104126E+02  0.51100000000E-03 0.  1.
         12    1    4    4    0    0 -0.11642466694E+00 -0.20427699079E+02  0.79039955750E+01  0.21903825931E+02  0.00000000000E+00 0. -1.
</event>
<event>
 8    1  0.1278459E-006  0.9118800E+02  0.7816164E-02  0.1184000E+00
        -11   -1    0    0    0    0  0.00000000000E+00  0.00000000000E+00  0.45593999997E+02  0.45594000000E+02  0.51100000000E-03 0. -1.
         11   -1    0    0    0    0 -0.00000000000E+00 -0.00000000000E+00 -0.45593999997E+02  0.45594000000E+02  0.51100000000E-03 0.  1.
         23    2    1    2    0    0  0.00000000000E+00  0.35527136788E-14  0.00000000000E+00  0.91188000000E+02  0.91188000000E+02 0.  0.
    9900012    2    3    3    0    0 -0.92076124164E+01 -0.29001902479E+02  0.20733756633E+02  0.54367093739E+02  0.40000021796E+02 0.  0.
        -12    1    3    3    0    0  0.92076124164E+01  0.29001902479E+02 -0.20733756633E+02  0.36820906261E+02  0.00000000000E+00 0.  1.
         11    1    4    4    0    0 -0.17582114495E+02 -0.32130127649E+01  0.12498339321E+02  0.21809692506E+02  0.51100000000E-03 0. -1.
        -11    1    4    4    0    0  0.19488740669E+01 -0.64177629150E+01 -0.48825678212E+01  0.82960990684E+01  0.51100000000E-03 0.  1.
         12    1    4    4    0    0  0.64256280115E+01 -0.19371126799E+02  0.13117985133E+02  0.24261302165E+02  0.00000000000E+00 0. -1.
</event>
<event>
 8    1  0.1278459E-006  0.9118800E+02  0.7816164E-02  0.1184000E+00
        -11   -1    0    0    0    0  0.00000000000E+00  0.00000000000E+00  0.45593999997E+02  0.45594000000E+02  0.51100000000E-03 0.  1.
         11   -1    0    0    0    0 -0.00000000000E+00 -0.00000000000E+00 -0.45593999997E+02  0.45594000000E+02  0.51100000000E-03 0. -1.
         23    2    1    2    0    0 -0.13322676296E-14  0.66613381478E-15 -0.71054273576E-14  0.91188000000E+02  0.91188000000E+02 0.  0.
    9900012    2    3    3    0    0 -0.78919311513E+00 -0.69493986191E+00  0.36805728796E+02  0.54367252596E+02  0.40000383941E+02 0.  0.
         12    1    3    3    0    0  0.78919311513E+00  0.69493986191E+00 -0.36805728796E+02  0.36820747404E+02  0.00000000000E+00 0. -1.
         11    1    4    4    0    0 -0.11774647547E+02 -0.14121834810E+01  0.97543916600E+01  0.15355283910E+02  0.51100000000E-03 0. -1.
        -11    1    4    4    0    0 -0.49074526504E+01  0.64516351234E+01  0.18232296725E+02  0.19953028127E+02  0.51100000000E-03 0.  1.
         12    1    4    4    0    0  0.15892907083E+02 -0.57343915043E+01  0.88190404109E+01  0.19058940559E+02  0.00000000000E+00 0. -1.
</event>
<event>
 8    1  0.1278459E-006  0.9118800E+02  0.7816164E-02  0.1184000E+00
        -11   -1    0    0    0    0  0.00000000000E+00  0.00000000000E+00  0.45593999997E+02  0.45594000000E+02  0.51100000000E-03 0. -1.
         11   -1    0    0    0    0 -0.00000000000E+00 -0.00000000000E+00 -0.45593999997E+02  0.45594000000E+02  0.51100000000E-03 0.  1.
         23    2    1    2    0    0 -0.17763568394E-14  0.00000000000E+00 -0.35527136788E-14  0.91188000000E+02  0.91188000000E+02 0.  0.
    9900012    2    3    3    0    0  0.46122919866E+01 -0.21315263594E+02 -0.29667588444E+02  0.54367088774E+02  0.40000010477E+02 0.  0.
         12    1    3    3    0    0 -0.46122919866E+01  0.21315263594E+02  0.29667588444E+02  0.36820911226E+02  0.00000000000E+00 0. -1.
         11    1    4    4    0    0 -0.31455915737E+01 -0.21479331685E+01 -0.39657447497E+00  0.38295737126E+01  0.51100000000E-03 0. -1.
        -11    1    4    4    0    0 -0.83059374077E+01  0.21147360584E+01 -0.20901809571E+02  0.22590846562E+02  0.51100000000E-03 0.  1.
         12    1    4    4    0    0  0.16063820968E+02 -0.21282066484E+02 -0.83692043987E+01  0.27946668499E+02  0.00000000000E+00 0. -1.
</event>
<event>
 8    1  0.1278459E-006  0.9118800E+02  0.7816164E-02  0.1184000E+00
        -11   -1    0    0    0    0  0.00000000000E+00  0.00000000000E+00  0.45593999997E+02  0.45594000000E+02  0.51100000000E-03 0.  1.
         11   -1    0    0    0    0 -0.00000000000E+00 -0.00000000000E+00 -0.45593999997E+02  0.45594000000E+02  0.51100000000E-03 0. -1.
         23    2    1    2    0    0 -0.88817841970E-15  0.17763568394E-14  0.00000000000E+00  0.91188000000E+02  0.91188000000E+02 0.  0.
    9900012    2    3    3    0    0  0.56074627453E+01 -0.11155546291E+02  0.34639432086E+02  0.54367080583E+02  0.39999991805E+02 0.  0.
         12    1    3    3    0    0 -0.56074627453E+01  0.11155546291E+02 -0.34639432086E+02  0.36820919417E+02  0.00000000000E+00 0. -1.
         11    1    4    4    0    0  0.10909036762E+02  0.32850932226E+01  0.14720074626E+01  0.11487633646E+02  0.51100000000E-03 0. -1.
        -11    1    4    4    0    0 -0.20888646883E+01 -0.17835351192E+02  0.12978014151E+02  0.22156081770E+02  0.51100000000E-03 0.  1.
        -12    1    4    4    0    0 -0.32127093279E+01  0.33947116793E+01  0.20189410473E+02  0.20723365167E+02  0.00000000000E+00 0.  1.
</event>
<event>
 8    1  0.1278459E-006  0.9118800E+02  0.7816164E-02  0.1184000E+00
        -11   -1    0    0    0    0  0.00000000000E+00  0.00000000000E+00  0.45593999997E+02  0.45594000000E+02  0.51100000000E-03 0.  1.
         11   -1    0    0    0    0 -0.00000000000E+00 -0.00000000000E+00 -0.45593999997E+02  0.45594000000E+02  0.51100000000E-03 0. -1.
         23    2    1    2    0    0 -0.44408920985E-15  0.35527136788E-14 -0.71054273576E-14  0.91188000000E+02  0.91188000000E+02 0.  0.
    9900012    2    3    3    0    0  0.26642261654E+01 -0.22453694380E+02  0.29060495588E+02  0.54367097021E+02  0.40000029279E+02 0.  0.
         12    1    3    3    0    0 -0.26642261654E+01  0.22453694380E+02 -0.29060495588E+02  0.36820902979E+02  0.00000000000E+00 0. -1.
         11    1    4    4    0    0 -0.20618107221E+01 -0.13434662107E+02  0.69689355777E+01  0.15274399259E+02  0.51100000000E-03 0. -1.
        -11    1    4    4    0    0 -0.10624652050E+02 -0.12489558876E+02  0.96096321636E+01  0.19005718683E+02  0.51100000000E-03 0.  1.
        -12    1    4    4    0    0  0.15350688937E+02  0.34705266021E+01  0.12481927846E+02  0.20086979079E+02  0.00000000000E+00 0.  1.
</event>
<event>
 8    1  0.1278459E-006  0.9118800E+02  0.7816164E-02  0.1184000E+00
        -11   -1    0    0    0    0  0.00000000000E+00  0.00000000000E+00  0.45593999997E+02  0.45594000000E+02  0.51100000000E-03 0. -1.
         11   -1    0    0    0    0 -0.00000000000E+00 -0.00000000000E+00 -0.45593999997E+02  0.45594000000E+02  0.51100000000E-03 0.  1.
         23    2    1    2    0    0  0.17763568394E-14  0.44408920985E-15 -0.71054273576E-14  0.91188000000E+02  0.91188000000E+02 0.  0.
    9900012    2    3    3    0    0  0.12363282871E+02  0.22650665058E+01  0.34609236677E+02  0.54367074523E+02  0.39999977990E+02 0.  0.
        -12    1    3    3    0    0 -0.12363282871E+02 -0.22650665058E+01 -0.34609236677E+02  0.36820925477E+02  0.00000000000E+00 0.  1.
         11    1    4    4    0    0  0.35838236826E+01 -0.53922962005E+01  0.23047780035E+02  0.23939941840E+02  0.51100000000E-03 0. -1.
        -11    1    4    4    0    0  0.13575999838E+02 -0.31426018603E+01  0.12299946041E+02  0.18586887608E+02  0.51100000000E-03 0.  1.
        -12    1    4    4    0    0 -0.47965406497E+01  0.10799964567E+02 -0.73848939968E+00  0.11840245075E+02  0.00000000000E+00 0.  1.
</event>
<event>
 8    1  0.1278459E-006  0.9118800E+02  0.7816164E-02  0.1184000E+00
        -11   -1    0    0    0    0  0.00000000000E+00  0.00000000000E+00  0.45593999997E+02  0.45594000000E+02  0.51100000000E-03 0. -1.
         11   -1    0    0    0    0 -0.00000000000E+00 -0.00000000000E+00 -0.45593999997E+02  0.45594000000E+02  0.51100000000E-03 0.  1.
         23    2    1    2    0    0  0.88817841970E-15  0.00000000000E+00  0.00000000000E+00  0.91188000000E+02  0.91188000000E+02 0.  0.
    9900012    2    3    3    0    0 -0.43760807139E+01  0.57746655027E+01 -0.36101007645E+02  0.54367087504E+02  0.40000007583E+02 0.  0.
         12    1    3    3    0    0  0.43760807139E+01 -0.57746655027E+01  0.36101007645E+02  0.36820912496E+02  0.00000000000E+00 0. -1.
         11    1    4    4    0    0 -0.12676676690E+02 -0.34300523965E+01 -0.28026363293E+01  0.13428259828E+02  0.51100000000E-03 0. -1.
        -11    1    4    4    0    0 -0.12027100981E+01  0.53680482180E+01  0.59186731598E+00  0.55328799401E+01  0.51100000000E-03 0.  1.
        -12    1    4    4    0    0  0.95033060744E+01  0.38366696813E+01 -0.33890238631E+02  0.35405947736E+02  0.00000000000E+00 0.  1.
</event>
<event>
 8    1  0.1278459E-006  0.9118800E+02  0.7816164E-02  0.1184000E+00
        -11   -1    0    0    0    0  0.00000000000E+00  0.00000000000E+00  0.45593999997E+02  0.45594000000E+02  0.51100000000E-03 0. -1.
         11   -1    0    0    0    0 -0.00000000000E+00 -0.00000000000E+00 -0.45593999997E+02  0.45594000000E+02  0.51100000000E-03 0.  1.
         23    2    1    2    0    0  0.71054273576E-14  0.00000000000E+00  0.00000000000E+00  0.91188000000E+02  0.91188000000E+02 0.  0.
    9900012    2    3    3    0    0 -0.33722612896E+02 -0.14718572723E+02  0.13888820587E+01  0.54367082074E+02  0.39999995203E+02 0.  0.
         12    1    3    3    0    0  0.33722612896E+02  0.14718572723E+02 -0.13888820587E+01  0.36820917926E+02  0.00000000000E+00 0. -1.
         11    1    4    4    0    0 -0.20117693429E+02  0.59383782455E+01 -0.10562796733E+02  0.23485284758E+02  0.51100000000E-03 0. -1.
        -11    1    4    4    0    0 -0.97035174466E+01 -0.17910709223E+02  0.28010159148E+01  0.20562038959E+02  0.51100000000E-03 0.  1.
         12    1    4    4    0    0 -0.39014020211E+01 -0.27462417453E+01  0.91506628770E+01  0.10319758357E+02  0.00000000000E+00 0. -1.
</event>
<event>
 8    1  0.1278459E-006  0.9118800E+02  0.7816164E-02  0.1184000E+00
        -11   -1    0    0    0    0  0.00000000000E+00  0.00000000000E+00  0.45593999997E+02  0.45594000000E+02  0.51100000000E-03 0. -1.
         11   -1    0    0    0    0 -0.00000000000E+00 -0.00000000000E+00 -0.45593999997E+02  0.45594000000E+02  0.51100000000E-03 0.  1.
         23    2    1    2    0    0  0.00000000000E+00 -0.35527136788E-14  0.00000000000E+00  0.91188000000E+02  0.91188000000E+02 0.  0.
    9900012    2    3    3    0    0  0.17295930900E+02  0.25346997453E+02 -0.20350921873E+02  0.54367088460E+02  0.40000009762E+02 0.  0.
        -12    1    3    3    0    0 -0.17295930900E+02 -0.25346997453E+02  0.20350921873E+02  0.36820911540E+02  0.00000000000E+00 0.  1.
         11    1    4    4    0    0  0.10771660677E+02  0.68502720630E+01  0.55342467447E+01  0.13913403192E+02  0.51100000000E-03 0. -1.
        -11    1    4    4    0    0  0.11315465199E+02  0.10132677716E+00 -0.55033945408E+01  0.12583217852E+02  0.51100000000E-03 0.  1.
        -12    1    4    4    0    0 -0.47911949767E+01  0.18395398613E+02 -0.20381774077E+02  0.27870467416E+02  0.00000000000E+00 0.  1.
</event>
<event>
 8    1  0.1278459E-006  0.9118800E+02  0.7816164E-02  0.1184000E+00
        -11   -1    0    0    0    0  0.00000000000E+00  0.00000000000E+00  0.45593999997E+02  0.45594000000E+02  0.51100000000E-03 0. -1.
         11   -1    0    0    0    0 -0.00000000000E+00 -0.00000000000E+00 -0.45593999997E+02  0.45594000000E+02  0.51100000000E-03 0.  1.
         23    2    1    2    0    0  0.00000000000E+00 -0.35527136788E-14  0.00000000000E+00  0.91188000000E+02  0.91188000000E+02 0.  0.
    9900012    2    3    3    0    0 -0.13700050177E+02 -0.20637128942E+02  0.27243290535E+02  0.54367090927E+02  0.40000015386E+02 0.  0.
        -12    1    3    3    0    0  0.13700050177E+02  0.20637128942E+02 -0.27243290535E+02  0.36820909073E+02  0.00000000000E+00 0.  1.
         11    1    4    4    0    0  0.43487078778E+01  0.42092186897E+01  0.21851697937E+02  0.22674335386E+02  0.51100000000E-03 0. -1.
        -11    1    4    4    0    0 -0.80562320660E+01 -0.15870976717E+02  0.29786745542E+01  0.18046143062E+02  0.51100000000E-03 0.  1.
         12    1    4    4    0    0 -0.99925259886E+01 -0.89753709148E+01  0.24129180435E+01  0.13646612480E+02  0.00000000000E+00 0. -1.
</event>
<event>
 8    1  0.1278459E-006  0.9118800E+02  0.7816164E-02  0.1184000E+00
        -11   -1    0    0    0    0  0.00000000000E+00  0.00000000000E+00  0.45593999997E+02  0.45594000000E+02  0.51100000000E-03 0. -1.
         11   -1    0    0    0    0 -0.00000000000E+00 -0.00000000000E+00 -0.45593999997E+02  0.45594000000E+02  0.51100000000E-03 0.  1.
         23    2    1    2    0    0  0.00000000000E+00  0.00000000000E+00  0.00000000000E+00  0.91188000000E+02  0.91188000000E+02 0.  0.
    9900012    2    3    3    0    0 -0.17611173439E+02  0.19973397962E+02  0.25430093811E+02  0.54367085735E+02  0.40000003550E+02 0.  0.
        -12    1    3    3    0    0  0.17611173439E+02 -0.19973397962E+02 -0.25430093811E+02  0.36820914265E+02  0.00000000000E+00 0.  1.
         11    1    4    4    0    0 -0.38743459565E+01 -0.90062245026E+01  0.16560087400E+02  0.19244716972E+02  0.51100000000E-03 0. -1.
        -11    1    4    4    0    0 -0.10792801509E+02  0.16162844863E+02  0.32187722421E+00  0.19437739675E+02  0.51100000000E-03 0.  1.
         12    1    4    4    0    0 -0.29440259736E+01  0.12816777602E+02  0.85481291874E+01  0.15684629088E+02  0.00000000000E+00 0. -1.
</event>
<event>
 8    1  0.1278459E-006  0.9118800E+02  0.7816164E-02  0.1184000E+00
        -11   -1    0    0    0    0  0.00000000000E+00  0.00000000000E+00  0.45593999997E+02  0.45594000000E+02  0.51100000000E-03 0.  1.
         11   -1    0    0    0    0 -0.00000000000E+00 -0.00000000000E+00 -0.45593999997E+02  0.45594000000E+02  0.51100000000E-03 0. -1.
         23    2    1    2    0    0  0.00000000000E+00 -0.33306690739E-15  0.00000000000E+00  0.91188000000E+02  0.91188000000E+02 0.  0.
    9900012    2    3    3    0    0 -0.16574105650E+02  0.94522300686E+00 -0.32866173644E+02  0.54367084821E+02  0.40000001467E+02 0.  0.
        -12    1    3    3    0    0  0.16574105650E+02 -0.94522300686E+00  0.32866173644E+02  0.36820915179E+02  0.00000000000E+00 0.  1.
         11    1    4    4    0    0  0.68360232081E+01  0.32517821487E+01  0.12380389350E+01  0.76705958772E+01  0.51100000000E-03 0. -1.
        -11    1    4    4    0    0 -0.55442138751E+01  0.91323628758E+01 -0.11450257008E+02  0.15660355839E+02  0.51100000000E-03 0.  1.
         12    1    4    4    0    0 -0.17865914983E+02 -0.11438922018E+02 -0.22653955570E+02  0.31036133105E+02  0.00000000000E+00 0. -1.
</event>
<event>
 8    1  0.1278459E-006  0.9118800E+02  0.7816164E-02  0.1184000E+00
        -11   -1    0    0    0    0  0.00000000000E+00  0.00000000000E+00  0.45593999997E+02  0.45594000000E+02  0.51100000000E-03 0. -1.
         11   -1    0    0    0    0 -0.00000000000E+00 -0.00000000000E+00 -0.45593999997E+02  0.45594000000E+02  0.51100000000E-03 0.  1.
         23    2    1    2    0    0  0.00000000000E+00  0.88817841970E-15 -0.17763568394E-14  0.91188000000E+02  0.91188000000E+02 0.  0.
    9900012    2    3    3    0    0 -0.34735114731E+02 -0.25599888276E+01  0.11945799765E+02  0.54367029478E+02  0.39999875301E+02 0.  0.
        -12    1    3    3    0    0  0.34735114731E+02  0.25599888276E+01 -0.11945799765E+02  0.36820970522E+02  0.00000000000E+00 0.  1.
         11    1    4    4    0    0 -0.17125336639E+02  0.68742550430E+01  0.13255005108E+02  0.22720644755E+02  0.51100000000E-03 0. -1.
        -11    1    4    4    0    0 -0.10069099023E+02  0.78405097015E+01 -0.16288383666E+00  0.12762714403E+02  0.51100000000E-03 0.  1.
        -12    1    4    4    0    0 -0.75406790682E+01 -0.17274753572E+02 -0.11463215063E+01  0.18883670321E+02  0.00000000000E+00 0.  1.
</event>
<event>
 8    1  0.1278459E-006  0.9118800E+02  0.7816164E-02  0.1184000E+00
        -11   -1    0    0    0    0  0.00000000000E+00  0.00000000000E+00  0.45593999997E+02  0.45594000000E+02  0.51100000000E-03 0.  1.
         11   -1    0    0    0    0 -0.00000000000E+00 -0.00000000000E+00 -0.45593999997E+02  0.45594000000E+02  0.51100000000E-03 0. -1.
         23    2    1    2    0    0  0.00000000000E+00  0.33306690739E-15 -0.71054273576E-14  0.91188000000E+02  0.91188000000E+02 0.  0.
    9900012    2    3    3    0    0  0.21490691770E+02 -0.80096998286E+00  0.29887931105E+02  0.54367084593E+02  0.40000000947E+02 0.  0.
         12    1    3    3    0    0 -0.21490691770E+02  0.80096998286E+00 -0.29887931105E+02  0.36820915407E+02  0.00000000000E+00 0. -1.
         11    1    4    4    0    0  0.80921715500E+01 -0.24332984419E+01 -0.55700014558E+01  0.10120726169E+02  0.51100000000E-03 0. -1.
        -11    1    4    4    0    0  0.75788062528E+01  0.35806196415E+01  0.36984270761E+02  0.37922228643E+02  0.51100000000E-03 0.  1.
        -12    1    4    4    0    0  0.58197139672E+01 -0.19482911825E+01 -0.15263382009E+01  0.63241297816E+01  0.00000000000E+00 0.  1.
</event>
<event>
 8    1  0.1278459E-006  0.9118800E+02  0.7816164E-02  0.1184000E+00
        -11   -1    0    0    0    0  0.00000000000E+00  0.00000000000E+00  0.45593999997E+02  0.45594000000E+02  0.51100000000E-03 0.  1.
         11   -1    0    0    0    0 -0.00000000000E+00 -0.00000000000E+00 -0.45593999997E+02  0.45594000000E+02  0.51100000000E-03 0. -1.
         23    2    1    2    0    0  0.35527136788E-14 -0.35527136788E-14  0.17763568394E-14  0.91188000000E+02  0.91188000000E+02 0.  0.
    9900012    2    3    3    0    0 -0.27704490923E+02  0.18939490682E+02 -0.15150544313E+02  0.54367053277E+02  0.39999929556E+02 0.  0.
        -12    1    3    3    0    0  0.27704490923E+02 -0.18939490682E+02  0.15150544313E+02  0.36820946723E+02  0.00000000000E+00 0.  1.
         11    1    4    4    0    0 -0.17144324145E+02  0.33598247322E+01 -0.10809967201E+02  0.20544382779E+02  0.51100000000E-03 0. -1.
        -11    1    4    4    0    0 -0.12494051538E+02  0.14622378443E+02  0.83372845665E+01  0.20962480516E+02  0.51100000000E-03 0.  1.
         12    1    4    4    0    0  0.19338847609E+01  0.95728750679E+00 -0.12677861679E+02  0.12860189982E+02  0.00000000000E+00 0. -1.
</event>
<event>
 8    1  0.1278459E-006  0.9118800E+02  0.7816164E-02  0.1184000E+00
        -11   -1    0    0    0    0  0.00000000000E+00  0.00000000000E+00  0.45593999997E+02  0.45594000000E+02  0.51100000000E-03 0.  1.
         11   -1    0    0    0    0 -0.00000000000E+00 -0.00000000000E+00 -0.45593999997E+02  0.45594000000E+02  0.51100000000E-03 0. -1.
         23    2    1    2    0    0 -0.17763568394E-14 -0.17763568394E-14 -0.71054273576E-14  0.91188000000E+02  0.91188000000E+02 0.  0.
    9900012    2    3    3    0    0  0.93672098964E+01  0.14431174549E+02  0.32554209902E+02  0.54367081999E+02  0.39999995033E+02 0.  0.
         12    1    3    3    0    0 -0.93672098964E+01 -0.14431174549E+02 -0.32554209902E+02  0.36820918001E+02  0.00000000000E+00 0. -1.
         11    1    4    4    0    0  0.73611452863E+00 -0.41898060946E+01  0.12063157151E+02  0.12791250933E+02  0.51100000000E-03 0. -1.
        -11    1    4    4    0    0 -0.15644543154E+01 -0.74475505357E+01  0.15173908791E+01  0.77598970114E+01  0.51100000000E-03 0.  1.
        -12    1    4    4    0    0  0.10195549683E+02  0.26068531179E+02  0.18973661872E+02  0.33815934055E+02  0.00000000000E+00 0.  1.
</event>
<event>
 8    1  0.1278459E-006  0.9118800E+02  0.7816164E-02  0.1184000E+00
        -11   -1    0    0    0    0  0.00000000000E+00  0.00000000000E+00  0.45593999997E+02  0.45594000000E+02  0.51100000000E-03 0.  1.
         11   -1    0    0    0    0 -0.00000000000E+00 -0.00000000000E+00 -0.45593999997E+02  0.45594000000E+02  0.51100000000E-03 0. -1.
         23    2    1    2    0    0  0.00000000000E+00 -0.17763568394E-14  0.00000000000E+00  0.91188000000E+02  0.91188000000E+02 0.  0.
    9900012    2    3    3    0    0 -0.64365885762E+01  0.13400107332E+02  0.33686600612E+02  0.54367087330E+02  0.40000007187E+02 0.  0.
         12    1    3    3    0    0  0.64365885762E+01 -0.13400107332E+02 -0.33686600612E+02  0.36820912670E+02  0.00000000000E+00 0. -1.
         11    1    4    4    0    0 -0.17747368112E+01  0.40581113509E+01 -0.69540214506E+01  0.82447785345E+01  0.51100000000E-03 0. -1.
        -11    1    4    4    0    0 -0.10838022912E+02  0.76699056028E+00  0.16331444955E+02  0.19615481380E+02  0.51100000000E-03 0.  1.
        -12    1    4    4    0    0  0.61761711473E+01  0.85750054208E+01  0.24309177108E+02  0.26506827416E+02  0.00000000000E+00 0.  1.
</event>
<event>
 8    1  0.1278459E-006  0.9118800E+02  0.7816164E-02  0.1184000E+00
        -11   -1    0    0    0    0  0.00000000000E+00  0.00000000000E+00  0.45593999997E+02  0.45594000000E+02  0.51100000000E-03 0.  1.
         11   -1    0    0    0    0 -0.00000000000E+00 -0.00000000000E+00 -0.45593999997E+02  0.45594000000E+02  0.51100000000E-03 0. -1.
         23    2    1    2    0    0  0.00000000000E+00 -0.88817841970E-15 -0.88817841970E-15  0.91188000000E+02  0.91188000000E+02 0.  0.
    9900012    2    3    3    0    0 -0.36059302580E+02  0.60135449686E+01 -0.43979621455E+01  0.54367107877E+02  0.40000054028E+02 0.  0.
         12    1    3    3    0    0  0.36059302580E+02 -0.60135449686E+01  0.43979621455E+01  0.36820892123E+02  0.00000000000E+00 0. -1.
         11    1    4    4    0    0 -0.23543225766E+02 -0.34201984418E+01  0.77766423594E+01  0.25029131098E+02  0.51100000000E-03 0. -1.
        -11    1    4    4    0    0 -0.10357337842E+02 -0.35183066618E+01  0.68371196174E+00  0.10959944857E+02  0.51100000000E-03 0.  1.
        -12    1    4    4    0    0 -0.21587389716E+01  0.12952050072E+02 -0.12858316467E+02  0.18378031923E+02  0.00000000000E+00 0.  1.
</event>
<event>
 8    1  0.1278459E-006  0.9118800E+02  0.7816164E-02  0.1184000E+00
        -11   -1    0    0    0    0  0.00000000000E+00  0.00000000000E+00  0.45593999997E+02  0.45594000000E+02  0.51100000000E-03 0.  1.
         11   -1    0    0    0    0 -0.00000000000E+00 -0.00000000000E+00 -0.45593999997E+02  0.45594000000E+02  0.51100000000E-03 0. -1.
         23    2    1    2    0    0  0.00000000000E+00  0.35527136788E-14  0.00000000000E+00  0.91188000000E+02  0.91188000000E+02 0.  0.
    9900012    2    3    3    0    0  0.20835471297E+02  0.23129602525E+02  0.19664302395E+02  0.54367079781E+02  0.39999989976E+02 0.  0.
         12    1    3    3    0    0 -0.20835471297E+02 -0.23129602525E+02 -0.19664302395E+02  0.36820920219E+02  0.00000000000E+00 0. -1.
         11    1    4    4    0    0  0.26302860202E+01  0.83426713905E+00  0.12638607696E+02  0.12936336845E+02  0.51100000000E-03 0. -1.
        -11    1    4    4    0    0  0.66056073141E+01  0.26973308704E+02  0.79596720876E+01  0.28888575777E+02  0.51100000000E-03 0.  1.
         12    1    4    4    0    0  0.11599577962E+02 -0.46779733182E+01 -0.93397738857E+00  0.12542167159E+02  0.00000000000E+00 0. -1.
</event>
<event>
 8    1  0.1278459E-006  0.9118800E+02  0.7816164E-02  0.1184000E+00
        -11   -1    0    0    0    0  0.00000000000E+00  0.00000000000E+00  0.45593999997E+02  0.45594000000E+02  0.51100000000E-03 0.  1.
         11   -1    0    0    0    0 -0.00000000000E+00 -0.00000000000E+00 -0.45593999997E+02  0.45594000000E+02  0.51100000000E-03 0. -1.
         23    2    1    2    0    0  0.00000000000E+00 -0.71054273576E-14  0.00000000000E+00  0.91188000000E+02  0.91188000000E+02 0.  0.
    9900012    2    3    3    0    0  0.68026691833E+01 -0.35256476377E+02 -0.81537656599E+01  0.54367091144E+02  0.40000015881E+02 0.  0.
        -12    1    3    3    0    0 -0.68026691833E+01  0.35256476377E+02  0.81537656599E+01  0.36820908856E+02  0.00000000000E+00 0.  1.
         11    1    4    4    0    0  0.83629601380E+01 -0.17513051427E+02 -0.90585451989E+00  0.19428500848E+02  0.51100000000E-03 0. -1.
        -11    1    4    4    0    0 -0.13474524350E+02 -0.19024190982E+01 -0.65562122505E+01  0.15105162171E+02  0.51100000000E-03 0.  1.
        -12    1    4    4    0    0  0.11914233395E+02 -0.15841005852E+02 -0.69169888953E+00  0.19833428124E+02  0.00000000000E+00 0.  1.
</event>
<event>
 8    1  0.1278459E-006  0.9118800E+02  0.7816164E-02  0.1184000E+00
        -11   -1    0    0    0    0  0.00000000000E+00  0.00000000000E+00  0.45593999997E+02  0.45594000000E+02  0.51100000000E-03 0. -1.
         11   -1    0    0    0    0 -0.00000000000E+00 -0.00000000000E+00 -0.45593999997E+02  0.45594000000E+02  0.51100000000E-03 0.  1.
         23    2    1    2    0    0  0.35527136788E-14  0.00000000000E+00  0.00000000000E+00  0.91188000000E+02  0.91188000000E+02 0.  0.
    9900012    2    3    3    0    0 -0.20190777991E+02 -0.29659878811E+02 -0.82706343329E+01  0.54367091277E+02  0.40000016183E+02 0.  0.
        -12    1    3    3    0    0  0.20190777991E+02  0.29659878811E+02  0.82706343329E+01  0.36820908723E+02  0.00000000000E+00 0.  1.
         11    1    4    4    0    0 -0.73723541761E+01  0.44310254354E+01  0.79449728230E+01  0.11709320472E+02  0.51100000000E-03 0.  1.
        -11    1    4    4    0    0  0.22922667464E+01 -0.71277197269E+01  0.52704887124E+00  0.75057748511E+01  0.51100000000E-03 0. -1.
        -12    1    4    4    0    0 -0.15110690561E+02 -0.26963184519E+02 -0.16742656027E+02  0.35151995953E+02  0.00000000000E+00 0.  1.
</event>
<event>
 8    1  0.1278459E-006  0.9118800E+02  0.7816164E-02  0.1184000E+00
        -11   -1    0    0    0    0  0.00000000000E+00  0.00000000000E+00  0.45593999997E+02  0.45594000000E+02  0.51100000000E-03 0. -1.
         11   -1    0    0    0    0 -0.00000000000E+00 -0.00000000000E+00 -0.45593999997E+02  0.45594000000E+02  0.51100000000E-03 0.  1.
         23    2    1    2    0    0  0.00000000000E+00  0.35527136788E-14 -0.22204460493E-15  0.91188000000E+02  0.91188000000E+02 0.  0.
    9900012    2    3    3    0    0  0.18927298853E+02 -0.31574959273E+02 -0.74889722839E+00  0.54367061092E+02  0.39999947372E+02 0.  0.
        -12    1    3    3    0    0 -0.18927298853E+02  0.31574959273E+02  0.74889722839E+00  0.36820938908E+02  0.00000000000E+00 0.  1.
         11    1    4    4    0    0  0.17906437807E+02 -0.18118067262E+02  0.97127867990E+01  0.27262485285E+02  0.51100000000E-03 0.  1.
        -11    1    4    4    0    0  0.20350233321E+00 -0.62805252830E+01  0.62722069503E+01  0.88784565842E+01  0.51100000000E-03 0. -1.
        -12    1    4    4    0    0  0.81735871209E+00 -0.71763667290E+01 -0.16733890978E+02  0.18226119223E+02  0.00000000000E+00 0.  1.
</event>
<event>
 8    1  0.1278459E-006  0.9118800E+02  0.7816164E-02  0.1184000E+00
        -11   -1    0    0    0    0  0.00000000000E+00  0.00000000000E+00  0.45593999997E+02  0.45594000000E+02  0.51100000000E-03 0. -1.
         11   -1    0    0    0    0 -0.00000000000E+00 -0.00000000000E+00 -0.45593999997E+02  0.45594000000E+02  0.51100000000E-03 0.  1.
         23    2    1    2    0    0  0.00000000000E+00 -0.35527136788E-14  0.35527136788E-14  0.91188000000E+02  0.91188000000E+02 0.  0.
    9900012    2    3    3    0    0 -0.74237006447E+01  0.18020006031E+02  0.31240176938E+02  0.54367073834E+02  0.39999976418E+02 0.  0.
        -12    1    3    3    0    0  0.74237006447E+01 -0.18020006031E+02 -0.31240176938E+02  0.36820926166E+02  0.00000000000E+00 0.  1.
         11    1    4    4    0    0  0.36553316571E+01  0.89324121377E+01  0.10073474858E+02  0.13950782491E+02  0.51100000000E-03 0. -1.
        -11    1    4    4    0    0 -0.15321838450E+02 -0.73121029059E+01  0.71177190060E+01  0.18408897482E+02  0.51100000000E-03 0.  1.
        -12    1    4    4    0    0  0.42428061485E+01  0.16399696799E+02  0.14048983074E+02  0.22007393861E+02  0.00000000000E+00 0.  1.
</event>
<event>
 8    1  0.1278459E-006  0.9118800E+02  0.7816164E-02  0.1184000E+00
        -11   -1    0    0    0    0  0.00000000000E+00  0.00000000000E+00  0.45593999997E+02  0.45594000000E+02  0.51100000000E-03 0. -1.
         11   -1    0    0    0    0 -0.00000000000E+00 -0.00000000000E+00 -0.45593999997E+02  0.45594000000E+02  0.51100000000E-03 0.  1.
         23    2    1    2    0    0  0.35527136788E-14  0.00000000000E+00  0.00000000000E+00  0.91188000000E+02  0.91188000000E+02 0.  0.
    9900012    2    3    3    0    0  0.15946294960E+02  0.18668165056E+01 -0.33136244142E+02  0.54367081996E+02  0.39999995026E+02 0.  0.
         12    1    3    3    0    0 -0.15946294960E+02 -0.18668165056E+01  0.33136244142E+02  0.36820918004E+02  0.00000000000E+00 0. -1.
         11    1    4    4    0    0  0.18513609647E+02 -0.50835259579E+01 -0.66085820266E+01  0.20304416638E+02  0.51100000000E-03 0. -1.
        -11    1    4    4    0    0  0.22347349330E+01  0.80149519910E+01 -0.27769824185E+02  0.28989595222E+02  0.51100000000E-03 0.  1.
         12    1    4    4    0    0 -0.48020496199E+01 -0.10646095274E+01  0.12421620690E+01  0.50730701359E+01  0.00000000000E+00 0. -1.
</event>
<event>
 8    1  0.1278459E-006  0.9118800E+02  0.7816164E-02  0.1184000E+00
        -11   -1    0    0    0    0  0.00000000000E+00  0.00000000000E+00  0.45593999997E+02  0.45594000000E+02  0.51100000000E-03 0.  1.
         11   -1    0    0    0    0 -0.00000000000E+00 -0.00000000000E+00 -0.45593999997E+02  0.45594000000E+02  0.51100000000E-03 0. -1.
         23    2    1    2    0    0  0.00000000000E+00  0.00000000000E+00  0.44408920985E-15  0.91188000000E+02  0.91188000000E+02 0.  0.
    9900012    2    3    3    0    0 -0.88167622574E+01 -0.35740793385E+02 -0.80015782040E+00  0.54367083919E+02  0.39999999410E+02 0.  0.
         12    1    3    3    0    0  0.88167622574E+01  0.35740793385E+02  0.80015782040E+00  0.36820916081E+02  0.00000000000E+00 0. -1.
         11    1    4    4    0    0 -0.23662024034E+01 -0.33341706253E+02 -0.46735208495E+01  0.33750704986E+02  0.51100000000E-03 0.  1.
        -11    1    4    4    0    0 -0.85914039575E+01 -0.70154023591E+01 -0.35237000996E+01  0.11638064911E+02  0.51100000000E-03 0. -1.
         12    1    4    4    0    0  0.21408441035E+01  0.46163152266E+01  0.73970631286E+01  0.89783140219E+01  0.00000000000E+00 0. -1.
</event>
<event>
 8    1  0.1278459E-006  0.9118800E+02  0.7816164E-02  0.1184000E+00
        -11   -1    0    0    0    0  0.00000000000E+00  0.00000000000E+00  0.45593999997E+02  0.45594000000E+02  0.51100000000E-03 0.  1.
         11   -1    0    0    0    0 -0.00000000000E+00 -0.00000000000E+00 -0.45593999997E+02  0.45594000000E+02  0.51100000000E-03 0. -1.
         23    2    1    2    0    0  0.00000000000E+00 -0.35527136788E-14  0.00000000000E+00  0.91188000000E+02  0.91188000000E+02 0.  0.
    9900012    2    3    3    0    0 -0.86006871036E+01  0.30630129621E+02 -0.18536524211E+02  0.54367090328E+02  0.40000014021E+02 0.  0.
        -12    1    3    3    0    0  0.86006871036E+01 -0.30630129621E+02  0.18536524211E+02  0.36820909672E+02  0.00000000000E+00 0.  1.
         11    1    4    4    0    0 -0.99039960110E+01 -0.16902434980E+00 -0.14658407430E+02  0.17691427723E+02  0.51100000000E-03 0. -1.
        -11    1    4    4    0    0  0.40552977413E+01  0.13309630124E+02  0.73250301813E+01  0.15724114005E+02  0.51100000000E-03 0.  1.
        -12    1    4    4    0    0 -0.27519888339E+01  0.17489523846E+02 -0.11203146961E+02  0.20951548600E+02  0.00000000000E+00 0.  1.
</event>
<event>
 8    1  0.1278459E-006  0.9118800E+02  0.7816164E-02  0.1184000E+00
        -11   -1    0    0    0    0  0.00000000000E+00  0.00000000000E+00  0.45593999997E+02  0.45594000000E+02  0.51100000000E-03 0. -1.
         11   -1    0    0    0    0 -0.00000000000E+00 -0.00000000000E+00 -0.45593999997E+02  0.45594000000E+02  0.51100000000E-03 0.  1.
         23    2    1    2    0    0 -0.26645352591E-14  0.00000000000E+00  0.00000000000E+00  0.91188000000E+02  0.91188000000E+02 0.  0.
    9900012    2    3    3    0    0  0.73047964227E+01 -0.67956310383E+01  0.35443448843E+02  0.54367099442E+02  0.40000034798E+02 0.  0.
        -12    1    3    3    0    0 -0.73047964227E+01  0.67956310383E+01 -0.35443448843E+02  0.36820900558E+02  0.00000000000E+00 0.  1.
         11    1    4    4    0    0 -0.74800313462E+01  0.12530012517E+01 -0.44681514300E+01  0.88025711323E+01  0.51100000000E-03 0. -1.
        -11    1    4    4    0    0  0.16202419411E+02 -0.50680077150E+01  0.24522252943E+02  0.29825224000E+02  0.51100000000E-03 0.  1.
         12    1    4    4    0    0 -0.14175916421E+01 -0.29806245750E+01  0.15389347330E+02  0.15739304310E+02  0.00000000000E+00 0. -1.
</event>
<event>
 8    1  0.1278459E-006  0.9118800E+02  0.7816164E-02  0.1184000E+00
        -11   -1    0    0    0    0  0.00000000000E+00  0.00000000000E+00  0.45593999997E+02  0.45594000000E+02  0.51100000000E-03 0. -1.
         11   -1    0    0    0    0 -0.00000000000E+00 -0.00000000000E+00 -0.45593999997E+02  0.45594000000E+02  0.51100000000E-03 0.  1.
         23    2    1    2    0    0 -0.11102230246E-14 -0.88817841970E-15 -0.71054273576E-14  0.91188000000E+02  0.91188000000E+02 0.  0.
    9900012    2    3    3    0    0 -0.87111426252E+00 -0.78210069586E+01 -0.35970169914E+02  0.54367080490E+02  0.39999991593E+02 0.  0.
         12    1    3    3    0    0  0.87111426252E+00  0.78210069586E+01  0.35970169914E+02  0.36820919510E+02  0.00000000000E+00 0. -1.
         11    1    4    4    0    0  0.11860639718E+02 -0.25827570232E+01  0.86693263712E+00  0.12169510295E+02  0.51100000000E-03 0. -1.
        -11    1    4    4    0    0 -0.74294031197E+00  0.18318699934E+01 -0.21084799910E+02  0.21177263644E+02  0.51100000000E-03 0.  1.
         12    1    4    4    0    0 -0.11988813668E+02 -0.70701199288E+01 -0.15752302642E+02  0.21020306551E+02  0.00000000000E+00 0. -1.
</event>
<event>
 8    1  0.1278459E-006  0.9118800E+02  0.7816164E-02  0.1184000E+00
        -11   -1    0    0    0    0  0.00000000000E+00  0.00000000000E+00  0.45593999997E+02  0.45594000000E+02  0.51100000000E-03 0.  1.
         11   -1    0    0    0    0 -0.00000000000E+00 -0.00000000000E+00 -0.45593999997E+02  0.45594000000E+02  0.51100000000E-03 0. -1.
         23    2    1    2    0    0 -0.17763568394E-14  0.00000000000E+00  0.00000000000E+00  0.91188000000E+02  0.91188000000E+02 0.  0.
    9900012    2    3    3    0    0 -0.96158042084E+01  0.22776361850E+02  0.27286630045E+02  0.54366993374E+02  0.39999792995E+02 0.  0.
        -12    1    3    3    0    0  0.96158042084E+01 -0.22776361850E+02 -0.27286630045E+02  0.36821006626E+02  0.00000000000E+00 0.  1.
         11    1    4    4    0    0 -0.14368031994E+02  0.48306358860E+01  0.18249132866E+02  0.23723537617E+02  0.51100000000E-03 0. -1.
        -11    1    4    4    0    0  0.96744492496E+00 -0.34808990609E+01  0.80951105103E+01  0.88647291211E+01  0.51100000000E-03 0.  1.
         12    1    4    4    0    0  0.37847828610E+01  0.21426625025E+02  0.94238666901E+00  0.21778726636E+02  0.00000000000E+00 0. -1.
</event>
<event>
 8    1  0.1278459E-006  0.9118800E+02  0.7816164E-02  0.1184000E+00
        -11   -1    0    0    0    0  0.00000000000E+00  0.00000000000E+00  0.45593999997E+02  0.45594000000E+02  0.51100000000E-03 0.  1.
         11   -1    0    0    0    0 -0.00000000000E+00 -0.00000000000E+00 -0.45593999997E+02  0.45594000000E+02  0.51100000000E-03 0. -1.
         23    2    1    2    0    0 -0.35527136788E-14  0.00000000000E+00  0.00000000000E+00  0.91188000000E+02  0.91188000000E+02 0.  0.
    9900012    2    3    3    0    0 -0.22463299445E+02 -0.19332670073E+02 -0.21850102814E+02  0.54367096330E+02  0.40000027703E+02 0.  0.
        -12    1    3    3    0    0  0.22463299445E+02  0.19332670073E+02  0.21850102814E+02  0.36820903670E+02  0.00000000000E+00 0.  1.
         11    1    4    4    0    0 -0.56608544727E+01  0.21806055250E+01 -0.32056953564E+01  0.68612532963E+01  0.51100000000E-03 0. -1.
        -11    1    4    4    0    0 -0.27078668846E+01  0.21240608959E+01  0.83036503119E+01  0.89885920209E+01  0.51100000000E-03 0.  1.
         12    1    4    4    0    0 -0.14094578088E+02 -0.23637336494E+02 -0.26948057770E+02  0.38517251012E+02  0.00000000000E+00 0. -1.
</event>
<event>
 8    1  0.1278459E-006  0.9118800E+02  0.7816164E-02  0.1184000E+00
        -11   -1    0    0    0    0  0.00000000000E+00  0.00000000000E+00  0.45593999997E+02  0.45594000000E+02  0.51100000000E-03 0.  1.
         11   -1    0    0    0    0 -0.00000000000E+00 -0.00000000000E+00 -0.45593999997E+02  0.45594000000E+02  0.51100000000E-03 0. -1.
         23    2    1    2    0    0 -0.17763568394E-14 -0.35527136788E-14  0.17763568394E-14  0.91188000000E+02  0.91188000000E+02 0.  0.
    9900012    2    3    3    0    0 -0.15788801025E+02 -0.31310276620E+02  0.11232119765E+02  0.54367079666E+02  0.39999989715E+02 0.  0.
         12    1    3    3    0    0  0.15788801025E+02  0.31310276620E+02 -0.11232119765E+02  0.36820920334E+02  0.00000000000E+00 0. -1.
         11    1    4    4    0    0 -0.21613042983E+02 -0.16802311380E+02  0.83093874330E+00  0.27388533260E+02  0.51100000000E-03 0. -1.
        -11    1    4    4    0    0 -0.71640322852E+01 -0.43371730381E+01  0.40364620492E+01  0.92966367403E+01  0.51100000000E-03 0.  1.
        -12    1    4    4    0    0  0.12988274243E+02 -0.10170792202E+02  0.63647189725E+01  0.17681909666E+02  0.00000000000E+00 0.  1.
</event>
<event>
 8    1  0.1278459E-006  0.9118800E+02  0.7816164E-02  0.1184000E+00
        -11   -1    0    0    0    0  0.00000000000E+00  0.00000000000E+00  0.45593999997E+02  0.45594000000E+02  0.51100000000E-03 0.  1.
         11   -1    0    0    0    0 -0.00000000000E+00 -0.00000000000E+00 -0.45593999997E+02  0.45594000000E+02  0.51100000000E-03 0. -1.
         23    2    1    2    0    0  0.00000000000E+00  0.17763568394E-14  0.00000000000E+00  0.91188000000E+02  0.91188000000E+02 0.  0.
    9900012    2    3    3    0    0  0.82237623157E+01  0.11373181404E+02  0.34041182253E+02  0.54367060155E+02  0.39999945235E+02 0.  0.
         12    1    3    3    0    0 -0.82237623157E+01 -0.11373181404E+02 -0.34041182253E+02  0.36820939845E+02  0.00000000000E+00 0. -1.
         11    1    4    4    0    0 -0.16749528604E+00  0.42329584970E+01  0.11670907876E+02  0.12415960826E+02  0.51100000000E-03 0. -1.
        -11    1    4    4    0    0  0.17461597169E+02  0.81945585527E+01  0.25785683915E+02  0.32201858034E+02  0.51100000000E-03 0.  1.
         12    1    4    4    0    0 -0.90703395677E+01 -0.10543356455E+01 -0.34154095378E+01  0.97492412955E+01  0.00000000000E+00 0. -1.
</event>
<event>
 8    1  0.1278459E-006  0.9118800E+02  0.7816164E-02  0.1184000E+00
        -11   -1    0    0    0    0  0.00000000000E+00  0.00000000000E+00  0.45593999997E+02  0.45594000000E+02  0.51100000000E-03 0.  1.
         11   -1    0    0    0    0 -0.00000000000E+00 -0.00000000000E+00 -0.45593999997E+02  0.45594000000E+02  0.51100000000E-03 0. -1.
         23    2    1    2    0    0  0.00000000000E+00  0.00000000000E+00 -0.35527136788E-14  0.91188000000E+02  0.91188000000E+02 0.  0.
    9900012    2    3    3    0    0  0.19690762369E+02  0.57185884175E+01  0.30583503156E+02  0.54367095048E+02  0.40000024782E+02 0.  0.
         12    1    3    3    0    0 -0.19690762369E+02 -0.57185884175E+01 -0.30583503156E+02  0.36820904952E+02  0.00000000000E+00 0. -1.
         11    1    4    4    0    0  0.25945449986E+01  0.82359248576E+01 -0.53875952686E+01  0.10177834006E+02  0.51100000000E-03 0. -1.
        -11    1    4    4    0    0  0.73517031741E+00 -0.70679314002E+00 -0.23067133406E+01  0.25220940972E+01  0.51100000000E-03 0.  1.
        -12    1    4    4    0    0  0.16361047053E+02 -0.18105433001E+01  0.38277811765E+02  0.41667166945E+02  0.00000000000E+00 0.  1.
</event>
<event>
 8    1  0.1278459E-006  0.9118800E+02  0.7816164E-02  0.1184000E+00
        -11   -1    0    0    0    0  0.00000000000E+00  0.00000000000E+00  0.45593999997E+02  0.45594000000E+02  0.51100000000E-03 0. -1.
         11   -1    0    0    0    0 -0.00000000000E+00 -0.00000000000E+00 -0.45593999997E+02  0.45594000000E+02  0.51100000000E-03 0.  1.
         23    2    1    2    0    0 -0.17763568394E-14  0.00000000000E+00  0.00000000000E+00  0.91188000000E+02  0.91188000000E+02 0.  0.
    9900012    2    3    3    0    0  0.11231609069E+02  0.28725250940E+02 -0.20111965445E+02  0.54367078801E+02  0.39999987743E+02 0.  0.
         12    1    3    3    0    0 -0.11231609069E+02 -0.28725250940E+02  0.20111965445E+02  0.36820921199E+02  0.00000000000E+00 0. -1.
         11    1    4    4    0    0  0.74124241908E+01  0.30579289200E+01  0.80464920898E+01  0.11359621335E+02  0.51100000000E-03 0. -1.
        -11    1    4    4    0    0  0.57028303074E+01  0.21695905776E+02 -0.30628898771E+02  0.37965300488E+02  0.51100000000E-03 0.  1.
        -12    1    4    4    0    0 -0.18836454291E+01  0.39714162443E+01  0.24704412362E+01  0.50421569779E+01  0.00000000000E+00 0.  1.
</event>
<event>
 8    1  0.1278459E-006  0.9118800E+02  0.7816164E-02  0.1184000E+00
        -11   -1    0    0    0    0  0.00000000000E+00  0.00000000000E+00  0.45593999997E+02  0.45594000000E+02  0.51100000000E-03 0.  1.
         11   -1    0    0    0    0 -0.00000000000E+00 -0.00000000000E+00 -0.45593999997E+02  0.45594000000E+02  0.51100000000E-03 0. -1.
         23    2    1    2    0    0 -0.35527136788E-14  0.00000000000E+00  0.00000000000E+00  0.91188000000E+02  0.91188000000E+02 0.  0.
    9900012    2    3    3    0    0  0.24776730515E+02 -0.81617309888E+01  0.25986145015E+02  0.54367082569E+02  0.39999996332E+02 0.  0.
         12    1    3    3    0    0 -0.24776730515E+02  0.81617309888E+01 -0.25986145015E+02  0.36820917431E+02  0.00000000000E+00 0. -1.
         11    1    4    4    0    0  0.67171720026E+01  0.87851750187E+01  0.17074174230E+02  0.20342741352E+02  0.51100000000E-03 0. -1.
        -11    1    4    4    0    0  0.15791145693E+02 -0.60520933078E+01  0.13840969930E+02  0.21853159144E+02  0.51100000000E-03 0.  1.
         12    1    4    4    0    0  0.22684128188E+01 -0.10894812700E+02 -0.49289991449E+01  0.12171182073E+02  0.00000000000E+00 0. -1.
</event>
<event>
 8    1  0.1278459E-006  0.9118800E+02  0.7816164E-02  0.1184000E+00
        -11   -1    0    0    0    0  0.00000000000E+00  0.00000000000E+00  0.45593999997E+02  0.45594000000E+02  0.51100000000E-03 0. -1.
         11   -1    0    0    0    0 -0.00000000000E+00 -0.00000000000E+00 -0.45593999997E+02  0.45594000000E+02  0.51100000000E-03 0.  1.
         23    2    1    2    0    0  0.00000000000E+00  0.88817841970E-15  0.71054273576E-14  0.91188000000E+02  0.91188000000E+02 0.  0.
    9900012    2    3    3    0    0  0.16437438524E+02  0.30827466076E+01  0.32803769531E+02  0.54367081932E+02  0.39999994881E+02 0.  0.
        -12    1    3    3    0    0 -0.16437438524E+02 -0.30827466076E+01 -0.32803769531E+02  0.36820918068E+02  0.00000000000E+00 0.  1.
         11    1    4    4    0    0 -0.16499502284E+00 -0.43138623224E+01  0.25379649968E+02  0.25744188942E+02  0.51100000000E-03 0. -1.
        -11    1    4    4    0    0  0.18892488846E+02 -0.10128182476E+01  0.54023545770E+01  0.19675806739E+02  0.51100000000E-03 0.  1.
        -12    1    4    4    0    0 -0.22900552990E+01  0.84094271776E+01  0.20217649863E+01  0.89470862513E+01  0.00000000000E+00 0.  1.
</event>
<event>
 8    1  0.1278459E-006  0.9118800E+02  0.7816164E-02  0.1184000E+00
        -11   -1    0    0    0    0  0.00000000000E+00  0.00000000000E+00  0.45593999997E+02  0.45594000000E+02  0.51100000000E-03 0. -1.
         11   -1    0    0    0    0 -0.00000000000E+00 -0.00000000000E+00 -0.45593999997E+02  0.45594000000E+02  0.51100000000E-03 0.  1.
         23    2    1    2    0    0  0.17763568394E-14 -0.17763568394E-14  0.00000000000E+00  0.91188000000E+02  0.91188000000E+02 0.  0.
    9900012    2    3    3    0    0  0.11403651534E+02 -0.13565474422E+02 -0.32275606216E+02  0.54367080386E+02  0.39999991357E+02 0.  0.
         12    1    3    3    0    0 -0.11403651534E+02  0.13565474422E+02  0.32275606216E+02  0.36820919614E+02  0.00000000000E+00 0. -1.
         11    1    4    4    0    0  0.40514265435E+01  0.56616340899E+01 -0.23997631437E+01  0.73638998508E+01  0.51100000000E-03 0. -1.
        -11    1    4    4    0    0 -0.35940275746E+00 -0.28274619837E+01 -0.28701716771E+02  0.28842889201E+02  0.51100000000E-03 0.  1.
         12    1    4    4    0    0  0.77116277479E+01 -0.16399646528E+02 -0.11741263009E+01  0.18160291334E+02  0.00000000000E+00 0. -1.
</event>
<event>
 8    1  0.1278459E-006  0.9118800E+02  0.7816164E-02  0.1184000E+00
        -11   -1    0    0    0    0  0.00000000000E+00  0.00000000000E+00  0.45593999997E+02  0.45594000000E+02  0.51100000000E-03 0. -1.
         11   -1    0    0    0    0 -0.00000000000E+00 -0.00000000000E+00 -0.45593999997E+02  0.45594000000E+02  0.51100000000E-03 0.  1.
         23    2    1    2    0    0  0.00000000000E+00  0.17763568394E-14  0.00000000000E+00  0.91188000000E+02  0.91188000000E+02 0.  0.
    9900012    2    3    3    0    0 -0.33825022226E+02 -0.14464848953E+02 -0.15540955738E+01  0.54367092938E+02  0.40000019970E+02 0.  0.
         12    1    3    3    0    0  0.33825022226E+02  0.14464848953E+02  0.15540955738E+01  0.36820907062E+02  0.00000000000E+00 0. -1.
         11    1    4    4    0    0  0.42010413586E+01 -0.74086669404E+01 -0.31691582895E+01  0.90873901014E+01  0.51100000000E-03 0. -1.
        -11    1    4    4    0    0  0.59684438644E-01  0.27492747626E+01 -0.47027362075E+01  0.54477336619E+01  0.51100000000E-03 0.  1.
        -12    1    4    4    0    0 -0.38085748024E+02 -0.98054567749E+01  0.63177989232E+01  0.39831969174E+02  0.00000000000E+00 0.  1.
</event>
<event>
 8    1  0.1278459E-006  0.9118800E+02  0.7816164E-02  0.1184000E+00
        -11   -1    0    0    0    0  0.00000000000E+00  0.00000000000E+00  0.45593999997E+02  0.45594000000E+02  0.51100000000E-03 0.  1.
         11   -1    0    0    0    0 -0.00000000000E+00 -0.00000000000E+00 -0.45593999997E+02  0.45594000000E+02  0.51100000000E-03 0. -1.
         23    2    1    2    0    0  0.00000000000E+00 -0.17763568394E-14  0.00000000000E+00  0.91188000000E+02  0.91188000000E+02 0.  0.
    9900012    2    3    3    0    0  0.20979894463E+02 -0.73213507015E+01  0.29360209380E+02  0.54367081453E+02  0.39999993789E+02 0.  0.
         12    1    3    3    0    0 -0.20979894463E+02  0.73213507015E+01 -0.29360209380E+02  0.36820918547E+02  0.00000000000E+00 0. -1.
         11    1    4    4    0    0 -0.10339435021E+01 -0.11319387980E+02  0.39830624680E+01  0.12044184086E+02  0.51100000000E-03 0. -1.
        -11    1    4    4    0    0  0.12982494485E+01  0.68622893715E+01  0.19330740457E+02  0.20553685653E+02  0.51100000000E-03 0.  1.
         12    1    4    4    0    0  0.20715588517E+02 -0.28642520932E+01  0.60464064548E+01  0.21769211715E+02  0.00000000000E+00 0. -1.
</event>
<event>
 8    1  0.1278459E-006  0.9118800E+02  0.7816164E-02  0.1184000E+00
        -11   -1    0    0    0    0  0.00000000000E+00  0.00000000000E+00  0.45593999997E+02  0.45594000000E+02  0.51100000000E-03 0. -1.
         11   -1    0    0    0    0 -0.00000000000E+00 -0.00000000000E+00 -0.45593999997E+02  0.45594000000E+02  0.51100000000E-03 0.  1.
         23    2    1    2    0    0  0.00000000000E+00  0.00000000000E+00  0.88817841970E-15  0.91188000000E+02  0.91188000000E+02 0.  0.
    9900012    2    3    3    0    0  0.35646699085E+02 -0.66548008298E+01 -0.63878690409E+01  0.54367103751E+02  0.40000044621E+02 0.  0.
        -12    1    3    3    0    0 -0.35646699085E+02  0.66548008298E+01  0.63878690409E+01  0.36820896249E+02  0.00000000000E+00 0.  1.
         11    1    4    4    0    0  0.22153112273E+02 -0.43328655652E+01 -0.58619321442E+01  0.23321585626E+02  0.51100000000E-03 0. -1.
        -11    1    4    4    0    0  0.16538635004E+02 -0.21368522234E+01  0.10432397132E+02  0.19670472679E+02  0.51100000000E-03 0.  1.
        -12    1    4    4    0    0 -0.30450481922E+01 -0.18508304116E+00 -0.10958334029E+02  0.11375045446E+02  0.00000000000E+00 0.  1.
</event>
<event>
 8    1  0.1278459E-006  0.9118800E+02  0.7816164E-02  0.1184000E+00
        -11   -1    0    0    0    0  0.00000000000E+00  0.00000000000E+00  0.45593999997E+02  0.45594000000E+02  0.51100000000E-03 0. -1.
         11   -1    0    0    0    0 -0.00000000000E+00 -0.00000000000E+00 -0.45593999997E+02  0.45594000000E+02  0.51100000000E-03 0.  1.
         23    2    1    2    0    0  0.10658141036E-13  0.35527136788E-14 -0.88817841970E-15  0.91188000000E+02  0.91188000000E+02 0.  0.
    9900012    2    3    3    0    0 -0.31391884851E+02 -0.18010810887E+02  0.67779388424E+01  0.54367079340E+02  0.39999988972E+02 0.  0.
        -12    1    3    3    0    0  0.31391884851E+02  0.18010810887E+02 -0.67779388424E+01  0.36820920660E+02  0.00000000000E+00 0.  1.
         11    1    4    4    0    0 -0.29582842258E+02 -0.20640822189E+02 -0.89037757794E+01  0.37154613712E+02  0.51100000000E-03 0.  1.
        -11    1    4    4    0    0  0.44492517187E+00 -0.17428718340E+01  0.70636664692E+01  0.72890976731E+01  0.51100000000E-03 0. -1.
        -12    1    4    4    0    0 -0.22539677646E+01  0.43728831363E+01  0.86180481526E+01  0.99233679549E+01  0.00000000000E+00 0.  1.
</event>
<event>
 8    1  0.1278459E-006  0.9118800E+02  0.7816164E-02  0.1184000E+00
        -11   -1    0    0    0    0  0.00000000000E+00  0.00000000000E+00  0.45593999997E+02  0.45594000000E+02  0.51100000000E-03 0. -1.
         11   -1    0    0    0    0 -0.00000000000E+00 -0.00000000000E+00 -0.45593999997E+02  0.45594000000E+02  0.51100000000E-03 0.  1.
         23    2    1    2    0    0  0.35527136788E-14  0.00000000000E+00  0.00000000000E+00  0.91188000000E+02  0.91188000000E+02 0.  0.
    9900012    2    3    3    0    0  0.25312593751E+02  0.12540462706E+02 -0.23617565721E+02  0.54367081790E+02  0.39999994556E+02 0.  0.
         12    1    3    3    0    0 -0.25312593751E+02 -0.12540462706E+02  0.23617565721E+02  0.36820918210E+02  0.00000000000E+00 0. -1.
         11    1    4    4    0    0  0.95082250698E+00  0.22799090301E+01 -0.74825342716E+01  0.78797441590E+01  0.51100000000E-03 0. -1.
        -11    1    4    4    0    0  0.63803668990E+01  0.50120420344E+01 -0.24620743002E+02  0.25923167888E+02  0.51100000000E-03 0.  1.
         12    1    4    4    0    0  0.17981404345E+02  0.52485116410E+01  0.84857115522E+01  0.20564169743E+02  0.00000000000E+00 0. -1.
</event>
<event>
 8    1  0.1278459E-006  0.9118800E+02  0.7816164E-02  0.1184000E+00
        -11   -1    0    0    0    0  0.00000000000E+00  0.00000000000E+00  0.45593999997E+02  0.45594000000E+02  0.51100000000E-03 0.  1.
         11   -1    0    0    0    0 -0.00000000000E+00 -0.00000000000E+00 -0.45593999997E+02  0.45594000000E+02  0.51100000000E-03 0. -1.
         23    2    1    2    0    0 -0.35527136788E-14 -0.35527136788E-14 -0.88817841970E-15  0.91188000000E+02  0.91188000000E+02 0.  0.
    9900012    2    3    3    0    0  0.27996810266E+02  0.22953113258E+02  0.67163572257E+01  0.54367132986E+02  0.40000111268E+02 0.  0.
         12    1    3    3    0    0 -0.27996810266E+02 -0.22953113258E+02 -0.67163572257E+01  0.36820867014E+02  0.00000000000E+00 0. -1.
         11    1    4    4    0    0  0.37190666864E+01  0.86194506182E+01  0.59816881865E+01  0.11131351212E+02  0.51100000000E-03 0. -1.
        -11    1    4    4    0    0  0.22133593248E+02  0.34015012996E+01  0.13613827623E+02  0.26206916338E+02  0.51100000000E-03 0.  1.
         12    1    4    4    0    0  0.21441503314E+01  0.10932161340E+02 -0.12879158584E+02  0.17028865436E+02  0.00000000000E+00 0. -1.
</event>
<event>
 8    1  0.1278459E-006  0.9118800E+02  0.7816164E-02  0.1184000E+00
        -11   -1    0    0    0    0  0.00000000000E+00  0.00000000000E+00  0.45593999997E+02  0.45594000000E+02  0.51100000000E-03 0. -1.
         11   -1    0    0    0    0 -0.00000000000E+00 -0.00000000000E+00 -0.45593999997E+02  0.45594000000E+02  0.51100000000E-03 0.  1.
         23    2    1    2    0    0  0.44408920985E-15 -0.35527136788E-14  0.00000000000E+00  0.91188000000E+02  0.91188000000E+02 0.  0.
    9900012    2    3    3    0    0 -0.13425625266E+01 -0.17683782205E+02  0.32268583991E+02  0.54367080131E+02  0.39999990775E+02 0.  0.
         12    1    3    3    0    0  0.13425625266E+01  0.17683782205E+02 -0.32268583991E+02  0.36820919869E+02  0.00000000000E+00 0. -1.
         11    1    4    4    0    0  0.41795744324E+01  0.48290533667E+01  0.40013042012E+01  0.75365134131E+01  0.51100000000E-03 0. -1.
        -11    1    4    4    0    0 -0.59156947277E+01 -0.25789399362E+02  0.32213110642E+02  0.41686605296E+02  0.51100000000E-03 0.  1.
         12    1    4    4    0    0  0.39355776866E+00  0.32765637909E+01 -0.39458308524E+01  0.51439614218E+01  0.00000000000E+00 0. -1.
</event>
<event>
 8    1  0.1278459E-006  0.9118800E+02  0.7816164E-02  0.1184000E+00
        -11   -1    0    0    0    0  0.00000000000E+00  0.00000000000E+00  0.45593999997E+02  0.45594000000E+02  0.51100000000E-03 0. -1.
         11   -1    0    0    0    0 -0.00000000000E+00 -0.00000000000E+00 -0.45593999997E+02  0.45594000000E+02  0.51100000000E-03 0.  1.
         23    2    1    2    0    0  0.35527136788E-14  0.00000000000E+00  0.66613381478E-15  0.91188000000E+02  0.91188000000E+02 0.  0.
    9900012    2    3    3    0    0 -0.22752985698E+02 -0.28900176895E+02 -0.16913757009E+01  0.54367091069E+02  0.40000015709E+02 0.  0.
         12    1    3    3    0    0  0.22752985698E+02  0.28900176895E+02  0.16913757009E+01  0.36820908931E+02  0.00000000000E+00 0. -1.
         11    1    4    4    0    0 -0.16468255804E+02  0.21367271231E+01 -0.50848136298E+01  0.17367336640E+02  0.51100000000E-03 0. -1.
        -11    1    4    4    0    0 -0.10276651749E+02 -0.93434995958E+01 -0.26265283987E+01  0.14135388483E+02  0.51100000000E-03 0.  1.
        -12    1    4    4    0    0  0.39919218554E+01 -0.21693404423E+02  0.60199663276E+01  0.22864365946E+02  0.00000000000E+00 0.  1.
</event>
<event>
 8    1  0.1278459E-006  0.9118800E+02  0.7816164E-02  0.1184000E+00
        -11   -1    0    0    0    0  0.00000000000E+00  0.00000000000E+00  0.45593999997E+02  0.45594000000E+02  0.51100000000E-03 0.  1.
         11   -1    0    0    0    0 -0.00000000000E+00 -0.00000000000E+00 -0.45593999997E+02  0.45594000000E+02  0.51100000000E-03 0. -1.
         23    2    1    2    0    0  0.00000000000E+00 -0.35527136788E-14  0.88817841970E-15  0.91188000000E+02  0.91188000000E+02 0.  0.
    9900012    2    3    3    0    0  0.30430011390E+02  0.19430942870E+02  0.72271832393E+01  0.54367091380E+02  0.40000016419E+02 0.  0.
         12    1    3    3    0    0 -0.30430011390E+02 -0.19430942870E+02 -0.72271832393E+01  0.36820908620E+02  0.00000000000E+00 0. -1.
         11    1    4    4    0    0  0.19246549543E+01  0.78921217744E+01  0.18895626917E+02  0.20567804930E+02  0.51100000000E-03 0. -1.
        -11    1    4    4    0    0  0.21819460986E+02  0.12170958123E+02 -0.86876420054E+01  0.26451771646E+02  0.51100000000E-03 0.  1.
         12    1    4    4    0    0  0.66858954498E+01 -0.63213702728E+00 -0.29808016719E+01  0.73475148040E+01  0.00000000000E+00 0. -1.
</event>
<event>
 8    1  0.1278459E-006  0.9118800E+02  0.7816164E-02  0.1184000E+00
        -11   -1    0    0    0    0  0.00000000000E+00  0.00000000000E+00  0.45593999997E+02  0.45594000000E+02  0.51100000000E-03 0.  1.
         11   -1    0    0    0    0 -0.00000000000E+00 -0.00000000000E+00 -0.45593999997E+02  0.45594000000E+02  0.51100000000E-03 0. -1.
         23    2    1    2    0    0  0.00000000000E+00  0.00000000000E+00 -0.17763568394E-14  0.91188000000E+02  0.91188000000E+02 0.  0.
    9900012    2    3    3    0    0 -0.10654669751E+02 -0.32100372739E+02  0.14554159206E+02  0.54367089261E+02  0.40000011588E+02 0.  0.
         12    1    3    3    0    0  0.10654669751E+02  0.32100372739E+02 -0.14554159206E+02  0.36820910739E+02  0.00000000000E+00 0. -1.
         11    1    4    4    0    0 -0.52719530892E+01 -0.40363244123E+00 -0.12885190700E+01  0.54421218451E+01  0.51100000000E-03 0. -1.
        -11    1    4    4    0    0 -0.47344425059E+01 -0.34688584682E+02  0.22486661230E+02  0.41609647758E+02  0.51100000000E-03 0.  1.
        -12    1    4    4    0    0 -0.64827415605E+00  0.29918443843E+01 -0.66439829536E+01  0.73153196573E+01  0.00000000000E+00 0.  1.
</event>
<event>
 8    1  0.1278459E-006  0.9118800E+02  0.7816164E-02  0.1184000E+00
        -11   -1    0    0    0    0  0.00000000000E+00  0.00000000000E+00  0.45593999997E+02  0.45594000000E+02  0.51100000000E-03 0.  1.
         11   -1    0    0    0    0 -0.00000000000E+00 -0.00000000000E+00 -0.45593999997E+02  0.45594000000E+02  0.51100000000E-03 0. -1.
         23    2    1    2    0    0  0.00000000000E+00 -0.17763568394E-14 -0.35527136788E-14  0.91188000000E+02  0.91188000000E+02 0.  0.
    9900012    2    3    3    0    0  0.19642697714E+02  0.98182599516E+01 -0.29555797482E+02  0.54367096063E+02  0.40000027094E+02 0.  0.
        -12    1    3    3    0    0 -0.19642697714E+02 -0.98182599516E+01  0.29555797482E+02  0.36820903937E+02  0.00000000000E+00 0.  1.
         11    1    4    4    0    0  0.56139298285E+01  0.17889259917E+02 -0.72244452843E+01  0.20093144065E+02  0.51100000000E-03 0. -1.
        -11    1    4    4    0    0  0.11871036813E+02  0.26066441898E+00 -0.17972548473E+01  0.12009145940E+02  0.51100000000E-03 0.  1.
        -12    1    4    4    0    0  0.21577310726E+01 -0.83316643845E+01 -0.20534097350E+02  0.22264806058E+02  0.00000000000E+00 0.  1.
</event>
<event>
 8    1  0.1278459E-006  0.9118800E+02  0.7816164E-02  0.1184000E+00
        -11   -1    0    0    0    0  0.00000000000E+00  0.00000000000E+00  0.45593999997E+02  0.45594000000E+02  0.51100000000E-03 0.  1.
         11   -1    0    0    0    0 -0.00000000000E+00 -0.00000000000E+00 -0.45593999997E+02  0.45594000000E+02  0.51100000000E-03 0. -1.
         23    2    1    2    0    0  0.00000000000E+00  0.00000000000E+00 -0.66613381478E-15  0.91188000000E+02  0.91188000000E+02 0.  0.
    9900012    2    3    3    0    0  0.30428388098E+02 -0.20695060392E+02  0.12682309435E+01  0.54367072030E+02  0.39999972307E+02 0.  0.
         12    1    3    3    0    0 -0.30428388098E+02  0.20695060392E+02 -0.12682309435E+01  0.36820927970E+02  0.00000000000E+00 0. -1.
         11    1    4    4    0    0  0.64253739894E+01  0.68339388041E+00 -0.12395921403E+02  0.13978960111E+02  0.51100000000E-03 0. -1.
        -11    1    4    4    0    0  0.10082601232E+02  0.22399458504E+01  0.58984444243E+01  0.11894025891E+02  0.51100000000E-03 0.  1.
        -12    1    4    4    0    0  0.13920412877E+02 -0.23618400122E+02  0.77657079223E+01  0.28494086027E+02  0.00000000000E+00 0.  1.
</event>
<event>
 8    1  0.1278459E-006  0.9118800E+02  0.7816164E-02  0.1184000E+00
        -11   -1    0    0    0    0  0.00000000000E+00  0.00000000000E+00  0.45593999997E+02  0.45594000000E+02  0.51100000000E-03 0.  1.
         11   -1    0    0    0    0 -0.00000000000E+00 -0.00000000000E+00 -0.45593999997E+02  0.45594000000E+02  0.51100000000E-03 0. -1.
         23    2    1    2    0    0  0.00000000000E+00  0.00000000000E+00  0.00000000000E+00  0.91188000000E+02  0.91188000000E+02 0.  0.
    9900012    2    3    3    0    0 -0.17302751411E+02 -0.17907600773E+02 -0.27124023804E+02  0.54367081500E+02  0.39999993896E+02 0.  0.
        -12    1    3    3    0    0  0.17302751411E+02  0.17907600773E+02  0.27124023804E+02  0.36820918500E+02  0.00000000000E+00 0.  1.
         11    1    4    4    0    0 -0.18658168799E+02 -0.10958614140E+02 -0.24144655807E+02  0.32421950761E+02  0.51100000000E-03 0. -1.
        -11    1    4    4    0    0 -0.26302849421E+01  0.40343203174E+01 -0.79119822543E+01  0.92624836169E+01  0.51100000000E-03 0.  1.
        -12    1    4    4    0    0  0.39857023303E+01 -0.10983306950E+02  0.49326142573E+01  0.12682647123E+02  0.00000000000E+00 0.  1.
</event>
<event>
 8    1  0.1278459E-006  0.9118800E+02  0.7816164E-02  0.1184000E+00
        -11   -1    0    0    0    0  0.00000000000E+00  0.00000000000E+00  0.45593999997E+02  0.45594000000E+02  0.51100000000E-03 0.  1.
         11   -1    0    0    0    0 -0.00000000000E+00 -0.00000000000E+00 -0.45593999997E+02  0.45594000000E+02  0.51100000000E-03 0. -1.
         23    2    1    2    0    0  0.00000000000E+00  0.17763568394E-14  0.00000000000E+00  0.91188000000E+02  0.91188000000E+02 0.  0.
    9900012    2    3    3    0    0  0.33315789528E+02  0.14712298972E+02 -0.54209591386E+01  0.54367076995E+02  0.39999983626E+02 0.  0.
        -12    1    3    3    0    0 -0.33315789528E+02 -0.14712298972E+02  0.54209591386E+01  0.36820923005E+02  0.00000000000E+00 0.  1.
         11    1    4    4    0    0  0.27913464053E+02  0.17133196850E+02  0.85940558464E+01  0.33860976151E+02  0.51100000000E-03 0. -1.
        -11    1    4    4    0    0  0.39123065549E+01 -0.50199952598E+01 -0.15789612685E+02  0.17024052514E+02  0.51100000000E-03 0.  1.
         12    1    4    4    0    0  0.14900189203E+01  0.25990973818E+01  0.17745976997E+01  0.34820483309E+01  0.00000000000E+00 0. -1.
</event>
<event>
 8    1  0.1278459E-006  0.9118800E+02  0.7816164E-02  0.1184000E+00
        -11   -1    0    0    0    0  0.00000000000E+00  0.00000000000E+00  0.45593999997E+02  0.45594000000E+02  0.51100000000E-03 0.  1.
         11   -1    0    0    0    0 -0.00000000000E+00 -0.00000000000E+00 -0.45593999997E+02  0.45594000000E+02  0.51100000000E-03 0. -1.
         23    2    1    2    0    0 -0.35527136788E-14 -0.35527136788E-14  0.00000000000E+00  0.91188000000E+02  0.91188000000E+02 0.  0.
    9900012    2    3    3    0    0 -0.30466679778E+02 -0.15350835374E+02 -0.13853300997E+02  0.54367072909E+02  0.39999974310E+02 0.  0.
        -12    1    3    3    0    0  0.30466679778E+02  0.15350835374E+02  0.13853300997E+02  0.36820927091E+02  0.00000000000E+00 0.  1.
         11    1    4    4    0    0 -0.13605227939E+02  0.37516030154E+01 -0.51581825941E+01  0.15026097311E+02  0.51100000000E-03 0. -1.
        -11    1    4    4    0    0 -0.15259681105E+02  0.29298234231E+01 -0.74057044210E+01  0.17212965780E+02  0.51100000000E-03 0.  1.
         12    1    4    4    0    0 -0.16017707338E+01 -0.22032261813E+02 -0.12894139817E+01  0.22128009818E+02  0.00000000000E+00 0. -1.
</event>
<event>
 8    1  0.1278459E-006  0.9118800E+02  0.7816164E-02  0.1184000E+00
        -11   -1    0    0    0    0  0.00000000000E+00  0.00000000000E+00  0.45593999997E+02  0.45594000000E+02  0.51100000000E-03 0.  1.
         11   -1    0    0    0    0 -0.00000000000E+00 -0.00000000000E+00 -0.45593999997E+02  0.45594000000E+02  0.51100000000E-03 0. -1.
         23    2    1    2    0    0 -0.11102230246E-15  0.00000000000E+00 -0.44408920985E-15  0.91188000000E+02  0.91188000000E+02 0.  0.
    9900012    2    3    3    0    0  0.68861295630E+00  0.36692600355E+02  0.29933156775E+01  0.54367067810E+02  0.39999962687E+02 0.  0.
         12    1    3    3    0    0 -0.68861295630E+00 -0.36692600355E+02 -0.29933156775E+01  0.36820932190E+02  0.00000000000E+00 0. -1.
         11    1    4    4    0    0 -0.29438088271E+01  0.68065876276E+01 -0.15370960662E+02  0.17066402007E+02  0.51100000000E-03 0. -1.
        -11    1    4    4    0    0 -0.38077079402E+01  0.17996876756E+02  0.11402820609E+02  0.21642793970E+02  0.51100000000E-03 0.  1.
         12    1    4    4    0    0  0.74401297236E+01  0.11889135971E+02  0.69614557311E+01  0.15657871833E+02  0.00000000000E+00 0. -1.
</event>
<event>
 8    1  0.1278459E-006  0.9118800E+02  0.7816164E-02  0.1184000E+00
        -11   -1    0    0    0    0  0.00000000000E+00  0.00000000000E+00  0.45593999997E+02  0.45594000000E+02  0.51100000000E-03 0.  1.
         11   -1    0    0    0    0 -0.00000000000E+00 -0.00000000000E+00 -0.45593999997E+02  0.45594000000E+02  0.51100000000E-03 0. -1.
         23    2    1    2    0    0 -0.71054273576E-14  0.00000000000E+00  0.88817841970E-15  0.91188000000E+02  0.91188000000E+02 0.  0.
    9900012    2    3    3    0    0  0.33541565784E+02  0.14481092472E+02 -0.45873099124E+01  0.54367053697E+02  0.39999930514E+02 0.  0.
         12    1    3    3    0    0 -0.33541565784E+02 -0.14481092472E+02  0.45873099124E+01  0.36820946303E+02  0.00000000000E+00 0. -1.
         11    1    4    4    0    0  0.58591543159E+01  0.13712993098E+02 -0.40026399260E-01  0.14912326156E+02  0.51100000000E-03 0. -1.
        -11    1    4    4    0    0  0.21483072034E+02  0.76257499915E+01 -0.13576090814E+02  0.26532709794E+02  0.51100000000E-03 0.  1.
         12    1    4    4    0    0  0.61993394335E+01 -0.68576506171E+01  0.90288073009E+01  0.12922017748E+02  0.00000000000E+00 0. -1.
</event>
<event>
 8    1  0.1278459E-006  0.9118800E+02  0.7816164E-02  0.1184000E+00
        -11   -1    0    0    0    0  0.00000000000E+00  0.00000000000E+00  0.45593999997E+02  0.45594000000E+02  0.51100000000E-03 0. -1.
         11   -1    0    0    0    0 -0.00000000000E+00 -0.00000000000E+00 -0.45593999997E+02  0.45594000000E+02  0.51100000000E-03 0.  1.
         23    2    1    2    0    0 -0.35527136788E-14  0.00000000000E+00  0.00000000000E+00  0.91188000000E+02  0.91188000000E+02 0.  0.
    9900012    2    3    3    0    0 -0.17879631806E+02  0.16233509192E+02  0.27795165896E+02  0.54367091519E+02  0.40000016735E+02 0.  0.
        -12    1    3    3    0    0  0.17879631806E+02 -0.16233509192E+02 -0.27795165896E+02  0.36820908481E+02  0.00000000000E+00 0.  1.
         11    1    4    4    0    0 -0.50105420756E+01  0.91395090457E+01  0.16629230893E+02  0.19625684137E+02  0.51100000000E-03 0. -1.
        -11    1    4    4    0    0  0.28079802685E+01 -0.33743342512E+01 -0.71936625472E+01  0.84273166507E+01  0.51100000000E-03 0.  1.
        -12    1    4    4    0    0 -0.15677069999E+02  0.10468334397E+02  0.18359597551E+02  0.26314090731E+02  0.00000000000E+00 0.  1.
</event>
<event>
 8    1  0.1278459E-006  0.9118800E+02  0.7816164E-02  0.1184000E+00
        -11   -1    0    0    0    0  0.00000000000E+00  0.00000000000E+00  0.45593999997E+02  0.45594000000E+02  0.51100000000E-03 0.  1.
         11   -1    0    0    0    0 -0.00000000000E+00 -0.00000000000E+00 -0.45593999997E+02  0.45594000000E+02  0.51100000000E-03 0. -1.
         23    2    1    2    0    0 -0.17763568394E-14 -0.17763568394E-14  0.35527136788E-14  0.91188000000E+02  0.91188000000E+02 0.  0.
    9900012    2    3    3    0    0 -0.13643913988E+02 -0.12233458765E+02  0.31936903511E+02  0.54367085995E+02  0.40000004143E+02 0.  0.
         12    1    3    3    0    0  0.13643913988E+02  0.12233458765E+02 -0.31936903511E+02  0.36820914005E+02  0.00000000000E+00 0. -1.
         11    1    4    4    0    0  0.34948493554E+01  0.69913176453E+01  0.71881082030E+01  0.10618916811E+02  0.51100000000E-03 0. -1.
        -11    1    4    4    0    0 -0.95256762616E+01 -0.19792430120E+02  0.27882982666E+02  0.35495626785E+02  0.51100000000E-03 0.  1.
        -12    1    4    4    0    0 -0.76130870822E+01  0.56765370986E+00 -0.31341873574E+01  0.82525423990E+01  0.00000000000E+00 0.  1.
</event>
<event>
 8    1  0.1278459E-006  0.9118800E+02  0.7816164E-02  0.1184000E+00
        -11   -1    0    0    0    0  0.00000000000E+00  0.00000000000E+00  0.45593999997E+02  0.45594000000E+02  0.51100000000E-03 0.  1.
         11   -1    0    0    0    0 -0.00000000000E+00 -0.00000000000E+00 -0.45593999997E+02  0.45594000000E+02  0.51100000000E-03 0. -1.
         23    2    1    2    0    0  0.35527136788E-14 -0.35527136788E-14  0.00000000000E+00  0.91188000000E+02  0.91188000000E+02 0.  0.
    9900012    2    3    3    0    0 -0.17025199708E+02 -0.29716913784E+02 -0.13521384677E+02  0.54367078861E+02  0.39999987880E+02 0.  0.
        -12    1    3    3    0    0  0.17025199708E+02  0.29716913784E+02  0.13521384677E+02  0.36820921139E+02  0.00000000000E+00 0.  1.
         11    1    4    4    0    0 -0.20010236662E+02 -0.87091646810E+01 -0.12710742685E+02  0.25255140082E+02  0.51100000000E-03 0. -1.
        -11    1    4    4    0    0 -0.64530832355E+01 -0.17806466667E+02  0.10695181060E+01  0.18969881593E+02  0.51100000000E-03 0.  1.
         12    1    4    4    0    0  0.94381201904E+01 -0.32012824359E+01 -0.18801600985E+01  0.10142057186E+02  0.00000000000E+00 0. -1.
</event>
<event>
 8    1  0.1278459E-006  0.9118800E+02  0.7816164E-02  0.1184000E+00
        -11   -1    0    0    0    0  0.00000000000E+00  0.00000000000E+00  0.45593999997E+02  0.45594000000E+02  0.51100000000E-03 0.  1.
         11   -1    0    0    0    0 -0.00000000000E+00 -0.00000000000E+00 -0.45593999997E+02  0.45594000000E+02  0.51100000000E-03 0. -1.
         23    2    1    2    0    0 -0.35527136788E-14  0.00000000000E+00  0.35527136788E-14  0.91188000000E+02  0.91188000000E+02 0.  0.
    9900012    2    3    3    0    0  0.16060918286E+02  0.18011810197E+02 -0.27810092578E+02  0.54367086758E+02  0.40000005883E+02 0.  0.
        -12    1    3    3    0    0 -0.16060918286E+02 -0.18011810197E+02  0.27810092578E+02  0.36820913242E+02  0.00000000000E+00 0.  1.
         11    1    4    4    0    0  0.18205071318E+00  0.15044696265E+02 -0.17313090403E+02  0.22937286843E+02  0.51100000000E-03 0. -1.
        -11    1    4    4    0    0  0.95967438391E+01  0.13677572339E+02 -0.31521151697E+01  0.17003214629E+02  0.51100000000E-03 0.  1.
        -12    1    4    4    0    0  0.62821237338E+01 -0.10710458407E+02 -0.73448870052E+01  0.14426585286E+02  0.00000000000E+00 0.  1.
</event>
<event>
 8    1  0.1278459E-006  0.9118800E+02  0.7816164E-02  0.1184000E+00
        -11   -1    0    0    0    0  0.00000000000E+00  0.00000000000E+00  0.45593999997E+02  0.45594000000E+02  0.51100000000E-03 0.  1.
         11   -1    0    0    0    0 -0.00000000000E+00 -0.00000000000E+00 -0.45593999997E+02  0.45594000000E+02  0.51100000000E-03 0. -1.
         23    2    1    2    0    0  0.00000000000E+00  0.00000000000E+00  0.00000000000E+00  0.91188000000E+02  0.91188000000E+02 0.  0.
    9900012    2    3    3    0    0  0.24851772381E+02 -0.21169102098E+02 -0.17030548002E+02  0.54367067918E+02  0.39999962933E+02 0.  0.
        -12    1    3    3    0    0 -0.24851772381E+02  0.21169102098E+02  0.17030548002E+02  0.36820932082E+02  0.00000000000E+00 0.  1.
         11    1    4    4    0    0  0.29457115219E+02 -0.11592826198E+02 -0.14436256023E+01  0.31689103985E+02  0.51100000000E-03 0. -1.
        -11    1    4    4    0    0 -0.41354537798E+01  0.20260205818E+01 -0.27295565375E+01  0.53532435509E+01  0.51100000000E-03 0.  1.
         12    1    4    4    0    0 -0.46988905745E+00 -0.11602296482E+02 -0.12857365863E+02  0.17324720382E+02  0.00000000000E+00 0. -1.
</event>
<event>
 8    1  0.1278459E-006  0.9118800E+02  0.7816164E-02  0.1184000E+00
        -11   -1    0    0    0    0  0.00000000000E+00  0.00000000000E+00  0.45593999997E+02  0.45594000000E+02  0.51100000000E-03 0. -1.
         11   -1    0    0    0    0 -0.00000000000E+00 -0.00000000000E+00 -0.45593999997E+02  0.45594000000E+02  0.51100000000E-03 0.  1.
         23    2    1    2    0    0  0.00000000000E+00  0.00000000000E+00 -0.35527136788E-14  0.91188000000E+02  0.91188000000E+02 0.  0.
    9900012    2    3    3    0    0  0.63896400554E+00 -0.20140850292E+02 -0.30817479145E+02  0.54367093624E+02  0.40000021535E+02 0.  0.
         12    1    3    3    0    0 -0.63896400554E+00  0.20140850292E+02  0.30817479145E+02  0.36820906376E+02  0.00000000000E+00 0. -1.
         11    1    4    4    0    0  0.91257914575E+01 -0.18297738215E+02 -0.28663594980E+02  0.35209217130E+02  0.51100000000E-03 0. -1.
        -11    1    4    4    0    0 -0.89526739877E+01  0.36535966543E+01 -0.69014778452E+01  0.11879795316E+02  0.51100000000E-03 0.  1.
         12    1    4    4    0    0  0.46584653577E+00 -0.54967087319E+01  0.47475936804E+01  0.72780811779E+01  0.00000000000E+00 0. -1.
</event>
<event>
 8    1  0.1278459E-006  0.9118800E+02  0.7816164E-02  0.1184000E+00
        -11   -1    0    0    0    0  0.00000000000E+00  0.00000000000E+00  0.45593999997E+02  0.45594000000E+02  0.51100000000E-03 0.  1.
         11   -1    0    0    0    0 -0.00000000000E+00 -0.00000000000E+00 -0.45593999997E+02  0.45594000000E+02  0.51100000000E-03 0. -1.
         23    2    1    2    0    0  0.00000000000E+00  0.88817841970E-15  0.00000000000E+00  0.91188000000E+02  0.91188000000E+02 0.  0.
    9900012    2    3    3    0    0 -0.12119134156E+02 -0.48566146431E+01  0.34428471855E+02  0.54367084846E+02  0.40000001523E+02 0.  0.
         12    1    3    3    0    0  0.12119134156E+02  0.48566146431E+01 -0.34428471855E+02  0.36820915154E+02  0.00000000000E+00 0. -1.
         11    1    4    4    0    0 -0.65282463261E+01  0.71354846960E+01  0.35663766163E+01  0.10307870021E+02  0.51100000000E-03 0. -1.
        -11    1    4    4    0    0  0.22640362464E+00 -0.20446789439E+02  0.15837107238E+02  0.25863805267E+02  0.51100000000E-03 0.  1.
         12    1    4    4    0    0 -0.58172914542E+01  0.84546900998E+01  0.15024988001E+02  0.18195409558E+02  0.00000000000E+00 0. -1.
</event>
<event>
 8    1  0.1278459E-006  0.9118800E+02  0.7816164E-02  0.1184000E+00
        -11   -1    0    0    0    0  0.00000000000E+00  0.00000000000E+00  0.45593999997E+02  0.45594000000E+02  0.51100000000E-03 0.  1.
         11   -1    0    0    0    0 -0.00000000000E+00 -0.00000000000E+00 -0.45593999997E+02  0.45594000000E+02  0.51100000000E-03 0. -1.
         23    2    1    2    0    0 -0.88817841970E-15  0.00000000000E+00  0.00000000000E+00  0.91188000000E+02  0.91188000000E+02 0.  0.
    9900012    2    3    3    0    0 -0.49792489488E+01  0.13978266382E+02 -0.33698563309E+02  0.54367108916E+02  0.40000056395E+02 0.  0.
        -12    1    3    3    0    0  0.49792489488E+01 -0.13978266382E+02  0.33698563309E+02  0.36820891084E+02  0.00000000000E+00 0.  1.
         11    1    4    4    0    0 -0.16182534158E+02  0.89926068582E+01 -0.16867757310E+02  0.25045211655E+02  0.51100000000E-03 0. -1.
        -11    1    4    4    0    0 -0.57048850303E+01  0.16487530141E+01 -0.12069289924E+01  0.60597671213E+01  0.51100000000E-03 0.  1.
        -12    1    4    4    0    0  0.16908170240E+02  0.33369065095E+01 -0.15623877007E+02  0.23262130140E+02  0.00000000000E+00 0.  1.
</event>
<event>
 8    1  0.1278459E-006  0.9118800E+02  0.7816164E-02  0.1184000E+00
        -11   -1    0    0    0    0  0.00000000000E+00  0.00000000000E+00  0.45593999997E+02  0.45594000000E+02  0.51100000000E-03 0.  1.
         11   -1    0    0    0    0 -0.00000000000E+00 -0.00000000000E+00 -0.45593999997E+02  0.45594000000E+02  0.51100000000E-03 0. -1.
         23    2    1    2    0    0  0.00000000000E+00  0.00000000000E+00  0.00000000000E+00  0.91188000000E+02  0.91188000000E+02 0.  0.
    9900012    2    3    3    0    0 -0.16075166310E+02 -0.22863269089E+02  0.23971656480E+02  0.54367077148E+02  0.39999983974E+02 0.  0.
         12    1    3    3    0    0  0.16075166310E+02  0.22863269089E+02 -0.23971656480E+02  0.36820922852E+02  0.00000000000E+00 0. -1.
         11    1    4    4    0    0 -0.15518166167E+02  0.74303239561E+00  0.33037401294E+01  0.15883333322E+02  0.51100000000E-03 0.  1.
        -11    1    4    4    0    0  0.55297613946E+00 -0.20899076798E+02  0.36579855868E+01  0.21223997089E+02  0.51100000000E-03 0. -1.
         12    1    4    4    0    0 -0.11099762823E+01 -0.27072246868E+01  0.17009930763E+02  0.17259746737E+02  0.00000000000E+00 0. -1.
</event>
<event>
 8    1  0.1278459E-006  0.9118800E+02  0.7816164E-02  0.1184000E+00
        -11   -1    0    0    0    0  0.00000000000E+00  0.00000000000E+00  0.45593999997E+02  0.45594000000E+02  0.51100000000E-03 0.  1.
         11   -1    0    0    0    0 -0.00000000000E+00 -0.00000000000E+00 -0.45593999997E+02  0.45594000000E+02  0.51100000000E-03 0. -1.
         23    2    1    2    0    0  0.17763568394E-14  0.00000000000E+00 -0.71054273576E-14  0.91188000000E+02  0.91188000000E+02 0.  0.
    9900012    2    3    3    0    0 -0.14564960827E+02  0.82060061697E+01 -0.32807083709E+02  0.54367063529E+02  0.39999952927E+02 0.  0.
        -12    1    3    3    0    0  0.14564960827E+02 -0.82060061697E+01  0.32807083709E+02  0.36820936471E+02  0.00000000000E+00 0.  1.
         11    1    4    4    0    0 -0.34322607526E+01  0.50738991867E+01 -0.17002799078E+02  0.18072632448E+02  0.51100000000E-03 0. -1.
        -11    1    4    4    0    0 -0.18928876538E+02  0.42122825574E+01 -0.86800376379E+00  0.19411314282E+02  0.51100000000E-03 0.  1.
        -12    1    4    4    0    0  0.77961764645E+01 -0.10801755744E+01 -0.14936280867E+02  0.16883116800E+02  0.00000000000E+00 0.  1.
</event>
<event>
 8    1  0.1278459E-006  0.9118800E+02  0.7816164E-02  0.1184000E+00
        -11   -1    0    0    0    0  0.00000000000E+00  0.00000000000E+00  0.45593999997E+02  0.45594000000E+02  0.51100000000E-03 0.  1.
         11   -1    0    0    0    0 -0.00000000000E+00 -0.00000000000E+00 -0.45593999997E+02  0.45594000000E+02  0.51100000000E-03 0. -1.
         23    2    1    2    0    0  0.00000000000E+00 -0.35527136788E-14  0.00000000000E+00  0.91188000000E+02  0.91188000000E+02 0.  0.
    9900012    2    3    3    0    0 -0.26317234086E+02  0.23391800959E+02  0.10770656745E+02  0.54367079197E+02  0.39999988646E+02 0.  0.
        -12    1    3    3    0    0  0.26317234086E+02 -0.23391800959E+02 -0.10770656745E+02  0.36820920803E+02  0.00000000000E+00 0.  1.
         11    1    4    4    0    0 -0.16970551792E+02  0.26379604520E+02  0.64383283212E+01  0.32020856244E+02  0.51100000000E-03 0. -1.
        -11    1    4    4    0    0  0.34665397180E+01  0.51747276233E+01 -0.86760108461E+00  0.62886751780E+01  0.51100000000E-03 0.  1.
         12    1    4    4    0    0 -0.12813222013E+02 -0.81625311843E+01  0.51999295081E+01  0.16057547776E+02  0.00000000000E+00 0. -1.
</event>
<event>
 8    1  0.1278459E-006  0.9118800E+02  0.7816164E-02  0.1184000E+00
        -11   -1    0    0    0    0  0.00000000000E+00  0.00000000000E+00  0.45593999997E+02  0.45594000000E+02  0.51100000000E-03 0. -1.
         11   -1    0    0    0    0 -0.00000000000E+00 -0.00000000000E+00 -0.45593999997E+02  0.45594000000E+02  0.51100000000E-03 0.  1.
         23    2    1    2    0    0  0.35527136788E-14  0.00000000000E+00  0.00000000000E+00  0.91188000000E+02  0.91188000000E+02 0.  0.
    9900012    2    3    3    0    0 -0.18073410277E+02  0.17522627889E+02  0.26871686863E+02  0.54367106447E+02  0.40000050767E+02 0.  0.
        -12    1    3    3    0    0  0.18073410277E+02 -0.17522627889E+02 -0.26871686863E+02  0.36820893553E+02  0.00000000000E+00 0.  1.
         11    1    4    4    0    0 -0.20075297590E+02  0.97042962908E+01  0.51265446857E+01  0.22879519236E+02  0.51100000000E-03 0. -1.
        -11    1    4    4    0    0 -0.64614248534E+01 -0.34487789006E+00  0.18030108895E+02  0.19156037663E+02  0.51100000000E-03 0.  1.
        -12    1    4    4    0    0  0.84633121660E+01  0.81632094884E+01  0.37150332818E+01  0.12331549548E+02  0.00000000000E+00 0.  1.
</event>
<event>
 8    1  0.1278459E-006  0.9118800E+02  0.7816164E-02  0.1184000E+00
        -11   -1    0    0    0    0  0.00000000000E+00  0.00000000000E+00  0.45593999997E+02  0.45594000000E+02  0.51100000000E-03 0.  1.
         11   -1    0    0    0    0 -0.00000000000E+00 -0.00000000000E+00 -0.45593999997E+02  0.45594000000E+02  0.51100000000E-03 0. -1.
         23    2    1    2    0    0 -0.17763568394E-14 -0.35527136788E-14  0.35527136788E-14  0.91188000000E+02  0.91188000000E+02 0.  0.
    9900012    2    3    3    0    0  0.11222174592E+02  0.28488625519E+02 -0.20450975707E+02  0.54367063104E+02  0.39999951958E+02 0.  0.
        -12    1    3    3    0    0 -0.11222174592E+02 -0.28488625519E+02  0.20450975707E+02  0.36820936896E+02  0.00000000000E+00 0.  1.
         11    1    4    4    0    0 -0.34843212761E+01  0.17442608976E+02 -0.90298422492E+01  0.19948011279E+02  0.51100000000E-03 0. -1.
        -11    1    4    4    0    0  0.71550978578E+01  0.19018795015E+02 -0.29140434319E+01  0.20528069528E+02  0.51100000000E-03 0.  1.
        -12    1    4    4    0    0  0.75513980103E+01 -0.79727784721E+01 -0.85070900260E+01  0.13890982297E+02  0.00000000000E+00 0.  1.
</event>
<event>
 8    1  0.1278459E-006  0.9118800E+02  0.7816164E-02  0.1184000E+00
        -11   -1    0    0    0    0  0.00000000000E+00  0.00000000000E+00  0.45593999997E+02  0.45594000000E+02  0.51100000000E-03 0. -1.
         11   -1    0    0    0    0 -0.00000000000E+00 -0.00000000000E+00 -0.45593999997E+02  0.45594000000E+02  0.51100000000E-03 0.  1.
         23    2    1    2    0    0  0.00000000000E+00  0.00000000000E+00  0.35527136788E-14  0.91188000000E+02  0.91188000000E+02 0.  0.
    9900012    2    3    3    0    0  0.71927353457E+01 -0.25588440185E+02 -0.25480903380E+02  0.54367079997E+02  0.39999990468E+02 0.  0.
         12    1    3    3    0    0 -0.71927353457E+01  0.25588440185E+02  0.25480903380E+02  0.36820920003E+02  0.00000000000E+00 0. -1.
         11    1    4    4    0    0  0.50296399157E+01  0.47911863870E+01 -0.71382728461E+01  0.99603054251E+01  0.51100000000E-03 0. -1.
        -11    1    4    4    0    0 -0.60489618209E+00 -0.91649430759E+01  0.67744573149E+01  0.11412946734E+02  0.51100000000E-03 0.  1.
        -12    1    4    4    0    0  0.27679916121E+01 -0.21214683496E+02 -0.25117087848E+02  0.32993827838E+02  0.00000000000E+00 0.  1.
</event>
<event>
 8    1  0.1278459E-006  0.9118800E+02  0.7816164E-02  0.1184000E+00
        -11   -1    0    0    0    0  0.00000000000E+00  0.00000000000E+00  0.45593999997E+02  0.45594000000E+02  0.51100000000E-03 0. -1.
         11   -1    0    0    0    0 -0.00000000000E+00 -0.00000000000E+00 -0.45593999997E+02  0.45594000000E+02  0.51100000000E-03 0.  1.
         23    2    1    2    0    0  0.35527136788E-14  0.00000000000E+00  0.11102230246E-15  0.91188000000E+02  0.91188000000E+02 0.  0.
    9900012    2    3    3    0    0 -0.30898988002E+02 -0.20020550050E+02  0.45797868016E+00  0.54367087080E+02  0.40000006615E+02 0.  0.
        -12    1    3    3    0    0  0.30898988002E+02  0.20020550050E+02 -0.45797868016E+00  0.36820912920E+02  0.00000000000E+00 0.  1.
         11    1    4    4    0    0 -0.69494082834E+01 -0.14766202514E+01  0.32751116197E+00  0.71120986129E+01  0.51100000000E-03 0. -1.
        -11    1    4    4    0    0 -0.29718488488E+02 -0.23365400520E+01 -0.22148992688E+01  0.29892369536E+02  0.51100000000E-03 0.  1.
        -12    1    4    4    0    0  0.57689087696E+01 -0.16207389746E+02  0.23453667870E+01  0.17362618931E+02  0.00000000000E+00 0.  1.
</event>
<event>
 8    1  0.1278459E-006  0.9118800E+02  0.7816164E-02  0.1184000E+00
        -11   -1    0    0    0    0  0.00000000000E+00  0.00000000000E+00  0.45593999997E+02  0.45594000000E+02  0.51100000000E-03 0.  1.
         11   -1    0    0    0    0 -0.00000000000E+00 -0.00000000000E+00 -0.45593999997E+02  0.45594000000E+02  0.51100000000E-03 0. -1.
         23    2    1    2    0    0  0.71054273576E-14 -0.17763568394E-14  0.17763568394E-14  0.91188000000E+02  0.91188000000E+02 0.  0.
    9900012    2    3    3    0    0  0.32284691121E+02 -0.12568885449E+02  0.12469992822E+02  0.54367097198E+02  0.40000029681E+02 0.  0.
         12    1    3    3    0    0 -0.32284691121E+02  0.12568885449E+02 -0.12469992822E+02  0.36820902802E+02  0.00000000000E+00 0. -1.
         11    1    4    4    0    0  0.90551771252E+01 -0.13730943353E+02 -0.22560547324E+01  0.16601952336E+02  0.51100000000E-03 0. -1.
        -11    1    4    4    0    0  0.15699064173E+02 -0.92833480657E+01  0.16710496055E+02  0.24736245590E+02  0.51100000000E-03 0.  1.
         12    1    4    4    0    0  0.75304498226E+01  0.10445405970E+02 -0.19844484997E+01  0.13028899273E+02  0.00000000000E+00 0. -1.
</event>
<event>
 8    1  0.1278459E-006  0.9118800E+02  0.7816164E-02  0.1184000E+00
        -11   -1    0    0    0    0  0.00000000000E+00  0.00000000000E+00  0.45593999997E+02  0.45594000000E+02  0.51100000000E-03 0.  1.
         11   -1    0    0    0    0 -0.00000000000E+00 -0.00000000000E+00 -0.45593999997E+02  0.45594000000E+02  0.51100000000E-03 0. -1.
         23    2    1    2    0    0  0.35527136788E-14 -0.35527136788E-14 -0.35527136788E-14  0.91188000000E+02  0.91188000000E+02 0.  0.
    9900012    2    3    3    0    0  0.30952144640E+02 -0.16306835011E+02 -0.11481781146E+02  0.54367089851E+02  0.40000012934E+02 0.  0.
        -12    1    3    3    0    0 -0.30952144640E+02  0.16306835011E+02  0.11481781146E+02  0.36820910149E+02  0.00000000000E+00 0.  1.
         11    1    4    4    0    0 -0.55209396282E+01 -0.13940228186E+01  0.31426420278E-01  0.56943008243E+01  0.51100000000E-03 0. -1.
        -11    1    4    4    0    0 -0.27996038757E+01 -0.65621468519E+01 -0.14509860155E+01  0.72804473657E+01  0.51100000000E-03 0.  1.
         12    1    4    4    0    0  0.39272688144E+02 -0.83506653409E+01 -0.10062221551E+02  0.41392341661E+02  0.00000000000E+00 0. -1.
</event>
<event>
 8    1  0.1278459E-006  0.9118800E+02  0.7816164E-02  0.1184000E+00
        -11   -1    0    0    0    0  0.00000000000E+00  0.00000000000E+00  0.45593999997E+02  0.45594000000E+02  0.51100000000E-03 0. -1.
         11   -1    0    0    0    0 -0.00000000000E+00 -0.00000000000E+00 -0.45593999997E+02  0.45594000000E+02  0.51100000000E-03 0.  1.
         23    2    1    2    0    0  0.00000000000E+00  0.00000000000E+00 -0.17763568394E-14  0.91188000000E+02  0.91188000000E+02 0.  0.
    9900012    2    3    3    0    0  0.88988283679E+01 -0.33656694561E+02 -0.11992428513E+02  0.54367074201E+02  0.39999977255E+02 0.  0.
         12    1    3    3    0    0 -0.88988283679E+01  0.33656694561E+02  0.11992428513E+02  0.36820925799E+02  0.00000000000E+00 0. -1.
         11    1    4    4    0    0 -0.89757131221E+01  0.17074418835E+01  0.31899257346E+01  0.96775208752E+01  0.51100000000E-03 0. -1.
        -11    1    4    4    0    0  0.30700727214E+00 -0.25241189354E+01  0.24070227222E+01  0.35013123985E+01  0.51100000000E-03 0.  1.
        -12    1    4    4    0    0  0.17567534218E+02 -0.32840017509E+02 -0.17589376970E+02  0.41188240927E+02  0.00000000000E+00 0.  1.
</event>
<event>
 8    1  0.1278459E-006  0.9118800E+02  0.7816164E-02  0.1184000E+00
        -11   -1    0    0    0    0  0.00000000000E+00  0.00000000000E+00  0.45593999997E+02  0.45594000000E+02  0.51100000000E-03 0.  1.
         11   -1    0    0    0    0 -0.00000000000E+00 -0.00000000000E+00 -0.45593999997E+02  0.45594000000E+02  0.51100000000E-03 0. -1.
         23    2    1    2    0    0 -0.17763568394E-14 -0.71054273576E-14  0.17763568394E-14  0.91188000000E+02  0.91188000000E+02 0.  0.
    9900012    2    3    3    0    0  0.94965449386E+01  0.34440075440E+02 -0.89148982862E+01  0.54367101402E+02  0.40000039266E+02 0.  0.
        -12    1    3    3    0    0 -0.94965449386E+01 -0.34440075440E+02  0.89148982862E+01  0.36820898598E+02  0.00000000000E+00 0.  1.
         11    1    4    4    0    0  0.72141527471E+01  0.34946675425E+01  0.13791494377E+01  0.81338032017E+01  0.51100000000E-03 0. -1.
        -11    1    4    4    0    0 -0.14648582545E+01 -0.42797557911E+01  0.57745018456E+01  0.73353248846E+01  0.51100000000E-03 0.  1.
         12    1    4    4    0    0  0.37472504460E+01  0.35225163689E+02 -0.16068549570E+02  0.38897973316E+02  0.00000000000E+00 0. -1.
</event>
<event>
 8    1  0.1278459E-006  0.9118800E+02  0.7816164E-02  0.1184000E+00
        -11   -1    0    0    0    0  0.00000000000E+00  0.00000000000E+00  0.45593999997E+02  0.45594000000E+02  0.51100000000E-03 0.  1.
         11   -1    0    0    0    0 -0.00000000000E+00 -0.00000000000E+00 -0.45593999997E+02  0.45594000000E+02  0.51100000000E-03 0. -1.
         23    2    1    2    0    0  0.19428902931E-15  0.00000000000E+00  0.00000000000E+00  0.91188000000E+02  0.91188000000E+02 0.  0.
    9900012    2    3    3    0    0  0.22720389435E+00 -0.84132843850E+01 -0.35846126669E+02  0.54367085116E+02  0.40000002138E+02 0.  0.
        -12    1    3    3    0    0 -0.22720389435E+00  0.84132843850E+01  0.35846126669E+02  0.36820914884E+02  0.00000000000E+00 0.  1.
         11    1    4    4    0    0  0.22161635487E+01  0.18663531717E+01 -0.10455063212E+02  0.10849101441E+02  0.51100000000E-03 0. -1.
        -11    1    4    4    0    0 -0.10375508299E+02 -0.10023423511E+02 -0.30468192966E+02  0.33710991890E+02  0.51100000000E-03 0.  1.
        -12    1    4    4    0    0  0.83865486445E+01 -0.25621404614E+00  0.50771295099E+01  0.98069917846E+01  0.00000000000E+00 0.  1.
</event>
<event>
 8    1  0.1278459E-006  0.9118800E+02  0.7816164E-02  0.1184000E+00
        -11   -1    0    0    0    0  0.00000000000E+00  0.00000000000E+00  0.45593999997E+02  0.45594000000E+02  0.51100000000E-03 0.  1.
         11   -1    0    0    0    0 -0.00000000000E+00 -0.00000000000E+00 -0.45593999997E+02  0.45594000000E+02  0.51100000000E-03 0. -1.
         23    2    1    2    0    0  0.00000000000E+00  0.88817841970E-15  0.00000000000E+00  0.91188000000E+02  0.91188000000E+02 0.  0.
    9900012    2    3    3    0    0 -0.17620241988E+02 -0.35547176619E+01 -0.32135190329E+02  0.54367090141E+02  0.40000013594E+02 0.  0.
        -12    1    3    3    0    0  0.17620241988E+02  0.35547176619E+01  0.32135190329E+02  0.36820909859E+02  0.00000000000E+00 0.  1.
         11    1    4    4    0    0 -0.22515271547E+02 -0.26617542331E+01 -0.17657476576E+02  0.28736890363E+02  0.51100000000E-03 0. -1.
        -11    1    4    4    0    0  0.36526127677E+01 -0.89766517709E+01 -0.14513219291E+02  0.17451515450E+02  0.51100000000E-03 0.  1.
         12    1    4    4    0    0  0.12424167913E+01  0.80836883422E+01  0.35505537594E-01  0.81786843282E+01  0.00000000000E+00 0. -1.
</event>
<event>
 8    1  0.1278459E-006  0.9118800E+02  0.7816164E-02  0.1184000E+00
        -11   -1    0    0    0    0  0.00000000000E+00  0.00000000000E+00  0.45593999997E+02  0.45594000000E+02  0.51100000000E-03 0. -1.
         11   -1    0    0    0    0 -0.00000000000E+00 -0.00000000000E+00 -0.45593999997E+02  0.45594000000E+02  0.51100000000E-03 0.  1.
         23    2    1    2    0    0  0.00000000000E+00  0.17763568394E-14 -0.35527136788E-14  0.91188000000E+02  0.91188000000E+02 0.  0.
    9900012    2    3    3    0    0  0.27365460135E+02  0.41293078541E+01  0.24287027958E+02  0.54367091282E+02  0.40000016196E+02 0.  0.
        -12    1    3    3    0    0 -0.27365460135E+02 -0.41293078541E+01 -0.24287027958E+02  0.36820908718E+02  0.00000000000E+00 0.  1.
         11    1    4    4    0    0  0.59541725207E+00 -0.69111438876E+01  0.14859703282E+01  0.70941200735E+01  0.51100000000E-03 0. -1.
        -11    1    4    4    0    0  0.13520113428E+02 -0.17997880783E+01 -0.44642698956E+01  0.14351390532E+02  0.51100000000E-03 0.  1.
         12    1    4    4    0    0  0.13249929455E+02  0.12840239820E+02  0.27265327526E+02  0.32921580677E+02  0.00000000000E+00 0. -1.
</event>
<event>
 8    1  0.1278459E-006  0.9118800E+02  0.7816164E-02  0.1184000E+00
        -11   -1    0    0    0    0  0.00000000000E+00  0.00000000000E+00  0.45593999997E+02  0.45594000000E+02  0.51100000000E-03 0.  1.
         11   -1    0    0    0    0 -0.00000000000E+00 -0.00000000000E+00 -0.45593999997E+02  0.45594000000E+02  0.51100000000E-03 0. -1.
         23    2    1    2    0    0  0.00000000000E+00  0.17763568394E-14  0.00000000000E+00  0.91188000000E+02  0.91188000000E+02 0.  0.
    9900012    2    3    3    0    0 -0.26977064711E+02  0.11916976351E+02 -0.22045478371E+02  0.54367089333E+02  0.40000011752E+02 0.  0.
        -12    1    3    3    0    0  0.26977064711E+02 -0.11916976351E+02  0.22045478371E+02  0.36820910667E+02  0.00000000000E+00 0.  1.
         11    1    4    4    0    0 -0.16288882823E+02 -0.20523126888E+01 -0.22164386887E+02  0.27582598451E+02  0.51100000000E-03 0. -1.
        -11    1    4    4    0    0 -0.76152250019E+01  0.16120130479E+02 -0.66643645434E+01  0.19033234447E+02  0.51100000000E-03 0.  1.
        -12    1    4    4    0    0 -0.30729568865E+01 -0.21508414388E+01  0.67832730596E+01  0.77512564351E+01  0.00000000000E+00 0.  1.
</event>
<event>
 8    1  0.1278459E-006  0.9118800E+02  0.7816164E-02  0.1184000E+00
        -11   -1    0    0    0    0  0.00000000000E+00  0.00000000000E+00  0.45593999997E+02  0.45594000000E+02  0.51100000000E-03 0. -1.
         11   -1    0    0    0    0 -0.00000000000E+00 -0.00000000000E+00 -0.45593999997E+02  0.45594000000E+02  0.51100000000E-03 0.  1.
         23    2    1    2    0    0  0.35527136788E-14  0.00000000000E+00  0.00000000000E+00  0.91188000000E+02  0.91188000000E+02 0.  0.
    9900012    2    3    3    0    0  0.31251132342E+02  0.16949380181E+02  0.95845577413E+01  0.54367102289E+02  0.40000041287E+02 0.  0.
         12    1    3    3    0    0 -0.31251132342E+02 -0.16949380181E+02 -0.95845577413E+01  0.36820897711E+02  0.00000000000E+00 0. -1.
         11    1    4    4    0    0 -0.20016432147E+01  0.12085633858E+02  0.11177338896E+02  0.16583185049E+02  0.51100000000E-03 0. -1.
        -11    1    4    4    0    0 -0.99665756478E+00  0.22902539876E+01  0.20689080541E+01  0.32432962286E+01  0.51100000000E-03 0.  1.
        -12    1    4    4    0    0  0.34249433121E+02  0.25734923355E+01 -0.36616892092E+01  0.34540621011E+02  0.00000000000E+00 0.  1.
</event>
<event>
 8    1  0.1278459E-006  0.9118800E+02  0.7816164E-02  0.1184000E+00
        -11   -1    0    0    0    0  0.00000000000E+00  0.00000000000E+00  0.45593999997E+02  0.45594000000E+02  0.51100000000E-03 0. -1.
         11   -1    0    0    0    0 -0.00000000000E+00 -0.00000000000E+00 -0.45593999997E+02  0.45594000000E+02  0.51100000000E-03 0.  1.
         23    2    1    2    0    0 -0.17763568394E-14 -0.35527136788E-14 -0.35527136788E-14  0.91188000000E+02  0.91188000000E+02 0.  0.
    9900012    2    3    3    0    0 -0.15626262524E+02 -0.18248138884E+02 -0.27903504420E+02  0.54367079151E+02  0.39999988542E+02 0.  0.
         12    1    3    3    0    0  0.15626262524E+02  0.18248138884E+02  0.27903504420E+02  0.36820920849E+02  0.00000000000E+00 0. -1.
         11    1    4    4    0    0  0.10728940055E+01 -0.18369425628E+02 -0.29316591643E+01  0.18632807764E+02  0.51100000000E-03 0. -1.
        -11    1    4    4    0    0 -0.74636027981E+01  0.36840304682E+01 -0.24442968051E+02  0.25821234181E+02  0.51100000000E-03 0.  1.
        -12    1    4    4    0    0 -0.92355537310E+01 -0.35627437246E+01 -0.52887720512E+00  0.99130372068E+01  0.00000000000E+00 0.  1.
</event>
<event>
 8    1  0.1278459E-006  0.9118800E+02  0.7816164E-02  0.1184000E+00
        -11   -1    0    0    0    0  0.00000000000E+00  0.00000000000E+00  0.45593999997E+02  0.45594000000E+02  0.51100000000E-03 0. -1.
         11   -1    0    0    0    0 -0.00000000000E+00 -0.00000000000E+00 -0.45593999997E+02  0.45594000000E+02  0.51100000000E-03 0.  1.
         23    2    1    2    0    0  0.00000000000E+00  0.00000000000E+00 -0.35527136788E-14  0.91188000000E+02  0.91188000000E+02 0.  0.
    9900012    2    3    3    0    0 -0.12179121110E+02 -0.22015506112E+02  0.26884297640E+02  0.54367096155E+02  0.40000027304E+02 0.  0.
        -12    1    3    3    0    0  0.12179121110E+02  0.22015506112E+02 -0.26884297640E+02  0.36820903845E+02  0.00000000000E+00 0.  1.
         11    1    4    4    0    0 -0.10460022768E+02 -0.16223326375E+02  0.21828659965E+02  0.29139299770E+02  0.51100000000E-03 0. -1.
        -11    1    4    4    0    0 -0.51077646680E-01  0.83083179319E+01 -0.30827986742E+01  0.88619638744E+01  0.51100000000E-03 0.  1.
        -12    1    4    4    0    0 -0.16680206959E+01 -0.14100497669E+02  0.81384363490E+01  0.16365832510E+02  0.00000000000E+00 0.  1.
</event>
<event>
 8    1  0.1278459E-006  0.9118800E+02  0.7816164E-02  0.1184000E+00
        -11   -1    0    0    0    0  0.00000000000E+00  0.00000000000E+00  0.45593999997E+02  0.45594000000E+02  0.51100000000E-03 0.  1.
         11   -1    0    0    0    0 -0.00000000000E+00 -0.00000000000E+00 -0.45593999997E+02  0.45594000000E+02  0.51100000000E-03 0. -1.
         23    2    1    2    0    0 -0.17763568394E-14  0.17763568394E-14  0.00000000000E+00  0.91188000000E+02  0.91188000000E+02 0.  0.
    9900012    2    3    3    0    0 -0.14405910432E+02 -0.11056523402E+02  0.32031289699E+02  0.54367075447E+02  0.39999980097E+02 0.  0.
         12    1    3    3    0    0  0.14405910432E+02  0.11056523402E+02 -0.32031289699E+02  0.36820924553E+02  0.00000000000E+00 0. -1.
         11    1    4    4    0    0 -0.74889881854E+01 -0.12761452610E+02  0.63884301817E+01  0.16116812873E+02  0.51100000000E-03 0. -1.
        -11    1    4    4    0    0 -0.34977968511E+00  0.40699431819E+01  0.29831515715E+02  0.30109900588E+02  0.51100000000E-03 0.  1.
        -12    1    4    4    0    0 -0.65671425610E+01 -0.23650139745E+01 -0.41886561972E+01  0.81403619855E+01  0.00000000000E+00 0.  1.
</event>
<event>
 8    1  0.1278459E-006  0.9118800E+02  0.7816164E-02  0.1184000E+00
        -11   -1    0    0    0    0  0.00000000000E+00  0.00000000000E+00  0.45593999997E+02  0.45594000000E+02  0.51100000000E-03 0. -1.
         11   -1    0    0    0    0 -0.00000000000E+00 -0.00000000000E+00 -0.45593999997E+02  0.45594000000E+02  0.51100000000E-03 0.  1.
         23    2    1    2    0    0  0.35527136788E-14 -0.35527136788E-14 -0.17763568394E-14  0.91188000000E+02  0.91188000000E+02 0.  0.
    9900012    2    3    3    0    0  0.17659411404E+02 -0.29044255143E+02 -0.14154734058E+02  0.54367081161E+02  0.39999993122E+02 0.  0.
         12    1    3    3    0    0 -0.17659411404E+02  0.29044255143E+02  0.14154734058E+02  0.36820918839E+02  0.00000000000E+00 0. -1.
         11    1    4    4    0    0 -0.10107308480E+01 -0.67569845727E+01  0.66832927500E+01  0.95574483836E+01  0.51100000000E-03 0. -1.
        -11    1    4    4    0    0 -0.40791325369E+01 -0.16623396405E+01 -0.12110193461E+02  0.12886406840E+02  0.51100000000E-03 0.  1.
         12    1    4    4    0    0  0.22749274789E+02 -0.20624930930E+02 -0.87278333470E+01  0.31923225937E+02  0.00000000000E+00 0. -1.
</event>
<event>
 8    1  0.1278459E-006  0.9118800E+02  0.7816164E-02  0.1184000E+00
        -11   -1    0    0    0    0  0.00000000000E+00  0.00000000000E+00  0.45593999997E+02  0.45594000000E+02  0.51100000000E-03 0.  1.
         11   -1    0    0    0    0 -0.00000000000E+00 -0.00000000000E+00 -0.45593999997E+02  0.45594000000E+02  0.51100000000E-03 0. -1.
         23    2    1    2    0    0  0.00000000000E+00  0.00000000000E+00 -0.44408920985E-15  0.91188000000E+02  0.91188000000E+02 0.  0.
    9900012    2    3    3    0    0 -0.35311878149E+02  0.10431478902E+02 -0.18314247889E+00  0.54367108761E+02  0.40000056041E+02 0.  0.
         12    1    3    3    0    0  0.35311878149E+02 -0.10431478902E+02  0.18314247889E+00  0.36820891239E+02  0.00000000000E+00 0. -1.
         11    1    4    4    0    0 -0.17625955798E+02 -0.52835367797E+01 -0.40198744328E+01  0.18834794116E+02  0.51100000000E-03 0. -1.
        -11    1    4    4    0    0 -0.18819759746E+02  0.10101705859E+02  0.12796063334E+02  0.24899137641E+02  0.51100000000E-03 0.  1.
        -12    1    4    4    0    0  0.11338373953E+01  0.56133098225E+01 -0.89593313797E+01  0.10633177003E+02  0.00000000000E+00 0.  1.
</event>
<event>
 8    1  0.1278459E-006  0.9118800E+02  0.7816164E-02  0.1184000E+00
        -11   -1    0    0    0    0  0.00000000000E+00  0.00000000000E+00  0.45593999997E+02  0.45594000000E+02  0.51100000000E-03 0. -1.
         11   -1    0    0    0    0 -0.00000000000E+00 -0.00000000000E+00 -0.45593999997E+02  0.45594000000E+02  0.51100000000E-03 0.  1.
         23    2    1    2    0    0 -0.88817841970E-15  0.00000000000E+00  0.71054273576E-14  0.91188000000E+02  0.91188000000E+02 0.  0.
    9900012    2    3    3    0    0 -0.59711407193E+01  0.27074321925E+02  0.24230271519E+02  0.54367088997E+02  0.40000010986E+02 0.  0.
        -12    1    3    3    0    0  0.59711407193E+01 -0.27074321925E+02 -0.24230271519E+02  0.36820911003E+02  0.00000000000E+00 0.  1.
         11    1    4    4    0    0 -0.76984656874E+01  0.21864266297E+02  0.21669353435E+02  0.31731268383E+02  0.51100000000E-03 0. -1.
        -11    1    4    4    0    0  0.91792594381E+01  0.77788048271E+01  0.66591468147E+01  0.13751830603E+02  0.51100000000E-03 0.  1.
        -12    1    4    4    0    0 -0.74519344699E+01 -0.25687491987E+01 -0.40982287302E+01  0.88839900110E+01  0.00000000000E+00 0.  1.
</event>
<event>
 8    1  0.1278459E-006  0.9118800E+02  0.7816164E-02  0.1184000E+00
        -11   -1    0    0    0    0  0.00000000000E+00  0.00000000000E+00  0.45593999997E+02  0.45594000000E+02  0.51100000000E-03 0. -1.
         11   -1    0    0    0    0 -0.00000000000E+00 -0.00000000000E+00 -0.45593999997E+02  0.45594000000E+02  0.51100000000E-03 0.  1.
         23    2    1    2    0    0 -0.35527136788E-14  0.00000000000E+00 -0.35527136788E-14  0.91188000000E+02  0.91188000000E+02 0.  0.
    9900012    2    3    3    0    0  0.30357824808E+02  0.13110824731E+02  0.16195312713E+02  0.54367090097E+02  0.40000013494E+02 0.  0.
        -12    1    3    3    0    0 -0.30357824808E+02 -0.13110824731E+02 -0.16195312713E+02  0.36820909903E+02  0.00000000000E+00 0.  1.
         11    1    4    4    0    0  0.35240341434E+02  0.13413618183E+02  0.16587936724E+02  0.41194252781E+02  0.51100000000E-03 0. -1.
        -11    1    4    4    0    0  0.19754165325E+01 -0.37602531549E+01  0.25431200633E+01  0.49506801738E+01  0.51100000000E-03 0.  1.
         12    1    4    4    0    0 -0.68579331582E+01  0.34574597031E+01 -0.29357440741E+01  0.82221571421E+01  0.00000000000E+00 0. -1.
</event>
<event>
 8    1  0.1278459E-006  0.9118800E+02  0.7816164E-02  0.1184000E+00
        -11   -1    0    0    0    0  0.00000000000E+00  0.00000000000E+00  0.45593999997E+02  0.45594000000E+02  0.51100000000E-03 0. -1.
         11   -1    0    0    0    0 -0.00000000000E+00 -0.00000000000E+00 -0.45593999997E+02  0.45594000000E+02  0.51100000000E-03 0.  1.
         23    2    1    2    0    0  0.00000000000E+00  0.00000000000E+00  0.00000000000E+00  0.91188000000E+02  0.91188000000E+02 0.  0.
    9900012    2    3    3    0    0  0.27734244810E+02 -0.16100649425E+02  0.18093217016E+02  0.54367031122E+02  0.39999879049E+02 0.  0.
        -12    1    3    3    0    0 -0.27734244810E+02  0.16100649425E+02 -0.18093217016E+02  0.36820968878E+02  0.00000000000E+00 0.  1.
         11    1    4    4    0    0  0.16731751550E+02 -0.14963020557E+02  0.63425984310E+01  0.23325352071E+02  0.51100000000E-03 0. -1.
        -11    1    4    4    0    0  0.15439346032E+02 -0.66345990608E+01  0.15658102518E+02  0.22968837265E+02  0.51100000000E-03 0.  1.
        -12    1    4    4    0    0 -0.44368527721E+01  0.54969701923E+01 -0.39074839329E+01  0.80728417860E+01  0.00000000000E+00 0.  1.
</event>
<event>
 8    1  0.1278459E-006  0.9118800E+02  0.7816164E-02  0.1184000E+00
        -11   -1    0    0    0    0  0.00000000000E+00  0.00000000000E+00  0.45593999997E+02  0.45594000000E+02  0.51100000000E-03 0.  1.
         11   -1    0    0    0    0 -0.00000000000E+00 -0.00000000000E+00 -0.45593999997E+02  0.45594000000E+02  0.51100000000E-03 0. -1.
         23    2    1    2    0    0  0.17763568394E-14 -0.35527136788E-14  0.35527136788E-14  0.91188000000E+02  0.91188000000E+02 0.  0.
    9900012    2    3    3    0    0 -0.10985470389E+02  0.24918157745E+02 -0.24782737494E+02  0.54367092586E+02  0.40000019169E+02 0.  0.
        -12    1    3    3    0    0  0.10985470389E+02 -0.24918157745E+02  0.24782737494E+02  0.36820907414E+02  0.00000000000E+00 0.  1.
         11    1    4    4    0    0 -0.11649902279E+02  0.11893597555E+02 -0.39672098121E+01  0.17114807620E+02  0.51100000000E-03 0. -1.
        -11    1    4    4    0    0 -0.72302948168E+01  0.17091825410E+02 -0.51749033587E+01  0.19266221322E+02  0.51100000000E-03 0.  1.
         12    1    4    4    0    0  0.78947267077E+01 -0.40672652206E+01 -0.15640624324E+02  0.17986063644E+02  0.00000000000E+00 0. -1.
</event>
<event>
 8    1  0.1278459E-006  0.9118800E+02  0.7816164E-02  0.1184000E+00
        -11   -1    0    0    0    0  0.00000000000E+00  0.00000000000E+00  0.45593999997E+02  0.45594000000E+02  0.51100000000E-03 0. -1.
         11   -1    0    0    0    0 -0.00000000000E+00 -0.00000000000E+00 -0.45593999997E+02  0.45594000000E+02  0.51100000000E-03 0.  1.
         23    2    1    2    0    0  0.00000000000E+00  0.00000000000E+00  0.17763568394E-14  0.91188000000E+02  0.91188000000E+02 0.  0.
    9900012    2    3    3    0    0 -0.13288734247E+02 -0.33059932908E+02 -0.92860090466E+01  0.54367087657E+02  0.40000007932E+02 0.  0.
         12    1    3    3    0    0  0.13288734247E+02  0.33059932908E+02  0.92860090466E+01  0.36820912343E+02  0.00000000000E+00 0. -1.
         11    1    4    4    0    0 -0.80865865547E+01 -0.16101448737E+02  0.37728446345E+01  0.18408799266E+02  0.51100000000E-03 0. -1.
        -11    1    4    4    0    0  0.62675944125E+01 -0.20472579787E+02 -0.96690710970E+01  0.23492556246E+02  0.51100000000E-03 0.  1.
         12    1    4    4    0    0 -0.11469742105E+02  0.35140956151E+01 -0.33897825841E+01  0.12465732145E+02  0.00000000000E+00 0. -1.
</event>
<event>
 8    1  0.1278459E-006  0.9118800E+02  0.7816164E-02  0.1184000E+00
        -11   -1    0    0    0    0  0.00000000000E+00  0.00000000000E+00  0.45593999997E+02  0.45594000000E+02  0.51100000000E-03 0.  1.
         11   -1    0    0    0    0 -0.00000000000E+00 -0.00000000000E+00 -0.45593999997E+02  0.45594000000E+02  0.51100000000E-03 0. -1.
         23    2    1    2    0    0 -0.35527136788E-14 -0.88817841970E-15  0.00000000000E+00  0.91188000000E+02  0.91188000000E+02 0.  0.
    9900012    2    3    3    0    0 -0.16748868054E+02 -0.43494438776E+01 -0.32501331207E+02  0.54367098689E+02  0.40000033081E+02 0.  0.
        -12    1    3    3    0    0  0.16748868054E+02  0.43494438776E+01  0.32501331207E+02  0.36820901311E+02  0.00000000000E+00 0.  1.
         11    1    4    4    0    0  0.26671725673E+01  0.64002199882E+01 -0.23602547371E+01  0.73244404623E+01  0.51100000000E-03 0. -1.
        -11    1    4    4    0    0 -0.16723284283E+02  0.32340609468E+01 -0.27811148610E+02  0.32612687327E+02  0.51100000000E-03 0.  1.
        -12    1    4    4    0    0 -0.26927563377E+01 -0.13983724813E+02 -0.23299278600E+01  0.14429970899E+02  0.00000000000E+00 0.  1.
</event>
<event>
 8    1  0.1278459E-006  0.9118800E+02  0.7816164E-02  0.1184000E+00
        -11   -1    0    0    0    0  0.00000000000E+00  0.00000000000E+00  0.45593999997E+02  0.45594000000E+02  0.51100000000E-03 0. -1.
         11   -1    0    0    0    0 -0.00000000000E+00 -0.00000000000E+00 -0.45593999997E+02  0.45594000000E+02  0.51100000000E-03 0.  1.
         23    2    1    2    0    0  0.00000000000E+00  0.35527136788E-14  0.00000000000E+00  0.91188000000E+02  0.91188000000E+02 0.  0.
    9900012    2    3    3    0    0  0.22096239030E+02 -0.28415335831E+02 -0.77526465613E+01  0.54367100794E+02  0.40000037879E+02 0.  0.
         12    1    3    3    0    0 -0.22096239030E+02  0.28415335831E+02  0.77526465613E+01  0.36820899206E+02  0.00000000000E+00 0. -1.
         11    1    4    4    0    0  0.81155060969E+01  0.21824222581E+01  0.41015952062E+01  0.93513362477E+01  0.51100000000E-03 0. -1.
        -11    1    4    4    0    0  0.14881086853E+01  0.15315988939E+01 -0.10288314259E+02  0.10507600734E+02  0.51100000000E-03 0.  1.
        -12    1    4    4    0    0  0.12492624248E+02 -0.32129356983E+02 -0.15659275088E+01  0.34508163812E+02  0.00000000000E+00 0.  1.
</event>
<event>
 8    1  0.1278459E-006  0.9118800E+02  0.7816164E-02  0.1184000E+00
        -11   -1    0    0    0    0  0.00000000000E+00  0.00000000000E+00  0.45593999997E+02  0.45594000000E+02  0.51100000000E-03 0.  1.
         11   -1    0    0    0    0 -0.00000000000E+00 -0.00000000000E+00 -0.45593999997E+02  0.45594000000E+02  0.51100000000E-03 0. -1.
         23    2    1    2    0    0 -0.17763568394E-14 -0.17763568394E-14  0.00000000000E+00  0.91188000000E+02  0.91188000000E+02 0.  0.
    9900012    2    3    3    0    0  0.12555910408E+02 -0.10167606253E+02 -0.33087001618E+02  0.54367071452E+02  0.39999970989E+02 0.  0.
        -12    1    3    3    0    0 -0.12555910408E+02  0.10167606253E+02  0.33087001618E+02  0.36820928548E+02  0.00000000000E+00 0.  1.
         11    1    4    4    0    0 -0.10636349202E+01  0.35379297399E+01 -0.19523706622E+02  0.19870163226E+02  0.51100000000E-03 0. -1.
        -11    1    4    4    0    0 -0.45052936048E+00 -0.17198264598E+02 -0.79291422585E+01  0.18943457422E+02  0.51100000000E-03 0.  1.
         12    1    4    4    0    0  0.14070074689E+02  0.34927286052E+01 -0.56341527370E+01  0.15553450804E+02  0.00000000000E+00 0. -1.
</event>
<event>
 8    1  0.1278459E-006  0.9118800E+02  0.7816164E-02  0.1184000E+00
        -11   -1    0    0    0    0  0.00000000000E+00  0.00000000000E+00  0.45593999997E+02  0.45594000000E+02  0.51100000000E-03 0.  1.
         11   -1    0    0    0    0 -0.00000000000E+00 -0.00000000000E+00 -0.45593999997E+02  0.45594000000E+02  0.51100000000E-03 0. -1.
         23    2    1    2    0    0  0.00000000000E+00  0.00000000000E+00  0.35527136788E-14  0.91188000000E+02  0.91188000000E+02 0.  0.
    9900012    2    3    3    0    0 -0.24939595747E+02  0.14138688899E+02 -0.23106154252E+02  0.54367077631E+02  0.39999985075E+02 0.  0.
        -12    1    3    3    0    0  0.24939595747E+02 -0.14138688899E+02  0.23106154252E+02  0.36820922369E+02  0.00000000000E+00 0.  1.
         11    1    4    4    0    0 -0.18867148449E+02  0.42323403445E+01  0.10202477341E+01  0.19362925943E+02  0.51100000000E-03 0. -1.
        -11    1    4    4    0    0  0.43842003611E+01  0.66974772430E+01  0.53832302206E+00  0.80229175594E+01  0.51100000000E-03 0.  1.
         12    1    4    4    0    0 -0.10456647659E+02  0.32088713120E+01 -0.24664725008E+02  0.26981234128E+02  0.00000000000E+00 0. -1.
</event>
<event>
 8    1  0.1278459E-006  0.9118800E+02  0.7816164E-02  0.1184000E+00
        -11   -1    0    0    0    0  0.00000000000E+00  0.00000000000E+00  0.45593999997E+02  0.45594000000E+02  0.51100000000E-03 0.  1.
         11   -1    0    0    0    0 -0.00000000000E+00 -0.00000000000E+00 -0.45593999997E+02  0.45594000000E+02  0.51100000000E-03 0. -1.
         23    2    1    2    0    0  0.00000000000E+00  0.00000000000E+00 -0.17763568394E-14  0.91188000000E+02  0.91188000000E+02 0.  0.
    9900012    2    3    3    0    0 -0.35082228930E+02 -0.94989445347E+01 -0.58980437444E+01  0.54367086730E+02  0.40000005819E+02 0.  0.
         12    1    3    3    0    0  0.35082228930E+02  0.94989445347E+01  0.58980437444E+01  0.36820913270E+02  0.00000000000E+00 0. -1.
         11    1    4    4    0    0 -0.10395261495E+02 -0.74702097408E+00 -0.17961074169E+02  0.20765829804E+02  0.51100000000E-03 0. -1.
        -11    1    4    4    0    0  0.26122321668E+01  0.20381002998E+00  0.12512028511E+01  0.29035847254E+01  0.51100000000E-03 0.  1.
        -12    1    4    4    0    0 -0.27299199602E+02 -0.89557335906E+01  0.10811827574E+02  0.30697672201E+02  0.00000000000E+00 0.  1.
</event>
<event>
 8    1  0.1278459E-006  0.9118800E+02  0.7816164E-02  0.1184000E+00
        -11   -1    0    0    0    0  0.00000000000E+00  0.00000000000E+00  0.45593999997E+02  0.45594000000E+02  0.51100000000E-03 0.  1.
         11   -1    0    0    0    0 -0.00000000000E+00 -0.00000000000E+00 -0.45593999997E+02  0.45594000000E+02  0.51100000000E-03 0. -1.
         23    2    1    2    0    0  0.00000000000E+00  0.00000000000E+00 -0.44408920985E-15  0.91188000000E+02  0.91188000000E+02 0.  0.
    9900012    2    3    3    0    0 -0.91354638974E+01  0.35631946608E+02  0.16394878743E+01  0.54367078771E+02  0.39999987674E+02 0.  0.
         12    1    3    3    0    0  0.91354638974E+01 -0.35631946608E+02 -0.16394878743E+01  0.36820921229E+02  0.00000000000E+00 0. -1.
         11    1    4    4    0    0 -0.71957886385E+01 -0.15349256586E+01 -0.14424543533E+01  0.74977360403E+01  0.51100000000E-03 0. -1.
        -11    1    4    4    0    0 -0.10048018424E+02  0.19649142446E+01 -0.18702490210E+01  0.10407756430E+02  0.51100000000E-03 0.  1.
         12    1    4    4    0    0  0.81083431650E+01  0.35201958022E+02  0.49521912486E+01  0.36461586301E+02  0.00000000000E+00 0. -1.
</event>
<event>
 8    1  0.1278459E-006  0.9118800E+02  0.7816164E-02  0.1184000E+00
        -11   -1    0    0    0    0  0.00000000000E+00  0.00000000000E+00  0.45593999997E+02  0.45594000000E+02  0.51100000000E-03 0. -1.
         11   -1    0    0    0    0 -0.00000000000E+00 -0.00000000000E+00 -0.45593999997E+02  0.45594000000E+02  0.51100000000E-03 0.  1.
         23    2    1    2    0    0  0.00000000000E+00  0.00000000000E+00 -0.11102230246E-14  0.91188000000E+02  0.91188000000E+02 0.  0.
    9900012    2    3    3    0    0  0.12818266091E+02 -0.34515231743E+02 -0.41347727365E+00  0.54367080249E+02  0.39999991044E+02 0.  0.
         12    1    3    3    0    0 -0.12818266091E+02  0.34515231743E+02  0.41347727365E+00  0.36820919751E+02  0.00000000000E+00 0. -1.
         11    1    4    4    0    0  0.87304956144E+00  0.28377217699E+00  0.22361677146E+01  0.24172688089E+01  0.51100000000E-03 0.  1.
        -11    1    4    4    0    0 -0.63287324977E+01 -0.17370555105E+02  0.12671188759E+02  0.22413122596E+02  0.51100000000E-03 0. -1.
        -12    1    4    4    0    0  0.18273949028E+02 -0.17428448815E+02 -0.15320833747E+02  0.29536688844E+02  0.00000000000E+00 0.  1.
</event>
<event>
 8    1  0.1278459E-006  0.9118800E+02  0.7816164E-02  0.1184000E+00
        -11   -1    0    0    0    0  0.00000000000E+00  0.00000000000E+00  0.45593999997E+02  0.45594000000E+02  0.51100000000E-03 0. -1.
         11   -1    0    0    0    0 -0.00000000000E+00 -0.00000000000E+00 -0.45593999997E+02  0.45594000000E+02  0.51100000000E-03 0.  1.
         23    2    1    2    0    0  0.31086244690E-14  0.00000000000E+00  0.00000000000E+00  0.91188000000E+02  0.91188000000E+02 0.  0.
    9900012    2    3    3    0    0 -0.38640100755E+01  0.20380788168E+02  0.30421487738E+02  0.54367163285E+02  0.40000180341E+02 0.  0.
        -12    1    3    3    0    0  0.38640100755E+01 -0.20380788168E+02 -0.30421487738E+02  0.36820836715E+02  0.00000000000E+00 0.  1.
         11    1    4    4    0    0 -0.12382962171E+02  0.15888727415E+02  0.10117389430E+02  0.22542204421E+02  0.51100000000E-03 0. -1.
        -11    1    4    4    0    0  0.97521943873E+01  0.33399179483E+00  0.24138315141E+02  0.26036034721E+02  0.51100000000E-03 0.  1.
         12    1    4    4    0    0 -0.12332422913E+01  0.41580689577E+01 -0.38342168337E+01  0.57889241430E+01  0.00000000000E+00 0. -1.
</event>
<event>
 8    1  0.1278459E-006  0.9118800E+02  0.7816164E-02  0.1184000E+00
        -11   -1    0    0    0    0  0.00000000000E+00  0.00000000000E+00  0.45593999997E+02  0.45594000000E+02  0.51100000000E-03 0.  1.
         11   -1    0    0    0    0 -0.00000000000E+00 -0.00000000000E+00 -0.45593999997E+02  0.45594000000E+02  0.51100000000E-03 0. -1.
         23    2    1    2    0    0  0.00000000000E+00 -0.17763568394E-14  0.00000000000E+00  0.91188000000E+02  0.91188000000E+02 0.  0.
    9900012    2    3    3    0    0  0.27100739507E+02 -0.53124963214E+01 -0.24353787984E+02  0.54367086267E+02  0.40000004762E+02 0.  0.
         12    1    3    3    0    0 -0.27100739507E+02  0.53124963214E+01  0.24353787984E+02  0.36820913733E+02  0.00000000000E+00 0. -1.
         11    1    4    4    0    0 -0.11920600880E+01 -0.67558444608E+01 -0.16019040046E+02  0.17426189655E+02  0.51100000000E-03 0. -1.
        -11    1    4    4    0    0  0.17085488294E+02 -0.85623146489E+01 -0.10429666826E+02  0.21771658016E+02  0.51100000000E-03 0.  1.
        -12    1    4    4    0    0  0.11207311301E+02  0.10005662788E+02  0.20949188883E+01  0.15169238596E+02  0.00000000000E+00 0.  1.
</event>
<event>
 8    1  0.1278459E-006  0.9118800E+02  0.7816164E-02  0.1184000E+00
        -11   -1    0    0    0    0  0.00000000000E+00  0.00000000000E+00  0.45593999997E+02  0.45594000000E+02  0.51100000000E-03 0. -1.
         11   -1    0    0    0    0 -0.00000000000E+00 -0.00000000000E+00 -0.45593999997E+02  0.45594000000E+02  0.51100000000E-03 0.  1.
         23    2    1    2    0    0  0.35527136788E-14  0.35527136788E-14  0.00000000000E+00  0.91188000000E+02  0.91188000000E+02 0.  0.
    9900012    2    3    3    0    0  0.31127061920E+02  0.18888455726E+02  0.54874545872E+01  0.54367083372E+02  0.39999998164E+02 0.  0.
        -12    1    3    3    0    0 -0.31127061920E+02 -0.18888455726E+02 -0.54874545872E+01  0.36820916628E+02  0.00000000000E+00 0.  1.
         11    1    4    4    0    0  0.28388448790E+02  0.11631505660E+01  0.57670920230E+01  0.28991659052E+02  0.51100000000E-03 0. -1.
        -11    1    4    4    0    0 -0.64453596143E+01  0.36098672216E+01  0.34089778699E+01  0.81360268124E+01  0.51100000000E-03 0.  1.
        -12    1    4    4    0    0  0.91839727443E+01  0.14115437938E+02 -0.36886153057E+01  0.17239397508E+02  0.00000000000E+00 0.  1.
</event>
<event>
 8    1  0.1278459E-006  0.9118800E+02  0.7816164E-02  0.1184000E+00
        -11   -1    0    0    0    0  0.00000000000E+00  0.00000000000E+00  0.45593999997E+02  0.45594000000E+02  0.51100000000E-03 0. -1.
         11   -1    0    0    0    0 -0.00000000000E+00 -0.00000000000E+00 -0.45593999997E+02  0.45594000000E+02  0.51100000000E-03 0.  1.
         23    2    1    2    0    0 -0.35527136788E-14 -0.22204460493E-15  0.00000000000E+00  0.91188000000E+02  0.91188000000E+02 0.  0.
    9900012    2    3    3    0    0  0.28773513387E+02 -0.13354485377E+01  0.22936485238E+02  0.54367070482E+02  0.39999968778E+02 0.  0.
        -12    1    3    3    0    0 -0.28773513387E+02  0.13354485377E+01 -0.22936485238E+02  0.36820929518E+02  0.00000000000E+00 0.  1.
         11    1    4    4    0    0  0.36530613412E+01  0.99876101075E+00  0.90231068964E+01  0.97856445391E+01  0.51100000000E-03 0. -1.
        -11    1    4    4    0    0  0.88299385829E+01  0.65459070712E+01 -0.96248044096E+01  0.14610050477E+02  0.51100000000E-03 0.  1.
         12    1    4    4    0    0  0.16290513463E+02 -0.88801166197E+01  0.23538182752E+02  0.29971375466E+02  0.00000000000E+00 0. -1.
</event>
<event>
 8    1  0.1278459E-006  0.9118800E+02  0.7816164E-02  0.1184000E+00
        -11   -1    0    0    0    0  0.00000000000E+00  0.00000000000E+00  0.45593999997E+02  0.45594000000E+02  0.51100000000E-03 0.  1.
         11   -1    0    0    0    0 -0.00000000000E+00 -0.00000000000E+00 -0.45593999997E+02  0.45594000000E+02  0.51100000000E-03 0. -1.
         23    2    1    2    0    0  0.00000000000E+00  0.00000000000E+00  0.35527136788E-14  0.91188000000E+02  0.91188000000E+02 0.  0.
    9900012    2    3    3    0    0  0.26155384607E+02 -0.16738873767E+02 -0.19786053320E+02  0.54367055622E+02  0.39999934900E+02 0.  0.
        -12    1    3    3    0    0 -0.26155384607E+02  0.16738873767E+02  0.19786053320E+02  0.36820944378E+02  0.00000000000E+00 0.  1.
         11    1    4    4    0    0  0.16559597093E+02 -0.21128134203E+02 -0.77565824043E+01  0.27942492402E+02  0.51100000000E-03 0. -1.
        -11    1    4    4    0    0 -0.31727972846E+01  0.44114223422E+01  0.33900012914E+01  0.64046388428E+01  0.51100000000E-03 0.  1.
        -12    1    4    4    0    0  0.12768584798E+02 -0.22161906525E-01 -0.15419472207E+02  0.20019924377E+02  0.00000000000E+00 0.  1.
</event>
<event>
 8    1  0.1278459E-006  0.9118800E+02  0.7816164E-02  0.1184000E+00
        -11   -1    0    0    0    0  0.00000000000E+00  0.00000000000E+00  0.45593999997E+02  0.45594000000E+02  0.51100000000E-03 0. -1.
         11   -1    0    0    0    0 -0.00000000000E+00 -0.00000000000E+00 -0.45593999997E+02  0.45594000000E+02  0.51100000000E-03 0.  1.
         23    2    1    2    0    0  0.35527136788E-14 -0.35527136788E-14 -0.17763568394E-14  0.91188000000E+02  0.91188000000E+02 0.  0.
    9900012    2    3    3    0    0  0.30007910320E+02 -0.16303398789E+02 -0.13766064114E+02  0.54367081828E+02  0.39999994644E+02 0.  0.
         12    1    3    3    0    0 -0.30007910320E+02  0.16303398789E+02  0.13766064114E+02  0.36820918172E+02  0.00000000000E+00 0. -1.
         11    1    4    4    0    0  0.26479341947E+01 -0.68527671875E+01 -0.72419365120E+00  0.73821697576E+01  0.51100000000E-03 0. -1.
        -11    1    4    4    0    0  0.55471758645E+01 -0.16626953514E+02 -0.16123815474E+02  0.23816048558E+02  0.51100000000E-03 0.  1.
         12    1    4    4    0    0  0.21812800261E+02  0.71763219129E+01  0.30819450117E+01  0.23168863512E+02  0.00000000000E+00 0. -1.
</event>
<event>
 8    1  0.1278459E-006  0.9118800E+02  0.7816164E-02  0.1184000E+00
        -11   -1    0    0    0    0  0.00000000000E+00  0.00000000000E+00  0.45593999997E+02  0.45594000000E+02  0.51100000000E-03 0.  1.
         11   -1    0    0    0    0 -0.00000000000E+00 -0.00000000000E+00 -0.45593999997E+02  0.45594000000E+02  0.51100000000E-03 0. -1.
         23    2    1    2    0    0  0.00000000000E+00  0.00000000000E+00 -0.35527136788E-14  0.91188000000E+02  0.91188000000E+02 0.  0.
    9900012    2    3    3    0    0  0.72226835681E+01 -0.18008735428E+02  0.31293744241E+02  0.54367080155E+02  0.39999990829E+02 0.  0.
         12    1    3    3    0    0 -0.72226835681E+01  0.18008735428E+02 -0.31293744241E+02  0.36820919845E+02  0.00000000000E+00 0. -1.
         11    1    4    4    0    0  0.13751343702E+02  0.15245328201E+01  0.12656211567E+02  0.18751089179E+02  0.51100000000E-03 0. -1.
        -11    1    4    4    0    0  0.80290525515E+01 -0.39707465536E+01  0.67383264836E+01  0.11208816045E+02  0.51100000000E-03 0.  1.
         12    1    4    4    0    0 -0.14557712685E+02 -0.15562521694E+02  0.11899206191E+02  0.24407174931E+02  0.00000000000E+00 0. -1.
</event>
<event>
 8    1  0.1278459E-006  0.9118800E+02  0.7816164E-02  0.1184000E+00
        -11   -1    0    0    0    0  0.00000000000E+00  0.00000000000E+00  0.45593999997E+02  0.45594000000E+02  0.51100000000E-03 0.  1.
         11   -1    0    0    0    0 -0.00000000000E+00 -0.00000000000E+00 -0.45593999997E+02  0.45594000000E+02  0.51100000000E-03 0. -1.
         23    2    1    2    0    0 -0.35527136788E-14  0.00000000000E+00  0.22204460493E-15  0.91188000000E+02  0.91188000000E+02 0.  0.
    9900012    2    3    3    0    0 -0.22393517707E+02 -0.29223775557E+02 -0.53010520120E+00  0.54367086043E+02  0.40000004253E+02 0.  0.
        -12    1    3    3    0    0  0.22393517707E+02  0.29223775557E+02  0.53010520120E+00  0.36820913957E+02  0.00000000000E+00 0.  1.
         11    1    4    4    0    0 -0.15931728147E+02 -0.29051380254E+02  0.99113382722E+01  0.34583771960E+02  0.51100000000E-03 0. -1.
        -11    1    4    4    0    0  0.41880785739E+01  0.23247587469E+01 -0.19322790841E+00  0.47939381158E+01  0.51100000000E-03 0.  1.
         12    1    4    4    0    0 -0.10649868134E+02 -0.24971540500E+01 -0.10248215565E+02  0.14989375967E+02  0.00000000000E+00 0. -1.
</event>
<event>
 8    1  0.1278459E-006  0.9118800E+02  0.7816164E-02  0.1184000E+00
        -11   -1    0    0    0    0  0.00000000000E+00  0.00000000000E+00  0.45593999997E+02  0.45594000000E+02  0.51100000000E-03 0. -1.
         11   -1    0    0    0    0 -0.00000000000E+00 -0.00000000000E+00 -0.45593999997E+02  0.45594000000E+02  0.51100000000E-03 0.  1.
         23    2    1    2    0    0 -0.17763568394E-14 -0.17763568394E-14  0.00000000000E+00  0.91188000000E+02  0.91188000000E+02 0.  0.
    9900012    2    3    3    0    0 -0.88002392887E+01  0.71044211018E+01  0.35040898065E+02  0.54367061013E+02  0.39999947191E+02 0.  0.
        -12    1    3    3    0    0  0.88002392887E+01 -0.71044211018E+01 -0.35040898065E+02  0.36820938987E+02  0.00000000000E+00 0.  1.
         11    1    4    4    0    0 -0.29805573315E+01  0.21377057661E+02  0.23645662859E+02  0.32015303974E+02  0.51100000000E-03 0. -1.
        -11    1    4    4    0    0  0.27741225834E+01 -0.35241922007E+00  0.23846783644E+01  0.36751389875E+01  0.51100000000E-03 0.  1.
        -12    1    4    4    0    0 -0.85938045406E+01 -0.13920217339E+02  0.90105568409E+01  0.18676618051E+02  0.00000000000E+00 0.  1.
</event>
<event>
 8    1  0.1278459E-006  0.9118800E+02  0.7816164E-02  0.1184000E+00
        -11   -1    0    0    0    0  0.00000000000E+00  0.00000000000E+00  0.45593999997E+02  0.45594000000E+02  0.51100000000E-03 0.  1.
         11   -1    0    0    0    0 -0.00000000000E+00 -0.00000000000E+00 -0.45593999997E+02  0.45594000000E+02  0.51100000000E-03 0. -1.
         23    2    1    2    0    0  0.35527136788E-14  0.00000000000E+00 -0.35527136788E-14  0.91188000000E+02  0.91188000000E+02 0.  0.
    9900012    2    3    3    0    0 -0.23754143453E+02  0.88229105779E+01  0.26714755147E+02  0.54367065400E+02  0.39999957191E+02 0.  0.
         12    1    3    3    0    0  0.23754143453E+02 -0.88229105779E+01 -0.26714755147E+02  0.36820934600E+02  0.00000000000E+00 0. -1.
         11    1    4    4    0    0  0.14444223381E+00 -0.16601519253E+01 -0.23376668399E+01  0.28708281888E+01  0.51100000000E-03 0. -1.
        -11    1    4    4    0    0 -0.10399949585E+02 -0.11522989202E+02  0.52621831380E+01  0.16389899425E+02  0.51100000000E-03 0.  1.
        -12    1    4    4    0    0 -0.13498636102E+02  0.22006051705E+02  0.23790238849E+02  0.35106337786E+02  0.00000000000E+00 0.  1.
</event>
<event>
 8    1  0.1278459E-006  0.9118800E+02  0.7816164E-02  0.1184000E+00
        -11   -1    0    0    0    0  0.00000000000E+00  0.00000000000E+00  0.45593999997E+02  0.45594000000E+02  0.51100000000E-03 0.  1.
         11   -1    0    0    0    0 -0.00000000000E+00 -0.00000000000E+00 -0.45593999997E+02  0.45594000000E+02  0.51100000000E-03 0. -1.
         23    2    1    2    0    0  0.00000000000E+00  0.00000000000E+00 -0.35527136788E-14  0.91188000000E+02  0.91188000000E+02 0.  0.
    9900012    2    3    3    0    0 -0.13125376327E+02 -0.17303975555E+02  0.29733425415E+02  0.54367086640E+02  0.40000005614E+02 0.  0.
         12    1    3    3    0    0  0.13125376327E+02  0.17303975555E+02 -0.29733425415E+02  0.36820913360E+02  0.00000000000E+00 0. -1.
         11    1    4    4    0    0 -0.17054962874E+01 -0.87196594305E+01  0.80343852108E+01  0.11978836511E+02  0.51100000000E-03 0. -1.
        -11    1    4    4    0    0 -0.12076620555E+01 -0.15143020166E+02 -0.24247291077E+01  0.15383394258E+02  0.51100000000E-03 0.  1.
        -12    1    4    4    0    0 -0.10212217984E+02  0.65587040414E+01  0.24123769312E+02  0.27004855872E+02  0.00000000000E+00 0.  1.
</event>
<event>
 8    1  0.1278459E-006  0.9118800E+02  0.7816164E-02  0.1184000E+00
        -11   -1    0    0    0    0  0.00000000000E+00  0.00000000000E+00  0.45593999997E+02  0.45594000000E+02  0.51100000000E-03 0.  1.
         11   -1    0    0    0    0 -0.00000000000E+00 -0.00000000000E+00 -0.45593999997E+02  0.45594000000E+02  0.51100000000E-03 0. -1.
         23    2    1    2    0    0 -0.17763568394E-14  0.00000000000E+00  0.35527136788E-14  0.91188000000E+02  0.91188000000E+02 0.  0.
    9900012    2    3    3    0    0 -0.57525693503E+01 -0.24992727247E+02  0.26420620586E+02  0.54367113787E+02  0.40000067501E+02 0.  0.
         12    1    3    3    0    0  0.57525693503E+01  0.24992727247E+02 -0.26420620586E+02  0.36820886213E+02  0.00000000000E+00 0. -1.
         11    1    4    4    0    0 -0.45567650518E+00 -0.18862931639E+02  0.16640843671E+02  0.25158209583E+02  0.51100000000E-03 0. -1.
        -11    1    4    4    0    0  0.89220127093E+01 -0.90369749906E+01  0.23875583152E+01  0.12921674146E+02  0.51100000000E-03 0.  1.
         12    1    4    4    0    0 -0.14218905554E+02  0.29071793834E+01  0.73922185999E+01  0.16287230058E+02  0.00000000000E+00 0. -1.
</event>
<event>
 8    1  0.1278459E-006  0.9118800E+02  0.7816164E-02  0.1184000E+00
        -11   -1    0    0    0    0  0.00000000000E+00  0.00000000000E+00  0.45593999997E+02  0.45594000000E+02  0.51100000000E-03 0. -1.
         11   -1    0    0    0    0 -0.00000000000E+00 -0.00000000000E+00 -0.45593999997E+02  0.45594000000E+02  0.51100000000E-03 0.  1.
         23    2    1    2    0    0 -0.17763568394E-14 -0.35527136788E-14 -0.35527136788E-14  0.91188000000E+02  0.91188000000E+02 0.  0.
    9900012    2    3    3    0    0 -0.90035249705E+01 -0.28780546384E+02 -0.21127987499E+02  0.54367147650E+02  0.40000144697E+02 0.  0.
         12    1    3    3    0    0  0.90035249705E+01  0.28780546384E+02  0.21127987499E+02  0.36820852350E+02  0.00000000000E+00 0. -1.
         11    1    4    4    0    0 -0.22582199429E+01  0.72555901123E+01  0.48175880129E+01  0.89973495937E+01  0.51100000000E-03 0. -1.
        -11    1    4    4    0    0 -0.57850432072E+01 -0.27362357873E+02 -0.22834302879E+02  0.36104996074E+02  0.51100000000E-03 0.  1.
         12    1    4    4    0    0 -0.96026182038E+00 -0.86737786236E+01 -0.31112726321E+01  0.92648019820E+01  0.00000000000E+00 0. -1.
</event>
<event>
 8    1  0.1278459E-006  0.9118800E+02  0.7816164E-02  0.1184000E+00
        -11   -1    0    0    0    0  0.00000000000E+00  0.00000000000E+00  0.45593999997E+02  0.45594000000E+02  0.51100000000E-03 0.  1.
         11   -1    0    0    0    0 -0.00000000000E+00 -0.00000000000E+00 -0.45593999997E+02  0.45594000000E+02  0.51100000000E-03 0. -1.
         23    2    1    2    0    0  0.00000000000E+00  0.00000000000E+00  0.35527136788E-14  0.91188000000E+02  0.91188000000E+02 0.  0.
    9900012    2    3    3    0    0  0.19450303418E+02 -0.20060623360E+02 -0.23979944550E+02  0.54367073162E+02  0.39999974887E+02 0.  0.
        -12    1    3    3    0    0 -0.19450303418E+02  0.20060623360E+02  0.23979944550E+02  0.36820926838E+02  0.00000000000E+00 0.  1.
         11    1    4    4    0    0  0.11006710957E+02  0.20816005854E+00 -0.27004149216E+02  0.29161877372E+02  0.51100000000E-03 0. -1.
        -11    1    4    4    0    0  0.10337952177E+02 -0.11301132176E+02  0.44027974821E+01  0.15936545096E+02  0.51100000000E-03 0.  1.
         12    1    4    4    0    0 -0.18943597162E+01 -0.89676512424E+01 -0.13785928159E+01  0.92686506942E+01  0.00000000000E+00 0. -1.
</event>
<event>
 8    1  0.1278459E-006  0.9118800E+02  0.7816164E-02  0.1184000E+00
        -11   -1    0    0    0    0  0.00000000000E+00  0.00000000000E+00  0.45593999997E+02  0.45594000000E+02  0.51100000000E-03 0.  1.
         11   -1    0    0    0    0 -0.00000000000E+00 -0.00000000000E+00 -0.45593999997E+02  0.45594000000E+02  0.51100000000E-03 0. -1.
         23    2    1    2    0    0  0.35527136788E-14 -0.88817841970E-15  0.00000000000E+00  0.91188000000E+02  0.91188000000E+02 0.  0.
    9900012    2    3    3    0    0 -0.26686331932E+02  0.55824999019E+01  0.24747895776E+02  0.54367041804E+02  0.39999903399E+02 0.  0.
         12    1    3    3    0    0  0.26686331932E+02 -0.55824999019E+01 -0.24747895776E+02  0.36820958196E+02  0.00000000000E+00 0. -1.
         11    1    4    4    0    0 -0.30198057941E+01  0.18770268981E+01  0.98315537442E+01  0.10454755200E+02  0.51100000000E-03 0. -1.
        -11    1    4    4    0    0 -0.16051323927E+02  0.68925569731E+01  0.25239017338E+02  0.30694630441E+02  0.51100000000E-03 0.  1.
         12    1    4    4    0    0 -0.76152022116E+01 -0.31870839693E+01 -0.10322675306E+02  0.13217656163E+02  0.00000000000E+00 0. -1.
</event>
<event>
 8    1  0.1278459E-006  0.9118800E+02  0.7816164E-02  0.1184000E+00
        -11   -1    0    0    0    0  0.00000000000E+00  0.00000000000E+00  0.45593999997E+02  0.45594000000E+02  0.51100000000E-03 0.  1.
         11   -1    0    0    0    0 -0.00000000000E+00 -0.00000000000E+00 -0.45593999997E+02  0.45594000000E+02  0.51100000000E-03 0. -1.
         23    2    1    2    0    0  0.00000000000E+00 -0.71054273576E-14 -0.17763568394E-14  0.91188000000E+02  0.91188000000E+02 0.  0.
    9900012    2    3    3    0    0  0.17887296955E+02  0.31840517988E+02 -0.46910498236E+01  0.54367083030E+02  0.39999997383E+02 0.  0.
        -12    1    3    3    0    0 -0.17887296955E+02 -0.31840517988E+02  0.46910498236E+01  0.36820916970E+02  0.00000000000E+00 0.  1.
         11    1    4    4    0    0  0.71225099138E+01  0.12876759136E+02 -0.97753424586E+01  0.17666306738E+02  0.51100000000E-03 0. -1.
        -11    1    4    4    0    0 -0.92053186097E+01  0.49703491434E+01  0.64287652819E+01  0.12278895904E+02  0.51100000000E-03 0.  1.
        -12    1    4    4    0    0  0.19970105651E+02  0.13993409708E+02 -0.13444726470E+01  0.24421880388E+02  0.00000000000E+00 0.  1.
</event>
<event>
 8    1  0.1278459E-006  0.9118800E+02  0.7816164E-02  0.1184000E+00
        -11   -1    0    0    0    0  0.00000000000E+00  0.00000000000E+00  0.45593999997E+02  0.45594000000E+02  0.51100000000E-03 0. -1.
         11   -1    0    0    0    0 -0.00000000000E+00 -0.00000000000E+00 -0.45593999997E+02  0.45594000000E+02  0.51100000000E-03 0.  1.
         23    2    1    2    0    0 -0.44408920985E-15  0.00000000000E+00  0.00000000000E+00  0.91188000000E+02  0.91188000000E+02 0.  0.
    9900012    2    3    3    0    0 -0.33802593520E+01 -0.11493191278E+02 -0.34817530993E+02  0.54367081170E+02  0.39999993143E+02 0.  0.
         12    1    3    3    0    0  0.33802593520E+01  0.11493191278E+02  0.34817530993E+02  0.36820918830E+02  0.00000000000E+00 0. -1.
         11    1    4    4    0    0  0.36052739455E+01 -0.34100164547E+01 -0.54015443487E+01  0.73350456070E+01  0.51100000000E-03 0. -1.
        -11    1    4    4    0    0 -0.18691768016E+00 -0.99905369566E+01  0.55022305840E+01  0.11407028910E+02  0.51100000000E-03 0.  1.
        -12    1    4    4    0    0 -0.67986156174E+01  0.19073621333E+01 -0.34918217228E+02  0.35625006653E+02  0.00000000000E+00 0.  1.
</event>
<event>
 8    1  0.1278459E-006  0.9118800E+02  0.7816164E-02  0.1184000E+00
        -11   -1    0    0    0    0  0.00000000000E+00  0.00000000000E+00  0.45593999997E+02  0.45594000000E+02  0.51100000000E-03 0. -1.
         11   -1    0    0    0    0 -0.00000000000E+00 -0.00000000000E+00 -0.45593999997E+02  0.45594000000E+02  0.51100000000E-03 0.  1.
         23    2    1    2    0    0  0.00000000000E+00  0.00000000000E+00  0.00000000000E+00  0.91188000000E+02  0.91188000000E+02 0.  0.
    9900012    2    3    3    0    0  0.28962080092E+02  0.10638920284E+02 -0.20094553653E+02  0.54367084822E+02  0.40000001469E+02 0.  0.
         12    1    3    3    0    0 -0.28962080092E+02 -0.10638920284E+02  0.20094553653E+02  0.36820915178E+02  0.00000000000E+00 0. -1.
         11    1    4    4    0    0  0.20367640654E+02 -0.22581550088E+01 -0.14213777115E+02  0.24939356647E+02  0.51100000000E-03 0. -1.
        -11    1    4    4    0    0 -0.85078903021E+01  0.45596512010E+01 -0.34308599382E+01  0.10244287025E+02  0.51100000000E-03 0.  1.
        -12    1    4    4    0    0  0.17102329740E+02  0.83374240916E+01 -0.24499165998E+01  0.19183441150E+02  0.00000000000E+00 0.  1.
</event>
<event>
 8    1  0.1278459E-006  0.9118800E+02  0.7816164E-02  0.1184000E+00
        -11   -1    0    0    0    0  0.00000000000E+00  0.00000000000E+00  0.45593999997E+02  0.45594000000E+02  0.51100000000E-03 0. -1.
         11   -1    0    0    0    0 -0.00000000000E+00 -0.00000000000E+00 -0.45593999997E+02  0.45594000000E+02  0.51100000000E-03 0.  1.
         23    2    1    2    0    0  0.00000000000E+00  0.00000000000E+00  0.00000000000E+00  0.91188000000E+02  0.91188000000E+02 0.  0.
    9900012    2    3    3    0    0  0.52099898655E+01 -0.31270582054E+02  0.18729452442E+02  0.54367004832E+02  0.39999819116E+02 0.  0.
         12    1    3    3    0    0 -0.52099898655E+01  0.31270582054E+02 -0.18729452442E+02  0.36820995168E+02  0.00000000000E+00 0. -1.
         11    1    4    4    0    0 -0.59232801807E+01 -0.11370799723E+02 -0.77207121217E+00  0.12844315033E+02  0.51100000000E-03 0.  1.
        -11    1    4    4    0    0  0.17090367778E+02 -0.12920804559E+02  0.23245121448E+02  0.31612711567E+02  0.51100000000E-03 0. -1.
         12    1    4    4    0    0 -0.59570977320E+01 -0.69789777708E+01 -0.37435977939E+01  0.99099782319E+01  0.00000000000E+00 0. -1.
</event>
<event>
 8    1  0.1278459E-006  0.9118800E+02  0.7816164E-02  0.1184000E+00
        -11   -1    0    0    0    0  0.00000000000E+00  0.00000000000E+00  0.45593999997E+02  0.45594000000E+02  0.51100000000E-03 0. -1.
         11   -1    0    0    0    0 -0.00000000000E+00 -0.00000000000E+00 -0.45593999997E+02  0.45594000000E+02  0.51100000000E-03 0.  1.
         23    2    1    2    0    0  0.17763568394E-14 -0.35527136788E-14  0.00000000000E+00  0.91188000000E+02  0.91188000000E+02 0.  0.
    9900012    2    3    3    0    0 -0.12845658721E+02 -0.27839128999E+02  0.20390015161E+02  0.54367071580E+02  0.39999971282E+02 0.  0.
        -12    1    3    3    0    0  0.12845658721E+02  0.27839128999E+02 -0.20390015161E+02  0.36820928420E+02  0.00000000000E+00 0.  1.
         11    1    4    4    0    0  0.17050400096E+01 -0.73383683915E+01  0.51120441077E+01  0.91044937973E+01  0.51100000000E-03 0. -1.
        -11    1    4    4    0    0  0.98752377981E+01 -0.14182666635E+02  0.76955831047E+01  0.18917990222E+02  0.51100000000E-03 0.  1.
        -12    1    4    4    0    0 -0.24425936529E+02 -0.63180939726E+01  0.75823879487E+01  0.26344587561E+02  0.00000000000E+00 0.  1.
</event>
<event>
 8    1  0.1278459E-006  0.9118800E+02  0.7816164E-02  0.1184000E+00
        -11   -1    0    0    0    0  0.00000000000E+00  0.00000000000E+00  0.45593999997E+02  0.45594000000E+02  0.51100000000E-03 0. -1.
         11   -1    0    0    0    0 -0.00000000000E+00 -0.00000000000E+00 -0.45593999997E+02  0.45594000000E+02  0.51100000000E-03 0.  1.
         23    2    1    2    0    0  0.71054273576E-14  0.00000000000E+00  0.00000000000E+00  0.91188000000E+02  0.91188000000E+02 0.  0.
    9900012    2    3    3    0    0 -0.32999307490E+02 -0.14239038153E+02  0.80053224959E+01  0.54366950442E+02  0.39999695121E+02 0.  0.
        -12    1    3    3    0    0  0.32999307490E+02  0.14239038153E+02 -0.80053224959E+01  0.36821049558E+02  0.00000000000E+00 0.  1.
         11    1    4    4    0    0 -0.18342536994E+02  0.11315399848E+02  0.90537405586E+01  0.23376423068E+02  0.51100000000E-03 0. -1.
        -11    1    4    4    0    0 -0.55187916610E+01 -0.13046999885E+02  0.39629887030E+01  0.14710083178E+02  0.51100000000E-03 0.  1.
         12    1    4    4    0    0 -0.91379788352E+01 -0.12507438116E+02 -0.50114067656E+01  0.16280444195E+02  0.00000000000E+00 0. -1.
</event>
<event>
 8    1  0.1278459E-006  0.9118800E+02  0.7816164E-02  0.1184000E+00
        -11   -1    0    0    0    0  0.00000000000E+00  0.00000000000E+00  0.45593999997E+02  0.45594000000E+02  0.51100000000E-03 0. -1.
         11   -1    0    0    0    0 -0.00000000000E+00 -0.00000000000E+00 -0.45593999997E+02  0.45594000000E+02  0.51100000000E-03 0.  1.
         23    2    1    2    0    0  0.00000000000E+00  0.00000000000E+00  0.35527136788E-14  0.91188000000E+02  0.91188000000E+02 0.  0.
    9900012    2    3    3    0    0 -0.74848077146E+01 -0.21851480642E+02 -0.28675250884E+02  0.54367087925E+02  0.40000008543E+02 0.  0.
         12    1    3    3    0    0  0.74848077146E+01  0.21851480642E+02  0.28675250884E+02  0.36820912075E+02  0.00000000000E+00 0. -1.
         11    1    4    4    0    0 -0.45338811094E+01  0.51335566306E+01  0.30555501580E+01  0.74997245698E+01  0.51100000000E-03 0. -1.
        -11    1    4    4    0    0 -0.40031444433E+01 -0.17289233145E+02 -0.32557042563E+02  0.37079694833E+02  0.51100000000E-03 0.  1.
        -12    1    4    4    0    0  0.10522178381E+01 -0.96958041274E+01  0.82624152145E+00  0.97876685226E+01  0.00000000000E+00 0.  1.
</event>
<event>
 8    1  0.1278459E-006  0.9118800E+02  0.7816164E-02  0.1184000E+00
        -11   -1    0    0    0    0  0.00000000000E+00  0.00000000000E+00  0.45593999997E+02  0.45594000000E+02  0.51100000000E-03 0. -1.
         11   -1    0    0    0    0 -0.00000000000E+00 -0.00000000000E+00 -0.45593999997E+02  0.45594000000E+02  0.51100000000E-03 0.  1.
         23    2    1    2    0    0 -0.88817841970E-15 -0.17763568394E-14  0.00000000000E+00  0.91188000000E+02  0.91188000000E+02 0.  0.
    9900012    2    3    3    0    0 -0.54319756960E+01 -0.13038930446E+02 -0.34003818163E+02  0.54367085878E+02  0.40000003877E+02 0.  0.
         12    1    3    3    0    0  0.54319756960E+01  0.13038930446E+02  0.34003818163E+02  0.36820914122E+02  0.00000000000E+00 0. -1.
         11    1    4    4    0    0  0.37855626677E+01 -0.11333803965E+02 -0.15693790800E+02  0.19725127806E+02  0.51100000000E-03 0.  1.
        -11    1    4    4    0    0  0.33228682792E+01 -0.12427727426E+02 -0.70876590832E+01  0.14687572098E+02  0.51100000000E-03 0. -1.
        -12    1    4    4    0    0 -0.12540406643E+02  0.10722600946E+02 -0.11222368280E+02  0.19954385975E+02  0.00000000000E+00 0.  1.
</event>
<event>
 8    1  0.1278459E-006  0.9118800E+02  0.7816164E-02  0.1184000E+00
        -11   -1    0    0    0    0  0.00000000000E+00  0.00000000000E+00  0.45593999997E+02  0.45594000000E+02  0.51100000000E-03 0. -1.
         11   -1    0    0    0    0 -0.00000000000E+00 -0.00000000000E+00 -0.45593999997E+02  0.45594000000E+02  0.51100000000E-03 0.  1.
         23    2    1    2    0    0  0.00000000000E+00 -0.17763568394E-14  0.00000000000E+00  0.91188000000E+02  0.91188000000E+02 0.  0.
    9900012    2    3    3    0    0 -0.18493000115E+02 -0.57906030833E+01 -0.31309087366E+02  0.54367067244E+02  0.39999961397E+02 0.  0.
         12    1    3    3    0    0  0.18493000115E+02  0.57906030833E+01  0.31309087366E+02  0.36820932756E+02  0.00000000000E+00 0. -1.
         11    1    4    4    0    0 -0.16831512589E+00  0.15041245874E+02 -0.11088695681E+02  0.18687604972E+02  0.51100000000E-03 0. -1.
        -11    1    4    4    0    0 -0.16088102929E+02 -0.18681597623E+02 -0.13113298913E+02  0.27924680020E+02  0.51100000000E-03 0.  1.
         12    1    4    4    0    0 -0.22365820605E+01 -0.21502513344E+01 -0.71070927721E+01  0.77547822526E+01  0.00000000000E+00 0. -1.
</event>
<event>
 8    1  0.1278459E-006  0.9118800E+02  0.7816164E-02  0.1184000E+00
        -11   -1    0    0    0    0  0.00000000000E+00  0.00000000000E+00  0.45593999997E+02  0.45594000000E+02  0.51100000000E-03 0.  1.
         11   -1    0    0    0    0 -0.00000000000E+00 -0.00000000000E+00 -0.45593999997E+02  0.45594000000E+02  0.51100000000E-03 0. -1.
         23    2    1    2    0    0  0.00000000000E+00  0.00000000000E+00  0.35527136788E-14  0.91188000000E+02  0.91188000000E+02 0.  0.
    9900012    2    3    3    0    0  0.21337835680E+02  0.16547248538E+02 -0.25033273996E+02  0.54367089194E+02  0.40000011434E+02 0.  0.
        -12    1    3    3    0    0 -0.21337835680E+02 -0.16547248538E+02  0.25033273996E+02  0.36820910806E+02  0.00000000000E+00 0.  1.
         11    1    4    4    0    0  0.38057987687E+00  0.20667703662E+01 -0.13913224570E+02  0.14071041147E+02  0.51100000000E-03 0.  1.
        -11    1    4    4    0    0 -0.58793713700E+01  0.97644454898E+01 -0.45113500393E+01  0.12258208795E+02  0.51100000000E-03 0. -1.
         12    1    4    4    0    0  0.26836627173E+02  0.47160326818E+01 -0.66086993871E+01  0.28037839251E+02  0.00000000000E+00 0. -1.
</event>
<event>
 8    1  0.1278459E-006  0.9118800E+02  0.7816164E-02  0.1184000E+00
        -11   -1    0    0    0    0  0.00000000000E+00  0.00000000000E+00  0.45593999997E+02  0.45594000000E+02  0.51100000000E-03 0. -1.
         11   -1    0    0    0    0 -0.00000000000E+00 -0.00000000000E+00 -0.45593999997E+02  0.45594000000E+02  0.51100000000E-03 0.  1.
         23    2    1    2    0    0  0.00000000000E+00  0.00000000000E+00 -0.35527136788E-14  0.91188000000E+02  0.91188000000E+02 0.  0.
    9900012    2    3    3    0    0 -0.17650006014E+02 -0.52542062519E+01 -0.31884969379E+02  0.54367072962E+02  0.39999974432E+02 0.  0.
         12    1    3    3    0    0  0.17650006014E+02  0.52542062519E+01  0.31884969379E+02  0.36820927038E+02  0.00000000000E+00 0. -1.
         11    1    4    4    0    0 -0.83466028266E+01  0.53697355800E+01 -0.21904028607E+02  0.24047584254E+02  0.51100000000E-03 0.  1.
        -11    1    4    4    0    0 -0.66350892140E+01  0.77908425692E-02 -0.16347886351E+02  0.17643068270E+02  0.51100000000E-03 0. -1.
         12    1    4    4    0    0 -0.26683139737E+01 -0.10631732674E+02  0.63669455796E+01  0.12676420439E+02  0.00000000000E+00 0. -1.
</event>
<event>
 8    1  0.1278459E-006  0.9118800E+02  0.7816164E-02  0.1184000E+00
        -11   -1    0    0    0    0  0.00000000000E+00  0.00000000000E+00  0.45593999997E+02  0.45594000000E+02  0.51100000000E-03 0.  1.
         11   -1    0    0    0    0 -0.00000000000E+00 -0.00000000000E+00 -0.45593999997E+02  0.45594000000E+02  0.51100000000E-03 0. -1.
         23    2    1    2    0    0  0.00000000000E+00  0.99920072216E-15 -0.35527136788E-14  0.91188000000E+02  0.91188000000E+02 0.  0.
    9900012    2    3    3    0    0  0.28889707349E+02  0.65497440873E+00 -0.22819600291E+02  0.54367104579E+02  0.40000046508E+02 0.  0.
        -12    1    3    3    0    0 -0.28889707349E+02 -0.65497440873E+00  0.22819600291E+02  0.36820895421E+02  0.00000000000E+00 0.  1.
         11    1    4    4    0    0  0.13342187116E+02  0.10674822859E+02 -0.17686184996E+02  0.24592009680E+02  0.51100000000E-03 0. -1.
        -11    1    4    4    0    0  0.11578468605E+02 -0.13958357840E+02 -0.11365245595E+02  0.21402464730E+02  0.51100000000E-03 0.  1.
        -12    1    4    4    0    0  0.39690516276E+01  0.39385093901E+01  0.62318303007E+01  0.83726301683E+01  0.00000000000E+00 0.  1.
</event>
<event>
 8    1  0.1278459E-006  0.9118800E+02  0.7816164E-02  0.1184000E+00
        -11   -1    0    0    0    0  0.00000000000E+00  0.00000000000E+00  0.45593999997E+02  0.45594000000E+02  0.51100000000E-03 0. -1.
         11   -1    0    0    0    0 -0.00000000000E+00 -0.00000000000E+00 -0.45593999997E+02  0.45594000000E+02  0.51100000000E-03 0.  1.
         23    2    1    2    0    0  0.35527136788E-14  0.00000000000E+00  0.00000000000E+00  0.91188000000E+02  0.91188000000E+02 0.  0.
    9900012    2    3    3    0    0  0.25297439722E+02  0.10989087734E+02 -0.24393845785E+02  0.54367079074E+02  0.39999988364E+02 0.  0.
         12    1    3    3    0    0 -0.25297439722E+02 -0.10989087734E+02  0.24393845785E+02  0.36820920926E+02  0.00000000000E+00 0. -1.
         11    1    4    4    0    0 -0.51848579461E+01 -0.31451678017E+01  0.39722501347E+01  0.72493864441E+01  0.51100000000E-03 0. -1.
        -11    1    4    4    0    0  0.14897288039E+02  0.39280508729E+00 -0.19462043826E+02  0.24512336423E+02  0.51100000000E-03 0.  1.
         12    1    4    4    0    0  0.15585009628E+02  0.13741450448E+02 -0.89040520933E+01  0.22605356206E+02  0.00000000000E+00 0. -1.
</event>
<event>
 8    1  0.1278459E-006  0.9118800E+02  0.7816164E-02  0.1184000E+00
        -11   -1    0    0    0    0  0.00000000000E+00  0.00000000000E+00  0.45593999997E+02  0.45594000000E+02  0.51100000000E-03 0. -1.
         11   -1    0    0    0    0 -0.00000000000E+00 -0.00000000000E+00 -0.45593999997E+02  0.45594000000E+02  0.51100000000E-03 0.  1.
         23    2    1    2    0    0  0.88817841970E-15  0.00000000000E+00  0.00000000000E+00  0.91188000000E+02  0.91188000000E+02 0.  0.
    9900012    2    3    3    0    0  0.44346880742E+01  0.51707837413E+01  0.36185296888E+02  0.54367093253E+02  0.40000020689E+02 0.  0.
        -12    1    3    3    0    0 -0.44346880742E+01 -0.51707837413E+01 -0.36185296888E+02  0.36820906747E+02  0.00000000000E+00 0.  1.
         11    1    4    4    0    0  0.16573852502E+01  0.59159523809E+00  0.13397176695E+02  0.13512263114E+02  0.51100000000E-03 0. -1.
        -11    1    4    4    0    0 -0.60531996751E+01  0.10079137825E+02  0.27140653567E+02  0.29577784263E+02  0.51100000000E-03 0.  1.
        -12    1    4    4    0    0  0.88305024992E+01 -0.54999493221E+01 -0.43525333742E+01  0.11277045877E+02  0.00000000000E+00 0.  1.
</event>
<event>
 8    1  0.1278459E-006  0.9118800E+02  0.7816164E-02  0.1184000E+00
        -11   -1    0    0    0    0  0.00000000000E+00  0.00000000000E+00  0.45593999997E+02  0.45594000000E+02  0.51100000000E-03 0.  1.
         11   -1    0    0    0    0 -0.00000000000E+00 -0.00000000000E+00 -0.45593999997E+02  0.45594000000E+02  0.51100000000E-03 0. -1.
         23    2    1    2    0    0  0.35527136788E-14  0.00000000000E+00 -0.17763568394E-14  0.91188000000E+02  0.91188000000E+02 0.  0.
    9900012    2    3    3    0    0 -0.31305994648E+02  0.14445054739E+02 -0.12924946208E+02  0.54367093685E+02  0.40000021675E+02 0.  0.
        -12    1    3    3    0    0  0.31305994648E+02 -0.14445054739E+02  0.12924946208E+02  0.36820906315E+02  0.00000000000E+00 0.  1.
         11    1    4    4    0    0 -0.29745550128E+02  0.61231698250E+01 -0.10684669353E+02  0.32193991995E+02  0.51100000000E-03 0. -1.
        -11    1    4    4    0    0 -0.94259479604E+01  0.97147502630E+01  0.95531869659E+00  0.13569727400E+02  0.51100000000E-03 0.  1.
        -12    1    4    4    0    0  0.78655034404E+01 -0.13928653492E+01 -0.31955955524E+01  0.86033742907E+01  0.00000000000E+00 0.  1.
</event>
<event>
 8    1  0.1278459E-006  0.9118800E+02  0.7816164E-02  0.1184000E+00
        -11   -1    0    0    0    0  0.00000000000E+00  0.00000000000E+00  0.45593999997E+02  0.45594000000E+02  0.51100000000E-03 0.  1.
         11   -1    0    0    0    0 -0.00000000000E+00 -0.00000000000E+00 -0.45593999997E+02  0.45594000000E+02  0.51100000000E-03 0. -1.
         23    2    1    2    0    0  0.71054273576E-14  0.00000000000E+00  0.00000000000E+00  0.91188000000E+02  0.91188000000E+02 0.  0.
    9900012    2    3    3    0    0  0.35297466397E+02  0.96880581274E+01 -0.40014579839E+01  0.54367064782E+02  0.39999955784E+02 0.  0.
        -12    1    3    3    0    0 -0.35297466397E+02 -0.96880581274E+01  0.40014579839E+01  0.36820935218E+02  0.00000000000E+00 0.  1.
         11    1    4    4    0    0  0.37859915805E+02  0.16838719307E+02  0.92619489039E+00  0.41446031534E+02  0.51100000000E-03 0. -1.
        -11    1    4    4    0    0 -0.10922563874E+01 -0.30654250866E+01  0.26439764780E+01  0.41929067310E+01  0.51100000000E-03 0.  1.
         12    1    4    4    0    0 -0.14701930206E+01 -0.40852360929E+01 -0.75716293523E+01  0.87281265173E+01  0.00000000000E+00 0. -1.
</event>
<event>
 8    1  0.1278459E-006  0.9118800E+02  0.7816164E-02  0.1184000E+00
        -11   -1    0    0    0    0  0.00000000000E+00  0.00000000000E+00  0.45593999997E+02  0.45594000000E+02  0.51100000000E-03 0.  1.
         11   -1    0    0    0    0 -0.00000000000E+00 -0.00000000000E+00 -0.45593999997E+02  0.45594000000E+02  0.51100000000E-03 0. -1.
         23    2    1    2    0    0  0.00000000000E+00  0.35527136788E-14  0.35527136788E-14  0.91188000000E+02  0.91188000000E+02 0.  0.
    9900012    2    3    3    0    0 -0.11538635181E+02 -0.14449540193E+02 -0.31841006164E+02  0.54367095785E+02  0.40000026462E+02 0.  0.
        -12    1    3    3    0    0  0.11538635181E+02  0.14449540193E+02  0.31841006164E+02  0.36820904215E+02  0.00000000000E+00 0.  1.
         11    1    4    4    0    0 -0.90811291209E+01  0.84360208904E+01 -0.18047565021E+02  0.21894016489E+02  0.51100000000E-03 0. -1.
        -11    1    4    4    0    0 -0.23499923556E+01  0.28304770112E+01 -0.18772000153E+01  0.41301264316E+01  0.51100000000E-03 0.  1.
         12    1    4    4    0    0 -0.10751370424E+00 -0.25716038094E+02 -0.11916241128E+02  0.28342952865E+02  0.00000000000E+00 0. -1.
</event>
<event>
 8    1  0.1278459E-006  0.9118800E+02  0.7816164E-02  0.1184000E+00
        -11   -1    0    0    0    0  0.00000000000E+00  0.00000000000E+00  0.45593999997E+02  0.45594000000E+02  0.51100000000E-03 0. -1.
         11   -1    0    0    0    0 -0.00000000000E+00 -0.00000000000E+00 -0.45593999997E+02  0.45594000000E+02  0.51100000000E-03 0.  1.
         23    2    1    2    0    0  0.17763568394E-14  0.88817841970E-15  0.00000000000E+00  0.91188000000E+02  0.91188000000E+02 0.  0.
    9900012    2    3    3    0    0 -0.75015995940E+01 -0.79978856892E+01  0.35150014625E+02  0.54367303373E+02  0.40000499695E+02 0.  0.
        -12    1    3    3    0    0  0.75015995940E+01  0.79978856892E+01 -0.35150014625E+02  0.36820696627E+02  0.00000000000E+00 0.  1.
         11    1    4    4    0    0 -0.39662588909E+01 -0.21256156321E+01  0.25637893341E+02  0.26029810346E+02  0.51100000000E-03 0. -1.
        -11    1    4    4    0    0 -0.38437497553E+01 -0.91417896934E+01 -0.65880238423E+01  0.11905830059E+02  0.51100000000E-03 0.  1.
        -12    1    4    4    0    0  0.30840905220E+00  0.32695196363E+01  0.16100145127E+02  0.16431662968E+02  0.00000000000E+00 0.  1.
</event>
<event>
 8    1  0.1278459E-006  0.9118800E+02  0.7816164E-02  0.1184000E+00
        -11   -1    0    0    0    0  0.00000000000E+00  0.00000000000E+00  0.45593999997E+02  0.45594000000E+02  0.51100000000E-03 0.  1.
         11   -1    0    0    0    0 -0.00000000000E+00 -0.00000000000E+00 -0.45593999997E+02  0.45594000000E+02  0.51100000000E-03 0. -1.
         23    2    1    2    0    0  0.00000000000E+00  0.35527136788E-14  0.00000000000E+00  0.91188000000E+02  0.91188000000E+02 0.  0.
    9900012    2    3    3    0    0 -0.22246511874E+01  0.31030831152E+02 -0.19695601779E+02  0.54367105329E+02  0.40000048219E+02 0.  0.
        -12    1    3    3    0    0  0.22246511874E+01 -0.31030831152E+02  0.19695601779E+02  0.36820894671E+02  0.00000000000E+00 0.  1.
         11    1    4    4    0    0 -0.23258851708E+01  0.40015024110E+02 -0.14290495337E+02  0.42553850044E+02  0.51100000000E-03 0. -1.
        -11    1    4    4    0    0  0.19372563307E+01 -0.10686180573E+01 -0.34070146036E+00  0.22385228142E+01  0.51100000000E-03 0.  1.
         12    1    4    4    0    0 -0.18360223474E+01 -0.79155749007E+01 -0.50644049823E+01  0.95747324711E+01  0.00000000000E+00 0. -1.
</event>
<event>
 8    1  0.1278459E-006  0.9118800E+02  0.7816164E-02  0.1184000E+00
        -11   -1    0    0    0    0  0.00000000000E+00  0.00000000000E+00  0.45593999997E+02  0.45594000000E+02  0.51100000000E-03 0. -1.
         11   -1    0    0    0    0 -0.00000000000E+00 -0.00000000000E+00 -0.45593999997E+02  0.45594000000E+02  0.51100000000E-03 0.  1.
         23    2    1    2    0    0  0.35527136788E-14  0.13322676296E-14  0.00000000000E+00  0.91188000000E+02  0.91188000000E+02 0.  0.
    9900012    2    3    3    0    0 -0.29680949660E+02  0.28681107494E+01  0.21600809252E+02  0.54367084852E+02  0.40000001538E+02 0.  0.
        -12    1    3    3    0    0  0.29680949660E+02 -0.28681107494E+01 -0.21600809252E+02  0.36820915148E+02  0.00000000000E+00 0.  1.
         11    1    4    4    0    0 -0.15087210255E+02  0.76410875800E+01  0.94698715318E+01  0.19382688146E+02  0.51100000000E-03 0. -1.
        -11    1    4    4    0    0 -0.12475000912E+02  0.47613450887E+01 -0.58062480348E+01  0.14560514116E+02  0.51100000000E-03 0.  1.
         12    1    4    4    0    0 -0.21187384929E+01 -0.95343219193E+01  0.17937185755E+02  0.20423882590E+02  0.00000000000E+00 0. -1.
</event>
<event>
 8    1  0.1278459E-006  0.9118800E+02  0.7816164E-02  0.1184000E+00
        -11   -1    0    0    0    0  0.00000000000E+00  0.00000000000E+00  0.45593999997E+02  0.45594000000E+02  0.51100000000E-03 0. -1.
         11   -1    0    0    0    0 -0.00000000000E+00 -0.00000000000E+00 -0.45593999997E+02  0.45594000000E+02  0.51100000000E-03 0.  1.
         23    2    1    2    0    0 -0.35527136788E-14  0.00000000000E+00  0.00000000000E+00  0.91188000000E+02  0.91188000000E+02 0.  0.
    9900012    2    3    3    0    0  0.18036643616E+02  0.27815982275E+02  0.16022797187E+02  0.54367090009E+02  0.40000013293E+02 0.  0.
        -12    1    3    3    0    0 -0.18036643616E+02 -0.27815982275E+02 -0.16022797187E+02  0.36820909991E+02  0.00000000000E+00 0.  1.
         11    1    4    4    0    0  0.90847082435E+01 -0.41061013708E+01 -0.59756717123E+01  0.11623280303E+02  0.51100000000E-03 0.  1.
        -11    1    4    4    0    0 -0.17808453065E+01  0.20101760122E+02  0.87454121483E+01  0.21993962897E+02  0.51100000000E-03 0. -1.
         12    1    4    4    0    0  0.10732780679E+02  0.11820323524E+02  0.13253056751E+02  0.20749846808E+02  0.00000000000E+00 0. -1.
</event>
<event>
 8    1  0.1278459E-006  0.9118800E+02  0.7816164E-02  0.1184000E+00
        -11   -1    0    0    0    0  0.00000000000E+00  0.00000000000E+00  0.45593999997E+02  0.45594000000E+02  0.51100000000E-03 0. -1.
         11   -1    0    0    0    0 -0.00000000000E+00 -0.00000000000E+00 -0.45593999997E+02  0.45594000000E+02  0.51100000000E-03 0.  1.
         23    2    1    2    0    0  0.00000000000E+00 -0.17763568394E-14  0.00000000000E+00  0.91188000000E+02  0.91188000000E+02 0.  0.
    9900012    2    3    3    0    0 -0.25973631487E+02 -0.51090166476E+01  0.25593915841E+02  0.54367080514E+02  0.39999991648E+02 0.  0.
        -12    1    3    3    0    0  0.25973631487E+02  0.51090166476E+01 -0.25593915841E+02  0.36820919486E+02  0.00000000000E+00 0.  1.
         11    1    4    4    0    0 -0.12245302124E+02 -0.12557602708E+02  0.20688285762E+02  0.27122794434E+02  0.51100000000E-03 0. -1.
        -11    1    4    4    0    0 -0.12659660074E+02  0.97625423404E+01 -0.52086383190E+01  0.16813808003E+02  0.51100000000E-03 0.  1.
        -12    1    4    4    0    0 -0.10686692888E+01 -0.23139562802E+01  0.10114268398E+02  0.10430478078E+02  0.00000000000E+00 0.  1.
</event>
<event>
 8    1  0.1278459E-006  0.9118800E+02  0.7816164E-02  0.1184000E+00
        -11   -1    0    0    0    0  0.00000000000E+00  0.00000000000E+00  0.45593999997E+02  0.45594000000E+02  0.51100000000E-03 0.  1.
         11   -1    0    0    0    0 -0.00000000000E+00 -0.00000000000E+00 -0.45593999997E+02  0.45594000000E+02  0.51100000000E-03 0. -1.
         23    2    1    2    0    0 -0.71054273576E-14  0.35527136788E-14 -0.17763568394E-14  0.91188000000E+02  0.91188000000E+02 0.  0.
    9900012    2    3    3    0    0  0.25908998389E+02 -0.22596457904E+02  0.13187305419E+02  0.54367066667E+02  0.39999960081E+02 0.  0.
         12    1    3    3    0    0 -0.25908998389E+02  0.22596457904E+02 -0.13187305419E+02  0.36820933333E+02  0.00000000000E+00 0. -1.
         11    1    4    4    0    0 -0.13244923533E+01  0.95483532699E+00 -0.90844183746E+00  0.18684906552E+01  0.51100000000E-03 0. -1.
        -11    1    4    4    0    0  0.20243703735E+02  0.35363627686E+01  0.13365130112E+02  0.24514079744E+02  0.51100000000E-03 0.  1.
         12    1    4    4    0    0  0.69897870073E+01 -0.27087655999E+02  0.73061714460E+00  0.27984496268E+02  0.00000000000E+00 0. -1.
</event>
<event>
 8    1  0.1278459E-006  0.9118800E+02  0.7816164E-02  0.1184000E+00
        -11   -1    0    0    0    0  0.00000000000E+00  0.00000000000E+00  0.45593999997E+02  0.45594000000E+02  0.51100000000E-03 0.  1.
         11   -1    0    0    0    0 -0.00000000000E+00 -0.00000000000E+00 -0.45593999997E+02  0.45594000000E+02  0.51100000000E-03 0. -1.
         23    2    1    2    0    0  0.00000000000E+00  0.00000000000E+00 -0.35527136788E-14  0.91188000000E+02  0.91188000000E+02 0.  0.
    9900012    2    3    3    0    0  0.13056857393E+02 -0.19983406734E+02  0.28034996290E+02  0.54367094434E+02  0.40000023382E+02 0.  0.
         12    1    3    3    0    0 -0.13056857393E+02  0.19983406734E+02 -0.28034996290E+02  0.36820905566E+02  0.00000000000E+00 0. -1.
         11    1    4    4    0    0  0.96795224476E+01 -0.66593376314E+01 -0.73892987133E+01  0.13879541355E+02  0.51100000000E-03 0. -1.
        -11    1    4    4    0    0 -0.11125083384E+01  0.27223841982E+01  0.54922223035E+01  0.62300526978E+01  0.51100000000E-03 0.  1.
         12    1    4    4    0    0  0.44898432840E+01 -0.16046453300E+02  0.29932072700E+02  0.34257500381E+02  0.00000000000E+00 0. -1.
</event>
<event>
 8    1  0.1278459E-006  0.9118800E+02  0.7816164E-02  0.1184000E+00
        -11   -1    0    0    0    0  0.00000000000E+00  0.00000000000E+00  0.45593999997E+02  0.45594000000E+02  0.51100000000E-03 0. -1.
         11   -1    0    0    0    0 -0.00000000000E+00 -0.00000000000E+00 -0.45593999997E+02  0.45594000000E+02  0.51100000000E-03 0.  1.
         23    2    1    2    0    0  0.00000000000E+00  0.71054273576E-14  0.00000000000E+00  0.91188000000E+02  0.91188000000E+02 0.  0.
    9900012    2    3    3    0    0 -0.10607951027E+02 -0.30598149930E+02 -0.17521524929E+02  0.54367092353E+02  0.40000018637E+02 0.  0.
        -12    1    3    3    0    0  0.10607951027E+02  0.30598149930E+02  0.17521524929E+02  0.36820907647E+02  0.00000000000E+00 0.  1.
         11    1    4    4    0    0 -0.72218503049E+01 -0.17509612569E+01  0.92847504583E+01  0.11892332760E+02  0.51100000000E-03 0. -1.
        -11    1    4    4    0    0 -0.49623565509E+01 -0.39621954207E+01 -0.11724179127E+02  0.13333429849E+02  0.51100000000E-03 0.  1.
        -12    1    4    4    0    0  0.15762558284E+01 -0.24884993252E+02 -0.15082096261E+02  0.29141329743E+02  0.00000000000E+00 0.  1.
</event>
<event>
 8    1  0.1278459E-006  0.9118800E+02  0.7816164E-02  0.1184000E+00
        -11   -1    0    0    0    0  0.00000000000E+00  0.00000000000E+00  0.45593999997E+02  0.45594000000E+02  0.51100000000E-03 0. -1.
         11   -1    0    0    0    0 -0.00000000000E+00 -0.00000000000E+00 -0.45593999997E+02  0.45594000000E+02  0.51100000000E-03 0.  1.
         23    2    1    2    0    0 -0.35527136788E-14 -0.91593399532E-15  0.00000000000E+00  0.91188000000E+02  0.91188000000E+02 0.  0.
    9900012    2    3    3    0    0  0.16732614694E+02 -0.12212031750E+00  0.32799155498E+02  0.54367083264E+02  0.39999997918E+02 0.  0.
        -12    1    3    3    0    0 -0.16732614694E+02  0.12212031750E+00 -0.32799155498E+02  0.36820916736E+02  0.00000000000E+00 0.  1.
         11    1    4    4    0    0  0.70830863608E+01 -0.88933801463E+01  0.15105378095E+02  0.18905945374E+02  0.51100000000E-03 0. -1.
        -11    1    4    4    0    0 -0.86405502391E+01 -0.24039085643E+01  0.29322801422E+01  0.94358969851E+01  0.51100000000E-03 0.  1.
         12    1    4    4    0    0  0.18290078573E+02  0.11175168393E+02  0.14761497260E+02  0.26025240905E+02  0.00000000000E+00 0. -1.
</event>
<event>
 8    1  0.1278459E-006  0.9118800E+02  0.7816164E-02  0.1184000E+00
        -11   -1    0    0    0    0  0.00000000000E+00  0.00000000000E+00  0.45593999997E+02  0.45594000000E+02  0.51100000000E-03 0. -1.
         11   -1    0    0    0    0 -0.00000000000E+00 -0.00000000000E+00 -0.45593999997E+02  0.45594000000E+02  0.51100000000E-03 0.  1.
         23    2    1    2    0    0 -0.52735593670E-15  0.00000000000E+00  0.00000000000E+00  0.91188000000E+02  0.91188000000E+02 0.  0.
    9900012    2    3    3    0    0 -0.13114908621E+00  0.30459809394E+02  0.20687325850E+02  0.54367046194E+02  0.39999913407E+02 0.  0.
        -12    1    3    3    0    0  0.13114908621E+00 -0.30459809394E+02 -0.20687325850E+02  0.36820953806E+02  0.00000000000E+00 0.  1.
         11    1    4    4    0    0 -0.68726731902E+01  0.21054313367E+02  0.67418434573E+01  0.23151030249E+02  0.51100000000E-03 0. -1.
        -11    1    4    4    0    0  0.11991650929E+02  0.80561182482E+01  0.18956605011E+02  0.23833875200E+02  0.51100000000E-03 0.  1.
        -12    1    4    4    0    0 -0.52501268252E+01  0.13493777789E+01 -0.50111226187E+01  0.73821407444E+01  0.00000000000E+00 0.  1.
</event>
<event>
 8    1  0.1278459E-006  0.9118800E+02  0.7816164E-02  0.1184000E+00
        -11   -1    0    0    0    0  0.00000000000E+00  0.00000000000E+00  0.45593999997E+02  0.45594000000E+02  0.51100000000E-03 0.  1.
         11   -1    0    0    0    0 -0.00000000000E+00 -0.00000000000E+00 -0.45593999997E+02  0.45594000000E+02  0.51100000000E-03 0. -1.
         23    2    1    2    0    0  0.00000000000E+00  0.00000000000E+00  0.00000000000E+00  0.91188000000E+02  0.91188000000E+02 0.  0.
    9900012    2    3    3    0    0  0.21173814766E+02  0.21841712175E+02 -0.20745836357E+02  0.54367074582E+02  0.39999978126E+02 0.  0.
         12    1    3    3    0    0 -0.21173814766E+02 -0.21841712175E+02  0.20745836357E+02  0.36820925418E+02  0.00000000000E+00 0. -1.
         11    1    4    4    0    0  0.48603065576E+01 -0.67189721451E+01 -0.97314232767E+01  0.12785451332E+02  0.51100000000E-03 0. -1.
        -11    1    4    4    0    0  0.12206590326E+02  0.28001497439E+02 -0.79845779244E+00  0.30556868971E+02  0.51100000000E-03 0.  1.
        -12    1    4    4    0    0  0.41069178824E+01  0.55918688050E+00 -0.10215955288E+02  0.11024754279E+02  0.00000000000E+00 0.  1.
</event>
<event>
 8    1  0.1278459E-006  0.9118800E+02  0.7816164E-02  0.1184000E+00
        -11   -1    0    0    0    0  0.00000000000E+00  0.00000000000E+00  0.45593999997E+02  0.45594000000E+02  0.51100000000E-03 0.  1.
         11   -1    0    0    0    0 -0.00000000000E+00 -0.00000000000E+00 -0.45593999997E+02  0.45594000000E+02  0.51100000000E-03 0. -1.
         23    2    1    2    0    0  0.00000000000E+00  0.88817841970E-15  0.00000000000E+00  0.91188000000E+02  0.91188000000E+02 0.  0.
    9900012    2    3    3    0    0  0.16758938417E+02 -0.31431475155E+00 -0.32784377347E+02  0.54367133516E+02  0.40000112476E+02 0.  0.
        -12    1    3    3    0    0 -0.16758938417E+02  0.31431475155E+00  0.32784377347E+02  0.36820866484E+02  0.00000000000E+00 0.  1.
         11    1    4    4    0    0  0.29477166474E+01 -0.46195944157E+01 -0.19530822810E+02  0.20285036995E+02  0.51100000000E-03 0. -1.
        -11    1    4    4    0    0  0.21162709362E+02  0.40660089511E+01 -0.15321817492E+02  0.26441459639E+02  0.51100000000E-03 0.  1.
        -12    1    4    4    0    0 -0.73514875926E+01  0.23927071300E+00  0.20682629551E+01  0.76406368812E+01  0.00000000000E+00 0.  1.
</event>
<event>
 8    1  0.1278459E-006  0.9118800E+02  0.7816164E-02  0.1184000E+00
        -11   -1    0    0    0    0  0.00000000000E+00  0.00000000000E+00  0.45593999997E+02  0.45594000000E+02  0.51100000000E-03 0. -1.
         11   -1    0    0    0    0 -0.00000000000E+00 -0.00000000000E+00 -0.45593999997E+02  0.45594000000E+02  0.51100000000E-03 0.  1.
         23    2    1    2    0    0  0.00000000000E+00  0.00000000000E+00 -0.35527136788E-14  0.91188000000E+02  0.91188000000E+02 0.  0.
    9900012    2    3    3    0    0 -0.17004090893E+02  0.27780235299E+02  0.17172599682E+02  0.54367098868E+02  0.40000033488E+02 0.  0.
         12    1    3    3    0    0  0.17004090893E+02 -0.27780235299E+02 -0.17172599682E+02  0.36820901132E+02  0.00000000000E+00 0. -1.
         11    1    4    4    0    0 -0.28154964321E+00 -0.13168759395E+01 -0.33164072119E+01  0.35793839550E+01  0.51100000000E-03 0. -1.
        -11    1    4    4    0    0 -0.85787584339E+01 -0.33780238014E+01 -0.32160966744E+01  0.97647027169E+01  0.51100000000E-03 0.  1.
         12    1    4    4    0    0 -0.81437828162E+01  0.32475135040E+02  0.23705103569E+02  0.41023012196E+02  0.00000000000E+00 0. -1.
</event>
<event>
 8    1  0.1278459E-006  0.9118800E+02  0.7816164E-02  0.1184000E+00
        -11   -1    0    0    0    0  0.00000000000E+00  0.00000000000E+00  0.45593999997E+02  0.45594000000E+02  0.51100000000E-03 0.  1.
         11   -1    0    0    0    0 -0.00000000000E+00 -0.00000000000E+00 -0.45593999997E+02  0.45594000000E+02  0.51100000000E-03 0. -1.
         23    2    1    2    0    0  0.88817841970E-15  0.00000000000E+00  0.35527136788E-14  0.91188000000E+02  0.91188000000E+02 0.  0.
    9900012    2    3    3    0    0  0.50632049789E+01 -0.33428908142E+02 -0.14582576902E+02  0.54367088912E+02  0.40000010794E+02 0.  0.
        -12    1    3    3    0    0 -0.50632049789E+01  0.33428908142E+02  0.14582576902E+02  0.36820911088E+02  0.00000000000E+00 0.  1.
         11    1    4    4    0    0 -0.89663369821E+01 -0.28669772811E+02 -0.19906029063E+02  0.36036107798E+02  0.51100000000E-03 0. -1.
        -11    1    4    4    0    0  0.39480862505E+00  0.21529305294E+01  0.15542754898E+00  0.21943431133E+01  0.51100000000E-03 0.  1.
        -12    1    4    4    0    0  0.13634733336E+02 -0.69120658603E+01  0.51680246114E+01  0.16136638001E+02  0.00000000000E+00 0.  1.
</event>
<event>
 8    1  0.1278459E-006  0.9118800E+02  0.7816164E-02  0.1184000E+00
        -11   -1    0    0    0    0  0.00000000000E+00  0.00000000000E+00  0.45593999997E+02  0.45594000000E+02  0.51100000000E-03 0.  1.
         11   -1    0    0    0    0 -0.00000000000E+00 -0.00000000000E+00 -0.45593999997E+02  0.45594000000E+02  0.51100000000E-03 0. -1.
         23    2    1    2    0    0  0.00000000000E+00  0.00000000000E+00  0.13322676296E-14  0.91188000000E+02  0.91188000000E+02 0.  0.
    9900012    2    3    3    0    0  0.27088267185E+02  0.24929573082E+02  0.72085538603E+00  0.54367116447E+02  0.40000073564E+02 0.  0.
        -12    1    3    3    0    0 -0.27088267185E+02 -0.24929573082E+02 -0.72085538603E+00  0.36820883553E+02  0.00000000000E+00 0.  1.
         11    1    4    4    0    0  0.42691081228E+01  0.13597184241E+02 -0.12331730596E+02  0.18846227294E+02  0.51100000000E-03 0. -1.
        -11    1    4    4    0    0  0.10927254459E+02  0.15694619520E+02  0.12490661058E+02  0.22841685266E+02  0.51100000000E-03 0.  1.
         12    1    4    4    0    0  0.11891904603E+02 -0.43622306790E+01  0.56192492459E+00  0.12679203887E+02  0.00000000000E+00 0. -1.
</event>
<event>
 8    1  0.1278459E-006  0.9118800E+02  0.7816164E-02  0.1184000E+00
        -11   -1    0    0    0    0  0.00000000000E+00  0.00000000000E+00  0.45593999997E+02  0.45594000000E+02  0.51100000000E-03 0. -1.
         11   -1    0    0    0    0 -0.00000000000E+00 -0.00000000000E+00 -0.45593999997E+02  0.45594000000E+02  0.51100000000E-03 0.  1.
         23    2    1    2    0    0  0.00000000000E+00  0.17763568394E-14  0.00000000000E+00  0.91188000000E+02  0.91188000000E+02 0.  0.
    9900012    2    3    3    0    0 -0.33246689292E+02 -0.12871898568E+02  0.92061324794E+01  0.54367068496E+02  0.39999964250E+02 0.  0.
         12    1    3    3    0    0  0.33246689292E+02  0.12871898568E+02 -0.92061324794E+01  0.36820931504E+02  0.00000000000E+00 0. -1.
         11    1    4    4    0    0 -0.23233919777E+02 -0.27404367838E+01  0.19124664453E+02  0.30217177444E+02  0.51100000000E-03 0. -1.
        -11    1    4    4    0    0 -0.59337568641E+01 -0.12553497153E+01  0.39121308842E+01  0.72173500502E+01  0.51100000000E-03 0.  1.
         12    1    4    4    0    0 -0.40790126502E+01 -0.88761120690E+01 -0.13830662858E+02  0.16932541001E+02  0.00000000000E+00 0. -1.
</event>
<event>
 8    1  0.1278459E-006  0.9118800E+02  0.7816164E-02  0.1184000E+00
        -11   -1    0    0    0    0  0.00000000000E+00  0.00000000000E+00  0.45593999997E+02  0.45594000000E+02  0.51100000000E-03 0.  1.
         11   -1    0    0    0    0 -0.00000000000E+00 -0.00000000000E+00 -0.45593999997E+02  0.45594000000E+02  0.51100000000E-03 0. -1.
         23    2    1    2    0    0  0.35527136788E-14  0.35527136788E-14  0.00000000000E+00  0.91188000000E+02  0.91188000000E+02 0.  0.
    9900012    2    3    3    0    0 -0.29159665926E+02  0.22263798594E+02  0.31331508152E+01  0.54367089110E+02  0.40000011243E+02 0.  0.
        -12    1    3    3    0    0  0.29159665926E+02 -0.22263798594E+02 -0.31331508152E+01  0.36820910890E+02  0.00000000000E+00 0.  1.
         11    1    4    4    0    0 -0.30331917353E+02  0.21081170008E+02  0.71236540900E+01  0.37618976422E+02  0.51100000000E-03 0. -1.
        -11    1    4    4    0    0 -0.55259005253E+01  0.20274469797E+01  0.33519614600E+01  0.67736078837E+01  0.51100000000E-03 0.  1.
        -12    1    4    4    0    0  0.66981519523E+01 -0.84481839334E+00 -0.73424647349E+01  0.99745048036E+01  0.00000000000E+00 0.  1.
</event>
<event>
 8    1  0.1278459E-006  0.9118800E+02  0.7816164E-02  0.1184000E+00
        -11   -1    0    0    0    0  0.00000000000E+00  0.00000000000E+00  0.45593999997E+02  0.45594000000E+02  0.51100000000E-03 0.  1.
         11   -1    0    0    0    0 -0.00000000000E+00 -0.00000000000E+00 -0.45593999997E+02  0.45594000000E+02  0.51100000000E-03 0. -1.
         23    2    1    2    0    0 -0.35527136788E-14 -0.17763568394E-14 -0.35527136788E-14  0.91188000000E+02  0.91188000000E+02 0.  0.
    9900012    2    3    3    0    0  0.19002152554E+02  0.10789462630E+02  0.29635937459E+02  0.54367040010E+02  0.39999899310E+02 0.  0.
         12    1    3    3    0    0 -0.19002152554E+02 -0.10789462630E+02 -0.29635937459E+02  0.36820959990E+02  0.00000000000E+00 0. -1.
         11    1    4    4    0    0  0.22858161321E+02 -0.69494596977E+00  0.14137789413E+01  0.22912382243E+02  0.51100000000E-03 0. -1.
        -11    1    4    4    0    0  0.15465877177E+01  0.32024575088E+01  0.11396141626E+02  0.11938161998E+02  0.51100000000E-03 0.  1.
         12    1    4    4    0    0 -0.54025964851E+01  0.82819510910E+01  0.16826016892E+02  0.19516495769E+02  0.00000000000E+00 0. -1.
</event>
<event>
 8    1  0.1278459E-006  0.9118800E+02  0.7816164E-02  0.1184000E+00
        -11   -1    0    0    0    0  0.00000000000E+00  0.00000000000E+00  0.45593999997E+02  0.45594000000E+02  0.51100000000E-03 0. -1.
         11   -1    0    0    0    0 -0.00000000000E+00 -0.00000000000E+00 -0.45593999997E+02  0.45594000000E+02  0.51100000000E-03 0.  1.
         23    2    1    2    0    0  0.00000000000E+00  0.00000000000E+00  0.00000000000E+00  0.91188000000E+02  0.91188000000E+02 0.  0.
    9900012    2    3    3    0    0 -0.22354464903E+02  0.26969626098E+02  0.11344543687E+02  0.54367061603E+02  0.39999948535E+02 0.  0.
        -12    1    3    3    0    0  0.22354464903E+02 -0.26969626098E+02 -0.11344543687E+02  0.36820938397E+02  0.00000000000E+00 0.  1.
         11    1    4    4    0    0 -0.24457026760E+01  0.17326530974E+02  0.22404480925E+02  0.28427995057E+02  0.51100000000E-03 0. -1.
        -11    1    4    4    0    0 -0.99704102089E+01  0.35604304962E+01 -0.94219627616E+01  0.14172477821E+02  0.51100000000E-03 0.  1.
         12    1    4    4    0    0 -0.99383520185E+01  0.60826646285E+01 -0.16379744765E+01  0.11766588725E+02  0.00000000000E+00 0. -1.
</event>
<event>
 8    1  0.1278459E-006  0.9118800E+02  0.7816164E-02  0.1184000E+00
        -11   -1    0    0    0    0  0.00000000000E+00  0.00000000000E+00  0.45593999997E+02  0.45594000000E+02  0.51100000000E-03 0.  1.
         11   -1    0    0    0    0 -0.00000000000E+00 -0.00000000000E+00 -0.45593999997E+02  0.45594000000E+02  0.51100000000E-03 0. -1.
         23    2    1    2    0    0  0.35527136788E-14  0.17763568394E-14 -0.35527136788E-14  0.91188000000E+02  0.91188000000E+02 0.  0.
    9900012    2    3    3    0    0 -0.20394976258E+02 -0.13779388760E+02  0.27385225601E+02  0.54367120157E+02  0.40000082023E+02 0.  0.
         12    1    3    3    0    0  0.20394976258E+02  0.13779388760E+02 -0.27385225601E+02  0.36820879843E+02  0.00000000000E+00 0. -1.
         11    1    4    4    0    0  0.32546833518E+01 -0.73797675549E+01  0.49654889332E+01  0.94715370185E+01  0.51100000000E-03 0.  1.
        -11    1    4    4    0    0  0.54240211493E+01 -0.29400034288E+01  0.12573373712E+02  0.14005475799E+02  0.51100000000E-03 0. -1.
        -12    1    4    4    0    0 -0.29073680759E+02 -0.34596177765E+01  0.98463629557E+01  0.30890107340E+02  0.00000000000E+00 0.  1.
</event>
<event>
 8    1  0.1278459E-006  0.9118800E+02  0.7816164E-02  0.1184000E+00
        -11   -1    0    0    0    0  0.00000000000E+00  0.00000000000E+00  0.45593999997E+02  0.45594000000E+02  0.51100000000E-03 0. -1.
         11   -1    0    0    0    0 -0.00000000000E+00 -0.00000000000E+00 -0.45593999997E+02  0.45594000000E+02  0.51100000000E-03 0.  1.
         23    2    1    2    0    0  0.00000000000E+00 -0.35527136788E-14  0.00000000000E+00  0.91188000000E+02  0.91188000000E+02 0.  0.
    9900012    2    3    3    0    0 -0.46980141581E+01  0.30415309701E+02  0.20214295157E+02  0.54367080268E+02  0.39999991087E+02 0.  0.
        -12    1    3    3    0    0  0.46980141581E+01 -0.30415309701E+02 -0.20214295157E+02  0.36820919732E+02  0.00000000000E+00 0.  1.
         11    1    4    4    0    0  0.89829133481E+01  0.19135700161E+02  0.16664335475E+02  0.26917797643E+02  0.51100000000E-03 0. -1.
        -11    1    4    4    0    0 -0.12170815976E+02  0.98290330463E+01 -0.66775250195E+01  0.17009644111E+02  0.51100000000E-03 0.  1.
        -12    1    4    4    0    0 -0.15101115307E+01  0.14505764937E+01  0.10227484701E+02  0.10439638514E+02  0.00000000000E+00 0.  1.
</event>
<event>
 8    1  0.1278459E-006  0.9118800E+02  0.7816164E-02  0.1184000E+00
        -11   -1    0    0    0    0  0.00000000000E+00  0.00000000000E+00  0.45593999997E+02  0.45594000000E+02  0.51100000000E-03 0.  1.
         11   -1    0    0    0    0 -0.00000000000E+00 -0.00000000000E+00 -0.45593999997E+02  0.45594000000E+02  0.51100000000E-03 0. -1.
         23    2    1    2    0    0 -0.35527136788E-14  0.00000000000E+00  0.35527136788E-14  0.91188000000E+02  0.91188000000E+02 0.  0.
    9900012    2    3    3    0    0  0.16776084397E+02  0.14097463229E+02  0.29590492703E+02  0.54367180677E+02  0.40000219988E+02 0.  0.
         12    1    3    3    0    0 -0.16776084397E+02 -0.14097463229E+02 -0.29590492703E+02  0.36820819323E+02  0.00000000000E+00 0. -1.
         11    1    4    4    0    0  0.51378359432E+01  0.67049717246E+01  0.69161746922E+01  0.10917301711E+02  0.51100000000E-03 0. -1.
        -11    1    4    4    0    0  0.11974545870E+01 -0.10525578862E+02  0.19877407291E+02  0.22524054447E+02  0.51100000000E-03 0.  1.
         12    1    4    4    0    0  0.10440793867E+02  0.17918070367E+02  0.27969107206E+01  0.20925824519E+02  0.00000000000E+00 0. -1.
</event>
<event>
 8    1  0.1278459E-006  0.9118800E+02  0.7816164E-02  0.1184000E+00
        -11   -1    0    0    0    0  0.00000000000E+00  0.00000000000E+00  0.45593999997E+02  0.45594000000E+02  0.51100000000E-03 0.  1.
         11   -1    0    0    0    0 -0.00000000000E+00 -0.00000000000E+00 -0.45593999997E+02  0.45594000000E+02  0.51100000000E-03 0. -1.
         23    2    1    2    0    0 -0.35527136788E-14  0.35527136788E-14  0.00000000000E+00  0.91188000000E+02  0.91188000000E+02 0.  0.
    9900012    2    3    3    0    0 -0.21234025397E+02  0.21220969813E+02  0.21320576333E+02  0.54367077014E+02  0.39999983669E+02 0.  0.
         12    1    3    3    0    0  0.21234025397E+02 -0.21220969813E+02 -0.21320576333E+02  0.36820922986E+02  0.00000000000E+00 0. -1.
         11    1    4    4    0    0 -0.12364566973E+02 -0.82733363742E+01  0.74863769562E+01  0.16654622523E+02  0.51100000000E-03 0. -1.
        -11    1    4    4    0    0  0.30498467886E+01  0.41594896939E+00  0.34298269210E+01  0.46085021372E+01  0.51100000000E-03 0.  1.
        -12    1    4    4    0    0 -0.11919305212E+02  0.29078357218E+02  0.10404372456E+02  0.33103952354E+02  0.00000000000E+00 0.  1.
</event>
<event>
 8    1  0.1278459E-006  0.9118800E+02  0.7816164E-02  0.1184000E+00
        -11   -1    0    0    0    0  0.00000000000E+00  0.00000000000E+00  0.45593999997E+02  0.45594000000E+02  0.51100000000E-03 0.  1.
         11   -1    0    0    0    0 -0.00000000000E+00 -0.00000000000E+00 -0.45593999997E+02  0.45594000000E+02  0.51100000000E-03 0. -1.
         23    2    1    2    0    0  0.00000000000E+00 -0.17763568394E-14  0.35527136788E-14  0.91188000000E+02  0.91188000000E+02 0.  0.
    9900012    2    3    3    0    0  0.16328969784E+02 -0.14192224084E+02  0.29794730162E+02  0.54367076274E+02  0.39999981981E+02 0.  0.
         12    1    3    3    0    0 -0.16328969784E+02  0.14192224084E+02 -0.29794730162E+02  0.36820923726E+02  0.00000000000E+00 0. -1.
         11    1    4    4    0    0  0.68170354404E+01 -0.22629279717E+02  0.13239156957E+02  0.27089325387E+02  0.51100000000E-03 0. -1.
        -11    1    4    4    0    0  0.13855430455E+02  0.30428177234E+01  0.13899792288E+02  0.19860410839E+02  0.51100000000E-03 0.  1.
         12    1    4    4    0    0 -0.43434961114E+01  0.53942379100E+01  0.26557809165E+01  0.74173400472E+01  0.00000000000E+00 0. -1.
</event>
<event>
 8    1  0.1278459E-006  0.9118800E+02  0.7816164E-02  0.1184000E+00
        -11   -1    0    0    0    0  0.00000000000E+00  0.00000000000E+00  0.45593999997E+02  0.45594000000E+02  0.51100000000E-03 0.  1.
         11   -1    0    0    0    0 -0.00000000000E+00 -0.00000000000E+00 -0.45593999997E+02  0.45594000000E+02  0.51100000000E-03 0. -1.
         23    2    1    2    0    0  0.00000000000E+00  0.00000000000E+00  0.35527136788E-14  0.91188000000E+02  0.91188000000E+02 0.  0.
    9900012    2    3    3    0    0  0.89717540121E+01  0.22950913784E+02  0.27359852256E+02  0.54366833138E+02  0.39999427702E+02 0.  0.
         12    1    3    3    0    0 -0.89717540121E+01 -0.22950913784E+02 -0.27359852256E+02  0.36821166862E+02  0.00000000000E+00 0. -1.
         11    1    4    4    0    0  0.49094260065E+01  0.13152089141E+02  0.52870327538E+01  0.15001087563E+02  0.51100000000E-03 0. -1.
        -11    1    4    4    0    0  0.13729913822E+02 -0.52385236568E+01  0.10696353634E+02  0.18175935876E+02  0.51100000000E-03 0.  1.
         12    1    4    4    0    0 -0.96675858164E+01  0.15037348300E+02  0.11376465868E+02  0.21189809699E+02  0.00000000000E+00 0. -1.
</event>
<event>
 8    1  0.1278459E-006  0.9118800E+02  0.7816164E-02  0.1184000E+00
        -11   -1    0    0    0    0  0.00000000000E+00  0.00000000000E+00  0.45593999997E+02  0.45594000000E+02  0.51100000000E-03 0.  1.
         11   -1    0    0    0    0 -0.00000000000E+00 -0.00000000000E+00 -0.45593999997E+02  0.45594000000E+02  0.51100000000E-03 0. -1.
         23    2    1    2    0    0 -0.22204460493E-14  0.00000000000E+00 -0.35527136788E-14  0.91188000000E+02  0.91188000000E+02 0.  0.
    9900012    2    3    3    0    0 -0.39189263342E+01  0.18003861933E+02 -0.31879191080E+02  0.54367084041E+02  0.39999999688E+02 0.  0.
        -12    1    3    3    0    0  0.39189263342E+01 -0.18003861933E+02  0.31879191080E+02  0.36820915959E+02  0.00000000000E+00 0.  1.
         11    1    4    4    0    0 -0.71421136805E+01  0.15921122945E+02 -0.88893159657E+01  0.19583459405E+02  0.51100000000E-03 0. -1.
        -11    1    4    4    0    0  0.44259120414E+01  0.86011471541E+01 -0.25822870850E+02  0.27575153471E+02  0.51100000000E-03 0.  1.
        -12    1    4    4    0    0 -0.12027246951E+01 -0.65184081655E+01  0.28329957353E+01  0.72084711653E+01  0.00000000000E+00 0.  1.
</event>
<event>
 8    1  0.1278459E-006  0.9118800E+02  0.7816164E-02  0.1184000E+00
        -11   -1    0    0    0    0  0.00000000000E+00  0.00000000000E+00  0.45593999997E+02  0.45594000000E+02  0.51100000000E-03 0. -1.
         11   -1    0    0    0    0 -0.00000000000E+00 -0.00000000000E+00 -0.45593999997E+02  0.45594000000E+02  0.51100000000E-03 0.  1.
         23    2    1    2    0    0  0.00000000000E+00 -0.17763568394E-14  0.00000000000E+00  0.91188000000E+02  0.91188000000E+02 0.  0.
    9900012    2    3    3    0    0 -0.77519955500E+01 -0.13865456843E+02  0.33217996038E+02  0.54367087610E+02  0.40000007824E+02 0.  0.
        -12    1    3    3    0    0  0.77519955500E+01  0.13865456843E+02 -0.33217996038E+02  0.36820912390E+02  0.00000000000E+00 0.  1.
         11    1    4    4    0    0 -0.96231458487E+01 -0.11765840541E+02  0.21392548356E+02  0.26242733567E+02  0.51100000000E-03 0. -1.
        -11    1    4    4    0    0  0.14287009709E+01  0.20888886084E+01  0.19342725396E+02  0.19507579760E+02  0.51100000000E-03 0.  1.
        -12    1    4    4    0    0  0.44244932769E+00 -0.41885049110E+01 -0.75172777145E+01  0.86167742824E+01  0.00000000000E+00 0.  1.
</event>
<event>
 8    1  0.1278459E-006  0.9118800E+02  0.7816164E-02  0.1184000E+00
        -11   -1    0    0    0    0  0.00000000000E+00  0.00000000000E+00  0.45593999997E+02  0.45594000000E+02  0.51100000000E-03 0.  1.
         11   -1    0    0    0    0 -0.00000000000E+00 -0.00000000000E+00 -0.45593999997E+02  0.45594000000E+02  0.51100000000E-03 0. -1.
         23    2    1    2    0    0  0.00000000000E+00  0.17763568394E-14  0.00000000000E+00  0.91188000000E+02  0.91188000000E+02 0.  0.
    9900012    2    3    3    0    0 -0.23173075183E+02  0.10201000094E+02  0.26734418300E+02  0.54367069292E+02  0.39999966064E+02 0.  0.
         12    1    3    3    0    0  0.23173075183E+02 -0.10201000094E+02 -0.26734418300E+02  0.36820930708E+02  0.00000000000E+00 0. -1.
         11    1    4    4    0    0 -0.46394522067E+00 -0.34821584597E+01 -0.14774948711E+01  0.38109925297E+01  0.51100000000E-03 0. -1.
        -11    1    4    4    0    0  0.26047786185E+01 -0.76019768704E+01  0.18106545803E+01  0.82373171761E+01  0.51100000000E-03 0.  1.
         12    1    4    4    0    0 -0.25313908581E+02  0.21285135424E+02  0.26401258591E+02  0.42318759586E+02  0.00000000000E+00 0. -1.
</event>
<event>
 8    1  0.1278459E-006  0.9118800E+02  0.7816164E-02  0.1184000E+00
        -11   -1    0    0    0    0  0.00000000000E+00  0.00000000000E+00  0.45593999997E+02  0.45594000000E+02  0.51100000000E-03 0.  1.
         11   -1    0    0    0    0 -0.00000000000E+00 -0.00000000000E+00 -0.45593999997E+02  0.45594000000E+02  0.51100000000E-03 0. -1.
         23    2    1    2    0    0 -0.35527136788E-14  0.00000000000E+00  0.00000000000E+00  0.91188000000E+02  0.91188000000E+02 0.  0.
    9900012    2    3    3    0    0  0.26647049386E+02  0.17030251404E+02  0.18859633537E+02  0.54367075501E+02  0.39999980219E+02 0.  0.
         12    1    3    3    0    0 -0.26647049386E+02 -0.17030251404E+02 -0.18859633537E+02  0.36820924499E+02  0.00000000000E+00 0. -1.
         11    1    4    4    0    0 -0.19398095702E+01  0.70778521370E+01  0.21416183228E+02  0.22638722498E+02  0.51100000000E-03 0. -1.
        -11    1    4    4    0    0  0.43289629858E+01  0.19710136006E+01  0.29596702596E+01  0.56021838111E+01  0.51100000000E-03 0.  1.
         12    1    4    4    0    0  0.24257895970E+02  0.79813856664E+01 -0.55162199507E+01  0.26126169191E+02  0.00000000000E+00 0. -1.
</event>
<event>
 8    1  0.1278459E-006  0.9118800E+02  0.7816164E-02  0.1184000E+00
        -11   -1    0    0    0    0  0.00000000000E+00  0.00000000000E+00  0.45593999997E+02  0.45594000000E+02  0.51100000000E-03 0. -1.
         11   -1    0    0    0    0 -0.00000000000E+00 -0.00000000000E+00 -0.45593999997E+02  0.45594000000E+02  0.51100000000E-03 0.  1.
         23    2    1    2    0    0 -0.35527136788E-14  0.71054273576E-14 -0.35527136788E-14  0.91188000000E+02  0.91188000000E+02 0.  0.
    9900012    2    3    3    0    0  0.15451436447E+02 -0.20927814125E+02  0.26058776901E+02  0.54367080051E+02  0.39999990592E+02 0.  0.
        -12    1    3    3    0    0 -0.15451436447E+02  0.20927814125E+02 -0.26058776901E+02  0.36820919949E+02  0.00000000000E+00 0.  1.
         11    1    4    4    0    0  0.16533227160E+02 -0.19708008192E+02  0.84470561397E+01  0.27075929253E+02  0.51100000000E-03 0. -1.
        -11    1    4    4    0    0  0.28075927112E+01 -0.87543291082E+01  0.16296095553E+02  0.18710520717E+02  0.51100000000E-03 0.  1.
        -12    1    4    4    0    0 -0.38893834237E+01  0.75345231755E+01  0.13156252084E+01  0.85806300810E+01  0.00000000000E+00 0.  1.
</event>
<event>
 8    1  0.1278459E-006  0.9118800E+02  0.7816164E-02  0.1184000E+00
        -11   -1    0    0    0    0  0.00000000000E+00  0.00000000000E+00  0.45593999997E+02  0.45594000000E+02  0.51100000000E-03 0. -1.
         11   -1    0    0    0    0 -0.00000000000E+00 -0.00000000000E+00 -0.45593999997E+02  0.45594000000E+02  0.51100000000E-03 0.  1.
         23    2    1    2    0    0 -0.17763568394E-14 -0.35527136788E-14 -0.35527136788E-14  0.91188000000E+02  0.91188000000E+02 0.  0.
    9900012    2    3    3    0    0 -0.11924694039E+02  0.22432684318E+02  0.26652505700E+02  0.54367085920E+02  0.40000003971E+02 0.  0.
        -12    1    3    3    0    0  0.11924694039E+02 -0.22432684318E+02 -0.26652505700E+02  0.36820914080E+02  0.00000000000E+00 0.  1.
         11    1    4    4    0    0  0.46530307593E+01 -0.33015742547E+01  0.21242751851E+02  0.21995581244E+02  0.51100000000E-03 0. -1.
        -11    1    4    4    0    0 -0.12153235861E+02  0.23126828593E+02  0.19898079157E+01  0.26201348791E+02  0.51100000000E-03 0.  1.
         12    1    4    4    0    0 -0.44244889369E+01  0.26074299796E+01  0.34199459328E+01  0.61701558842E+01  0.00000000000E+00 0. -1.
</event>
<event>
 8    1  0.1278459E-006  0.9118800E+02  0.7816164E-02  0.1184000E+00
        -11   -1    0    0    0    0  0.00000000000E+00  0.00000000000E+00  0.45593999997E+02  0.45594000000E+02  0.51100000000E-03 0.  1.
         11   -1    0    0    0    0 -0.00000000000E+00 -0.00000000000E+00 -0.45593999997E+02  0.45594000000E+02  0.51100000000E-03 0. -1.
         23    2    1    2    0    0 -0.35527136788E-14 -0.35527136788E-14  0.11102230246E-14  0.91188000000E+02  0.91188000000E+02 0.  0.
    9900012    2    3    3    0    0  0.21573668886E+02  0.29834241391E+02 -0.52350302258E+00  0.54367092841E+02  0.40000019750E+02 0.  0.
         12    1    3    3    0    0 -0.21573668886E+02 -0.29834241391E+02  0.52350302258E+00  0.36820907159E+02  0.00000000000E+00 0. -1.
         11    1    4    4    0    0  0.94286382047E+01  0.66601415875E+01 -0.12264736167E+02  0.16842816209E+02  0.51100000000E-03 0. -1.
        -11    1    4    4    0    0  0.82829175491E+01  0.15869624834E+02 -0.52291553776E+01  0.18649283678E+02  0.51100000000E-03 0.  1.
         12    1    4    4    0    0  0.38621131323E+01  0.73044749698E+01  0.16970388522E+02  0.18874992954E+02  0.00000000000E+00 0. -1.
</event>
<event>
 8    1  0.1278459E-006  0.9118800E+02  0.7816164E-02  0.1184000E+00
        -11   -1    0    0    0    0  0.00000000000E+00  0.00000000000E+00  0.45593999997E+02  0.45594000000E+02  0.51100000000E-03 0. -1.
         11   -1    0    0    0    0 -0.00000000000E+00 -0.00000000000E+00 -0.45593999997E+02  0.45594000000E+02  0.51100000000E-03 0.  1.
         23    2    1    2    0    0  0.66613381478E-15  0.00000000000E+00  0.00000000000E+00  0.91188000000E+02  0.91188000000E+02 0.  0.
    9900012    2    3    3    0    0 -0.95343189997E+00  0.21858347124E+02 -0.29615543511E+02  0.54367125637E+02  0.40000094514E+02 0.  0.
         12    1    3    3    0    0  0.95343189997E+00 -0.21858347124E+02  0.29615543511E+02  0.36820874363E+02  0.00000000000E+00 0. -1.
         11    1    4    4    0    0  0.34961946625E+01  0.58855132195E+00 -0.25299699584E+02  0.25546909189E+02  0.51100000000E-03 0. -1.
        -11    1    4    4    0    0 -0.49879350062E+00 -0.18114287802E+01 -0.50537222173E+01  0.53916767052E+01  0.51100000000E-03 0.  1.
         12    1    4    4    0    0 -0.39508330619E+01  0.23081224583E+02  0.73787829047E+00  0.23428539743E+02  0.00000000000E+00 0. -1.
</event>
<event>
 8    1  0.1278459E-006  0.9118800E+02  0.7816164E-02  0.1184000E+00
        -11   -1    0    0    0    0  0.00000000000E+00  0.00000000000E+00  0.45593999997E+02  0.45594000000E+02  0.51100000000E-03 0.  1.
         11   -1    0    0    0    0 -0.00000000000E+00 -0.00000000000E+00 -0.45593999997E+02  0.45594000000E+02  0.51100000000E-03 0. -1.
         23    2    1    2    0    0 -0.35527136788E-14  0.19984014443E-14  0.00000000000E+00  0.91188000000E+02  0.91188000000E+02 0.  0.
    9900012    2    3    3    0    0 -0.24565035772E+02  0.19338221970E+01 -0.27360550759E+02  0.54367076755E+02  0.39999983079E+02 0.  0.
        -12    1    3    3    0    0  0.24565035772E+02 -0.19338221970E+01  0.27360550759E+02  0.36820923245E+02  0.00000000000E+00 0.  1.
         11    1    4    4    0    0 -0.27735232316E+01 -0.14713481479E+01 -0.18590926998E+02  0.18854173633E+02  0.51100000000E-03 0. -1.
        -11    1    4    4    0    0 -0.18778202730E+02  0.10721072953E+02 -0.14242555573E+02  0.25892328836E+02  0.51100000000E-03 0.  1.
        -12    1    4    4    0    0 -0.30133098106E+01 -0.73159026082E+01  0.54729318121E+01  0.96205742868E+01  0.00000000000E+00 0.  1.
</event>
<event>
 8    1  0.1278459E-006  0.9118800E+02  0.7816164E-02  0.1184000E+00
        -11   -1    0    0    0    0  0.00000000000E+00  0.00000000000E+00  0.45593999997E+02  0.45594000000E+02  0.51100000000E-03 0. -1.
         11   -1    0    0    0    0 -0.00000000000E+00 -0.00000000000E+00 -0.45593999997E+02  0.45594000000E+02  0.51100000000E-03 0.  1.
         23    2    1    2    0    0  0.71054273576E-14  0.00000000000E+00 -0.17763568394E-14  0.91188000000E+02  0.91188000000E+02 0.  0.
    9900012    2    3    3    0    0 -0.31837688151E+02  0.16443617629E+02  0.84704528215E+01  0.54367088570E+02  0.40000010013E+02 0.  0.
        -12    1    3    3    0    0  0.31837688151E+02 -0.16443617629E+02 -0.84704528215E+01  0.36820911430E+02  0.00000000000E+00 0.  1.
         11    1    4    4    0    0  0.28037067555E+01 -0.26695755865E+01  0.11418221772E+02  0.12056665960E+02  0.51100000000E-03 0. -1.
        -11    1    4    4    0    0 -0.14500069069E+02  0.88230086223E+01 -0.85557362332E+01  0.19007843299E+02  0.51100000000E-03 0.  1.
         12    1    4    4    0    0 -0.20141325838E+02  0.10290184594E+02  0.56079672826E+01  0.23302579310E+02  0.00000000000E+00 0. -1.
</event>
<event>
 8    1  0.1278459E-006  0.9118800E+02  0.7816164E-02  0.1184000E+00
        -11   -1    0    0    0    0  0.00000000000E+00  0.00000000000E+00  0.45593999997E+02  0.45594000000E+02  0.51100000000E-03 0.  1.
         11   -1    0    0    0    0 -0.00000000000E+00 -0.00000000000E+00 -0.45593999997E+02  0.45594000000E+02  0.51100000000E-03 0. -1.
         23    2    1    2    0    0  0.00000000000E+00 -0.17763568394E-14  0.00000000000E+00  0.91188000000E+02  0.91188000000E+02 0.  0.
    9900012    2    3    3    0    0  0.33174121699E+02 -0.12640979714E+02 -0.97706189847E+01  0.54367058757E+02  0.39999942049E+02 0.  0.
         12    1    3    3    0    0 -0.33174121699E+02  0.12640979714E+02  0.97706189847E+01  0.36820941243E+02  0.00000000000E+00 0. -1.
         11    1    4    4    0    0  0.71372911880E+01  0.10842578126E+02 -0.61944179407E+01  0.14383088674E+02  0.51100000000E-03 0.  1.
        -11    1    4    4    0    0 -0.20199545915E+01  0.26909021979E+00 -0.24756792521E+01  0.32064956134E+01  0.51100000000E-03 0. -1.
        -12    1    4    4    0    0  0.28056785103E+02 -0.23752648060E+02 -0.11005217919E+01  0.36777474470E+02  0.00000000000E+00 0.  1.
</event>
<event>
 8    1  0.1278459E-006  0.9118800E+02  0.7816164E-02  0.1184000E+00
        -11   -1    0    0    0    0  0.00000000000E+00  0.00000000000E+00  0.45593999997E+02  0.45594000000E+02  0.51100000000E-03 0.  1.
         11   -1    0    0    0    0 -0.00000000000E+00 -0.00000000000E+00 -0.45593999997E+02  0.45594000000E+02  0.51100000000E-03 0. -1.
         23    2    1    2    0    0  0.17763568394E-14  0.35527136788E-14 -0.35527136788E-14  0.91188000000E+02  0.91188000000E+02 0.  0.
    9900012    2    3    3    0    0  0.15635156147E+02 -0.24311382705E+02  0.22809609968E+02  0.54367085513E+02  0.40000003043E+02 0.  0.
         12    1    3    3    0    0 -0.15635156147E+02  0.24311382705E+02 -0.22809609968E+02  0.36820914487E+02  0.00000000000E+00 0. -1.
         11    1    4    4    0    0  0.19150210371E+02  0.98180827523E-01  0.15146891367E+02  0.24416562311E+02  0.51100000000E-03 0. -1.
        -11    1    4    4    0    0  0.36488206562E+01 -0.19152642781E+02  0.79609567956E+01  0.21059782787E+02  0.51100000000E-03 0.  1.
        -12    1    4    4    0    0 -0.71638748807E+01 -0.52569207523E+01 -0.29823819472E+00  0.88907404148E+01  0.00000000000E+00 0.  1.
</event>
<event>
 8    1  0.1278459E-006  0.9118800E+02  0.7816164E-02  0.1184000E+00
        -11   -1    0    0    0    0  0.00000000000E+00  0.00000000000E+00  0.45593999997E+02  0.45594000000E+02  0.51100000000E-03 0.  1.
         11   -1    0    0    0    0 -0.00000000000E+00 -0.00000000000E+00 -0.45593999997E+02  0.45594000000E+02  0.51100000000E-03 0. -1.
         23    2    1    2    0    0 -0.11102230246E-14  0.44408920985E-15  0.00000000000E+00  0.91188000000E+02  0.91188000000E+02 0.  0.
    9900012    2    3    3    0    0 -0.18180658570E+01 -0.39911788304E+01  0.36558777263E+02  0.54367094704E+02  0.40000023996E+02 0.  0.
         12    1    3    3    0    0  0.18180658570E+01  0.39911788304E+01 -0.36558777263E+02  0.36820905296E+02  0.00000000000E+00 0. -1.
         11    1    4    4    0    0 -0.30699909433E+01 -0.32534673020E+01  0.96869376489E+01  0.10669894805E+02  0.51100000000E-03 0. -1.
        -11    1    4    4    0    0 -0.96942670022E+01 -0.47176712563E+01  0.29797618462E+02  0.31688062438E+02  0.51100000000E-03 0.  1.
         12    1    4    4    0    0  0.10946192088E+02  0.39799597279E+01 -0.29257788485E+01  0.12009137460E+02  0.00000000000E+00 0. -1.
</event>
<event>
 8    1  0.1278459E-006  0.9118800E+02  0.7816164E-02  0.1184000E+00
        -11   -1    0    0    0    0  0.00000000000E+00  0.00000000000E+00  0.45593999997E+02  0.45594000000E+02  0.51100000000E-03 0. -1.
         11   -1    0    0    0    0 -0.00000000000E+00 -0.00000000000E+00 -0.45593999997E+02  0.45594000000E+02  0.51100000000E-03 0.  1.
         23    2    1    2    0    0  0.71054273576E-14 -0.44408920985E-14  0.00000000000E+00  0.91188000000E+02  0.91188000000E+02 0.  0.
    9900012    2    3    3    0    0  0.34109799128E+02  0.72089897514E+01 -0.11846167888E+02  0.54367087146E+02  0.40000006766E+02 0.  0.
         12    1    3    3    0    0 -0.34109799128E+02 -0.72089897514E+01  0.11846167888E+02  0.36820912854E+02  0.00000000000E+00 0. -1.
         11    1    4    4    0    0  0.43407010637E+01 -0.47000764540E+01 -0.63731407050E+01  0.90304666050E+01  0.51100000000E-03 0. -1.
        -11    1    4    4    0    0  0.17041794643E+02 -0.65907575566E+01 -0.12110833151E+02  0.21921065889E+02  0.51100000000E-03 0.  1.
        -12    1    4    4    0    0  0.12727303421E+02  0.18499823762E+02  0.66378059677E+01  0.23415554652E+02  0.00000000000E+00 0.  1.
</event>
<event>
 8    1  0.1278459E-006  0.9118800E+02  0.7816164E-02  0.1184000E+00
        -11   -1    0    0    0    0  0.00000000000E+00  0.00000000000E+00  0.45593999997E+02  0.45594000000E+02  0.51100000000E-03 0. -1.
         11   -1    0    0    0    0 -0.00000000000E+00 -0.00000000000E+00 -0.45593999997E+02  0.45594000000E+02  0.51100000000E-03 0.  1.
         23    2    1    2    0    0  0.44408920985E-15  0.00000000000E+00 -0.69388939039E-15  0.91188000000E+02  0.91188000000E+02 0.  0.
    9900012    2    3    3    0    0 -0.36435412764E+01 -0.36639506113E+02  0.23047236076E+00  0.54367055977E+02  0.39999935712E+02 0.  0.
         12    1    3    3    0    0  0.36435412764E+01  0.36639506113E+02 -0.23047236076E+00  0.36820944023E+02  0.00000000000E+00 0. -1.
         11    1    4    4    0    0 -0.40463699115E+01 -0.35315170838E+02 -0.92475174003E+01  0.36729429333E+02  0.51100000000E-03 0. -1.
        -11    1    4    4    0    0 -0.38725987390E+01 -0.41859350061E+01 -0.11614286070E+01  0.58196210821E+01  0.51100000000E-03 0.  1.
         12    1    4    4    0    0  0.42754273741E+01  0.28615997318E+01  0.10639418368E+02  0.11818005562E+02  0.00000000000E+00 0. -1.
</event>
<event>
 8    1  0.1278459E-006  0.9118800E+02  0.7816164E-02  0.1184000E+00
        -11   -1    0    0    0    0  0.00000000000E+00  0.00000000000E+00  0.45593999997E+02  0.45594000000E+02  0.51100000000E-03 0. -1.
         11   -1    0    0    0    0 -0.00000000000E+00 -0.00000000000E+00 -0.45593999997E+02  0.45594000000E+02  0.51100000000E-03 0.  1.
         23    2    1    2    0    0 -0.28865798640E-14 -0.17763568394E-14  0.00000000000E+00  0.91188000000E+02  0.91188000000E+02 0.  0.
    9900012    2    3    3    0    0  0.12051132769E+01  0.76107628846E+01 -0.36005604401E+02  0.54367088034E+02  0.40000008791E+02 0.  0.
         12    1    3    3    0    0 -0.12051132769E+01 -0.76107628846E+01  0.36005604401E+02  0.36820911966E+02  0.00000000000E+00 0. -1.
         11    1    4    4    0    0  0.18408294111E+01  0.14991679992E+02 -0.35946839054E+01  0.15526135209E+02  0.51100000000E-03 0. -1.
        -11    1    4    4    0    0 -0.87509329543E+01  0.78615125619E+00 -0.81384341820E+01  0.11976267055E+02  0.51100000000E-03 0.  1.
        -12    1    4    4    0    0  0.81152168201E+01 -0.81670683632E+01 -0.24272486314E+02  0.26864685770E+02  0.00000000000E+00 0.  1.
</event>
<event>
 8    1  0.1278459E-006  0.9118800E+02  0.7816164E-02  0.1184000E+00
        -11   -1    0    0    0    0  0.00000000000E+00  0.00000000000E+00  0.45593999997E+02  0.45594000000E+02  0.51100000000E-03 0.  1.
         11   -1    0    0    0    0 -0.00000000000E+00 -0.00000000000E+00 -0.45593999997E+02  0.45594000000E+02  0.51100000000E-03 0. -1.
         23    2    1    2    0    0 -0.17763568394E-14 -0.17763568394E-14  0.00000000000E+00  0.91188000000E+02  0.91188000000E+02 0.  0.
    9900012    2    3    3    0    0  0.12933592501E+02 -0.11921501225E+02  0.32347812356E+02  0.54367068852E+02  0.39999965061E+02 0.  0.
         12    1    3    3    0    0 -0.12933592501E+02  0.11921501225E+02 -0.32347812356E+02  0.36820931148E+02  0.00000000000E+00 0. -1.
         11    1    4    4    0    0 -0.69376422759E+01 -0.12783963490E+02  0.56111620014E+01  0.15589924378E+02  0.51100000000E-03 0. -1.
        -11    1    4    4    0    0 -0.91722046674E+00  0.12287347863E+00  0.14730116107E+02  0.14759156888E+02  0.51100000000E-03 0.  1.
         12    1    4    4    0    0  0.20788455244E+02  0.73958878608E+00  0.12006534248E+02  0.24017987585E+02  0.00000000000E+00 0. -1.
</event>
<event>
 8    1  0.1278459E-006  0.9118800E+02  0.7816164E-02  0.1184000E+00
        -11   -1    0    0    0    0  0.00000000000E+00  0.00000000000E+00  0.45593999997E+02  0.45594000000E+02  0.51100000000E-03 0.  1.
         11   -1    0    0    0    0 -0.00000000000E+00 -0.00000000000E+00 -0.45593999997E+02  0.45594000000E+02  0.51100000000E-03 0. -1.
         23    2    1    2    0    0 -0.88817841970E-15  0.00000000000E+00  0.17763568394E-14  0.91188000000E+02  0.91188000000E+02 0.  0.
    9900012    2    3    3    0    0 -0.79757769320E+01  0.32828094701E+02  0.14645237881E+02  0.54367084585E+02  0.40000000929E+02 0.  0.
        -12    1    3    3    0    0  0.79757769320E+01 -0.32828094701E+02 -0.14645237881E+02  0.36820915415E+02  0.00000000000E+00 0.  1.
         11    1    4    4    0    0  0.21096332464E+01  0.52039521469E+01 -0.68020175431E+01  0.88203805643E+01  0.51100000000E-03 0. -1.
        -11    1    4    4    0    0  0.17834404150E+01 -0.27243785239E+00  0.14281322754E+02  0.14394827611E+02  0.51100000000E-03 0.  1.
         12    1    4    4    0    0 -0.11868850593E+02  0.27896580407E+02  0.71659326708E+01  0.31151876410E+02  0.00000000000E+00 0. -1.
</event>
<event>
 8    1  0.1278459E-006  0.9118800E+02  0.7816164E-02  0.1184000E+00
        -11   -1    0    0    0    0  0.00000000000E+00  0.00000000000E+00  0.45593999997E+02  0.45594000000E+02  0.51100000000E-03 0.  1.
         11   -1    0    0    0    0 -0.00000000000E+00 -0.00000000000E+00 -0.45593999997E+02  0.45594000000E+02  0.51100000000E-03 0. -1.
         23    2    1    2    0    0  0.88817841970E-15  0.00000000000E+00  0.00000000000E+00  0.91188000000E+02  0.91188000000E+02 0.  0.
    9900012    2    3    3    0    0  0.21732063738E+01 -0.13963401710E+02  0.34001173584E+02  0.54367092646E+02  0.40000019306E+02 0.  0.
         12    1    3    3    0    0 -0.21732063738E+01  0.13963401710E+02 -0.34001173584E+02  0.36820907354E+02  0.00000000000E+00 0. -1.
         11    1    4    4    0    0  0.40808136674E+01  0.13135461070E+02  0.11756475494E+02  0.18094421627E+02  0.51100000000E-03 0. -1.
        -11    1    4    4    0    0 -0.31418116930E+01 -0.19708419015E+02  0.11079872046E+02  0.22826658222E+02  0.51100000000E-03 0.  1.
        -12    1    4    4    0    0  0.12342043994E+01 -0.73904437651E+01  0.11164826045E+02  0.13446012798E+02  0.00000000000E+00 0.  1.
</event>
<event>
 8    1  0.1278459E-006  0.9118800E+02  0.7816164E-02  0.1184000E+00
        -11   -1    0    0    0    0  0.00000000000E+00  0.00000000000E+00  0.45593999997E+02  0.45594000000E+02  0.51100000000E-03 0.  1.
         11   -1    0    0    0    0 -0.00000000000E+00 -0.00000000000E+00 -0.45593999997E+02  0.45594000000E+02  0.51100000000E-03 0. -1.
         23    2    1    2    0    0  0.00000000000E+00  0.13322676296E-14  0.00000000000E+00  0.91188000000E+02  0.91188000000E+02 0.  0.
    9900012    2    3    3    0    0  0.81388642728E+01  0.27189669599E+01  0.35807062675E+02  0.54367087051E+02  0.40000006551E+02 0.  0.
         12    1    3    3    0    0 -0.81388642728E+01 -0.27189669599E+01 -0.35807062675E+02  0.36820912949E+02  0.00000000000E+00 0. -1.
         11    1    4    4    0    0  0.12820930112E+02  0.11913932446E+02  0.28541147458E+01  0.17733133014E+02  0.51100000000E-03 0. -1.
        -11    1    4    4    0    0  0.16210027411E+01  0.21870913999E+01  0.86383799244E+01  0.90571864648E+01  0.51100000000E-03 0.  1.
         12    1    4    4    0    0 -0.63030685801E+01 -0.11382056886E+02  0.24314568005E+02  0.27576767572E+02  0.00000000000E+00 0. -1.
</event>
<event>
 8    1  0.1278459E-006  0.9118800E+02  0.7816164E-02  0.1184000E+00
        -11   -1    0    0    0    0  0.00000000000E+00  0.00000000000E+00  0.45593999997E+02  0.45594000000E+02  0.51100000000E-03 0. -1.
         11   -1    0    0    0    0 -0.00000000000E+00 -0.00000000000E+00 -0.45593999997E+02  0.45594000000E+02  0.51100000000E-03 0.  1.
         23    2    1    2    0    0  0.00000000000E+00  0.00000000000E+00  0.00000000000E+00  0.91188000000E+02  0.91188000000E+02 0.  0.
    9900012    2    3    3    0    0 -0.84802543248E+01 -0.14120824843E+02  0.32931254975E+02  0.54367082550E+02  0.39999996288E+02 0.  0.
        -12    1    3    3    0    0  0.84802543248E+01  0.14120824843E+02 -0.32931254975E+02  0.36820917450E+02  0.00000000000E+00 0.  1.
         11    1    4    4    0    0 -0.80780063634E+01 -0.29758213109E+01  0.98173655143E+01  0.13057195916E+02  0.51100000000E-03 0. -1.
        -11    1    4    4    0    0  0.49663613942E+01  0.79754372359E+01  0.18755901746E+02  0.20977516421E+02  0.51100000000E-03 0.  1.
         12    1    4    4    0    0 -0.53686093556E+01 -0.19120440768E+02  0.43579877147E+01  0.20332370213E+02  0.00000000000E+00 0. -1.
</event>
<event>
 8    1  0.1278459E-006  0.9118800E+02  0.7816164E-02  0.1184000E+00
        -11   -1    0    0    0    0  0.00000000000E+00  0.00000000000E+00  0.45593999997E+02  0.45594000000E+02  0.51100000000E-03 0. -1.
         11   -1    0    0    0    0 -0.00000000000E+00 -0.00000000000E+00 -0.45593999997E+02  0.45594000000E+02  0.51100000000E-03 0.  1.
         23    2    1    2    0    0  0.00000000000E+00  0.00000000000E+00  0.35527136788E-14  0.91188000000E+02  0.91188000000E+02 0.  0.
    9900012    2    3    3    0    0  0.14051633846E+02 -0.21351349213E+02  0.26503805756E+02  0.54367078684E+02  0.39999987477E+02 0.  0.
        -12    1    3    3    0    0 -0.14051633846E+02  0.21351349213E+02 -0.26503805756E+02  0.36820921316E+02  0.00000000000E+00 0.  1.
         11    1    4    4    0    0  0.31616397560E+01 -0.14021787487E+02  0.26827192880E+02  0.30435255352E+02  0.51100000000E-03 0. -1.
        -11    1    4    4    0    0  0.62983900939E+01 -0.67111739146E+01 -0.97624811607E+01  0.13416989668E+02  0.51100000000E-03 0.  1.
        -12    1    4    4    0    0  0.45916039963E+01 -0.61838781154E+00  0.94390940365E+01  0.10514833664E+02  0.00000000000E+00 0.  1.
</event>
<event>
 8    1  0.1278459E-006  0.9118800E+02  0.7816164E-02  0.1184000E+00
        -11   -1    0    0    0    0  0.00000000000E+00  0.00000000000E+00  0.45593999997E+02  0.45594000000E+02  0.51100000000E-03 0.  1.
         11   -1    0    0    0    0 -0.00000000000E+00 -0.00000000000E+00 -0.45593999997E+02  0.45594000000E+02  0.51100000000E-03 0. -1.
         23    2    1    2    0    0 -0.17763568394E-14  0.00000000000E+00  0.35527136788E-14  0.91188000000E+02  0.91188000000E+02 0.  0.
    9900012    2    3    3    0    0 -0.15242987303E+02  0.17838562387E+02 -0.28376348342E+02  0.54367080468E+02  0.39999991543E+02 0.  0.
        -12    1    3    3    0    0  0.15242987303E+02 -0.17838562387E+02  0.28376348342E+02  0.36820919532E+02  0.00000000000E+00 0.  1.
         11    1    4    4    0    0  0.25021401544E+01  0.91369238775E+01 -0.26130288622E+02  0.27794533042E+02  0.51100000000E-03 0. -1.
        -11    1    4    4    0    0 -0.92735417468E+01 -0.10053111751E+01 -0.81627096799E+01  0.12395122293E+02  0.51100000000E-03 0.  1.
        -12    1    4    4    0    0 -0.84715857104E+01  0.97069496847E+01  0.59166499601E+01  0.14177425132E+02  0.00000000000E+00 0.  1.
</event>
<event>
 8    1  0.1278459E-006  0.9118800E+02  0.7816164E-02  0.1184000E+00
        -11   -1    0    0    0    0  0.00000000000E+00  0.00000000000E+00  0.45593999997E+02  0.45594000000E+02  0.51100000000E-03 0. -1.
         11   -1    0    0    0    0 -0.00000000000E+00 -0.00000000000E+00 -0.45593999997E+02  0.45594000000E+02  0.51100000000E-03 0.  1.
         23    2    1    2    0    0  0.00000000000E+00  0.00000000000E+00  0.00000000000E+00  0.91188000000E+02  0.91188000000E+02 0.  0.
    9900012    2    3    3    0    0 -0.35641978053E+02  0.72767545295E+01 -0.56989705323E+01  0.54367081745E+02  0.39999994455E+02 0.  0.
        -12    1    3    3    0    0  0.35641978053E+02 -0.72767545295E+01  0.56989705323E+01  0.36820918255E+02  0.00000000000E+00 0.  1.
         11    1    4    4    0    0 -0.26816638074E+02  0.18347361810E+02 -0.38575972118E+01  0.32720617651E+02  0.51100000000E-03 0. -1.
        -11    1    4    4    0    0 -0.40897777929E+01 -0.80608958023E-01 -0.73971291464E+01  0.84528279333E+01  0.51100000000E-03 0.  1.
         12    1    4    4    0    0 -0.47355621859E+01 -0.10989998323E+02  0.55557558259E+01  0.13193636161E+02  0.00000000000E+00 0. -1.
</event>
<event>
 8    1  0.1278459E-006  0.9118800E+02  0.7816164E-02  0.1184000E+00
        -11   -1    0    0    0    0  0.00000000000E+00  0.00000000000E+00  0.45593999997E+02  0.45594000000E+02  0.51100000000E-03 0.  1.
         11   -1    0    0    0    0 -0.00000000000E+00 -0.00000000000E+00 -0.45593999997E+02  0.45594000000E+02  0.51100000000E-03 0. -1.
         23    2    1    2    0    0 -0.88817841970E-15  0.00000000000E+00  0.35527136788E-14  0.91188000000E+02  0.91188000000E+02 0.  0.
    9900012    2    3    3    0    0 -0.64524291589E+01 -0.23555329169E+02 -0.27555138337E+02  0.54367176773E+02  0.40000211089E+02 0.  0.
        -12    1    3    3    0    0  0.64524291589E+01  0.23555329169E+02  0.27555138337E+02  0.36820823227E+02  0.00000000000E+00 0.  1.
         11    1    4    4    0    0 -0.55673993691E+01 -0.16597581559E+02 -0.15593863260E+02  0.23444492338E+02  0.51100000000E-03 0. -1.
        -11    1    4    4    0    0 -0.72402192054E+01 -0.20040326318E+01 -0.18868855174E+02  0.20309372634E+02  0.51100000000E-03 0.  1.
        -12    1    4    4    0    0  0.63551894157E+01 -0.49537149781E+01  0.69075800968E+01  0.10613311801E+02  0.00000000000E+00 0.  1.
</event>
<event>
 8    1  0.1278459E-006  0.9118800E+02  0.7816164E-02  0.1184000E+00
        -11   -1    0    0    0    0  0.00000000000E+00  0.00000000000E+00  0.45593999997E+02  0.45594000000E+02  0.51100000000E-03 0.  1.
         11   -1    0    0    0    0 -0.00000000000E+00 -0.00000000000E+00 -0.45593999997E+02  0.45594000000E+02  0.51100000000E-03 0. -1.
         23    2    1    2    0    0  0.00000000000E+00 -0.35527136788E-14  0.35527136788E-14  0.91188000000E+02  0.91188000000E+02 0.  0.
    9900012    2    3    3    0    0  0.14401155800E+02 -0.24005108904E+02 -0.23919464659E+02  0.54367091110E+02  0.40000015803E+02 0.  0.
        -12    1    3    3    0    0 -0.14401155800E+02  0.24005108904E+02  0.23919464659E+02  0.36820908890E+02  0.00000000000E+00 0.  1.
         11    1    4    4    0    0  0.88254541413E+01 -0.37078072260E+01 -0.16693611452E+02  0.19243521996E+02  0.51100000000E-03 0. -1.
        -11    1    4    4    0    0  0.26827002024E+01  0.45574893754E+01 -0.85639461023E+01  0.10065225427E+02  0.51100000000E-03 0.  1.
         12    1    4    4    0    0  0.28930014566E+01 -0.24854791054E+02  0.13380928954E+01  0.25058343687E+02  0.00000000000E+00 0. -1.
</event>
<event>
 8    1  0.1278459E-006  0.9118800E+02  0.7816164E-02  0.1184000E+00
        -11   -1    0    0    0    0  0.00000000000E+00  0.00000000000E+00  0.45593999997E+02  0.45594000000E+02  0.51100000000E-03 0.  1.
         11   -1    0    0    0    0 -0.00000000000E+00 -0.00000000000E+00 -0.45593999997E+02  0.45594000000E+02  0.51100000000E-03 0. -1.
         23    2    1    2    0    0  0.00000000000E+00 -0.35527136788E-14  0.00000000000E+00  0.91188000000E+02  0.91188000000E+02 0.  0.
    9900012    2    3    3    0    0  0.34388598388E+02 -0.12895603971E+02 -0.26279625354E+01  0.54367102565E+02  0.40000041917E+02 0.  0.
        -12    1    3    3    0    0 -0.34388598388E+02  0.12895603971E+02  0.26279625354E+01  0.36820897435E+02  0.00000000000E+00 0.  1.
         11    1    4    4    0    0  0.19406500181E+02 -0.94782468858E+01 -0.66311169235E+01  0.22592501526E+02  0.51100000000E-03 0. -1.
        -11    1    4    4    0    0  0.11847512458E+02  0.34558288951E+01  0.14373363804E+02  0.18944653390E+02  0.51100000000E-03 0.  1.
        -12    1    4    4    0    0  0.31345857489E+01 -0.68731859801E+01 -0.10370209415E+02  0.12829947648E+02  0.00000000000E+00 0.  1.
</event>
<event>
 8    1  0.1278459E-006  0.9118800E+02  0.7816164E-02  0.1184000E+00
        -11   -1    0    0    0    0  0.00000000000E+00  0.00000000000E+00  0.45593999997E+02  0.45594000000E+02  0.51100000000E-03 0.  1.
         11   -1    0    0    0    0 -0.00000000000E+00 -0.00000000000E+00 -0.45593999997E+02  0.45594000000E+02  0.51100000000E-03 0. -1.
         23    2    1    2    0    0 -0.35527136788E-14  0.00000000000E+00  0.35527136788E-14  0.91188000000E+02  0.91188000000E+02 0.  0.
    9900012    2    3    3    0    0  0.20443935554E+02  0.13491253225E+02 -0.27492058102E+02  0.54367059311E+02  0.39999943311E+02 0.  0.
        -12    1    3    3    0    0 -0.20443935554E+02 -0.13491253225E+02  0.27492058102E+02  0.36820940689E+02  0.00000000000E+00 0.  1.
         11    1    4    4    0    0  0.14943404465E+02  0.12576863262E+01 -0.67673526424E+01  0.16452482303E+02  0.51100000000E-03 0. -1.
        -11    1    4    4    0    0  0.16251152199E+02  0.10269010344E+02 -0.18663482306E+02  0.26793247159E+02  0.51100000000E-03 0.  1.
        -12    1    4    4    0    0 -0.10750621110E+02  0.19645565550E+01 -0.20612231536E+01  0.11121329849E+02  0.00000000000E+00 0.  1.
</event>
<event>
 8    1  0.1278459E-006  0.9118800E+02  0.7816164E-02  0.1184000E+00
        -11   -1    0    0    0    0  0.00000000000E+00  0.00000000000E+00  0.45593999997E+02  0.45594000000E+02  0.51100000000E-03 0.  1.
         11   -1    0    0    0    0 -0.00000000000E+00 -0.00000000000E+00 -0.45593999997E+02  0.45594000000E+02  0.51100000000E-03 0. -1.
         23    2    1    2    0    0  0.00000000000E+00 -0.35527136788E-14  0.00000000000E+00  0.91188000000E+02  0.91188000000E+02 0.  0.
    9900012    2    3    3    0    0  0.14795948712E+02 -0.25897528801E+02  0.21591150804E+02  0.54367083535E+02  0.39999998534E+02 0.  0.
         12    1    3    3    0    0 -0.14795948712E+02  0.25897528801E+02 -0.21591150804E+02  0.36820916465E+02  0.00000000000E+00 0. -1.
         11    1    4    4    0    0  0.16806081738E+02 -0.16275419108E+02  0.64983844138E+01  0.24280911243E+02  0.51100000000E-03 0. -1.
        -11    1    4    4    0    0 -0.11514365211E+02 -0.11421478201E+02  0.79513074043E+01  0.18062504262E+02  0.51100000000E-03 0.  1.
         12    1    4    4    0    0  0.95042321854E+01  0.17993685076E+01  0.71414589859E+01  0.12023668030E+02  0.00000000000E+00 0. -1.
</event>
<event>
 8    1  0.1278459E-006  0.9118800E+02  0.7816164E-02  0.1184000E+00
        -11   -1    0    0    0    0  0.00000000000E+00  0.00000000000E+00  0.45593999997E+02  0.45594000000E+02  0.51100000000E-03 0.  1.
         11   -1    0    0    0    0 -0.00000000000E+00 -0.00000000000E+00 -0.45593999997E+02  0.45594000000E+02  0.51100000000E-03 0. -1.
         23    2    1    2    0    0  0.00000000000E+00  0.17763568394E-14 -0.35527136788E-14  0.91188000000E+02  0.91188000000E+02 0.  0.
    9900012    2    3    3    0    0 -0.17668743863E+02  0.12413130059E+02 -0.29824669113E+02  0.54367065802E+02  0.39999958108E+02 0.  0.
        -12    1    3    3    0    0  0.17668743863E+02 -0.12413130059E+02  0.29824669113E+02  0.36820934198E+02  0.00000000000E+00 0.  1.
         11    1    4    4    0    0 -0.11083118396E+00  0.12480086287E+02 -0.22793400756E+02  0.25986611082E+02  0.51100000000E-03 0. -1.
        -11    1    4    4    0    0 -0.14621947234E+02 -0.91400420697E+01 -0.75632267816E+01  0.18829341719E+02  0.51100000000E-03 0.  1.
         12    1    4    4    0    0 -0.29359654447E+01  0.90730858417E+01  0.53195842445E+00  0.95511130005E+01  0.00000000000E+00 0. -1.
</event>
<event>
 8    1  0.1278459E-006  0.9118800E+02  0.7816164E-02  0.1184000E+00
        -11   -1    0    0    0    0  0.00000000000E+00  0.00000000000E+00  0.45593999997E+02  0.45594000000E+02  0.51100000000E-03 0.  1.
         11   -1    0    0    0    0 -0.00000000000E+00 -0.00000000000E+00 -0.45593999997E+02  0.45594000000E+02  0.51100000000E-03 0. -1.
         23    2    1    2    0    0  0.35527136788E-14  0.00000000000E+00 -0.88817841970E-15  0.91188000000E+02  0.91188000000E+02 0.  0.
    9900012    2    3    3    0    0  0.28315024944E+02 -0.22321884626E+02 -0.74681296365E+01  0.54367080252E+02  0.39999991050E+02 0.  0.
         12    1    3    3    0    0 -0.28315024944E+02  0.22321884626E+02  0.74681296365E+01  0.36820919748E+02  0.00000000000E+00 0. -1.
         11    1    4    4    0    0  0.21269590777E+02 -0.17286113676E+02  0.59142998239E+01  0.28038975739E+02  0.51100000000E-03 0.  1.
        -11    1    4    4    0    0  0.10333188763E+02 -0.20128930293E+01  0.16412808689E+01  0.10654592039E+02  0.51100000000E-03 0. -1.
         12    1    4    4    0    0 -0.32877545957E+01 -0.30228779199E+01 -0.15023710329E+02  0.15673512474E+02  0.00000000000E+00 0. -1.
</event>
<event>
 8    1  0.1278459E-006  0.9118800E+02  0.7816164E-02  0.1184000E+00
        -11   -1    0    0    0    0  0.00000000000E+00  0.00000000000E+00  0.45593999997E+02  0.45594000000E+02  0.51100000000E-03 0. -1.
         11   -1    0    0    0    0 -0.00000000000E+00 -0.00000000000E+00 -0.45593999997E+02  0.45594000000E+02  0.51100000000E-03 0.  1.
         23    2    1    2    0    0  0.00000000000E+00 -0.35527136788E-14  0.00000000000E+00  0.91188000000E+02  0.91188000000E+02 0.  0.
    9900012    2    3    3    0    0 -0.30803626702E+02 -0.17062218598E+02  0.10760935997E+02  0.54367075718E+02  0.39999980714E+02 0.  0.
        -12    1    3    3    0    0  0.30803626702E+02  0.17062218598E+02 -0.10760935997E+02  0.36820924282E+02  0.00000000000E+00 0.  1.
         11    1    4    4    0    0 -0.32943871863E+02 -0.13958171920E+02  0.13757384121E+02  0.38332686767E+02  0.51100000000E-03 0. -1.
        -11    1    4    4    0    0  0.86468815687E+01 -0.30666385973E+01 -0.24980785630E+01  0.95085871672E+01  0.51100000000E-03 0.  1.
        -12    1    4    4    0    0 -0.65066364069E+01 -0.37408081129E-01 -0.49836956064E+00  0.65258017833E+01  0.00000000000E+00 0.  1.
</event>
<event>
 8    1  0.1278459E-006  0.9118800E+02  0.7816164E-02  0.1184000E+00
        -11   -1    0    0    0    0  0.00000000000E+00  0.00000000000E+00  0.45593999997E+02  0.45594000000E+02  0.51100000000E-03 0. -1.
         11   -1    0    0    0    0 -0.00000000000E+00 -0.00000000000E+00 -0.45593999997E+02  0.45594000000E+02  0.51100000000E-03 0.  1.
         23    2    1    2    0    0 -0.35527136788E-14 -0.35527136788E-14  0.35527136788E-14  0.91188000000E+02  0.91188000000E+02 0.  0.
    9900012    2    3    3    0    0 -0.28189806258E+02  0.16042379093E+02 -0.17428606269E+02  0.54367089904E+02  0.40000013053E+02 0.  0.
         12    1    3    3    0    0  0.28189806258E+02 -0.16042379093E+02  0.17428606269E+02  0.36820910096E+02  0.00000000000E+00 0. -1.
         11    1    4    4    0    0 -0.20668711489E+02 -0.28714889178E+01 -0.60735965573E+01  0.21733146543E+02  0.51100000000E-03 0. -1.
        -11    1    4    4    0    0 -0.63309583832E+01 -0.40586771581E+01 -0.18517194479E+01  0.77448537429E+01  0.51100000000E-03 0.  1.
        -12    1    4    4    0    0 -0.11901363854E+01  0.22972545169E+02 -0.95032902641E+01  0.24889089618E+02  0.00000000000E+00 0.  1.
</event>
<event>
 8    1  0.1278459E-006  0.9118800E+02  0.7816164E-02  0.1184000E+00
        -11   -1    0    0    0    0  0.00000000000E+00  0.00000000000E+00  0.45593999997E+02  0.45594000000E+02  0.51100000000E-03 0. -1.
         11   -1    0    0    0    0 -0.00000000000E+00 -0.00000000000E+00 -0.45593999997E+02  0.45594000000E+02  0.51100000000E-03 0.  1.
         23    2    1    2    0    0 -0.17763568394E-14 -0.35527136788E-14 -0.35527136788E-14  0.91188000000E+02  0.91188000000E+02 0.  0.
    9900012    2    3    3    0    0  0.11979016703E+02  0.20969055808E+02  0.27795349932E+02  0.54367087186E+02  0.40000006857E+02 0.  0.
        -12    1    3    3    0    0 -0.11979016703E+02 -0.20969055808E+02 -0.27795349932E+02  0.36820912814E+02  0.00000000000E+00 0.  1.
         11    1    4    4    0    0  0.16870932071E+02  0.88193528491E+00  0.18275846024E+01  0.16992534376E+02  0.51100000000E-03 0.  1.
        -11    1    4    4    0    0 -0.94642450171E+01  0.73185227741E+01  0.64055463837E+01  0.13570693942E+02  0.51100000000E-03 0. -1.
        -12    1    4    4    0    0  0.45723296498E+01  0.12768597749E+02  0.19562218946E+02  0.23803858867E+02  0.00000000000E+00 0.  1.
</event>
<event>
 8    1  0.1278459E-006  0.9118800E+02  0.7816164E-02  0.1184000E+00
        -11   -1    0    0    0    0  0.00000000000E+00  0.00000000000E+00  0.45593999997E+02  0.45594000000E+02  0.51100000000E-03 0. -1.
         11   -1    0    0    0    0 -0.00000000000E+00 -0.00000000000E+00 -0.45593999997E+02  0.45594000000E+02  0.51100000000E-03 0.  1.
         23    2    1    2    0    0 -0.17763568394E-14  0.00000000000E+00 -0.71054273576E-14  0.91188000000E+02  0.91188000000E+02 0.  0.
    9900012    2    3    3    0    0 -0.13992494927E+02 -0.22665068122E+02 -0.25422155430E+02  0.54367065548E+02  0.39999957529E+02 0.  0.
         12    1    3    3    0    0  0.13992494927E+02  0.22665068122E+02  0.25422155430E+02  0.36820934452E+02  0.00000000000E+00 0. -1.
         11    1    4    4    0    0 -0.19973225180E+01  0.23907677093E+00  0.91286357176E+01  0.93476438351E+01  0.51100000000E-03 0. -1.
        -11    1    4    4    0    0 -0.41038496317E+01 -0.13562685113E+02 -0.92598078209E+01  0.16927257617E+02  0.51100000000E-03 0.  1.
         12    1    4    4    0    0 -0.78913227769E+01 -0.93414597798E+01 -0.25290983326E+02  0.28092164096E+02  0.00000000000E+00 0. -1.
</event>
<event>
 8    1  0.1278459E-006  0.9118800E+02  0.7816164E-02  0.1184000E+00
        -11   -1    0    0    0    0  0.00000000000E+00  0.00000000000E+00  0.45593999997E+02  0.45594000000E+02  0.51100000000E-03 0.  1.
         11   -1    0    0    0    0 -0.00000000000E+00 -0.00000000000E+00 -0.45593999997E+02  0.45594000000E+02  0.51100000000E-03 0. -1.
         23    2    1    2    0    0  0.35527136788E-14  0.00000000000E+00  0.35527136788E-14  0.91188000000E+02  0.91188000000E+02 0.  0.
    9900012    2    3    3    0    0  0.21650347905E+02  0.88003747383E+01  0.28453439684E+02  0.54367049580E+02  0.39999921128E+02 0.  0.
         12    1    3    3    0    0 -0.21650347905E+02 -0.88003747383E+01 -0.28453439684E+02  0.36820950420E+02  0.00000000000E+00 0. -1.
         11    1    4    4    0    0  0.92056397107E+01 -0.45804128857E+01  0.49469731179E+01  0.11410369318E+02  0.51100000000E-03 0. -1.
        -11    1    4    4    0    0 -0.88519371718E+01  0.69621749315E+01  0.15828296163E+02  0.19425849561E+02  0.51100000000E-03 0.  1.
         12    1    4    4    0    0  0.21296645367E+02  0.64186126925E+01  0.76781704029E+01  0.23530830701E+02  0.00000000000E+00 0. -1.
</event>
<event>
 8    1  0.1278459E-006  0.9118800E+02  0.7816164E-02  0.1184000E+00
        -11   -1    0    0    0    0  0.00000000000E+00  0.00000000000E+00  0.45593999997E+02  0.45594000000E+02  0.51100000000E-03 0.  1.
         11   -1    0    0    0    0 -0.00000000000E+00 -0.00000000000E+00 -0.45593999997E+02  0.45594000000E+02  0.51100000000E-03 0. -1.
         23    2    1    2    0    0  0.26645352591E-14  0.00000000000E+00 -0.35527136788E-14  0.91188000000E+02  0.91188000000E+02 0.  0.
    9900012    2    3    3    0    0  0.77626116464E+01  0.17097101663E+02  0.31673429850E+02  0.54367147439E+02  0.40000144217E+02 0.  0.
         12    1    3    3    0    0 -0.77626116464E+01 -0.17097101663E+02 -0.31673429850E+02  0.36820852561E+02  0.00000000000E+00 0. -1.
         11    1    4    4    0    0 -0.10684734174E+02  0.16217532389E+01  0.19108308973E+01  0.10974739310E+02  0.51100000000E-03 0. -1.
        -11    1    4    4    0    0  0.21905011579E+02  0.12538835680E+02  0.29534654699E+02  0.38850325108E+02  0.51100000000E-03 0.  1.
        -12    1    4    4    0    0 -0.34576657591E+01  0.29365127438E+01  0.22794425349E+00  0.45420830221E+01  0.00000000000E+00 0.  1.
</event>
<event>
 8    1  0.1278459E-006  0.9118800E+02  0.7816164E-02  0.1184000E+00
        -11   -1    0    0    0    0  0.00000000000E+00  0.00000000000E+00  0.45593999997E+02  0.45594000000E+02  0.51100000000E-03 0. -1.
         11   -1    0    0    0    0 -0.00000000000E+00 -0.00000000000E+00 -0.45593999997E+02  0.45594000000E+02  0.51100000000E-03 0.  1.
         23    2    1    2    0    0  0.88817841970E-15 -0.71054273576E-14  0.00000000000E+00  0.91188000000E+02  0.91188000000E+02 0.  0.
    9900012    2    3    3    0    0  0.25588522784E+01 -0.34083817788E+02 -0.13694045047E+02  0.54367065333E+02  0.39999957040E+02 0.  0.
         12    1    3    3    0    0 -0.25588522784E+01  0.34083817788E+02  0.13694045047E+02  0.36820934667E+02  0.00000000000E+00 0. -1.
         11    1    4    4    0    0 -0.57884801870E+01 -0.13649722444E+02 -0.20470348317E+02  0.25275612478E+02  0.51100000000E-03 0. -1.
        -11    1    4    4    0    0  0.16107740084E+01 -0.13600358871E+02 -0.43774109975E+01  0.14377972098E+02  0.51100000000E-03 0.  1.
         12    1    4    4    0    0  0.67365584570E+01 -0.68337364732E+01  0.11153714268E+02  0.14713480757E+02  0.00000000000E+00 0. -1.
</event>
<event>
 8    1  0.1278459E-006  0.9118800E+02  0.7816164E-02  0.1184000E+00
        -11   -1    0    0    0    0  0.00000000000E+00  0.00000000000E+00  0.45593999997E+02  0.45594000000E+02  0.51100000000E-03 0.  1.
         11   -1    0    0    0    0 -0.00000000000E+00 -0.00000000000E+00 -0.45593999997E+02  0.45594000000E+02  0.51100000000E-03 0. -1.
         23    2    1    2    0    0  0.00000000000E+00  0.00000000000E+00  0.35527136788E-14  0.91188000000E+02  0.91188000000E+02 0.  0.
    9900012    2    3    3    0    0 -0.89231357285E+01  0.21313093394E+02 -0.28668927435E+02  0.54367113244E+02  0.40000066263E+02 0.  0.
        -12    1    3    3    0    0  0.89231357285E+01 -0.21313093394E+02  0.28668927435E+02  0.36820886756E+02  0.00000000000E+00 0.  1.
         11    1    4    4    0    0  0.61167025033E+00  0.54109387607E+01 -0.99446109809E+01  0.11337887219E+02  0.51100000000E-03 0. -1.
        -11    1    4    4    0    0  0.38287916896E+01  0.11911959164E+02 -0.24830235722E+02  0.27804586370E+02  0.51100000000E-03 0.  1.
        -12    1    4    4    0    0 -0.13363597668E+02  0.39901954693E+01  0.61059192683E+01  0.15224639655E+02  0.00000000000E+00 0.  1.
</event>
<event>
 8    1  0.1278459E-006  0.9118800E+02  0.7816164E-02  0.1184000E+00
        -11   -1    0    0    0    0  0.00000000000E+00  0.00000000000E+00  0.45593999997E+02  0.45594000000E+02  0.51100000000E-03 0.  1.
         11   -1    0    0    0    0 -0.00000000000E+00 -0.00000000000E+00 -0.45593999997E+02  0.45594000000E+02  0.51100000000E-03 0. -1.
         23    2    1    2    0    0  0.71054273576E-14 -0.13322676296E-14  0.44408920985E-15  0.91188000000E+02  0.91188000000E+02 0.  0.
    9900012    2    3    3    0    0 -0.36794388043E+02  0.42327316470E+00  0.13317657462E+01  0.54367085405E+02  0.40000002798E+02 0.  0.
        -12    1    3    3    0    0  0.36794388043E+02 -0.42327316470E+00 -0.13317657462E+01  0.36820914595E+02  0.00000000000E+00 0.  1.
         11    1    4    4    0    0 -0.17635536316E+02 -0.76997893931E+01 -0.15310078204E+02  0.24590595616E+02  0.51100000000E-03 0. -1.
        -11    1    4    4    0    0 -0.20708784662E-03 -0.60751125143E+00  0.62824562817E+01  0.63117610186E+01  0.51100000000E-03 0.  1.
         12    1    4    4    0    0 -0.19158644638E+02  0.87305738093E+01  0.10359387669E+02  0.23464728771E+02  0.00000000000E+00 0. -1.
</event>
<event>
 8    1  0.1278459E-006  0.9118800E+02  0.7816164E-02  0.1184000E+00
        -11   -1    0    0    0    0  0.00000000000E+00  0.00000000000E+00  0.45593999997E+02  0.45594000000E+02  0.51100000000E-03 0.  1.
         11   -1    0    0    0    0 -0.00000000000E+00 -0.00000000000E+00 -0.45593999997E+02  0.45594000000E+02  0.51100000000E-03 0. -1.
         23    2    1    2    0    0 -0.35527136788E-14  0.00000000000E+00 -0.35527136788E-14  0.91188000000E+02  0.91188000000E+02 0.  0.
    9900012    2    3    3    0    0 -0.20328424278E+02  0.19141985212E+02 -0.24002481722E+02  0.54367088003E+02  0.40000008720E+02 0.  0.
        -12    1    3    3    0    0  0.20328424278E+02 -0.19141985212E+02  0.24002481722E+02  0.36820911997E+02  0.00000000000E+00 0.  1.
         11    1    4    4    0    0 -0.13353767043E+01 -0.80296709558E+01 -0.16521692237E+02  0.18418066164E+02  0.51100000000E-03 0. -1.
        -11    1    4    4    0    0 -0.62342508805E+01  0.13771879793E+01 -0.13820026801E+01  0.65324162788E+01  0.51100000000E-03 0.  1.
         12    1    4    4    0    0 -0.12758796693E+02  0.25794468188E+02 -0.60987868053E+01  0.29416605560E+02  0.00000000000E+00 0. -1.
</event>
<event>
 8    1  0.1278459E-006  0.9118800E+02  0.7816164E-02  0.1184000E+00
        -11   -1    0    0    0    0  0.00000000000E+00  0.00000000000E+00  0.45593999997E+02  0.45594000000E+02  0.51100000000E-03 0.  1.
         11   -1    0    0    0    0 -0.00000000000E+00 -0.00000000000E+00 -0.45593999997E+02  0.45594000000E+02  0.51100000000E-03 0. -1.
         23    2    1    2    0    0  0.00000000000E+00 -0.35527136788E-14  0.00000000000E+00  0.91188000000E+02  0.91188000000E+02 0.  0.
    9900012    2    3    3    0    0 -0.80420703014E+01 -0.28741494037E+02  0.21564590151E+02  0.54367083083E+02  0.39999997505E+02 0.  0.
         12    1    3    3    0    0  0.80420703014E+01  0.28741494037E+02 -0.21564590151E+02  0.36820916917E+02  0.00000000000E+00 0. -1.
         11    1    4    4    0    0 -0.16474850212E+02 -0.27539486210E+01  0.53349270055E+01  0.17534718958E+02  0.51100000000E-03 0. -1.
        -11    1    4    4    0    0 -0.58870061010E+01 -0.57058254779E+01  0.48014779624E+01  0.95009197503E+01  0.51100000000E-03 0.  1.
        -12    1    4    4    0    0  0.14319786012E+02 -0.20281719938E+02  0.11428185183E+02  0.27331444375E+02  0.00000000000E+00 0.  1.
</event>
<event>
 8    1  0.1278459E-006  0.9118800E+02  0.7816164E-02  0.1184000E+00
        -11   -1    0    0    0    0  0.00000000000E+00  0.00000000000E+00  0.45593999997E+02  0.45594000000E+02  0.51100000000E-03 0.  1.
         11   -1    0    0    0    0 -0.00000000000E+00 -0.00000000000E+00 -0.45593999997E+02  0.45594000000E+02  0.51100000000E-03 0. -1.
         23    2    1    2    0    0  0.00000000000E+00 -0.88817841970E-15  0.00000000000E+00  0.91188000000E+02  0.91188000000E+02 0.  0.
    9900012    2    3    3    0    0  0.35308925406E+02 -0.59639551323E+01 -0.85726932499E+01  0.54367081438E+02  0.39999993755E+02 0.  0.
         12    1    3    3    0    0 -0.35308925406E+02  0.59639551323E+01  0.85726932499E+01  0.36820918562E+02  0.00000000000E+00 0. -1.
         11    1    4    4    0    0  0.10930145031E+02  0.99986718075E+01 -0.12053027248E+02  0.19097564620E+02  0.51100000000E-03 0. -1.
        -11    1    4    4    0    0  0.68201635482E+01 -0.11439166052E+02 -0.62277997108E+01  0.14702198485E+02  0.51100000000E-03 0.  1.
         12    1    4    4    0    0  0.17558616827E+02 -0.45234608873E+01  0.97081337092E+01  0.20567318333E+02  0.00000000000E+00 0. -1.
</event>
<event>
 8    1  0.1278459E-006  0.9118800E+02  0.7816164E-02  0.1184000E+00
        -11   -1    0    0    0    0  0.00000000000E+00  0.00000000000E+00  0.45593999997E+02  0.45594000000E+02  0.51100000000E-03 0.  1.
         11   -1    0    0    0    0 -0.00000000000E+00 -0.00000000000E+00 -0.45593999997E+02  0.45594000000E+02  0.51100000000E-03 0. -1.
         23    2    1    2    0    0 -0.88817841970E-15  0.00000000000E+00  0.00000000000E+00  0.91188000000E+02  0.91188000000E+02 0.  0.
    9900012    2    3    3    0    0 -0.67379470782E+01 -0.33759540331E+02 -0.13064174526E+02  0.54367093572E+02  0.40000021415E+02 0.  0.
        -12    1    3    3    0    0  0.67379470782E+01  0.33759540331E+02  0.13064174526E+02  0.36820906428E+02  0.00000000000E+00 0.  1.
         11    1    4    4    0    0  0.45934648321E+01 -0.19945286299E+02 -0.13400755982E+02  0.24464149809E+02  0.51100000000E-03 0. -1.
        -11    1    4    4    0    0 -0.86479004368E+01 -0.18549873653E+02  0.66941512787E+01  0.21533593664E+02  0.51100000000E-03 0.  1.
         12    1    4    4    0    0 -0.26835114735E+01  0.47356196209E+01 -0.63575698228E+01  0.83693500987E+01  0.00000000000E+00 0. -1.
</event>
<event>
 8    1  0.1278459E-006  0.9118800E+02  0.7816164E-02  0.1184000E+00
        -11   -1    0    0    0    0  0.00000000000E+00  0.00000000000E+00  0.45593999997E+02  0.45594000000E+02  0.51100000000E-03 0.  1.
         11   -1    0    0    0    0 -0.00000000000E+00 -0.00000000000E+00 -0.45593999997E+02  0.45594000000E+02  0.51100000000E-03 0. -1.
         23    2    1    2    0    0  0.00000000000E+00  0.00000000000E+00  0.71054273576E-14  0.91188000000E+02  0.91188000000E+02 0.  0.
    9900012    2    3    3    0    0 -0.16416631953E+02 -0.23521413293E+02 -0.23087239760E+02  0.54367036844E+02  0.39999892094E+02 0.  0.
        -12    1    3    3    0    0  0.16416631953E+02  0.23521413293E+02  0.23087239760E+02  0.36820963156E+02  0.00000000000E+00 0.  1.
         11    1    4    4    0    0  0.17725687194E+01 -0.11365002881E+02 -0.12004682476E+02  0.16625814024E+02  0.51100000000E-03 0. -1.
        -11    1    4    4    0    0 -0.43092864144E+01  0.93742583943E+01 -0.16792803546E+01  0.10453069052E+02  0.51100000000E-03 0.  1.
        -12    1    4    4    0    0 -0.13879914257E+02 -0.21530668807E+02 -0.94032769289E+01  0.27288153768E+02  0.00000000000E+00 0.  1.
</event>
<event>
 8    1  0.1278459E-006  0.9118800E+02  0.7816164E-02  0.1184000E+00
        -11   -1    0    0    0    0  0.00000000000E+00  0.00000000000E+00  0.45593999997E+02  0.45594000000E+02  0.51100000000E-03 0.  1.
         11   -1    0    0    0    0 -0.00000000000E+00 -0.00000000000E+00 -0.45593999997E+02  0.45594000000E+02  0.51100000000E-03 0. -1.
         23    2    1    2    0    0  0.00000000000E+00 -0.35527136788E-14  0.35527136788E-14  0.91188000000E+02  0.91188000000E+02 0.  0.
    9900012    2    3    3    0    0 -0.10250020900E+02  0.19068259677E+02 -0.29784532006E+02  0.54367084716E+02  0.40000001227E+02 0.  0.
        -12    1    3    3    0    0  0.10250020900E+02 -0.19068259677E+02  0.29784532006E+02  0.36820915284E+02  0.00000000000E+00 0.  1.
         11    1    4    4    0    0 -0.99257027904E+01  0.33161387357E+01 -0.80382197887E+01  0.13195807275E+02  0.51100000000E-03 0. -1.
        -11    1    4    4    0    0 -0.26416684737E+01  0.14740484996E+02  0.38404121734E+01  0.15459918375E+02  0.51100000000E-03 0.  1.
         12    1    4    4    0    0  0.23173503636E+01  0.10116359450E+01 -0.25586724390E+02  0.25711359066E+02  0.00000000000E+00 0. -1.
</event>
<event>
 8    1  0.1278459E-006  0.9118800E+02  0.7816164E-02  0.1184000E+00
        -11   -1    0    0    0    0  0.00000000000E+00  0.00000000000E+00  0.45593999997E+02  0.45594000000E+02  0.51100000000E-03 0.  1.
         11   -1    0    0    0    0 -0.00000000000E+00 -0.00000000000E+00 -0.45593999997E+02  0.45594000000E+02  0.51100000000E-03 0. -1.
         23    2    1    2    0    0  0.26645352591E-14  0.00000000000E+00  0.00000000000E+00  0.91188000000E+02  0.91188000000E+02 0.  0.
    9900012    2    3    3    0    0 -0.56465862797E+01  0.34739065340E+02  0.10820975285E+02  0.54367080628E+02  0.39999991908E+02 0.  0.
        -12    1    3    3    0    0  0.56465862797E+01 -0.34739065340E+02 -0.10820975285E+02  0.36820919372E+02  0.00000000000E+00 0.  1.
         11    1    4    4    0    0  0.71223969471E+01 -0.20215483329E+01 -0.33831417099E+01  0.81400764139E+01  0.51100000000E-03 0. -1.
        -11    1    4    4    0    0 -0.14116839629E+02  0.12909065297E+02  0.15474488613E+01  0.19191761936E+02  0.51100000000E-03 0.  1.
         12    1    4    4    0    0  0.13478564027E+01  0.23851548376E+02  0.12656668134E+02  0.27035242278E+02  0.00000000000E+00 0. -1.
</event>
<event>
 8    1  0.1278459E-006  0.9118800E+02  0.7816164E-02  0.1184000E+00
        -11   -1    0    0    0    0  0.00000000000E+00  0.00000000000E+00  0.45593999997E+02  0.45594000000E+02  0.51100000000E-03 0.  1.
         11   -1    0    0    0    0 -0.00000000000E+00 -0.00000000000E+00 -0.45593999997E+02  0.45594000000E+02  0.51100000000E-03 0. -1.
         23    2    1    2    0    0  0.00000000000E+00 -0.35527136788E-14  0.00000000000E+00  0.91188000000E+02  0.91188000000E+02 0.  0.
    9900012    2    3    3    0    0 -0.20489337542E+02 -0.24586579441E+02  0.18206266972E+02  0.54367068472E+02  0.39999964196E+02 0.  0.
         12    1    3    3    0    0  0.20489337542E+02  0.24586579441E+02 -0.18206266972E+02  0.36820931528E+02  0.00000000000E+00 0. -1.
         11    1    4    4    0    0 -0.13219175470E+02 -0.18628951230E+01  0.15593353941E+02  0.20527290755E+02  0.51100000000E-03 0. -1.
        -11    1    4    4    0    0 -0.11966772276E+02 -0.18034555803E+02  0.10057565529E+02  0.23866366844E+02  0.51100000000E-03 0.  1.
         12    1    4    4    0    0  0.46966102037E+01 -0.46891285152E+01 -0.74446524979E+01  0.99734108735E+01  0.00000000000E+00 0. -1.
</event>
<event>
 8    1  0.1278459E-006  0.9118800E+02  0.7816164E-02  0.1184000E+00
        -11   -1    0    0    0    0  0.00000000000E+00  0.00000000000E+00  0.45593999997E+02  0.45594000000E+02  0.51100000000E-03 0.  1.
         11   -1    0    0    0    0 -0.00000000000E+00 -0.00000000000E+00 -0.45593999997E+02  0.45594000000E+02  0.51100000000E-03 0. -1.
         23    2    1    2    0    0  0.35527136788E-14  0.35527136788E-14 -0.35527136788E-14  0.91188000000E+02  0.91188000000E+02 0.  0.
    9900012    2    3    3    0    0  0.16278670045E+02  0.23843787725E+02 -0.22853012709E+02  0.54367061644E+02  0.39999948630E+02 0.  0.
        -12    1    3    3    0    0 -0.16278670045E+02 -0.23843787725E+02  0.22853012709E+02  0.36820938356E+02  0.00000000000E+00 0.  1.
         11    1    4    4    0    0 -0.53911559382E+01  0.11606768627E+02 -0.15999610834E+00  0.12798720222E+02  0.51100000000E-03 0. -1.
        -11    1    4    4    0    0  0.59420160279E+01 -0.64409228219E+01 -0.12128580726E+02  0.14963138440E+02  0.51100000000E-03 0.  1.
         12    1    4    4    0    0  0.15727809956E+02  0.18677941920E+02 -0.10564435875E+02  0.26605202982E+02  0.00000000000E+00 0. -1.
</event>
<event>
 8    1  0.1278459E-006  0.9118800E+02  0.7816164E-02  0.1184000E+00
        -11   -1    0    0    0    0  0.00000000000E+00  0.00000000000E+00  0.45593999997E+02  0.45594000000E+02  0.51100000000E-03 0.  1.
         11   -1    0    0    0    0 -0.00000000000E+00 -0.00000000000E+00 -0.45593999997E+02  0.45594000000E+02  0.51100000000E-03 0. -1.
         23    2    1    2    0    0  0.00000000000E+00 -0.31086244690E-14  0.00000000000E+00  0.91188000000E+02  0.91188000000E+02 0.  0.
    9900012    2    3    3    0    0 -0.12133108783E+02  0.36893410293E+01  0.34568135202E+02  0.54367088315E+02  0.40000009431E+02 0.  0.
         12    1    3    3    0    0  0.12133108783E+02 -0.36893410293E+01 -0.34568135202E+02  0.36820911685E+02  0.00000000000E+00 0. -1.
         11    1    4    4    0    0 -0.10262831689E+02 -0.11349214910E+02  0.54723535703E+01  0.16250447601E+02  0.51100000000E-03 0. -1.
        -11    1    4    4    0    0 -0.10065892333E+02  0.12339627303E+02  0.20221531493E+02  0.25739054501E+02  0.51100000000E-03 0.  1.
         12    1    4    4    0    0  0.81956152389E+01  0.26989286368E+01  0.88742501387E+01  0.12377586213E+02  0.00000000000E+00 0. -1.
</event>
<event>
 8    1  0.1278459E-006  0.9118800E+02  0.7816164E-02  0.1184000E+00
        -11   -1    0    0    0    0  0.00000000000E+00  0.00000000000E+00  0.45593999997E+02  0.45594000000E+02  0.51100000000E-03 0.  1.
         11   -1    0    0    0    0 -0.00000000000E+00 -0.00000000000E+00 -0.45593999997E+02  0.45594000000E+02  0.51100000000E-03 0. -1.
         23    2    1    2    0    0  0.00000000000E+00  0.00000000000E+00  0.00000000000E+00  0.91188000000E+02  0.91188000000E+02 0.  0.
    9900012    2    3    3    0    0  0.21012961859E+02 -0.28060903805E+02  0.11261488893E+02  0.54367081753E+02  0.39999994473E+02 0.  0.
         12    1    3    3    0    0 -0.21012961859E+02  0.28060903805E+02 -0.11261488893E+02  0.36820918247E+02  0.00000000000E+00 0. -1.
         11    1    4    4    0    0  0.12533889090E+02  0.52638914615E+01  0.14448506791E+01  0.13670937158E+02  0.51100000000E-03 0. -1.
        -11    1    4    4    0    0  0.10954185488E+02 -0.26061935225E+02  0.14432855045E+02  0.31741549307E+02  0.51100000000E-03 0.  1.
        -12    1    4    4    0    0 -0.24751127183E+01 -0.72628600417E+01 -0.46162168316E+01  0.89545952890E+01  0.00000000000E+00 0.  1.
</event>
<event>
 8    1  0.1278459E-006  0.9118800E+02  0.7816164E-02  0.1184000E+00
        -11   -1    0    0    0    0  0.00000000000E+00  0.00000000000E+00  0.45593999997E+02  0.45594000000E+02  0.51100000000E-03 0.  1.
         11   -1    0    0    0    0 -0.00000000000E+00 -0.00000000000E+00 -0.45593999997E+02  0.45594000000E+02  0.51100000000E-03 0. -1.
         23    2    1    2    0    0  0.00000000000E+00  0.35527136788E-14  0.00000000000E+00  0.91188000000E+02  0.91188000000E+02 0.  0.
    9900012    2    3    3    0    0 -0.24355226384E+02  0.17288741406E+02 -0.21533748102E+02  0.54367082861E+02  0.39999996999E+02 0.  0.
        -12    1    3    3    0    0  0.24355226384E+02 -0.17288741406E+02  0.21533748102E+02  0.36820917139E+02  0.00000000000E+00 0.  1.
         11    1    4    4    0    0 -0.10151688666E+02  0.12551608502E+02  0.27842600890E-01  0.16143123435E+02  0.51100000000E-03 0. -1.
        -11    1    4    4    0    0 -0.16176732589E+02  0.34337094282E+01 -0.40942457255E-02  0.16537141674E+02  0.51100000000E-03 0.  1.
         12    1    4    4    0    0  0.19731948712E+01  0.13034234760E+01 -0.21557496457E+02  0.21686817753E+02  0.00000000000E+00 0. -1.
</event>
<event>
 8    1  0.1278459E-006  0.9118800E+02  0.7816164E-02  0.1184000E+00
        -11   -1    0    0    0    0  0.00000000000E+00  0.00000000000E+00  0.45593999997E+02  0.45594000000E+02  0.51100000000E-03 0.  1.
         11   -1    0    0    0    0 -0.00000000000E+00 -0.00000000000E+00 -0.45593999997E+02  0.45594000000E+02  0.51100000000E-03 0. -1.
         23    2    1    2    0    0  0.00000000000E+00  0.35527136788E-14  0.00000000000E+00  0.91188000000E+02  0.91188000000E+02 0.  0.
    9900012    2    3    3    0    0 -0.28975248816E+02  0.18829441288E+02 -0.12714807222E+02  0.54367092544E+02  0.40000019073E+02 0.  0.
        -12    1    3    3    0    0  0.28975248816E+02 -0.18829441288E+02  0.12714807222E+02  0.36820907456E+02  0.00000000000E+00 0.  1.
         11    1    4    4    0    0 -0.28717294706E+02  0.17582133140E+02 -0.84225886274E+01  0.34709572461E+02  0.51100000000E-03 0. -1.
        -11    1    4    4    0    0  0.63146646836E+01  0.46929598700E+01 -0.81209419113E+01  0.11307013761E+02  0.51100000000E-03 0.  1.
        -12    1    4    4    0    0 -0.65726187941E+01 -0.34456517222E+01  0.38287233162E+01  0.83505063221E+01  0.00000000000E+00 0.  1.
</event>
<event>
 8    1  0.1278459E-006  0.9118800E+02  0.7816164E-02  0.1184000E+00
        -11   -1    0    0    0    0  0.00000000000E+00  0.00000000000E+00  0.45593999997E+02  0.45594000000E+02  0.51100000000E-03 0. -1.
         11   -1    0    0    0    0 -0.00000000000E+00 -0.00000000000E+00 -0.45593999997E+02  0.45594000000E+02  0.51100000000E-03 0.  1.
         23    2    1    2    0    0  0.00000000000E+00  0.35527136788E-14  0.00000000000E+00  0.91188000000E+02  0.91188000000E+02 0.  0.
    9900012    2    3    3    0    0 -0.22477258717E+02  0.20814470457E+02 -0.20428187445E+02  0.54367079559E+02  0.39999989471E+02 0.  0.
         12    1    3    3    0    0  0.22477258717E+02 -0.20814470457E+02  0.20428187445E+02  0.36820920441E+02  0.00000000000E+00 0. -1.
         11    1    4    4    0    0 -0.26058972625E+02  0.28560381319E+02 -0.17025846136E+02  0.42245057371E+02  0.51100000000E-03 0. -1.
        -11    1    4    4    0    0 -0.15581569222E+01 -0.38015179000E+01 -0.38462830682E+01  0.56279023659E+01  0.51100000000E-03 0.  1.
         12    1    4    4    0    0  0.51398708294E+01 -0.39443929625E+01  0.44394175905E+00  0.64941198227E+01  0.00000000000E+00 0. -1.
</event>
<event>
 8    1  0.1278459E-006  0.9118800E+02  0.7816164E-02  0.1184000E+00
        -11   -1    0    0    0    0  0.00000000000E+00  0.00000000000E+00  0.45593999997E+02  0.45594000000E+02  0.51100000000E-03 0.  1.
         11   -1    0    0    0    0 -0.00000000000E+00 -0.00000000000E+00 -0.45593999997E+02  0.45594000000E+02  0.51100000000E-03 0. -1.
         23    2    1    2    0    0  0.00000000000E+00  0.35527136788E-14  0.00000000000E+00  0.91188000000E+02  0.91188000000E+02 0.  0.
    9900012    2    3    3    0    0 -0.23547675550E+02  0.26278102650E+02 -0.10523732652E+02  0.54367073184E+02  0.39999974937E+02 0.  0.
        -12    1    3    3    0    0  0.23547675550E+02 -0.26278102650E+02  0.10523732652E+02  0.36820926816E+02  0.00000000000E+00 0.  1.
         11    1    4    4    0    0 -0.12483619399E+02  0.18433776359E+02 -0.15343882164E+01  0.22315895940E+02  0.51100000000E-03 0. -1.
        -11    1    4    4    0    0  0.63125334928E+01  0.11322723130E+02 -0.49419743004E+01  0.13873544912E+02  0.51100000000E-03 0.  1.
         12    1    4    4    0    0 -0.17376589643E+02 -0.34783968384E+01 -0.40473701355E+01  0.18177632332E+02  0.00000000000E+00 0. -1.
</event>
<event>
 8    1  0.1278459E-006  0.9118800E+02  0.7816164E-02  0.1184000E+00
        -11   -1    0    0    0    0  0.00000000000E+00  0.00000000000E+00  0.45593999997E+02  0.45594000000E+02  0.51100000000E-03 0.  1.
         11   -1    0    0    0    0 -0.00000000000E+00 -0.00000000000E+00 -0.45593999997E+02  0.45594000000E+02  0.51100000000E-03 0. -1.
         23    2    1    2    0    0  0.00000000000E+00 -0.17763568394E-14 -0.17763568394E-14  0.91188000000E+02  0.91188000000E+02 0.  0.
    9900012    2    3    3    0    0  0.33188628319E+02  0.83242016230E+01 -0.13601539987E+02  0.54367091912E+02  0.40000017633E+02 0.  0.
        -12    1    3    3    0    0 -0.33188628319E+02 -0.83242016230E+01  0.13601539987E+02  0.36820908088E+02  0.00000000000E+00 0.  1.
         11    1    4    4    0    0  0.25840128015E+01  0.67698802783E+01 -0.98138053632E+01  0.12199146573E+02  0.51100000000E-03 0. -1.
        -11    1    4    4    0    0  0.16012179835E+02 -0.15402152995E+01 -0.16149872008E+02  0.22794309210E+02  0.51100000000E-03 0.  1.
        -12    1    4    4    0    0  0.14592435682E+02  0.30945366443E+01  0.12362137383E+02  0.19373636129E+02  0.00000000000E+00 0.  1.
</event>
<event>
 8    1  0.1278459E-006  0.9118800E+02  0.7816164E-02  0.1184000E+00
        -11   -1    0    0    0    0  0.00000000000E+00  0.00000000000E+00  0.45593999997E+02  0.45594000000E+02  0.51100000000E-03 0. -1.
         11   -1    0    0    0    0 -0.00000000000E+00 -0.00000000000E+00 -0.45593999997E+02  0.45594000000E+02  0.51100000000E-03 0.  1.
         23    2    1    2    0    0  0.00000000000E+00  0.17763568394E-14  0.00000000000E+00  0.91188000000E+02  0.91188000000E+02 0.  0.
    9900012    2    3    3    0    0  0.15391168505E+02  0.45677882581E+01 -0.33136506295E+02  0.54367071074E+02  0.39999970128E+02 0.  0.
         12    1    3    3    0    0 -0.15391168505E+02 -0.45677882581E+01  0.33136506295E+02  0.36820928926E+02  0.00000000000E+00 0. -1.
         11    1    4    4    0    0 -0.44923641171E+01  0.96304040273E+01 -0.46857109123E+01  0.11613866889E+02  0.51100000000E-03 0. -1.
        -11    1    4    4    0    0  0.22745510658E+02 -0.98837385216E+01 -0.27561130034E+02  0.37076440380E+02  0.51100000000E-03 0.  1.
        -12    1    4    4    0    0 -0.28619780359E+01  0.48211227523E+01 -0.88966534832E+00  0.56767638054E+01  0.00000000000E+00 0.  1.
</event>
<event>
 8    1  0.1278459E-006  0.9118800E+02  0.7816164E-02  0.1184000E+00
        -11   -1    0    0    0    0  0.00000000000E+00  0.00000000000E+00  0.45593999997E+02  0.45594000000E+02  0.51100000000E-03 0. -1.
         11   -1    0    0    0    0 -0.00000000000E+00 -0.00000000000E+00 -0.45593999997E+02  0.45594000000E+02  0.51100000000E-03 0.  1.
         23    2    1    2    0    0  0.00000000000E+00  0.88817841970E-15  0.00000000000E+00  0.91188000000E+02  0.91188000000E+02 0.  0.
    9900012    2    3    3    0    0  0.61513300150E+01  0.38594252161E+01 -0.36097744397E+02  0.54367066083E+02  0.39999958750E+02 0.  0.
         12    1    3    3    0    0 -0.61513300150E+01 -0.38594252161E+01  0.36097744397E+02  0.36820933917E+02  0.00000000000E+00 0. -1.
         11    1    4    4    0    0  0.13432642085E+02 -0.10519971807E+02 -0.22063270170E+02  0.27890743465E+02  0.51100000000E-03 0. -1.
        -11    1    4    4    0    0 -0.59711119104E+01 -0.16143264168E+01 -0.56172706770E+01  0.83554746930E+01  0.51100000000E-03 0.  1.
        -12    1    4    4    0    0 -0.13102001599E+01  0.15993723440E+02 -0.84172035502E+01  0.18120847925E+02  0.00000000000E+00 0.  1.
</event>
<event>
 8    1  0.1278459E-006  0.9118800E+02  0.7816164E-02  0.1184000E+00
        -11   -1    0    0    0    0  0.00000000000E+00  0.00000000000E+00  0.45593999997E+02  0.45594000000E+02  0.51100000000E-03 0. -1.
         11   -1    0    0    0    0 -0.00000000000E+00 -0.00000000000E+00 -0.45593999997E+02  0.45594000000E+02  0.51100000000E-03 0.  1.
         23    2    1    2    0    0  0.00000000000E+00  0.88817841970E-15  0.00000000000E+00  0.91188000000E+02  0.91188000000E+02 0.  0.
    9900012    2    3    3    0    0 -0.34006903408E+02  0.25511980016E+01 -0.13885305465E+02  0.54367084768E+02  0.40000001345E+02 0.  0.
        -12    1    3    3    0    0  0.34006903408E+02 -0.25511980016E+01  0.13885305465E+02  0.36820915232E+02  0.00000000000E+00 0.  1.
         11    1    4    4    0    0 -0.29633857690E+02 -0.44450805390E+01 -0.24785567610E+01  0.30067715352E+02  0.51100000000E-03 0. -1.
        -11    1    4    4    0    0  0.71804785900E+01  0.83250247304E+00 -0.79724810437E+01  0.10761634978E+02  0.51100000000E-03 0.  1.
        -12    1    4    4    0    0 -0.11553524308E+02  0.61637760676E+01 -0.34342676601E+01  0.13537734438E+02  0.00000000000E+00 0.  1.
</event>
<event>
 8    1  0.1278459E-006  0.9118800E+02  0.7816164E-02  0.1184000E+00
        -11   -1    0    0    0    0  0.00000000000E+00  0.00000000000E+00  0.45593999997E+02  0.45594000000E+02  0.51100000000E-03 0. -1.
         11   -1    0    0    0    0 -0.00000000000E+00 -0.00000000000E+00 -0.45593999997E+02  0.45594000000E+02  0.51100000000E-03 0.  1.
         23    2    1    2    0    0  0.88817841970E-15  0.00000000000E+00  0.35527136788E-14  0.91188000000E+02  0.91188000000E+02 0.  0.
    9900012    2    3    3    0    0 -0.67669848241E+01  0.31237978385E+02 -0.18280433709E+02  0.54367114164E+02  0.40000068359E+02 0.  0.
         12    1    3    3    0    0  0.67669848241E+01 -0.31237978385E+02  0.18280433709E+02  0.36820885836E+02  0.00000000000E+00 0. -1.
         11    1    4    4    0    0 -0.49325815539E+01  0.70550002324E+01  0.63494817728E+01  0.10696696130E+02  0.51100000000E-03 0. -1.
        -11    1    4    4    0    0 -0.47530631604E+01  0.17989175427E+02 -0.52714040582E+00  0.18613971076E+02  0.51100000000E-03 0.  1.
        -12    1    4    4    0    0  0.29186598902E+01  0.61938027253E+01 -0.24102775075E+02  0.25056446957E+02  0.00000000000E+00 0.  1.
</event>
<event>
 8    1  0.1278459E-006  0.9118800E+02  0.7816164E-02  0.1184000E+00
        -11   -1    0    0    0    0  0.00000000000E+00  0.00000000000E+00  0.45593999997E+02  0.45594000000E+02  0.51100000000E-03 0. -1.
         11   -1    0    0    0    0 -0.00000000000E+00 -0.00000000000E+00 -0.45593999997E+02  0.45594000000E+02  0.51100000000E-03 0.  1.
         23    2    1    2    0    0  0.00000000000E+00  0.00000000000E+00  0.00000000000E+00  0.91188000000E+02  0.91188000000E+02 0.  0.
    9900012    2    3    3    0    0  0.19027719381E+02 -0.16625519624E+02 -0.26782804293E+02  0.54367073702E+02  0.39999976119E+02 0.  0.
         12    1    3    3    0    0 -0.19027719381E+02  0.16625519624E+02  0.26782804293E+02  0.36820926298E+02  0.00000000000E+00 0. -1.
         11    1    4    4    0    0 -0.22097317530E+01  0.43539724447E+01  0.32711454405E+01  0.58771067051E+01  0.51100000000E-03 0. -1.
        -11    1    4    4    0    0  0.25976998369E+02 -0.15378177367E+02 -0.27143643985E+02  0.40596430785E+02  0.51100000000E-03 0.  1.
        -12    1    4    4    0    0 -0.47395472356E+01 -0.56013147017E+01 -0.29103057488E+01  0.78935362124E+01  0.00000000000E+00 0.  1.
</event>
<event>
 8    1  0.1278459E-006  0.9118800E+02  0.7816164E-02  0.1184000E+00
        -11   -1    0    0    0    0  0.00000000000E+00  0.00000000000E+00  0.45593999997E+02  0.45594000000E+02  0.51100000000E-03 0. -1.
         11   -1    0    0    0    0 -0.00000000000E+00 -0.00000000000E+00 -0.45593999997E+02  0.45594000000E+02  0.51100000000E-03 0.  1.
         23    2    1    2    0    0  0.88817841970E-15  0.00000000000E+00 -0.17763568394E-14  0.91188000000E+02  0.91188000000E+02 0.  0.
    9900012    2    3    3    0    0  0.70131019296E+01  0.33916593505E+02 -0.12500424092E+02  0.54367088603E+02  0.40000010087E+02 0.  0.
         12    1    3    3    0    0 -0.70131019296E+01 -0.33916593505E+02  0.12500424092E+02  0.36820911397E+02  0.00000000000E+00 0. -1.
         11    1    4    4    0    0 -0.16864376280E+01  0.73591720043E+01  0.59947541732E+01  0.96404648394E+01  0.51100000000E-03 0. -1.
        -11    1    4    4    0    0  0.14149515918E+02  0.29628417496E+02 -0.19792437066E+02  0.38337872780E+02  0.51100000000E-03 0.  1.
         12    1    4    4    0    0 -0.54499763607E+01 -0.30709959947E+01  0.12972588010E+01  0.63887509834E+01  0.00000000000E+00 0. -1.
</event>
<event>
 8    1  0.1278459E-006  0.9118800E+02  0.7816164E-02  0.1184000E+00
        -11   -1    0    0    0    0  0.00000000000E+00  0.00000000000E+00  0.45593999997E+02  0.45594000000E+02  0.51100000000E-03 0.  1.
         11   -1    0    0    0    0 -0.00000000000E+00 -0.00000000000E+00 -0.45593999997E+02  0.45594000000E+02  0.51100000000E-03 0. -1.
         23    2    1    2    0    0  0.00000000000E+00  0.00000000000E+00  0.33306690739E-15  0.91188000000E+02  0.91188000000E+02 0.  0.
    9900012    2    3    3    0    0  0.66131714128E+01 -0.36220650147E+02 -0.33132553503E+00  0.54367091405E+02  0.40000016475E+02 0.  0.
        -12    1    3    3    0    0 -0.66131714128E+01  0.36220650147E+02  0.33132553503E+00  0.36820908595E+02  0.00000000000E+00 0.  1.
         11    1    4    4    0    0  0.81305333400E+01 -0.20030478116E+02  0.80250394087E+01  0.23059203883E+02  0.51100000000E-03 0. -1.
        -11    1    4    4    0    0  0.36112012743E+01 -0.21975729391E+02 -0.47252495037E+01  0.22766234648E+02  0.51100000000E-03 0.  1.
        -12    1    4    4    0    0 -0.51285632015E+01  0.57855573601E+01 -0.36311154400E+01  0.85416528738E+01  0.00000000000E+00 0.  1.
</event>
<event>
 8    1  0.1278459E-006  0.9118800E+02  0.7816164E-02  0.1184000E+00
        -11   -1    0    0    0    0  0.00000000000E+00  0.00000000000E+00  0.45593999997E+02  0.45594000000E+02  0.51100000000E-03 0. -1.
         11   -1    0    0    0    0 -0.00000000000E+00 -0.00000000000E+00 -0.45593999997E+02  0.45594000000E+02  0.51100000000E-03 0.  1.
         23    2    1    2    0    0  0.00000000000E+00  0.35527136788E-14  0.88817841970E-15  0.91188000000E+02  0.91188000000E+02 0.  0.
    9900012    2    3    3    0    0  0.20602091771E+02  0.30373030009E+02  0.29687586714E+01  0.54367072998E+02  0.39999974512E+02 0.  0.
         12    1    3    3    0    0 -0.20602091771E+02 -0.30373030009E+02 -0.29687586714E+01  0.36820927002E+02  0.00000000000E+00 0. -1.
         11    1    4    4    0    0 -0.47741153701E+01 -0.33010822763E+01 -0.14612254753E+01  0.59853572920E+01  0.51100000000E-03 0. -1.
        -11    1    4    4    0    0  0.16234057039E+02  0.24450108094E+02 -0.79845919534E+01  0.30415556918E+02  0.51100000000E-03 0.  1.
        -12    1    4    4    0    0  0.91421501027E+01  0.92240041915E+01  0.12414576100E+02  0.17966158787E+02  0.00000000000E+00 0.  1.
</event>
<event>
 8    1  0.1278459E-006  0.9118800E+02  0.7816164E-02  0.1184000E+00
        -11   -1    0    0    0    0  0.00000000000E+00  0.00000000000E+00  0.45593999997E+02  0.45594000000E+02  0.51100000000E-03 0. -1.
         11   -1    0    0    0    0 -0.00000000000E+00 -0.00000000000E+00 -0.45593999997E+02  0.45594000000E+02  0.51100000000E-03 0.  1.
         23    2    1    2    0    0  0.00000000000E+00  0.17763568394E-14  0.00000000000E+00  0.91188000000E+02  0.91188000000E+02 0.  0.
    9900012    2    3    3    0    0 -0.33413755404E+02  0.14417057705E+02 -0.56079673815E+01  0.54367083374E+02  0.39999998167E+02 0.  0.
         12    1    3    3    0    0  0.33413755404E+02 -0.14417057705E+02  0.56079673815E+01  0.36820916626E+02  0.00000000000E+00 0. -1.
         11    1    4    4    0    0 -0.96401176575E+01  0.10258621913E+02 -0.38562356058E+01  0.14595949620E+02  0.51100000000E-03 0. -1.
        -11    1    4    4    0    0 -0.26986626739E+02  0.11613824713E+02  0.42362597979E+01  0.29683410258E+02  0.51100000000E-03 0.  1.
         12    1    4    4    0    0  0.32129889933E+01 -0.74553889209E+01 -0.59879915736E+01  0.10087723495E+02  0.00000000000E+00 0. -1.
</event>
<event>
 8    1  0.1278459E-006  0.9118800E+02  0.7816164E-02  0.1184000E+00
        -11   -1    0    0    0    0  0.00000000000E+00  0.00000000000E+00  0.45593999997E+02  0.45594000000E+02  0.51100000000E-03 0. -1.
         11   -1    0    0    0    0 -0.00000000000E+00 -0.00000000000E+00 -0.45593999997E+02  0.45594000000E+02  0.51100000000E-03 0.  1.
         23    2    1    2    0    0  0.00000000000E+00 -0.71054273576E-14 -0.17763568394E-14  0.91188000000E+02  0.91188000000E+02 0.  0.
    9900012    2    3    3    0    0  0.21099971911E+02 -0.26154839835E+02  0.15049719243E+02  0.54367102255E+02  0.40000041211E+02 0.  0.
        -12    1    3    3    0    0 -0.21099971911E+02  0.26154839835E+02 -0.15049719243E+02  0.36820897745E+02  0.00000000000E+00 0.  1.
         11    1    4    4    0    0  0.36961174400E+01  0.54978440646E+01  0.62775748872E+01  0.91266379469E+01  0.51100000000E-03 0. -1.
        -11    1    4    4    0    0  0.90844164814E+01  0.97872207989E+00  0.70151671645E+01  0.11519422309E+02  0.51100000000E-03 0.  1.
         12    1    4    4    0    0  0.83194379897E+01 -0.32631405980E+02  0.17569771915E+01  0.33721041999E+02  0.00000000000E+00 0. -1.
</event>
<event>
 8    1  0.1278459E-006  0.9118800E+02  0.7816164E-02  0.1184000E+00
        -11   -1    0    0    0    0  0.00000000000E+00  0.00000000000E+00  0.45593999997E+02  0.45594000000E+02  0.51100000000E-03 0. -1.
         11   -1    0    0    0    0 -0.00000000000E+00 -0.00000000000E+00 -0.45593999997E+02  0.45594000000E+02  0.51100000000E-03 0.  1.
         23    2    1    2    0    0  0.00000000000E+00  0.35527136788E-14  0.17763568394E-14  0.91188000000E+02  0.91188000000E+02 0.  0.
    9900012    2    3    3    0    0 -0.27083477444E+02 -0.21033776086E+02  0.13410756754E+02  0.54367042875E+02  0.39999905842E+02 0.  0.
        -12    1    3    3    0    0  0.27083477444E+02  0.21033776086E+02 -0.13410756754E+02  0.36820957125E+02  0.00000000000E+00 0.  1.
         11    1    4    4    0    0 -0.10683067908E+02 -0.61136932975E+01  0.78771653477E+01  0.14613518393E+02  0.51100000000E-03 0. -1.
        -11    1    4    4    0    0 -0.15563915004E+02 -0.67843544238E+01 -0.11739735905E+02  0.20641809867E+02  0.51100000000E-03 0.  1.
        -12    1    4    4    0    0 -0.83649453188E+00 -0.81357283650E+01  0.17273327311E+02  0.19111714615E+02  0.00000000000E+00 0.  1.
</event>
<event>
 8    1  0.1278459E-006  0.9118800E+02  0.7816164E-02  0.1184000E+00
        -11   -1    0    0    0    0  0.00000000000E+00  0.00000000000E+00  0.45593999997E+02  0.45594000000E+02  0.51100000000E-03 0.  1.
         11   -1    0    0    0    0 -0.00000000000E+00 -0.00000000000E+00 -0.45593999997E+02  0.45594000000E+02  0.51100000000E-03 0. -1.
         23    2    1    2    0    0  0.44408920985E-15  0.00000000000E+00 -0.71054273576E-14  0.91188000000E+02  0.91188000000E+02 0.  0.
    9900012    2    3    3    0    0 -0.36820839288E+01  0.18399350628E+02 -0.31680987609E+02  0.54367098035E+02  0.40000031591E+02 0.  0.
        -12    1    3    3    0    0  0.36820839288E+01 -0.18399350628E+02  0.31680987609E+02  0.36820901965E+02  0.00000000000E+00 0.  1.
         11    1    4    4    0    0 -0.76647773214E+01  0.19881775035E+02 -0.22976502180E+02  0.31336136371E+02  0.51100000000E-03 0. -1.
        -11    1    4    4    0    0  0.43624325100E+01  0.60226126462E+01  0.38691406133E+01  0.83828950749E+01  0.51100000000E-03 0.  1.
        -12    1    4    4    0    0 -0.37973911744E+00 -0.75050370530E+01 -0.12573626042E+02  0.14648066590E+02  0.00000000000E+00 0.  1.
</event>
<event>
 8    1  0.1278459E-006  0.9118800E+02  0.7816164E-02  0.1184000E+00
        -11   -1    0    0    0    0  0.00000000000E+00  0.00000000000E+00  0.45593999997E+02  0.45594000000E+02  0.51100000000E-03 0.  1.
         11   -1    0    0    0    0 -0.00000000000E+00 -0.00000000000E+00 -0.45593999997E+02  0.45594000000E+02  0.51100000000E-03 0. -1.
         23    2    1    2    0    0  0.17763568394E-14 -0.17763568394E-14  0.00000000000E+00  0.91188000000E+02  0.91188000000E+02 0.  0.
    9900012    2    3    3    0    0 -0.10094069024E+02  0.14814536136E+02  0.32162366451E+02  0.54367102047E+02  0.40000040736E+02 0.  0.
         12    1    3    3    0    0  0.10094069024E+02 -0.14814536136E+02 -0.32162366451E+02  0.36820897953E+02  0.00000000000E+00 0. -1.
         11    1    4    4    0    0  0.77590713580E+01  0.87646906237E+01 -0.10703536690E+01  0.11754516039E+02  0.51100000000E-03 0. -1.
        -11    1    4    4    0    0 -0.14013688048E+02 -0.30031276954E+01  0.10266264760E+02  0.17629475915E+02  0.51100000000E-03 0.  1.
        -12    1    4    4    0    0 -0.38394523340E+01  0.90529732073E+01  0.22966455360E+02  0.24983110093E+02  0.00000000000E+00 0.  1.
</event>
<event>
 8    1  0.1278459E-006  0.9118800E+02  0.7816164E-02  0.1184000E+00
        -11   -1    0    0    0    0  0.00000000000E+00  0.00000000000E+00  0.45593999997E+02  0.45594000000E+02  0.51100000000E-03 0.  1.
         11   -1    0    0    0    0 -0.00000000000E+00 -0.00000000000E+00 -0.45593999997E+02  0.45594000000E+02  0.51100000000E-03 0. -1.
         23    2    1    2    0    0  0.44408920985E-15  0.00000000000E+00  0.00000000000E+00  0.91188000000E+02  0.91188000000E+02 0.  0.
    9900012    2    3    3    0    0  0.18202892213E+01 -0.10582139442E+02  0.35220522657E+02  0.54367077357E+02  0.39999984451E+02 0.  0.
         12    1    3    3    0    0 -0.18202892213E+01  0.10582139442E+02 -0.35220522657E+02  0.36820922643E+02  0.00000000000E+00 0. -1.
         11    1    4    4    0    0 -0.30630158080E+01  0.11386534783E+02  0.14849021482E+01  0.11884450970E+02  0.51100000000E-03 0. -1.
        -11    1    4    4    0    0 -0.14637951036E+01 -0.11223283000E+02  0.24399943577E+02  0.26897249380E+02  0.51100000000E-03 0.  1.
        -12    1    4    4    0    0  0.63471001329E+01 -0.10745391224E+02  0.93356769324E+01  0.15585377007E+02  0.00000000000E+00 0.  1.
</event>
<event>
 8    1  0.1278459E-006  0.9118800E+02  0.7816164E-02  0.1184000E+00
        -11   -1    0    0    0    0  0.00000000000E+00  0.00000000000E+00  0.45593999997E+02  0.45594000000E+02  0.51100000000E-03 0. -1.
         11   -1    0    0    0    0 -0.00000000000E+00 -0.00000000000E+00 -0.45593999997E+02  0.45594000000E+02  0.51100000000E-03 0.  1.
         23    2    1    2    0    0  0.35527136788E-14  0.00000000000E+00 -0.41112946381E-15  0.91188000000E+02  0.91188000000E+02 0.  0.
    9900012    2    3    3    0    0  0.28840509707E+02 -0.22891159584E+02 -0.15203468896E-01  0.54367076350E+02  0.39999982155E+02 0.  0.
         12    1    3    3    0    0 -0.28840509707E+02  0.22891159584E+02  0.15203468896E-01  0.36820923650E+02  0.00000000000E+00 0. -1.
         11    1    4    4    0    0 -0.48673969738E+01 -0.92646540409E+01  0.70188485411E+01  0.12601174664E+02  0.51100000000E-03 0. -1.
        -11    1    4    4    0    0  0.21771127676E+02 -0.59289937126E+01  0.50445466197E+01  0.23121038419E+02  0.51100000000E-03 0.  1.
        -12    1    4    4    0    0  0.11936779005E+02 -0.76975118309E+01 -0.12078598630E+02  0.18644863268E+02  0.00000000000E+00 0.  1.
</event>
<event>
 8    1  0.1278459E-006  0.9118800E+02  0.7816164E-02  0.1184000E+00
        -11   -1    0    0    0    0  0.00000000000E+00  0.00000000000E+00  0.45593999997E+02  0.45594000000E+02  0.51100000000E-03 0.  1.
         11   -1    0    0    0    0 -0.00000000000E+00 -0.00000000000E+00 -0.45593999997E+02  0.45594000000E+02  0.51100000000E-03 0. -1.
         23    2    1    2    0    0  0.00000000000E+00  0.71054273576E-14  0.88817841970E-15  0.91188000000E+02  0.91188000000E+02 0.  0.
    9900012    2    3    3    0    0 -0.12549400981E+02  0.34074980399E+02  0.60981236767E+01  0.54367097423E+02  0.40000030196E+02 0.  0.
        -12    1    3    3    0    0  0.12549400981E+02 -0.34074980399E+02 -0.60981236767E+01  0.36820902577E+02  0.00000000000E+00 0.  1.
         11    1    4    4    0    0  0.27574297952E+00  0.18237079550E+02 -0.41981922666E+01  0.18716087285E+02  0.51100000000E-03 0. -1.
        -11    1    4    4    0    0  0.66506383582E+01  0.11779938445E+02  0.77615232310E+01  0.15596127194E+02  0.51100000000E-03 0.  1.
         12    1    4    4    0    0 -0.19475782319E+02  0.40579624046E+01  0.25347927124E+01  0.20054882944E+02  0.00000000000E+00 0. -1.
</event>
<event>
 8    1  0.1278459E-006  0.9118800E+02  0.7816164E-02  0.1184000E+00
        -11   -1    0    0    0    0  0.00000000000E+00  0.00000000000E+00  0.45593999997E+02  0.45594000000E+02  0.51100000000E-03 0.  1.
         11   -1    0    0    0    0 -0.00000000000E+00 -0.00000000000E+00 -0.45593999997E+02  0.45594000000E+02  0.51100000000E-03 0. -1.
         23    2    1    2    0    0 -0.35527136788E-14  0.11102230246E-15  0.71054273576E-14  0.91188000000E+02  0.91188000000E+02 0.  0.
    9900012    2    3    3    0    0  0.17484109314E+02 -0.52640998203E+00 -0.32400744378E+02  0.54367089878E+02  0.40000012995E+02 0.  0.
        -12    1    3    3    0    0 -0.17484109314E+02  0.52640998203E+00  0.32400744378E+02  0.36820910122E+02  0.00000000000E+00 0.  1.
         11    1    4    4    0    0  0.62149776626E+01  0.13273619896E-01 -0.18584058615E+02  0.19595748478E+02  0.51100000000E-03 0. -1.
        -11    1    4    4    0    0 -0.94966008739E+01 -0.38456348706E+01 -0.78699141752E+01  0.12919360863E+02  0.51100000000E-03 0.  1.
        -12    1    4    4    0    0  0.20765732525E+02  0.33059512687E+01 -0.59467715873E+01  0.21851980537E+02  0.00000000000E+00 0.  1.
</event>
<event>
 8    1  0.1278459E-006  0.9118800E+02  0.7816164E-02  0.1184000E+00
        -11   -1    0    0    0    0  0.00000000000E+00  0.00000000000E+00  0.45593999997E+02  0.45594000000E+02  0.51100000000E-03 0. -1.
         11   -1    0    0    0    0 -0.00000000000E+00 -0.00000000000E+00 -0.45593999997E+02  0.45594000000E+02  0.51100000000E-03 0.  1.
         23    2    1    2    0    0  0.00000000000E+00  0.88817841970E-15  0.00000000000E+00  0.91188000000E+02  0.91188000000E+02 0.  0.
    9900012    2    3    3    0    0 -0.77126064888E+01  0.62235626810E+01  0.35462131228E+02  0.54367084985E+02  0.40000001840E+02 0.  0.
        -12    1    3    3    0    0  0.77126064888E+01 -0.62235626810E+01 -0.35462131228E+02  0.36820915015E+02  0.00000000000E+00 0.  1.
         11    1    4    4    0    0  0.75735605037E+01  0.44574776007E+01  0.18930871515E+02  0.20871172029E+02  0.51100000000E-03 0. -1.
        -11    1    4    4    0    0 -0.10679512717E+02 -0.51328142065E+01 -0.30454943267E+01  0.12234083926E+02  0.51100000000E-03 0.  1.
        -12    1    4    4    0    0 -0.46066542754E+01  0.68988992869E+01  0.19576754039E+02  0.21261829030E+02  0.00000000000E+00 0.  1.
</event>
<event>
 8    1  0.1278459E-006  0.9118800E+02  0.7816164E-02  0.1184000E+00
        -11   -1    0    0    0    0  0.00000000000E+00  0.00000000000E+00  0.45593999997E+02  0.45594000000E+02  0.51100000000E-03 0.  1.
         11   -1    0    0    0    0 -0.00000000000E+00 -0.00000000000E+00 -0.45593999997E+02  0.45594000000E+02  0.51100000000E-03 0. -1.
         23    2    1    2    0    0 -0.71054273576E-14  0.00000000000E+00  0.00000000000E+00  0.91188000000E+02  0.91188000000E+02 0.  0.
    9900012    2    3    3    0    0  0.36387072625E+02 -0.33043680602E+01  0.45652686610E+01  0.54367087730E+02  0.40000008097E+02 0.  0.
        -12    1    3    3    0    0 -0.36387072625E+02  0.33043680602E+01 -0.45652686610E+01  0.36820912270E+02  0.00000000000E+00 0.  1.
         11    1    4    4    0    0  0.61340597515E+01  0.16829790928E+01 -0.20991355026E+01  0.66981697337E+01  0.51100000000E-03 0. -1.
        -11    1    4    4    0    0 -0.13737151929E+01  0.92745911658E+01  0.88680201608E+01  0.12905305752E+02  0.51100000000E-03 0.  1.
         12    1    4    4    0    0  0.31626728066E+02 -0.14261938319E+02 -0.22036159973E+01  0.34763612244E+02  0.00000000000E+00 0. -1.
</event>
<event>
 8    1  0.1278459E-006  0.9118800E+02  0.7816164E-02  0.1184000E+00
        -11   -1    0    0    0    0  0.00000000000E+00  0.00000000000E+00  0.45593999997E+02  0.45594000000E+02  0.51100000000E-03 0. -1.
         11   -1    0    0    0    0 -0.00000000000E+00 -0.00000000000E+00 -0.45593999997E+02  0.45594000000E+02  0.51100000000E-03 0.  1.
         23    2    1    2    0    0  0.17763568394E-14  0.35527136788E-14  0.00000000000E+00  0.91188000000E+02  0.91188000000E+02 0.  0.
    9900012    2    3    3    0    0 -0.11357290406E+02  0.23776480838E+02 -0.25719072268E+02  0.54367085227E+02  0.40000002392E+02 0.  0.
         12    1    3    3    0    0  0.11357290406E+02 -0.23776480838E+02  0.25719072268E+02  0.36820914773E+02  0.00000000000E+00 0. -1.
         11    1    4    4    0    0  0.76716473538E+01 -0.29862515089E+01 -0.79163805539E+01  0.11421074929E+02  0.51100000000E-03 0. -1.
        -11    1    4    4    0    0 -0.19910252679E+02  0.22481329850E+02 -0.21731530323E+02  0.37068689807E+02  0.51100000000E-03 0.  1.
        -12    1    4    4    0    0  0.88131491891E+00  0.42814024972E+01  0.39288386097E+01  0.58773204907E+01  0.00000000000E+00 0.  1.
</event>
<event>
 8    1  0.1278459E-006  0.9118800E+02  0.7816164E-02  0.1184000E+00
        -11   -1    0    0    0    0  0.00000000000E+00  0.00000000000E+00  0.45593999997E+02  0.45594000000E+02  0.51100000000E-03 0. -1.
         11   -1    0    0    0    0 -0.00000000000E+00 -0.00000000000E+00 -0.45593999997E+02  0.45594000000E+02  0.51100000000E-03 0.  1.
         23    2    1    2    0    0  0.00000000000E+00  0.00000000000E+00 -0.17763568394E-14  0.91188000000E+02  0.91188000000E+02 0.  0.
    9900012    2    3    3    0    0  0.31540222530E+02  0.11693232418E+02 -0.14975374888E+02  0.54367093239E+02  0.40000020657E+02 0.  0.
        -12    1    3    3    0    0 -0.31540222530E+02 -0.11693232418E+02  0.14975374888E+02  0.36820906761E+02  0.00000000000E+00 0.  1.
         11    1    4    4    0    0  0.68823189579E+01  0.80423697947E+01 -0.12364253060E+02  0.16276387196E+02  0.51100000000E-03 0. -1.
        -11    1    4    4    0    0  0.20218727443E+02 -0.11310862921E+01 -0.14240344456E+02  0.24756084224E+02  0.51100000000E-03 0.  1.
        -12    1    4    4    0    0  0.44391761293E+01  0.47819489159E+01  0.11629222628E+02  0.13334621819E+02  0.00000000000E+00 0.  1.
</event>
<event>
 8    1  0.1278459E-006  0.9118800E+02  0.7816164E-02  0.1184000E+00
        -11   -1    0    0    0    0  0.00000000000E+00  0.00000000000E+00  0.45593999997E+02  0.45594000000E+02  0.51100000000E-03 0. -1.
         11   -1    0    0    0    0 -0.00000000000E+00 -0.00000000000E+00 -0.45593999997E+02  0.45594000000E+02  0.51100000000E-03 0.  1.
         23    2    1    2    0    0  0.17763568394E-14 -0.71054273576E-14 -0.88817841970E-15  0.91188000000E+02  0.91188000000E+02 0.  0.
    9900012    2    3    3    0    0  0.11269862330E+02 -0.34362473175E+02 -0.69276802774E+01  0.54367053331E+02  0.39999929678E+02 0.  0.
         12    1    3    3    0    0 -0.11269862330E+02  0.34362473175E+02  0.69276802774E+01  0.36820946669E+02  0.00000000000E+00 0. -1.
         11    1    4    4    0    0  0.13408791364E+01 -0.56042482260E+01 -0.11571739265E+01  0.58774660181E+01  0.51100000000E-03 0. -1.
        -11    1    4    4    0    0  0.13799439951E+02 -0.33173555774E+02  0.49478818293E+01  0.36268317862E+02  0.51100000000E-03 0.  1.
         12    1    4    4    0    0 -0.38704567576E+01  0.44153308253E+01 -0.10718388180E+02  0.12221269451E+02  0.00000000000E+00 0. -1.
</event>
<event>
 8    1  0.1278459E-006  0.9118800E+02  0.7816164E-02  0.1184000E+00
        -11   -1    0    0    0    0  0.00000000000E+00  0.00000000000E+00  0.45593999997E+02  0.45594000000E+02  0.51100000000E-03 0.  1.
         11   -1    0    0    0    0 -0.00000000000E+00 -0.00000000000E+00 -0.45593999997E+02  0.45594000000E+02  0.51100000000E-03 0. -1.
         23    2    1    2    0    0  0.35527136788E-14  0.00000000000E+00 -0.35527136788E-14  0.91188000000E+02  0.91188000000E+02 0.  0.
    9900012    2    3    3    0    0 -0.20870570386E+02  0.17048093448E+02  0.25091052774E+02  0.54367093876E+02  0.40000022110E+02 0.  0.
         12    1    3    3    0    0  0.20870570386E+02 -0.17048093448E+02 -0.25091052774E+02  0.36820906124E+02  0.00000000000E+00 0. -1.
         11    1    4    4    0    0 -0.71881936449E+00  0.39875056862E+01  0.27063416251E+02  0.27365039782E+02  0.51100000000E-03 0. -1.
        -11    1    4    4    0    0 -0.11550344623E+02  0.94083074249E+00  0.16492332973E+01  0.11705366040E+02  0.51100000000E-03 0.  1.
         12    1    4    4    0    0 -0.86014063978E+01  0.12119757019E+02 -0.36215967736E+01  0.15296688054E+02  0.00000000000E+00 0. -1.
</event>
<event>
 8    1  0.1278459E-006  0.9118800E+02  0.7816164E-02  0.1184000E+00
        -11   -1    0    0    0    0  0.00000000000E+00  0.00000000000E+00  0.45593999997E+02  0.45594000000E+02  0.51100000000E-03 0. -1.
         11   -1    0    0    0    0 -0.00000000000E+00 -0.00000000000E+00 -0.45593999997E+02  0.45594000000E+02  0.51100000000E-03 0.  1.
         23    2    1    2    0    0 -0.35527136788E-14 -0.35527136788E-14 -0.44408920985E-15  0.91188000000E+02  0.91188000000E+02 0.  0.
    9900012    2    3    3    0    0  0.21308010929E+02 -0.29950375632E+02  0.21731106333E+01  0.54367099141E+02  0.40000034111E+02 0.  0.
         12    1    3    3    0    0 -0.21308010929E+02  0.29950375632E+02 -0.21731106333E+01  0.36820900859E+02  0.00000000000E+00 0. -1.
         11    1    4    4    0    0 -0.92555514616E+00 -0.20559449918E+01  0.37097657436E+01  0.43411892692E+01  0.51100000000E-03 0. -1.
        -11    1    4    4    0    0  0.21468267010E+02 -0.23282570807E+02  0.13390253001E+02  0.34384058334E+02  0.51100000000E-03 0.  1.
         12    1    4    4    0    0  0.76529906591E+00 -0.46118598329E+01 -0.14926908111E+02  0.15641851538E+02  0.00000000000E+00 0. -1.
</event>
<event>
 8    1  0.1278459E-006  0.9118800E+02  0.7816164E-02  0.1184000E+00
        -11   -1    0    0    0    0  0.00000000000E+00  0.00000000000E+00  0.45593999997E+02  0.45594000000E+02  0.51100000000E-03 0. -1.
         11   -1    0    0    0    0 -0.00000000000E+00 -0.00000000000E+00 -0.45593999997E+02  0.45594000000E+02  0.51100000000E-03 0.  1.
         23    2    1    2    0    0  0.24424906542E-14  0.00000000000E+00  0.00000000000E+00  0.91188000000E+02  0.91188000000E+02 0.  0.
    9900012    2    3    3    0    0 -0.15863803140E+01 -0.32810064809E+02  0.16636226590E+02  0.54367068583E+02  0.39999964448E+02 0.  0.
        -12    1    3    3    0    0  0.15863803140E+01  0.32810064809E+02 -0.16636226590E+02  0.36820931417E+02  0.00000000000E+00 0.  1.
         11    1    4    4    0    0  0.12698681868E+02 -0.13525315715E+02  0.39632330985E+01  0.18970975284E+02  0.51100000000E-03 0. -1.
        -11    1    4    4    0    0  0.59910715772E+00 -0.78456937288E+01 -0.52360465094E+01  0.94514561197E+01  0.51100000000E-03 0.  1.
         12    1    4    4    0    0 -0.14884169340E+02 -0.11439055365E+02  0.17909040001E+02  0.25944637179E+02  0.00000000000E+00 0. -1.
</event>
<event>
 8    1  0.1278459E-006  0.9118800E+02  0.7816164E-02  0.1184000E+00
        -11   -1    0    0    0    0  0.00000000000E+00  0.00000000000E+00  0.45593999997E+02  0.45594000000E+02  0.51100000000E-03 0.  1.
         11   -1    0    0    0    0 -0.00000000000E+00 -0.00000000000E+00 -0.45593999997E+02  0.45594000000E+02  0.51100000000E-03 0. -1.
         23    2    1    2    0    0 -0.71054273576E-14 -0.44408920985E-15  0.17763568394E-14  0.91188000000E+02  0.91188000000E+02 0.  0.
    9900012    2    3    3    0    0 -0.34313828045E+02  0.96022159801E+00  0.13319869158E+02  0.54367085631E+02  0.40000003313E+02 0.  0.
         12    1    3    3    0    0  0.34313828045E+02 -0.96022159801E+00 -0.13319869158E+02  0.36820914369E+02  0.00000000000E+00 0. -1.
         11    1    4    4    0    0 -0.19336197371E+02 -0.14695637919E+02  0.84029949720E+01  0.25699428542E+02  0.51100000000E-03 0. -1.
        -11    1    4    4    0    0 -0.17553915628E+02  0.70617074800E+01  0.54184648011E+01  0.19681652051E+02  0.51100000000E-03 0.  1.
        -12    1    4    4    0    0  0.25762849543E+01  0.85941520367E+01 -0.50159061532E+00  0.89860050379E+01  0.00000000000E+00 0.  1.
</event>
<event>
 8    1  0.1278459E-006  0.9118800E+02  0.7816164E-02  0.1184000E+00
        -11   -1    0    0    0    0  0.00000000000E+00  0.00000000000E+00  0.45593999997E+02  0.45594000000E+02  0.51100000000E-03 0. -1.
         11   -1    0    0    0    0 -0.00000000000E+00 -0.00000000000E+00 -0.45593999997E+02  0.45594000000E+02  0.51100000000E-03 0.  1.
         23    2    1    2    0    0  0.00000000000E+00  0.17763568394E-14  0.00000000000E+00  0.91188000000E+02  0.91188000000E+02 0.  0.
    9900012    2    3    3    0    0  0.16648908948E+02 -0.12568727502E+02 -0.30341734193E+02  0.54367083200E+02  0.39999997771E+02 0.  0.
         12    1    3    3    0    0 -0.16648908948E+02  0.12568727502E+02  0.30341734193E+02  0.36820916800E+02  0.00000000000E+00 0. -1.
         11    1    4    4    0    0  0.16796824774E+02 -0.85441747664E+00  0.31771565837E+01  0.17116006425E+02  0.51100000000E-03 0. -1.
        -11    1    4    4    0    0  0.48484005937E+01 -0.90640108672E+01 -0.24943758750E+02  0.26978776514E+02  0.51100000000E-03 0.  1.
         12    1    4    4    0    0 -0.49963164202E+01 -0.26502991578E+01 -0.85751320264E+01  0.10272300262E+02  0.00000000000E+00 0. -1.
</event>
<event>
 8    1  0.1278459E-006  0.9118800E+02  0.7816164E-02  0.1184000E+00
        -11   -1    0    0    0    0  0.00000000000E+00  0.00000000000E+00  0.45593999997E+02  0.45594000000E+02  0.51100000000E-03 0. -1.
         11   -1    0    0    0    0 -0.00000000000E+00 -0.00000000000E+00 -0.45593999997E+02  0.45594000000E+02  0.51100000000E-03 0.  1.
         23    2    1    2    0    0  0.00000000000E+00  0.00000000000E+00  0.00000000000E+00  0.91188000000E+02  0.91188000000E+02 0.  0.
    9900012    2    3    3    0    0 -0.26240303446E+02  0.12488292304E+02 -0.22611274541E+02  0.54367072446E+02  0.39999973255E+02 0.  0.
         12    1    3    3    0    0  0.26240303446E+02 -0.12488292304E+02  0.22611274541E+02  0.36820927554E+02  0.00000000000E+00 0. -1.
         11    1    4    4    0    0 -0.31524953662E+02  0.20047143056E+02 -0.16661392585E+02  0.40906144419E+02  0.51100000000E-03 0. -1.
        -11    1    4    4    0    0  0.36767354898E+01  0.62879154454E+00 -0.18908273137E+01  0.41819840817E+01  0.51100000000E-03 0.  1.
         12    1    4    4    0    0  0.16079147267E+01 -0.81876422966E+01 -0.40590546420E+01  0.92789439449E+01  0.00000000000E+00 0. -1.
</event>
<event>
 8    1  0.1278459E-006  0.9118800E+02  0.7816164E-02  0.1184000E+00
        -11   -1    0    0    0    0  0.00000000000E+00  0.00000000000E+00  0.45593999997E+02  0.45594000000E+02  0.51100000000E-03 0.  1.
         11   -1    0    0    0    0 -0.00000000000E+00 -0.00000000000E+00 -0.45593999997E+02  0.45594000000E+02  0.51100000000E-03 0. -1.
         23    2    1    2    0    0  0.00000000000E+00 -0.15543122345E-14 -0.35527136788E-14  0.91188000000E+02  0.91188000000E+02 0.  0.
    9900012    2    3    3    0    0  0.19322708173E+02  0.19958322631E+01 -0.31279856905E+02  0.54367084129E+02  0.39999999889E+02 0.  0.
        -12    1    3    3    0    0 -0.19322708173E+02 -0.19958322631E+01  0.31279856905E+02  0.36820915871E+02  0.00000000000E+00 0.  1.
         11    1    4    4    0    0 -0.97280918975E+01  0.50620292437E+01 -0.48502605510E+01  0.11991035806E+02  0.51100000000E-03 0. -1.
        -11    1    4    4    0    0 -0.18623136098E+01 -0.10087398138E+01 -0.21090947146E+01  0.29889879172E+01  0.51100000000E-03 0.  1.
         12    1    4    4    0    0  0.30913113681E+02 -0.20574571669E+01 -0.24320501639E+02  0.39387060406E+02  0.00000000000E+00 0. -1.
</event>
<event>
 8    1  0.1278459E-006  0.9118800E+02  0.7816164E-02  0.1184000E+00
        -11   -1    0    0    0    0  0.00000000000E+00  0.00000000000E+00  0.45593999997E+02  0.45594000000E+02  0.51100000000E-03 0.  1.
         11   -1    0    0    0    0 -0.00000000000E+00 -0.00000000000E+00 -0.45593999997E+02  0.45594000000E+02  0.51100000000E-03 0. -1.
         23    2    1    2    0    0  0.35527136788E-14  0.00000000000E+00  0.00000000000E+00  0.91188000000E+02  0.91188000000E+02 0.  0.
    9900012    2    3    3    0    0 -0.28340574900E+02  0.84948069767E+01  0.21918703983E+02  0.54367088611E+02  0.40000010107E+02 0.  0.
        -12    1    3    3    0    0  0.28340574900E+02 -0.84948069767E+01 -0.21918703983E+02  0.36820911389E+02  0.00000000000E+00 0.  1.
         11    1    4    4    0    0 -0.22315889087E+01 -0.63139384987E+01  0.66248332488E+01  0.94198845140E+01  0.51100000000E-03 0. -1.
        -11    1    4    4    0    0  0.63834645791E+01  0.20256586586E+01  0.55462042434E+01  0.86955330374E+01  0.51100000000E-03 0.  1.
         12    1    4    4    0    0 -0.32492450570E+02  0.12783086817E+02  0.97476664904E+01  0.36251671060E+02  0.00000000000E+00 0. -1.
</event>
<event>
 8    1  0.1278459E-006  0.9118800E+02  0.7816164E-02  0.1184000E+00
        -11   -1    0    0    0    0  0.00000000000E+00  0.00000000000E+00  0.45593999997E+02  0.45594000000E+02  0.51100000000E-03 0.  1.
         11   -1    0    0    0    0 -0.00000000000E+00 -0.00000000000E+00 -0.45593999997E+02  0.45594000000E+02  0.51100000000E-03 0. -1.
         23    2    1    2    0    0  0.00000000000E+00 -0.17763568394E-14  0.00000000000E+00  0.91188000000E+02  0.91188000000E+02 0.  0.
    9900012    2    3    3    0    0  0.57230815363E+01 -0.14759087520E+02 -0.33244481053E+02  0.54367084107E+02  0.39999999839E+02 0.  0.
        -12    1    3    3    0    0 -0.57230815363E+01  0.14759087520E+02  0.33244481053E+02  0.36820915893E+02  0.00000000000E+00 0.  1.
         11    1    4    4    0    0  0.98352160677E+01 -0.23840055431E+02 -0.28682837908E+02  0.38571814953E+02  0.51100000000E-03 0. -1.
        -11    1    4    4    0    0 -0.63997235805E+01  0.65088908844E+01  0.10745033235E+01  0.91911196328E+01  0.51100000000E-03 0.  1.
         12    1    4    4    0    0  0.22875890491E+01  0.25720770262E+01 -0.56361464685E+01  0.66041495213E+01  0.00000000000E+00 0. -1.
</event>
<event>
 8    1  0.1278459E-006  0.9118800E+02  0.7816164E-02  0.1184000E+00
        -11   -1    0    0    0    0  0.00000000000E+00  0.00000000000E+00  0.45593999997E+02  0.45594000000E+02  0.51100000000E-03 0.  1.
         11   -1    0    0    0    0 -0.00000000000E+00 -0.00000000000E+00 -0.45593999997E+02  0.45594000000E+02  0.51100000000E-03 0. -1.
         23    2    1    2    0    0  0.00000000000E+00  0.17763568394E-14  0.71054273576E-14  0.91188000000E+02  0.91188000000E+02 0.  0.
    9900012    2    3    3    0    0 -0.90385141335E+01  0.12443456262E+02  0.33455122994E+02  0.54367087518E+02  0.40000007615E+02 0.  0.
        -12    1    3    3    0    0  0.90385141335E+01 -0.12443456262E+02 -0.33455122994E+02  0.36820912482E+02  0.00000000000E+00 0.  1.
         11    1    4    4    0    0  0.19845302515E+01 -0.27166844054E+00  0.16962547235E+01  0.26247751159E+01  0.51100000000E-03 0. -1.
        -11    1    4    4    0    0 -0.36088532276E+01  0.23659682224E+02  0.92900078100E+01  0.25673111029E+02  0.51100000000E-03 0.  1.
         12    1    4    4    0    0 -0.74141911574E+01 -0.10944557521E+02  0.22468860460E+02  0.26069201373E+02  0.00000000000E+00 0. -1.
</event>
<event>
 8    1  0.1278459E-006  0.9118800E+02  0.7816164E-02  0.1184000E+00
        -11   -1    0    0    0    0  0.00000000000E+00  0.00000000000E+00  0.45593999997E+02  0.45594000000E+02  0.51100000000E-03 0.  1.
         11   -1    0    0    0    0 -0.00000000000E+00 -0.00000000000E+00 -0.45593999997E+02  0.45594000000E+02  0.51100000000E-03 0. -1.
         23    2    1    2    0    0 -0.17763568394E-14 -0.35527136788E-14  0.00000000000E+00  0.91188000000E+02  0.91188000000E+02 0.  0.
    9900012    2    3    3    0    0  0.13203960729E+02  0.19787963427E+02 -0.28104676333E+02  0.54367069712E+02  0.39999967022E+02 0.  0.
        -12    1    3    3    0    0 -0.13203960729E+02 -0.19787963427E+02  0.28104676333E+02  0.36820930288E+02  0.00000000000E+00 0.  1.
         11    1    4    4    0    0  0.46205362447E+01  0.19110930618E+02 -0.14946487688E+01  0.19718290988E+02  0.51100000000E-03 0.  1.
        -11    1    4    4    0    0  0.51889028809E+01  0.10288474756E+02 -0.17643725082E+02  0.21073169219E+02  0.51100000000E-03 0. -1.
        -12    1    4    4    0    0  0.33945216030E+01 -0.96114419473E+01 -0.89663024824E+01  0.13575609505E+02  0.00000000000E+00 0.  1.
</event>
<event>
 8    1  0.1278459E-006  0.9118800E+02  0.7816164E-02  0.1184000E+00
        -11   -1    0    0    0    0  0.00000000000E+00  0.00000000000E+00  0.45593999997E+02  0.45594000000E+02  0.51100000000E-03 0.  1.
         11   -1    0    0    0    0 -0.00000000000E+00 -0.00000000000E+00 -0.45593999997E+02  0.45594000000E+02  0.51100000000E-03 0. -1.
         23    2    1    2    0    0  0.17763568394E-14  0.00000000000E+00  0.88817841970E-15  0.91188000000E+02  0.91188000000E+02 0.  0.
    9900012    2    3    3    0    0  0.96239220017E+01 -0.35075503379E+02  0.57331295315E+01  0.54367087651E+02  0.40000007918E+02 0.  0.
         12    1    3    3    0    0 -0.96239220017E+01  0.35075503379E+02 -0.57331295315E+01  0.36820912349E+02  0.00000000000E+00 0. -1.
         11    1    4    4    0    0 -0.95941011477E+01 -0.53031933679E+01  0.10646461865E+02  0.15281288795E+02  0.51100000000E-03 0.  1.
        -11    1    4    4    0    0  0.11713023271E+02 -0.28500237429E+02 -0.18129240154E+01  0.30866569965E+02  0.51100000000E-03 0. -1.
         12    1    4    4    0    0  0.75049998781E+01 -0.12720725821E+01 -0.31004083178E+01  0.82192288909E+01  0.00000000000E+00 0. -1.
</event>
<event>
 8    1  0.1278459E-006  0.9118800E+02  0.7816164E-02  0.1184000E+00
        -11   -1    0    0    0    0  0.00000000000E+00  0.00000000000E+00  0.45593999997E+02  0.45594000000E+02  0.51100000000E-03 0.  1.
         11   -1    0    0    0    0 -0.00000000000E+00 -0.00000000000E+00 -0.45593999997E+02  0.45594000000E+02  0.51100000000E-03 0. -1.
         23    2    1    2    0    0 -0.17763568394E-14  0.00000000000E+00  0.00000000000E+00  0.91188000000E+02  0.91188000000E+02 0.  0.
    9900012    2    3    3    0    0 -0.12707856495E+02  0.32400842016E+02  0.12020223161E+02  0.54366946988E+02  0.39999687248E+02 0.  0.
         12    1    3    3    0    0  0.12707856495E+02 -0.32400842016E+02 -0.12020223161E+02  0.36821053012E+02  0.00000000000E+00 0. -1.
         11    1    4    4    0    0 -0.52535916399E+00  0.76843140130E+00  0.75994475888E+01  0.76562453582E+01  0.51100000000E-03 0. -1.
        -11    1    4    4    0    0  0.43767767912E+01 -0.38085829096E+01  0.48922094097E+01  0.75891496249E+01  0.51100000000E-03 0.  1.
        -12    1    4    4    0    0 -0.16559274122E+02  0.35440993524E+02 -0.47143383778E+00  0.39121552005E+02  0.00000000000E+00 0.  1.
</event>
<event>
 8    1  0.1278459E-006  0.9118800E+02  0.7816164E-02  0.1184000E+00
        -11   -1    0    0    0    0  0.00000000000E+00  0.00000000000E+00  0.45593999997E+02  0.45594000000E+02  0.51100000000E-03 0. -1.
         11   -1    0    0    0    0 -0.00000000000E+00 -0.00000000000E+00 -0.45593999997E+02  0.45594000000E+02  0.51100000000E-03 0.  1.
         23    2    1    2    0    0 -0.35527136788E-14 -0.17763568394E-14 -0.35527136788E-14  0.91188000000E+02  0.91188000000E+02 0.  0.
    9900012    2    3    3    0    0  0.25388375904E+02  0.12477923175E+02 -0.23569299145E+02  0.54367081218E+02  0.39999993252E+02 0.  0.
         12    1    3    3    0    0 -0.25388375904E+02 -0.12477923175E+02  0.23569299145E+02  0.36820918782E+02  0.00000000000E+00 0. -1.
         11    1    4    4    0    0  0.52331371700E+01 -0.35479662105E+01  0.84570119959E+01  0.10559111754E+02  0.51100000000E-03 0. -1.
        -11    1    4    4    0    0  0.78026681457E+01  0.13839903511E+02 -0.24432719381E+02  0.29144164698E+02  0.51100000000E-03 0.  1.
         12    1    4    4    0    0  0.12352570588E+02  0.21859858746E+01 -0.75935917605E+01  0.14663804765E+02  0.00000000000E+00 0. -1.
</event>
<event>
 8    1  0.1278459E-006  0.9118800E+02  0.7816164E-02  0.1184000E+00
        -11   -1    0    0    0    0  0.00000000000E+00  0.00000000000E+00  0.45593999997E+02  0.45594000000E+02  0.51100000000E-03 0. -1.
         11   -1    0    0    0    0 -0.00000000000E+00 -0.00000000000E+00 -0.45593999997E+02  0.45594000000E+02  0.51100000000E-03 0.  1.
         23    2    1    2    0    0 -0.88817841970E-15  0.00000000000E+00  0.00000000000E+00  0.91188000000E+02  0.91188000000E+02 0.  0.
    9900012    2    3    3    0    0  0.59217774356E+01  0.20065065534E+02 -0.30300257375E+02  0.54367083391E+02  0.39999998208E+02 0.  0.
        -12    1    3    3    0    0 -0.59217774356E+01 -0.20065065534E+02  0.30300257375E+02  0.36820916609E+02  0.00000000000E+00 0.  1.
         11    1    4    4    0    0  0.18809799875E+02  0.20414742143E+02 -0.13649160859E+02  0.30933313119E+02  0.51100000000E-03 0. -1.
        -11    1    4    4    0    0 -0.70725863320E+00  0.12255097995E+01 -0.86734801347E+01  0.87881367166E+01  0.51100000000E-03 0.  1.
         12    1    4    4    0    0 -0.12180763806E+02 -0.15751864091E+01 -0.79776163819E+01  0.14645633556E+02  0.00000000000E+00 0. -1.
</event>
<event>
 8    1  0.1278459E-006  0.9118800E+02  0.7816164E-02  0.1184000E+00
        -11   -1    0    0    0    0  0.00000000000E+00  0.00000000000E+00  0.45593999997E+02  0.45594000000E+02  0.51100000000E-03 0.  1.
         11   -1    0    0    0    0 -0.00000000000E+00 -0.00000000000E+00 -0.45593999997E+02  0.45594000000E+02  0.51100000000E-03 0. -1.
         23    2    1    2    0    0  0.00000000000E+00  0.00000000000E+00 -0.88817841970E-15  0.91188000000E+02  0.91188000000E+02 0.  0.
    9900012    2    3    3    0    0 -0.33324596174E+02  0.14570175044E+02 -0.57412275738E+01  0.54367076532E+02  0.39999982570E+02 0.  0.
         12    1    3    3    0    0  0.33324596174E+02 -0.14570175044E+02  0.57412275738E+01  0.36820923468E+02  0.00000000000E+00 0. -1.
         11    1    4    4    0    0 -0.58955576365E+01  0.84924741414E+01 -0.14461652182E+02  0.17776926083E+02  0.51100000000E-03 0. -1.
        -11    1    4    4    0    0 -0.12978912181E+02  0.13604780547E+02  0.18012694817E+01  0.18888800574E+02  0.51100000000E-03 0.  1.
        -12    1    4    4    0    0 -0.14450126357E+02 -0.75270796444E+01  0.69191551261E+01  0.17701349874E+02  0.00000000000E+00 0.  1.
</event>
<event>
 8    1  0.1278459E-006  0.9118800E+02  0.7816164E-02  0.1184000E+00
        -11   -1    0    0    0    0  0.00000000000E+00  0.00000000000E+00  0.45593999997E+02  0.45594000000E+02  0.51100000000E-03 0.  1.
         11   -1    0    0    0    0 -0.00000000000E+00 -0.00000000000E+00 -0.45593999997E+02  0.45594000000E+02  0.51100000000E-03 0. -1.
         23    2    1    2    0    0  0.00000000000E+00  0.35527136788E-14  0.35527136788E-14  0.91188000000E+02  0.91188000000E+02 0.  0.
    9900012    2    3    3    0    0  0.10279633906E+02  0.26192180301E+02  0.23750317275E+02  0.54367098967E+02  0.40000033715E+02 0.  0.
         12    1    3    3    0    0 -0.10279633906E+02 -0.26192180301E+02 -0.23750317275E+02  0.36820901033E+02  0.00000000000E+00 0. -1.
         11    1    4    4    0    0 -0.27200977960E+01  0.18590781109E+02  0.99309419232E+01  0.21251815969E+02  0.51100000000E-03 0.  1.
        -11    1    4    4    0    0 -0.68281286980E+01 -0.27465059964E+01  0.12673224973E+01  0.74681151088E+01  0.51100000000E-03 0. -1.
         12    1    4    4    0    0  0.19827860400E+02  0.10347905189E+02  0.12552052855E+02  0.25647167889E+02  0.00000000000E+00 0. -1.
</event>
<event>
 8    1  0.1278459E-006  0.9118800E+02  0.7816164E-02  0.1184000E+00
        -11   -1    0    0    0    0  0.00000000000E+00  0.00000000000E+00  0.45593999997E+02  0.45594000000E+02  0.51100000000E-03 0. -1.
         11   -1    0    0    0    0 -0.00000000000E+00 -0.00000000000E+00 -0.45593999997E+02  0.45594000000E+02  0.51100000000E-03 0.  1.
         23    2    1    2    0    0  0.00000000000E+00  0.35527136788E-14  0.35527136788E-14  0.91188000000E+02  0.91188000000E+02 0.  0.
    9900012    2    3    3    0    0 -0.14064198288E+02 -0.30402507166E+02 -0.15286128244E+02  0.54367084312E+02  0.40000000305E+02 0.  0.
        -12    1    3    3    0    0  0.14064198288E+02  0.30402507166E+02  0.15286128244E+02  0.36820915688E+02  0.00000000000E+00 0.  1.
         11    1    4    4    0    0 -0.53988526136E+01 -0.30328179377E+02 -0.14618953145E+02  0.34097798539E+02  0.51100000000E-03 0. -1.
        -11    1    4    4    0    0 -0.60110550641E+01 -0.33799924084E+01  0.80354746079E+01  0.10588955761E+02  0.51100000000E-03 0.  1.
        -12    1    4    4    0    0 -0.26542906103E+01  0.33056646198E+01 -0.87026497069E+01  0.96803300121E+01  0.00000000000E+00 0.  1.
</event>
<event>
 8    1  0.1278459E-006  0.9118800E+02  0.7816164E-02  0.1184000E+00
        -11   -1    0    0    0    0  0.00000000000E+00  0.00000000000E+00  0.45593999997E+02  0.45594000000E+02  0.51100000000E-03 0. -1.
         11   -1    0    0    0    0 -0.00000000000E+00 -0.00000000000E+00 -0.45593999997E+02  0.45594000000E+02  0.51100000000E-03 0.  1.
         23    2    1    2    0    0  0.00000000000E+00  0.00000000000E+00  0.35527136788E-14  0.91188000000E+02  0.91188000000E+02 0.  0.
    9900012    2    3    3    0    0  0.22216925602E+02 -0.21782313261E+02  0.19690519840E+02  0.54367115630E+02  0.40000071703E+02 0.  0.
        -12    1    3    3    0    0 -0.22216925602E+02  0.21782313261E+02 -0.19690519840E+02  0.36820884370E+02  0.00000000000E+00 0.  1.
         11    1    4    4    0    0  0.21366715131E+02  0.17283561419E+01  0.84244648241E+01  0.23032484414E+02  0.51100000000E-03 0. -1.
        -11    1    4    4    0    0  0.53306740143E+01 -0.26175683659E-01  0.21220707618E+01  0.57375914104E+01  0.51100000000E-03 0.  1.
         12    1    4    4    0    0 -0.44804635431E+01 -0.23484493719E+02  0.91439842536E+01  0.25597039806E+02  0.00000000000E+00 0. -1.
</event>
<event>
 8    1  0.1278459E-006  0.9118800E+02  0.7816164E-02  0.1184000E+00
        -11   -1    0    0    0    0  0.00000000000E+00  0.00000000000E+00  0.45593999997E+02  0.45594000000E+02  0.51100000000E-03 0.  1.
         11   -1    0    0    0    0 -0.00000000000E+00 -0.00000000000E+00 -0.45593999997E+02  0.45594000000E+02  0.51100000000E-03 0. -1.
         23    2    1    2    0    0  0.00000000000E+00  0.22204460493E-15 -0.44408920985E-15  0.91188000000E+02  0.91188000000E+02 0.  0.
    9900012    2    3    3    0    0 -0.36670619949E+02 -0.37817195361E+00  0.33019746913E+01  0.54367076352E+02  0.39999982159E+02 0.  0.
         12    1    3    3    0    0  0.36670619949E+02  0.37817195361E+00 -0.33019746913E+01  0.36820923648E+02  0.00000000000E+00 0. -1.
         11    1    4    4    0    0 -0.37496683607E+00 -0.24323586949E+01  0.10626118925E+00  0.24633839835E+01  0.51100000000E-03 0. -1.
        -11    1    4    4    0    0 -0.34748219627E+02  0.34420322930E+01 -0.11728542979E+02  0.36835378024E+02  0.51100000000E-03 0.  1.
        -12    1    4    4    0    0 -0.15474334860E+01 -0.13878455517E+01  0.14924256481E+02  0.15068314344E+02  0.00000000000E+00 0.  1.
</event>
<event>
 8    1  0.1278459E-006  0.9118800E+02  0.7816164E-02  0.1184000E+00
        -11   -1    0    0    0    0  0.00000000000E+00  0.00000000000E+00  0.45593999997E+02  0.45594000000E+02  0.51100000000E-03 0.  1.
         11   -1    0    0    0    0 -0.00000000000E+00 -0.00000000000E+00 -0.45593999997E+02  0.45594000000E+02  0.51100000000E-03 0. -1.
         23    2    1    2    0    0  0.00000000000E+00  0.44408920985E-15 -0.71054273576E-14  0.91188000000E+02  0.91188000000E+02 0.  0.
    9900012    2    3    3    0    0 -0.15020158322E+02  0.24433870756E+01  0.33529165545E+02  0.54367078793E+02  0.39999987724E+02 0.  0.
         12    1    3    3    0    0  0.15020158322E+02 -0.24433870756E+01 -0.33529165545E+02  0.36820921207E+02  0.00000000000E+00 0. -1.
         11    1    4    4    0    0 -0.17180635076E+02 -0.31686628464E+01  0.26834053868E+00  0.17472454114E+02  0.51100000000E-03 0. -1.
        -11    1    4    4    0    0 -0.21245636469E+01  0.57918325678E+01  0.40708796744E+01  0.73912892494E+01  0.51100000000E-03 0.  1.
        -12    1    4    4    0    0  0.42850404007E+01 -0.17978264579E+00  0.29189945331E+02  0.29503335430E+02  0.00000000000E+00 0.  1.
</event>
<event>
 8    1  0.1278459E-006  0.9118800E+02  0.7816164E-02  0.1184000E+00
        -11   -1    0    0    0    0  0.00000000000E+00  0.00000000000E+00  0.45593999997E+02  0.45594000000E+02  0.51100000000E-03 0.  1.
         11   -1    0    0    0    0 -0.00000000000E+00 -0.00000000000E+00 -0.45593999997E+02  0.45594000000E+02  0.51100000000E-03 0. -1.
         23    2    1    2    0    0  0.88817841970E-15  0.35527136788E-14  0.71054273576E-14  0.91188000000E+02  0.91188000000E+02 0.  0.
    9900012    2    3    3    0    0  0.24678813981E+01 -0.11215335385E+02 -0.34984347793E+02  0.54367098641E+02  0.40000032972E+02 0.  0.
        -12    1    3    3    0    0 -0.24678813981E+01  0.11215335385E+02  0.34984347793E+02  0.36820901359E+02  0.00000000000E+00 0.  1.
         11    1    4    4    0    0  0.56227309805E+01  0.62319533169E+01 -0.55011408605E+01  0.10035681185E+02  0.51100000000E-03 0.  1.
        -11    1    4    4    0    0  0.78992478828E+01  0.15853942350E+01 -0.68560186585E+00  0.80858915510E+01  0.51100000000E-03 0. -1.
         12    1    4    4    0    0 -0.11054097465E+02 -0.19032682937E+02 -0.28797605067E+02  0.36245525905E+02  0.00000000000E+00 0. -1.
</event>
<event>
 8    1  0.1278459E-006  0.9118800E+02  0.7816164E-02  0.1184000E+00
        -11   -1    0    0    0    0  0.00000000000E+00  0.00000000000E+00  0.45593999997E+02  0.45594000000E+02  0.51100000000E-03 0.  1.
         11   -1    0    0    0    0 -0.00000000000E+00 -0.00000000000E+00 -0.45593999997E+02  0.45594000000E+02  0.51100000000E-03 0. -1.
         23    2    1    2    0    0  0.00000000000E+00 -0.88817841970E-15  0.00000000000E+00  0.91188000000E+02  0.91188000000E+02 0.  0.
    9900012    2    3    3    0    0 -0.90735236053E+01  0.32360912620E+01  0.35538414515E+02  0.54367081713E+02  0.39999994380E+02 0.  0.
         12    1    3    3    0    0  0.90735236053E+01 -0.32360912620E+01 -0.35538414515E+02  0.36820918287E+02  0.00000000000E+00 0. -1.
         11    1    4    4    0    0  0.57719823620E+01  0.18456700457E+01 -0.38903172432E+01  0.72011698230E+01  0.51100000000E-03 0. -1.
        -11    1    4    4    0    0 -0.15193768191E+02  0.92687372316E+01  0.29911714081E+02  0.34806187973E+02  0.51100000000E-03 0.  1.
         12    1    4    4    0    0  0.34826222356E+00 -0.78783160153E+01  0.95170176775E+01  0.12359723916E+02  0.00000000000E+00 0. -1.
</event>
<event>
 8    1  0.1278459E-006  0.9118800E+02  0.7816164E-02  0.1184000E+00
        -11   -1    0    0    0    0  0.00000000000E+00  0.00000000000E+00  0.45593999997E+02  0.45594000000E+02  0.51100000000E-03 0. -1.
         11   -1    0    0    0    0 -0.00000000000E+00 -0.00000000000E+00 -0.45593999997E+02  0.45594000000E+02  0.51100000000E-03 0.  1.
         23    2    1    2    0    0  0.00000000000E+00  0.17763568394E-14 -0.71054273576E-14  0.91188000000E+02  0.91188000000E+02 0.  0.
    9900012    2    3    3    0    0 -0.97019574948E+01 -0.14347897443E+02 -0.32492912229E+02  0.54367089020E+02  0.40000011039E+02 0.  0.
         12    1    3    3    0    0  0.97019574948E+01  0.14347897443E+02  0.32492912229E+02  0.36820910980E+02  0.00000000000E+00 0. -1.
         11    1    4    4    0    0 -0.49059895897E+01 -0.12580942326E+02  0.90709447348E+00  0.13534092666E+02  0.51100000000E-03 0. -1.
        -11    1    4    4    0    0  0.62462543067E+00 -0.75956077004E+01 -0.12633082610E+01  0.77252418274E+01  0.51100000000E-03 0.  1.
        -12    1    4    4    0    0 -0.54205933358E+01  0.58286525831E+01 -0.32136698442E+02  0.33107754526E+02  0.00000000000E+00 0.  1.
</event>
<event>
 8    1  0.1278459E-006  0.9118800E+02  0.7816164E-02  0.1184000E+00
        -11   -1    0    0    0    0  0.00000000000E+00  0.00000000000E+00  0.45593999997E+02  0.45594000000E+02  0.51100000000E-03 0. -1.
         11   -1    0    0    0    0 -0.00000000000E+00 -0.00000000000E+00 -0.45593999997E+02  0.45594000000E+02  0.51100000000E-03 0.  1.
         23    2    1    2    0    0  0.00000000000E+00 -0.88817841970E-15  0.00000000000E+00  0.91188000000E+02  0.91188000000E+02 0.  0.
    9900012    2    3    3    0    0 -0.17980689105E+02  0.63457197605E+01  0.31499133464E+02  0.54367234813E+02  0.40000343401E+02 0.  0.
        -12    1    3    3    0    0  0.17980689105E+02 -0.63457197605E+01 -0.31499133464E+02  0.36820765187E+02  0.00000000000E+00 0.  1.
         11    1    4    4    0    0  0.40053455378E+01  0.29535890715E+01 -0.70096588126E+00  0.50257173327E+01  0.51100000000E-03 0. -1.
        -11    1    4    4    0    0 -0.12687253842E+02 -0.13124415190E+02  0.13396754866E+02  0.22642652789E+02  0.51100000000E-03 0.  1.
        -12    1    4    4    0    0 -0.92987808010E+01  0.16516545879E+02  0.18803344480E+02  0.26698864691E+02  0.00000000000E+00 0.  1.
</event>
<event>
 8    1  0.1278459E-006  0.9118800E+02  0.7816164E-02  0.1184000E+00
        -11   -1    0    0    0    0  0.00000000000E+00  0.00000000000E+00  0.45593999997E+02  0.45594000000E+02  0.51100000000E-03 0. -1.
         11   -1    0    0    0    0 -0.00000000000E+00 -0.00000000000E+00 -0.45593999997E+02  0.45594000000E+02  0.51100000000E-03 0.  1.
         23    2    1    2    0    0 -0.11102230246E-15  0.00000000000E+00  0.44408920985E-15  0.91188000000E+02  0.91188000000E+02 0.  0.
    9900012    2    3    3    0    0  0.29221493405E+00 -0.36784502290E+02 -0.16115555971E+01  0.54367053383E+02  0.39999929797E+02 0.  0.
         12    1    3    3    0    0 -0.29221493405E+00  0.36784502290E+02  0.16115555971E+01  0.36820946617E+02  0.00000000000E+00 0. -1.
         11    1    4    4    0    0 -0.17445888481E+01 -0.17168825963E+02  0.14266732756E+02  0.22390887409E+02  0.51100000000E-03 0. -1.
        -11    1    4    4    0    0 -0.41825377676E+01 -0.11605683159E+02 -0.17797696713E+02  0.21655103609E+02  0.51100000000E-03 0.  1.
        -12    1    4    4    0    0  0.62193415498E+01 -0.80099931690E+01  0.19194083604E+01  0.10321062365E+02  0.00000000000E+00 0.  1.
</event>
<event>
 8    1  0.1278459E-006  0.9118800E+02  0.7816164E-02  0.1184000E+00
        -11   -1    0    0    0    0  0.00000000000E+00  0.00000000000E+00  0.45593999997E+02  0.45594000000E+02  0.51100000000E-03 0.  1.
         11   -1    0    0    0    0 -0.00000000000E+00 -0.00000000000E+00 -0.45593999997E+02  0.45594000000E+02  0.51100000000E-03 0. -1.
         23    2    1    2    0    0  0.17763568394E-14  0.00000000000E+00  0.00000000000E+00  0.91188000000E+02  0.91188000000E+02 0.  0.
    9900012    2    3    3    0    0  0.11020890163E+02 -0.31022641243E+02 -0.16489894890E+02  0.54367069496E+02  0.39999966530E+02 0.  0.
        -12    1    3    3    0    0 -0.11020890163E+02  0.31022641243E+02  0.16489894890E+02  0.36820930504E+02  0.00000000000E+00 0.  1.
         11    1    4    4    0    0  0.88887293696E+01 -0.29393068771E+02 -0.60938573720E+01  0.31306502512E+02  0.51100000000E-03 0. -1.
        -11    1    4    4    0    0  0.10600754021E+02 -0.33250320423E+01 -0.25650178981E+01  0.11402242804E+02  0.51100000000E-03 0.  1.
         12    1    4    4    0    0 -0.84685932275E+01  0.16954595700E+01 -0.78310196198E+01  0.11658324180E+02  0.00000000000E+00 0. -1.
</event>
<event>
 8    1  0.1278459E-006  0.9118800E+02  0.7816164E-02  0.1184000E+00
        -11   -1    0    0    0    0  0.00000000000E+00  0.00000000000E+00  0.45593999997E+02  0.45594000000E+02  0.51100000000E-03 0.  1.
         11   -1    0    0    0    0 -0.00000000000E+00 -0.00000000000E+00 -0.45593999997E+02  0.45594000000E+02  0.51100000000E-03 0. -1.
         23    2    1    2    0    0  0.00000000000E+00  0.00000000000E+00  0.88817841970E-15  0.91188000000E+02  0.91188000000E+02 0.  0.
    9900012    2    3    3    0    0 -0.16019413827E+02  0.32711900260E+02  0.53936420523E+01  0.54367062850E+02  0.39999951380E+02 0.  0.
        -12    1    3    3    0    0  0.16019413827E+02 -0.32711900260E+02 -0.53936420523E+01  0.36820937150E+02  0.00000000000E+00 0.  1.
         11    1    4    4    0    0 -0.10662677955E+02  0.12935885140E+02 -0.28558863885E+01  0.17005467146E+02  0.51100000000E-03 0. -1.
        -11    1    4    4    0    0 -0.12464318507E+02 -0.27603191357E+01  0.20347053657E+01  0.12927436860E+02  0.51100000000E-03 0.  1.
         12    1    4    4    0    0  0.71075826352E+01  0.22536334256E+02  0.62148230751E+01  0.24434158845E+02  0.00000000000E+00 0. -1.
</event>
<event>
 8    1  0.1278459E-006  0.9118800E+02  0.7816164E-02  0.1184000E+00
        -11   -1    0    0    0    0  0.00000000000E+00  0.00000000000E+00  0.45593999997E+02  0.45594000000E+02  0.51100000000E-03 0. -1.
         11   -1    0    0    0    0 -0.00000000000E+00 -0.00000000000E+00 -0.45593999997E+02  0.45594000000E+02  0.51100000000E-03 0.  1.
         23    2    1    2    0    0 -0.35527136788E-14  0.35527136788E-14  0.00000000000E+00  0.91188000000E+02  0.91188000000E+02 0.  0.
    9900012    2    3    3    0    0  0.26142922423E+02  0.18341655882E+02 -0.18327850154E+02  0.54367097994E+02  0.40000031496E+02 0.  0.
         12    1    3    3    0    0 -0.26142922423E+02 -0.18341655882E+02  0.18327850154E+02  0.36820902006E+02  0.00000000000E+00 0. -1.
         11    1    4    4    0    0 -0.27445007937E+01  0.17004234116E+02 -0.11315540441E+02  0.20608680652E+02  0.51100000000E-03 0. -1.
        -11    1    4    4    0    0  0.28842387854E+01 -0.25824014772E+01 -0.63693284600E+01  0.74535881328E+01  0.51100000000E-03 0.  1.
        -12    1    4    4    0    0  0.26003184431E+02  0.39198232427E+01 -0.64298125265E+00  0.26304829209E+02  0.00000000000E+00 0.  1.
</event>
<event>
 8    1  0.1278459E-006  0.9118800E+02  0.7816164E-02  0.1184000E+00
        -11   -1    0    0    0    0  0.00000000000E+00  0.00000000000E+00  0.45593999997E+02  0.45594000000E+02  0.51100000000E-03 0. -1.
         11   -1    0    0    0    0 -0.00000000000E+00 -0.00000000000E+00 -0.45593999997E+02  0.45594000000E+02  0.51100000000E-03 0.  1.
         23    2    1    2    0    0  0.17763568394E-14  0.00000000000E+00 -0.71054273576E-14  0.91188000000E+02  0.91188000000E+02 0.  0.
    9900012    2    3    3    0    0 -0.10642355752E+02 -0.27194634802E+02 -0.22427032770E+02  0.54367086149E+02  0.40000004494E+02 0.  0.
         12    1    3    3    0    0  0.10642355752E+02  0.27194634802E+02  0.22427032770E+02  0.36820913851E+02  0.00000000000E+00 0. -1.
         11    1    4    4    0    0 -0.10068043045E+02 -0.14579278890E+02 -0.11937776815E+01  0.17757983250E+02  0.51100000000E-03 0. -1.
        -11    1    4    4    0    0  0.98868690937E+01 -0.58279922106E+00  0.18746746142E+00  0.99058053543E+01  0.51100000000E-03 0.  1.
        -12    1    4    4    0    0 -0.10461181801E+02 -0.12032556691E+02 -0.21420722550E+02  0.26703297544E+02  0.00000000000E+00 0.  1.
</event>
<event>
 8    1  0.1278459E-006  0.9118800E+02  0.7816164E-02  0.1184000E+00
        -11   -1    0    0    0    0  0.00000000000E+00  0.00000000000E+00  0.45593999997E+02  0.45594000000E+02  0.51100000000E-03 0.  1.
         11   -1    0    0    0    0 -0.00000000000E+00 -0.00000000000E+00 -0.45593999997E+02  0.45594000000E+02  0.51100000000E-03 0. -1.
         23    2    1    2    0    0  0.00000000000E+00  0.71054273576E-14  0.00000000000E+00  0.91188000000E+02  0.91188000000E+02 0.  0.
    9900012    2    3    3    0    0  0.11291777668E+02 -0.33141528954E+02 -0.11397965948E+02  0.54367098163E+02  0.40000031883E+02 0.  0.
        -12    1    3    3    0    0 -0.11291777668E+02  0.33141528954E+02  0.11397965948E+02  0.36820901837E+02  0.00000000000E+00 0.  1.
         11    1    4    4    0    0  0.30583074024E+01 -0.24074379311E+02 -0.84025880120E+01  0.25681364234E+02  0.51100000000E-03 0. -1.
        -11    1    4    4    0    0  0.13274464200E+02 -0.69775748188E+01 -0.11280076309E+02  0.18765342308E+02  0.51100000000E-03 0.  1.
        -12    1    4    4    0    0 -0.50409939336E+01 -0.20895748245E+01  0.82846983729E+01  0.99203916211E+01  0.00000000000E+00 0.  1.
</event>
<event>
 8    1  0.1278459E-006  0.9118800E+02  0.7816164E-02  0.1184000E+00
        -11   -1    0    0    0    0  0.00000000000E+00  0.00000000000E+00  0.45593999997E+02  0.45594000000E+02  0.51100000000E-03 0. -1.
         11   -1    0    0    0    0 -0.00000000000E+00 -0.00000000000E+00 -0.45593999997E+02  0.45594000000E+02  0.51100000000E-03 0.  1.
         23    2    1    2    0    0  0.00000000000E+00  0.35527136788E-14  0.00000000000E+00  0.91188000000E+02  0.91188000000E+02 0.  0.
    9900012    2    3    3    0    0  0.26228312056E+02 -0.24611047539E+02  0.78836590680E+01  0.54367080748E+02  0.39999992181E+02 0.  0.
        -12    1    3    3    0    0 -0.26228312056E+02  0.24611047539E+02 -0.78836590680E+01  0.36820919252E+02  0.00000000000E+00 0.  1.
         11    1    4    4    0    0  0.15581966645E+02 -0.44091508464E+01  0.14914938342E+02  0.22015759849E+02  0.51100000000E-03 0. -1.
        -11    1    4    4    0    0  0.14759351503E+02 -0.10479775386E+02  0.23189540734E+01  0.18249430051E+02  0.51100000000E-03 0.  1.
         12    1    4    4    0    0 -0.41130060924E+01 -0.97221213070E+01 -0.93502333479E+01  0.14101890848E+02  0.00000000000E+00 0. -1.
</event>
<event>
 8    1  0.1278459E-006  0.9118800E+02  0.7816164E-02  0.1184000E+00
        -11   -1    0    0    0    0  0.00000000000E+00  0.00000000000E+00  0.45593999997E+02  0.45594000000E+02  0.51100000000E-03 0. -1.
         11   -1    0    0    0    0 -0.00000000000E+00 -0.00000000000E+00 -0.45593999997E+02  0.45594000000E+02  0.51100000000E-03 0.  1.
         23    2    1    2    0    0  0.00000000000E+00  0.00000000000E+00 -0.88817841970E-15  0.91188000000E+02  0.91188000000E+02 0.  0.
    9900012    2    3    3    0    0 -0.31888027606E+01 -0.35879846274E+02  0.76319770010E+01  0.54367096906E+02  0.40000029017E+02 0.  0.
        -12    1    3    3    0    0  0.31888027606E+01  0.35879846274E+02 -0.76319770010E+01  0.36820903094E+02  0.00000000000E+00 0.  1.
         11    1    4    4    0    0 -0.60500587263E+01  0.32798467475E+01 -0.35614815223E+01  0.77488551524E+01  0.51100000000E-03 0. -1.
        -11    1    4    4    0    0  0.88435639179E+01 -0.34604568822E+02  0.35441389539E+01  0.35892140189E+02  0.51100000000E-03 0.  1.
         12    1    4    4    0    0 -0.59823079523E+01 -0.45551241993E+01  0.76493195693E+01  0.10726101565E+02  0.00000000000E+00 0. -1.
</event>
<event>
 8    1  0.1278459E-006  0.9118800E+02  0.7816164E-02  0.1184000E+00
        -11   -1    0    0    0    0  0.00000000000E+00  0.00000000000E+00  0.45593999997E+02  0.45594000000E+02  0.51100000000E-03 0.  1.
         11   -1    0    0    0    0 -0.00000000000E+00 -0.00000000000E+00 -0.45593999997E+02  0.45594000000E+02  0.51100000000E-03 0. -1.
         23    2    1    2    0    0  0.00000000000E+00 -0.35527136788E-14 -0.35527136788E-14  0.91188000000E+02  0.91188000000E+02 0.  0.
    9900012    2    3    3    0    0  0.81973794172E+01 -0.31014956659E+02  0.18073550973E+02  0.54367111762E+02  0.40000062884E+02 0.  0.
         12    1    3    3    0    0 -0.81973794172E+01  0.31014956659E+02 -0.18073550973E+02  0.36820888238E+02  0.00000000000E+00 0. -1.
         11    1    4    4    0    0 -0.79011758847E+01 -0.77203571854E+00 -0.31938810832E+01  0.85571897342E+01  0.51100000000E-03 0. -1.
        -11    1    4    4    0    0  0.12491599175E+02 -0.28545327321E+01  0.85059869512E+01  0.15379864152E+02  0.51100000000E-03 0.  1.
         12    1    4    4    0    0  0.36069561270E+01 -0.27388388208E+02  0.12761445105E+02  0.30430057876E+02  0.00000000000E+00 0. -1.
</event>
<event>
 8    1  0.1278459E-006  0.9118800E+02  0.7816164E-02  0.1184000E+00
        -11   -1    0    0    0    0  0.00000000000E+00  0.00000000000E+00  0.45593999997E+02  0.45594000000E+02  0.51100000000E-03 0. -1.
         11   -1    0    0    0    0 -0.00000000000E+00 -0.00000000000E+00 -0.45593999997E+02  0.45594000000E+02  0.51100000000E-03 0.  1.
         23    2    1    2    0    0  0.00000000000E+00 -0.88817841970E-15  0.00000000000E+00  0.91188000000E+02  0.91188000000E+02 0.  0.
    9900012    2    3    3    0    0 -0.18208595303E+02 -0.25176263101E+01 -0.31904326150E+02  0.54367117172E+02  0.40000075217E+02 0.  0.
         12    1    3    3    0    0  0.18208595303E+02  0.25176263101E+01  0.31904326150E+02  0.36820882828E+02  0.00000000000E+00 0. -1.
         11    1    4    4    0    0 -0.36862712534E+01 -0.40907481225E+01  0.41768675406E+01  0.69115149330E+01  0.51100000000E-03 0. -1.
        -11    1    4    4    0    0  0.49438032886E+01 -0.76926657806E+01 -0.88744738899E+01  0.12742628648E+02  0.51100000000E-03 0.  1.
        -12    1    4    4    0    0 -0.19466127338E+02  0.92657875930E+01 -0.27206719800E+02  0.34712973592E+02  0.00000000000E+00 0.  1.
</event>
<event>
 8    1  0.1278459E-006  0.9118800E+02  0.7816164E-02  0.1184000E+00
        -11   -1    0    0    0    0  0.00000000000E+00  0.00000000000E+00  0.45593999997E+02  0.45594000000E+02  0.51100000000E-03 0.  1.
         11   -1    0    0    0    0 -0.00000000000E+00 -0.00000000000E+00 -0.45593999997E+02  0.45594000000E+02  0.51100000000E-03 0. -1.
         23    2    1    2    0    0  0.00000000000E+00  0.00000000000E+00  0.00000000000E+00  0.91188000000E+02  0.91188000000E+02 0.  0.
    9900012    2    3    3    0    0 -0.38564341183E+01 -0.32339554193E+02  0.17177340322E+02  0.54367083796E+02  0.39999999131E+02 0.  0.
         12    1    3    3    0    0  0.38564341183E+01  0.32339554193E+02 -0.17177340322E+02  0.36820916204E+02  0.00000000000E+00 0. -1.
         11    1    4    4    0    0 -0.67568934730E+01 -0.12450691475E+00  0.48443418239E+01  0.83149719991E+01  0.51100000000E-03 0. -1.
        -11    1    4    4    0    0  0.26035811859E+01 -0.26630319475E+02  0.22161982695E+02  0.34743431431E+02  0.51100000000E-03 0.  1.
         12    1    4    4    0    0  0.29687816880E+00 -0.55847278034E+01 -0.98289841973E+01  0.11308680367E+02  0.00000000000E+00 0. -1.
</event>
<event>
 8    1  0.1278459E-006  0.9118800E+02  0.7816164E-02  0.1184000E+00
        -11   -1    0    0    0    0  0.00000000000E+00  0.00000000000E+00  0.45593999997E+02  0.45594000000E+02  0.51100000000E-03 0.  1.
         11   -1    0    0    0    0 -0.00000000000E+00 -0.00000000000E+00 -0.45593999997E+02  0.45594000000E+02  0.51100000000E-03 0. -1.
         23    2    1    2    0    0  0.00000000000E+00 -0.17763568394E-14  0.00000000000E+00  0.91188000000E+02  0.91188000000E+02 0.  0.
    9900012    2    3    3    0    0  0.12175070765E+02 -0.67805395558E+01 -0.34081823618E+02  0.54367098790E+02  0.40000033312E+02 0.  0.
         12    1    3    3    0    0 -0.12175070765E+02  0.67805395558E+01  0.34081823618E+02  0.36820901210E+02  0.00000000000E+00 0. -1.
         11    1    4    4    0    0 -0.18351152907E+01 -0.10766731637E+02 -0.12785982602E+02  0.16815811299E+02  0.51100000000E-03 0. -1.
        -11    1    4    4    0    0  0.16442418059E+02  0.44668893422E+01 -0.96056269164E+00  0.17065429762E+02  0.51100000000E-03 0.  1.
         12    1    4    4    0    0 -0.24322320034E+01 -0.48069726054E+00 -0.20335278324E+02  0.20485857729E+02  0.00000000000E+00 0. -1.
</event>
<event>
 8    1  0.1278459E-006  0.9118800E+02  0.7816164E-02  0.1184000E+00
        -11   -1    0    0    0    0  0.00000000000E+00  0.00000000000E+00  0.45593999997E+02  0.45594000000E+02  0.51100000000E-03 0.  1.
         11   -1    0    0    0    0 -0.00000000000E+00 -0.00000000000E+00 -0.45593999997E+02  0.45594000000E+02  0.51100000000E-03 0. -1.
         23    2    1    2    0    0 -0.44408920985E-15  0.00000000000E+00  0.22204460493E-15  0.91188000000E+02  0.91188000000E+02 0.  0.
    9900012    2    3    3    0    0  0.35612003493E+01 -0.36635911831E+02  0.95270521528E+00  0.54367084329E+02  0.40000000346E+02 0.  0.
        -12    1    3    3    0    0 -0.35612003493E+01  0.36635911831E+02 -0.95270521528E+00  0.36820915671E+02  0.00000000000E+00 0.  1.
         11    1    4    4    0    0 -0.14987917801E+01 -0.59955305953E+01 -0.82157305748E+01  0.10280612485E+02  0.51100000000E-03 0. -1.
        -11    1    4    4    0    0 -0.75786507470E+01  0.15968684109E+00  0.76348605295E+01  0.10758835560E+02  0.51100000000E-03 0.  1.
         12    1    4    4    0    0  0.12638642876E+02 -0.30800068077E+02  0.15335752606E+01  0.33327636285E+02  0.00000000000E+00 0. -1.
</event>
<event>
 8    1  0.1278459E-006  0.9118800E+02  0.7816164E-02  0.1184000E+00
        -11   -1    0    0    0    0  0.00000000000E+00  0.00000000000E+00  0.45593999997E+02  0.45594000000E+02  0.51100000000E-03 0.  1.
         11   -1    0    0    0    0 -0.00000000000E+00 -0.00000000000E+00 -0.45593999997E+02  0.45594000000E+02  0.51100000000E-03 0. -1.
         23    2    1    2    0    0  0.00000000000E+00  0.00000000000E+00  0.00000000000E+00  0.91188000000E+02  0.91188000000E+02 0.  0.
    9900012    2    3    3    0    0 -0.25124095977E+02 -0.19847260146E+02  0.18183732629E+02  0.54367053974E+02  0.39999931144E+02 0.  0.
         12    1    3    3    0    0  0.25124095977E+02  0.19847260146E+02 -0.18183732629E+02  0.36820946026E+02  0.00000000000E+00 0. -1.
         11    1    4    4    0    0 -0.20229114146E+01 -0.44270601360E+00  0.11833651712E+02  0.12013470453E+02  0.51100000000E-03 0. -1.
        -11    1    4    4    0    0 -0.19328652179E+02 -0.14819925137E+01  0.12461902195E+02  0.23045435632E+02  0.51100000000E-03 0.  1.
         12    1    4    4    0    0 -0.37725323827E+01 -0.17922561619E+02 -0.61118212788E+01  0.19308147889E+02  0.00000000000E+00 0. -1.
</event>
<event>
 8    1  0.1278459E-006  0.9118800E+02  0.7816164E-02  0.1184000E+00
        -11   -1    0    0    0    0  0.00000000000E+00  0.00000000000E+00  0.45593999997E+02  0.45594000000E+02  0.51100000000E-03 0.  1.
         11   -1    0    0    0    0 -0.00000000000E+00 -0.00000000000E+00 -0.45593999997E+02  0.45594000000E+02  0.51100000000E-03 0. -1.
         23    2    1    2    0    0 -0.88817841970E-15 -0.71054273576E-14 -0.88817841970E-15  0.91188000000E+02  0.91188000000E+02 0.  0.
    9900012    2    3    3    0    0 -0.53511019651E+01 -0.36290971339E+02  0.31783490816E+01  0.54367207017E+02  0.40000280036E+02 0.  0.
         12    1    3    3    0    0  0.53511019651E+01  0.36290971339E+02 -0.31783490816E+01  0.36820792983E+02  0.00000000000E+00 0. -1.
         11    1    4    4    0    0 -0.20378392423E+01 -0.47947296685E+01 -0.10137844273E+02  0.11398162490E+02  0.51100000000E-03 0. -1.
        -11    1    4    4    0    0  0.88440600372E+01 -0.21356715520E+02  0.14174057306E+02  0.27115135930E+02  0.51100000000E-03 0.  1.
        -12    1    4    4    0    0 -0.12157322760E+02 -0.10139526151E+02 -0.85786395065E+00  0.15853908598E+02  0.00000000000E+00 0.  1.
</event>
<event>
 8    1  0.1278459E-006  0.9118800E+02  0.7816164E-02  0.1184000E+00
        -11   -1    0    0    0    0  0.00000000000E+00  0.00000000000E+00  0.45593999997E+02  0.45594000000E+02  0.51100000000E-03 0.  1.
         11   -1    0    0    0    0 -0.00000000000E+00 -0.00000000000E+00 -0.45593999997E+02  0.45594000000E+02  0.51100000000E-03 0. -1.
         23    2    1    2    0    0  0.35527136788E-14 -0.35527136788E-14  0.53290705182E-14  0.91188000000E+02  0.91188000000E+02 0.  0.
    9900012    2    3    3    0    0 -0.21652844301E+02  0.27611717152E+02 -0.11159077403E+02  0.54367114637E+02  0.40000069439E+02 0.  0.
         12    1    3    3    0    0  0.21652844301E+02 -0.27611717152E+02  0.11159077403E+02  0.36820885363E+02  0.00000000000E+00 0. -1.
         11    1    4    4    0    0 -0.15414107824E+01  0.10704449844E+02  0.21396264789E+01  0.11024481639E+02  0.51100000000E-03 0. -1.
        -11    1    4    4    0    0 -0.48068137669E+01  0.19757269668E+02  0.32844969617E+01  0.20597162034E+02  0.51100000000E-03 0.  1.
         12    1    4    4    0    0 -0.15304619751E+02 -0.28500023598E+01 -0.16583200844E+02  0.22745470965E+02  0.00000000000E+00 0. -1.
</event>
<event>
 8    1  0.1278459E-006  0.9118800E+02  0.7816164E-02  0.1184000E+00
        -11   -1    0    0    0    0  0.00000000000E+00  0.00000000000E+00  0.45593999997E+02  0.45594000000E+02  0.51100000000E-03 0. -1.
         11   -1    0    0    0    0 -0.00000000000E+00 -0.00000000000E+00 -0.45593999997E+02  0.45594000000E+02  0.51100000000E-03 0.  1.
         23    2    1    2    0    0  0.88817841970E-15  0.00000000000E+00 -0.17763568394E-14  0.91188000000E+02  0.91188000000E+02 0.  0.
    9900012    2    3    3    0    0  0.43371733714E+01  0.33914721843E+02  0.13666042095E+02  0.54367080170E+02  0.39999990864E+02 0.  0.
        -12    1    3    3    0    0 -0.43371733714E+01 -0.33914721843E+02 -0.13666042095E+02  0.36820919830E+02  0.00000000000E+00 0.  1.
         11    1    4    4    0    0 -0.11092312941E+02  0.60676869616E+01  0.57403595838E+01  0.13885530593E+02  0.51100000000E-03 0. -1.
        -11    1    4    4    0    0  0.31563479087E+01  0.12533935079E+02  0.14835382583E+02  0.19676143863E+02  0.51100000000E-03 0.  1.
         12    1    4    4    0    0  0.12273138404E+02  0.15313099803E+02 -0.69097000711E+01  0.20805405714E+02  0.00000000000E+00 0. -1.
</event>
<event>
 8    1  0.1278459E-006  0.9118800E+02  0.7816164E-02  0.1184000E+00
        -11   -1    0    0    0    0  0.00000000000E+00  0.00000000000E+00  0.45593999997E+02  0.45594000000E+02  0.51100000000E-03 0. -1.
         11   -1    0    0    0    0 -0.00000000000E+00 -0.00000000000E+00 -0.45593999997E+02  0.45594000000E+02  0.51100000000E-03 0.  1.
         23    2    1    2    0    0  0.17763568394E-14 -0.35527136788E-14  0.35527136788E-14  0.91188000000E+02  0.91188000000E+02 0.  0.
    9900012    2    3    3    0    0  0.10694878563E+02 -0.23943084550E+02 -0.25848208315E+02  0.54367060328E+02  0.39999945630E+02 0.  0.
         12    1    3    3    0    0 -0.10694878563E+02  0.23943084550E+02  0.25848208315E+02  0.36820939672E+02  0.00000000000E+00 0. -1.
         11    1    4    4    0    0  0.16588375201E+02 -0.24206758206E+01 -0.60046357000E+01  0.17807007424E+02  0.51100000000E-03 0. -1.
        -11    1    4    4    0    0  0.22544264288E+01 -0.12689339407E+02  0.53828752624E+00  0.12899283966E+02  0.51100000000E-03 0.  1.
        -12    1    4    4    0    0 -0.81479230672E+01 -0.88330693227E+01 -0.20381860141E+02  0.23660768939E+02  0.00000000000E+00 0.  1.
</event>
<event>
 8    1  0.1278459E-006  0.9118800E+02  0.7816164E-02  0.1184000E+00
        -11   -1    0    0    0    0  0.00000000000E+00  0.00000000000E+00  0.45593999997E+02  0.45594000000E+02  0.51100000000E-03 0. -1.
         11   -1    0    0    0    0 -0.00000000000E+00 -0.00000000000E+00 -0.45593999997E+02  0.45594000000E+02  0.51100000000E-03 0.  1.
         23    2    1    2    0    0  0.71054273576E-14  0.35527136788E-14  0.00000000000E+00  0.91188000000E+02  0.91188000000E+02 0.  0.
    9900012    2    3    3    0    0  0.32175333339E+02 -0.17607345954E+02  0.32418350557E+01  0.54367079295E+02  0.39999988868E+02 0.  0.
         12    1    3    3    0    0 -0.32175333339E+02  0.17607345954E+02 -0.32418350557E+01  0.36820920705E+02  0.00000000000E+00 0. -1.
         11    1    4    4    0    0 -0.12342988340E+01 -0.46553858293E+01 -0.10069401759E+01  0.49203698652E+01  0.51100000000E-03 0. -1.
        -11    1    4    4    0    0 -0.13945624327E+01  0.20121533228E+01  0.10735057703E+02  0.11010677978E+02  0.51100000000E-03 0.  1.
        -12    1    4    4    0    0  0.34804194606E+02 -0.14964113448E+02 -0.64862824719E+01  0.38436031452E+02  0.00000000000E+00 0.  1.
</event>
<event>
 8    1  0.1278459E-006  0.9118800E+02  0.7816164E-02  0.1184000E+00
        -11   -1    0    0    0    0  0.00000000000E+00  0.00000000000E+00  0.45593999997E+02  0.45594000000E+02  0.51100000000E-03 0. -1.
         11   -1    0    0    0    0 -0.00000000000E+00 -0.00000000000E+00 -0.45593999997E+02  0.45594000000E+02  0.51100000000E-03 0.  1.
         23    2    1    2    0    0  0.35527136788E-14 -0.35527136788E-14  0.35527136788E-14  0.91188000000E+02  0.91188000000E+02 0.  0.
    9900012    2    3    3    0    0  0.23982571355E+02  0.97330485472E+01 -0.26189424896E+02  0.54367055699E+02  0.39999935076E+02 0.  0.
         12    1    3    3    0    0 -0.23982571355E+02 -0.97330485472E+01  0.26189424896E+02  0.36820944301E+02  0.00000000000E+00 0. -1.
         11    1    4    4    0    0 -0.53831504936E+01  0.28599164314E+01  0.86697559274E+00  0.61570348522E+01  0.51100000000E-03 0. -1.
        -11    1    4    4    0    0  0.12511420601E+02  0.16332776994E+02 -0.13873990103E+02  0.24814972324E+02  0.51100000000E-03 0.  1.
         12    1    4    4    0    0  0.16854301248E+02 -0.94596448784E+01 -0.13182410386E+02  0.23395048522E+02  0.00000000000E+00 0. -1.
</event>
<event>
 8    1  0.1278459E-006  0.9118800E+02  0.7816164E-02  0.1184000E+00
        -11   -1    0    0    0    0  0.00000000000E+00  0.00000000000E+00  0.45593999997E+02  0.45594000000E+02  0.51100000000E-03 0.  1.
         11   -1    0    0    0    0 -0.00000000000E+00 -0.00000000000E+00 -0.45593999997E+02  0.45594000000E+02  0.51100000000E-03 0. -1.
         23    2    1    2    0    0 -0.17763568394E-14  0.00000000000E+00  0.00000000000E+00  0.91188000000E+02  0.91188000000E+02 0.  0.
    9900012    2    3    3    0    0  0.14060789805E+02  0.10185983309E+02 -0.32470291763E+02  0.54367083212E+02  0.39999997799E+02 0.  0.
        -12    1    3    3    0    0 -0.14060789805E+02 -0.10185983309E+02  0.32470291763E+02  0.36820916788E+02  0.00000000000E+00 0.  1.
         11    1    4    4    0    0  0.18424425541E+02  0.95270716819E+00 -0.79035078821E+01  0.20070688692E+02  0.51100000000E-03 0. -1.
        -11    1    4    4    0    0 -0.89692093832E+01 -0.20830730803E+01 -0.18478979097E+02  0.20646030590E+02  0.51100000000E-03 0.  1.
         12    1    4    4    0    0  0.46055736473E+01  0.11316349222E+02 -0.60878047841E+01  0.13650363930E+02  0.00000000000E+00 0. -1.
</event>
<event>
 8    1  0.1278459E-006  0.9118800E+02  0.7816164E-02  0.1184000E+00
        -11   -1    0    0    0    0  0.00000000000E+00  0.00000000000E+00  0.45593999997E+02  0.45594000000E+02  0.51100000000E-03 0.  1.
         11   -1    0    0    0    0 -0.00000000000E+00 -0.00000000000E+00 -0.45593999997E+02  0.45594000000E+02  0.51100000000E-03 0. -1.
         23    2    1    2    0    0  0.35527136788E-14  0.00000000000E+00  0.00000000000E+00  0.91188000000E+02  0.91188000000E+02 0.  0.
    9900012    2    3    3    0    0  0.22114602194E+02 -0.49016036119E+01  0.29029291962E+02  0.54367066552E+02  0.39999959819E+02 0.  0.
         12    1    3    3    0    0 -0.22114602194E+02  0.49016036119E+01 -0.29029291962E+02  0.36820933448E+02  0.00000000000E+00 0. -1.
         11    1    4    4    0    0  0.92169091601E+01  0.37136635979E+01 -0.24205644227E+01  0.10227504298E+02  0.51100000000E-03 0. -1.
        -11    1    4    4    0    0  0.85659110190E+01 -0.37923606027E+01 -0.24033588920E+01  0.96712442194E+01  0.51100000000E-03 0.  1.
        -12    1    4    4    0    0  0.43317820144E+01 -0.48229066071E+01  0.33853215277E+02  0.34468318035E+02  0.00000000000E+00 0.  1.
</event>
<event>
 8    1  0.1278459E-006  0.9118800E+02  0.7816164E-02  0.1184000E+00
        -11   -1    0    0    0    0  0.00000000000E+00  0.00000000000E+00  0.45593999997E+02  0.45594000000E+02  0.51100000000E-03 0. -1.
         11   -1    0    0    0    0 -0.00000000000E+00 -0.00000000000E+00 -0.45593999997E+02  0.45594000000E+02  0.51100000000E-03 0.  1.
         23    2    1    2    0    0  0.00000000000E+00  0.88817841970E-15 -0.88817841970E-15  0.91188000000E+02  0.91188000000E+02 0.  0.
    9900012    2    3    3    0    0  0.35582209319E+02  0.55697398564E+01  0.76583631668E+01  0.54367270125E+02  0.40000423902E+02 0.  0.
        -12    1    3    3    0    0 -0.35582209319E+02 -0.55697398564E+01 -0.76583631668E+01  0.36820729875E+02  0.00000000000E+00 0.  1.
         11    1    4    4    0    0  0.16385906092E+02 -0.12986051762E+01  0.17274746239E+02  0.23845359124E+02  0.51100000000E-03 0. -1.
        -11    1    4    4    0    0  0.63965126942E+01  0.88982873868E+01  0.40542404722E+01  0.11684680532E+02  0.51100000000E-03 0.  1.
        -12    1    4    4    0    0  0.12799790534E+02 -0.20299423543E+01 -0.13670623545E+02  0.18837230470E+02  0.00000000000E+00 0.  1.
</event>
<event>
 8    1  0.1278459E-006  0.9118800E+02  0.7816164E-02  0.1184000E+00
        -11   -1    0    0    0    0  0.00000000000E+00  0.00000000000E+00  0.45593999997E+02  0.45594000000E+02  0.51100000000E-03 0. -1.
         11   -1    0    0    0    0 -0.00000000000E+00 -0.00000000000E+00 -0.45593999997E+02  0.45594000000E+02  0.51100000000E-03 0.  1.
         23    2    1    2    0    0  0.00000000000E+00 -0.17763568394E-14 -0.44408920985E-15  0.91188000000E+02  0.91188000000E+02 0.  0.
    9900012    2    3    3    0    0 -0.34881592964E+02  0.11409262456E+02 -0.29804693335E+01  0.54367082101E+02  0.39999995265E+02 0.  0.
         12    1    3    3    0    0  0.34881592964E+02 -0.11409262456E+02  0.29804693335E+01  0.36820917899E+02  0.00000000000E+00 0. -1.
         11    1    4    4    0    0  0.29919764698E+01 -0.58491921324E+01  0.79068434617E+01  0.10280230814E+02  0.51100000000E-03 0. -1.
        -11    1    4    4    0    0 -0.24990378435E+02  0.11642750677E+02 -0.11832143243E+02  0.30001204503E+02  0.51100000000E-03 0.  1.
        -12    1    4    4    0    0 -0.12883190999E+02  0.56157039111E+01  0.94483044804E+00  0.14085646783E+02  0.00000000000E+00 0.  1.
</event>
<event>
 8    1  0.1278459E-006  0.9118800E+02  0.7816164E-02  0.1184000E+00
        -11   -1    0    0    0    0  0.00000000000E+00  0.00000000000E+00  0.45593999997E+02  0.45594000000E+02  0.51100000000E-03 0.  1.
         11   -1    0    0    0    0 -0.00000000000E+00 -0.00000000000E+00 -0.45593999997E+02  0.45594000000E+02  0.51100000000E-03 0. -1.
         23    2    1    2    0    0  0.00000000000E+00 -0.14210854715E-13  0.00000000000E+00  0.91188000000E+02  0.91188000000E+02 0.  0.
    9900012    2    3    3    0    0 -0.47917078539E+01  0.35816232113E+02 -0.70722498056E+01  0.54367086592E+02  0.40000005503E+02 0.  0.
        -12    1    3    3    0    0  0.47917078539E+01 -0.35816232113E+02  0.70722498056E+01  0.36820913408E+02  0.00000000000E+00 0.  1.
         11    1    4    4    0    0  0.10463068444E+02  0.13323165449E+02  0.97824598452E+00  0.16968780284E+02  0.51100000000E-03 0. -1.
        -11    1    4    4    0    0  0.45037973968E+01  0.11376278298E+01 -0.68539484405E+01  0.82797945359E+01  0.51100000000E-03 0.  1.
        -12    1    4    4    0    0 -0.19758573695E+02  0.21355438834E+02 -0.11965473496E+01  0.29118511772E+02  0.00000000000E+00 0.  1.
</event>
<event>
 8    1  0.1278459E-006  0.9118800E+02  0.7816164E-02  0.1184000E+00
        -11   -1    0    0    0    0  0.00000000000E+00  0.00000000000E+00  0.45593999997E+02  0.45594000000E+02  0.51100000000E-03 0. -1.
         11   -1    0    0    0    0 -0.00000000000E+00 -0.00000000000E+00 -0.45593999997E+02  0.45594000000E+02  0.51100000000E-03 0.  1.
         23    2    1    2    0    0  0.00000000000E+00  0.35527136788E-14 -0.35527136788E-14  0.91188000000E+02  0.91188000000E+02 0.  0.
    9900012    2    3    3    0    0  0.16429827000E+02  0.25491945230E+02 -0.20880658582E+02  0.54367076741E+02  0.39999983046E+02 0.  0.
         12    1    3    3    0    0 -0.16429827000E+02 -0.25491945230E+02  0.20880658582E+02  0.36820923259E+02  0.00000000000E+00 0. -1.
         11    1    4    4    0    0 -0.43818997010E+01  0.45469707923E+01 -0.12479681548E+02  0.13986366225E+02  0.51100000000E-03 0. -1.
        -11    1    4    4    0    0  0.23793969039E+02  0.18917891270E+02 -0.14200656683E+02  0.33551426545E+02  0.51100000000E-03 0.  1.
         12    1    4    4    0    0 -0.29822423383E+01  0.20270831673E+01  0.57996796486E+01  0.68292839711E+01  0.00000000000E+00 0. -1.
</event>
<event>
 8    1  0.1278459E-006  0.9118800E+02  0.7816164E-02  0.1184000E+00
        -11   -1    0    0    0    0  0.00000000000E+00  0.00000000000E+00  0.45593999997E+02  0.45594000000E+02  0.51100000000E-03 0. -1.
         11   -1    0    0    0    0 -0.00000000000E+00 -0.00000000000E+00 -0.45593999997E+02  0.45594000000E+02  0.51100000000E-03 0.  1.
         23    2    1    2    0    0 -0.35527136788E-14 -0.35527136788E-14  0.00000000000E+00  0.91188000000E+02  0.91188000000E+02 0.  0.
    9900012    2    3    3    0    0 -0.26448126908E+02  0.25066261355E+02 -0.52874488427E+01  0.54367109320E+02  0.40000057316E+02 0.  0.
         12    1    3    3    0    0  0.26448126908E+02 -0.25066261355E+02  0.52874488427E+01  0.36820890680E+02  0.00000000000E+00 0. -1.
         11    1    4    4    0    0  0.32797869986E+01 -0.57832491164E+00 -0.65568310209E+01  0.73541482007E+01  0.51100000000E-03 0. -1.
        -11    1    4    4    0    0 -0.22123948628E-01 -0.15550623537E+01 -0.59009634443E+01  0.61024649303E+01  0.51100000000E-03 0.  1.
        -12    1    4    4    0    0 -0.29705789958E+02  0.27199648620E+02  0.71703456225E+01  0.40910496189E+02  0.00000000000E+00 0.  1.
</event>
<event>
 8    1  0.1278459E-006  0.9118800E+02  0.7816164E-02  0.1184000E+00
        -11   -1    0    0    0    0  0.00000000000E+00  0.00000000000E+00  0.45593999997E+02  0.45594000000E+02  0.51100000000E-03 0. -1.
         11   -1    0    0    0    0 -0.00000000000E+00 -0.00000000000E+00 -0.45593999997E+02  0.45594000000E+02  0.51100000000E-03 0.  1.
         23    2    1    2    0    0  0.26645352591E-14  0.00000000000E+00  0.17763568394E-14  0.91188000000E+02  0.91188000000E+02 0.  0.
    9900012    2    3    3    0    0 -0.68967598787E+01  0.35812513474E+02  0.50673104566E+01  0.54367094886E+02  0.40000024411E+02 0.  0.
        -12    1    3    3    0    0  0.68967598787E+01 -0.35812513474E+02 -0.50673104566E+01  0.36820905114E+02  0.00000000000E+00 0.  1.
         11    1    4    4    0    0  0.26058497802E+01 -0.16576664779E+01  0.42110994171E+01  0.52222284315E+01  0.51100000000E-03 0. -1.
        -11    1    4    4    0    0  0.40937317500E+01  0.86573662458E+01  0.12035667213E+02  0.15380699447E+02  0.51100000000E-03 0.  1.
         12    1    4    4    0    0 -0.13596341409E+02  0.28812813706E+02 -0.11179456173E+02  0.33764167008E+02  0.00000000000E+00 0. -1.
</event>
<event>
 8    1  0.1278459E-006  0.9118800E+02  0.7816164E-02  0.1184000E+00
        -11   -1    0    0    0    0  0.00000000000E+00  0.00000000000E+00  0.45593999997E+02  0.45594000000E+02  0.51100000000E-03 0. -1.
         11   -1    0    0    0    0 -0.00000000000E+00 -0.00000000000E+00 -0.45593999997E+02  0.45594000000E+02  0.51100000000E-03 0.  1.
         23    2    1    2    0    0  0.00000000000E+00 -0.17763568394E-14 -0.35527136788E-14  0.91188000000E+02  0.91188000000E+02 0.  0.
    9900012    2    3    3    0    0  0.30641508326E+02 -0.92770043078E+01 -0.18188317197E+02  0.54367085781E+02  0.40000003656E+02 0.  0.
         12    1    3    3    0    0 -0.30641508326E+02  0.92770043078E+01  0.18188317197E+02  0.36820914219E+02  0.00000000000E+00 0. -1.
         11    1    4    4    0    0  0.98307415214E+01  0.57679405875E+01  0.86345790076E+01  0.14299250763E+02  0.51100000000E-03 0. -1.
        -11    1    4    4    0    0  0.10815215258E+02 -0.34718013111E+01 -0.29814204045E+01  0.11743557950E+02  0.51100000000E-03 0.  1.
         12    1    4    4    0    0  0.99955515466E+01 -0.11573143584E+02 -0.23841475800E+02  0.28324277069E+02  0.00000000000E+00 0. -1.
</event>
<event>
 8    1  0.1278459E-006  0.9118800E+02  0.7816164E-02  0.1184000E+00
        -11   -1    0    0    0    0  0.00000000000E+00  0.00000000000E+00  0.45593999997E+02  0.45594000000E+02  0.51100000000E-03 0. -1.
         11   -1    0    0    0    0 -0.00000000000E+00 -0.00000000000E+00 -0.45593999997E+02  0.45594000000E+02  0.51100000000E-03 0.  1.
         23    2    1    2    0    0 -0.35527136788E-14 -0.17763568394E-14  0.00000000000E+00  0.91188000000E+02  0.91188000000E+02 0.  0.
    9900012    2    3    3    0    0 -0.19006501907E+02 -0.12367884046E+02 -0.29009780206E+02  0.54367095366E+02  0.40000025505E+02 0.  0.
         12    1    3    3    0    0  0.19006501907E+02  0.12367884046E+02  0.29009780206E+02  0.36820904634E+02  0.00000000000E+00 0. -1.
         11    1    4    4    0    0 -0.66212488668E+01 -0.40093868196E+01 -0.57956940218E+01  0.96698598067E+01  0.51100000000E-03 0. -1.
        -11    1    4    4    0    0 -0.20858899921E+02 -0.15790655072E+02 -0.20135177943E+02  0.33013086566E+02  0.51100000000E-03 0.  1.
        -12    1    4    4    0    0  0.84736468817E+01  0.74321578465E+01 -0.30789082411E+01  0.11684148993E+02  0.00000000000E+00 0.  1.
</event>
<event>
 8    1  0.1278459E-006  0.9118800E+02  0.7816164E-02  0.1184000E+00
        -11   -1    0    0    0    0  0.00000000000E+00  0.00000000000E+00  0.45593999997E+02  0.45594000000E+02  0.51100000000E-03 0.  1.
         11   -1    0    0    0    0 -0.00000000000E+00 -0.00000000000E+00 -0.45593999997E+02  0.45594000000E+02  0.51100000000E-03 0. -1.
         23    2    1    2    0    0  0.00000000000E+00  0.00000000000E+00 -0.35527136788E-14  0.91188000000E+02  0.91188000000E+02 0.  0.
    9900012    2    3    3    0    0 -0.12202167525E+02 -0.28762563113E+02  0.19483384037E+02  0.54367079551E+02  0.39999989453E+02 0.  0.
         12    1    3    3    0    0  0.12202167525E+02  0.28762563113E+02 -0.19483384037E+02  0.36820920449E+02  0.00000000000E+00 0. -1.
         11    1    4    4    0    0 -0.12139400543E+02 -0.24626182272E+02 -0.31233681048E+01  0.27632758230E+02  0.51100000000E-03 0. -1.
        -11    1    4    4    0    0 -0.53113115666E+01  0.15815473406E+01  0.48851352632E+01  0.73875482638E+01  0.51100000000E-03 0.  1.
         12    1    4    4    0    0  0.52485445846E+01 -0.57179281821E+01  0.17721616878E+02  0.19346773058E+02  0.00000000000E+00 0. -1.
</event>
<event>
 8    1  0.1278459E-006  0.9118800E+02  0.7816164E-02  0.1184000E+00
        -11   -1    0    0    0    0  0.00000000000E+00  0.00000000000E+00  0.45593999997E+02  0.45594000000E+02  0.51100000000E-03 0. -1.
         11   -1    0    0    0    0 -0.00000000000E+00 -0.00000000000E+00 -0.45593999997E+02  0.45594000000E+02  0.51100000000E-03 0.  1.
         23    2    1    2    0    0  0.00000000000E+00  0.00000000000E+00  0.00000000000E+00  0.91188000000E+02  0.91188000000E+02 0.  0.
    9900012    2    3    3    0    0  0.31871889305E+02  0.44005358426E+01  0.17905246913E+02  0.54367083246E+02  0.39999997875E+02 0.  0.
        -12    1    3    3    0    0 -0.31871889305E+02 -0.44005358426E+01 -0.17905246913E+02  0.36820916754E+02  0.00000000000E+00 0.  1.
         11    1    4    4    0    0  0.34017089553E+02  0.77021198584E+01  0.18932136911E+02  0.39685146343E+02  0.51100000000E-03 0. -1.
        -11    1    4    4    0    0 -0.66828895072E+01 -0.88646363926E+00  0.37073859085E+01  0.76936038685E+01  0.51100000000E-03 0.  1.
        -12    1    4    4    0    0  0.45376892598E+01 -0.24151203765E+01 -0.47342759057E+01  0.69883330346E+01  0.00000000000E+00 0.  1.
</event>
<event>
 8    1  0.1278459E-006  0.9118800E+02  0.7816164E-02  0.1184000E+00
        -11   -1    0    0    0    0  0.00000000000E+00  0.00000000000E+00  0.45593999997E+02  0.45594000000E+02  0.51100000000E-03 0.  1.
         11   -1    0    0    0    0 -0.00000000000E+00 -0.00000000000E+00 -0.45593999997E+02  0.45594000000E+02  0.51100000000E-03 0. -1.
         23    2    1    2    0    0 -0.88817841970E-15  0.00000000000E+00  0.00000000000E+00  0.91188000000E+02  0.91188000000E+02 0.  0.
    9900012    2    3    3    0    0  0.71257323814E+01  0.32364101553E+02 -0.16048943704E+02  0.54367085762E+02  0.40000003611E+02 0.  0.
        -12    1    3    3    0    0 -0.71257323814E+01 -0.32364101553E+02  0.16048943704E+02  0.36820914238E+02  0.00000000000E+00 0.  1.
         11    1    4    4    0    0  0.12213723612E+02  0.35513501665E+02 -0.63359349620E+01  0.38085796789E+02  0.51100000000E-03 0. -1.
        -11    1    4    4    0    0 -0.55760542326E+01 -0.63515392768E+00 -0.11741717025E+02  0.13013981723E+02  0.51100000000E-03 0.  1.
        -12    1    4    4    0    0  0.48806300160E+00 -0.25142461841E+01  0.20287082827E+01  0.32673072498E+01  0.00000000000E+00 0.  1.
</event>
<event>
 8    1  0.1278459E-006  0.9118800E+02  0.7816164E-02  0.1184000E+00
        -11   -1    0    0    0    0  0.00000000000E+00  0.00000000000E+00  0.45593999997E+02  0.45594000000E+02  0.51100000000E-03 0. -1.
         11   -1    0    0    0    0 -0.00000000000E+00 -0.00000000000E+00 -0.45593999997E+02  0.45594000000E+02  0.51100000000E-03 0.  1.
         23    2    1    2    0    0  0.35527136788E-14  0.00000000000E+00  0.00000000000E+00  0.91188000000E+02  0.91188000000E+02 0.  0.
    9900012    2    3    3    0    0 -0.18954389037E+02  0.18196046872E+02 -0.25795651425E+02  0.54367073640E+02  0.39999975977E+02 0.  0.
         12    1    3    3    0    0  0.18954389037E+02 -0.18196046872E+02  0.25795651425E+02  0.36820926360E+02  0.00000000000E+00 0. -1.
         11    1    4    4    0    0  0.45657949236E+01  0.15721657771E+02  0.26596793088E+00  0.16373385280E+02  0.51100000000E-03 0. -1.
        -11    1    4    4    0    0 -0.13071465489E+02 -0.45985849578E+01 -0.81233849034E+01  0.16062365211E+02  0.51100000000E-03 0.  1.
        -12    1    4    4    0    0 -0.10448718472E+02  0.70729740592E+01 -0.17938234453E+02  0.21931323148E+02  0.00000000000E+00 0.  1.
</event>
<event>
 8    1  0.1278459E-006  0.9118800E+02  0.7816164E-02  0.1184000E+00
        -11   -1    0    0    0    0  0.00000000000E+00  0.00000000000E+00  0.45593999997E+02  0.45594000000E+02  0.51100000000E-03 0.  1.
         11   -1    0    0    0    0 -0.00000000000E+00 -0.00000000000E+00 -0.45593999997E+02  0.45594000000E+02  0.51100000000E-03 0. -1.
         23    2    1    2    0    0  0.00000000000E+00  0.00000000000E+00 -0.35527136788E-14  0.91188000000E+02  0.91188000000E+02 0.  0.
    9900012    2    3    3    0    0 -0.22579637395E+02  0.84451028805E+01 -0.27831999799E+02  0.54367082027E+02  0.39999995097E+02 0.  0.
        -12    1    3    3    0    0  0.22579637395E+02 -0.84451028805E+01  0.27831999799E+02  0.36820917973E+02  0.00000000000E+00 0.  1.
         11    1    4    4    0    0 -0.91291097030E+00 -0.40585400761E+01  0.14942412264E+01  0.44201709348E+01  0.51100000000E-03 0. -1.
        -11    1    4    4    0    0 -0.14913128997E+01  0.83284783364E-02  0.66684249097E+01  0.68331526081E+01  0.51100000000E-03 0.  1.
         12    1    4    4    0    0 -0.20175413525E+02  0.12495314478E+02 -0.35994665935E+02  0.43113758484E+02  0.00000000000E+00 0. -1.
</event>
<event>
 8    1  0.1278459E-006  0.9118800E+02  0.7816164E-02  0.1184000E+00
        -11   -1    0    0    0    0  0.00000000000E+00  0.00000000000E+00  0.45593999997E+02  0.45594000000E+02  0.51100000000E-03 0.  1.
         11   -1    0    0    0    0 -0.00000000000E+00 -0.00000000000E+00 -0.45593999997E+02  0.45594000000E+02  0.51100000000E-03 0. -1.
         23    2    1    2    0    0  0.71054273576E-14 -0.44408920985E-15 -0.88817841970E-15  0.91188000000E+02  0.91188000000E+02 0.  0.
    9900012    2    3    3    0    0 -0.36072289721E+02  0.21569888136E+01  0.70652558031E+01  0.54367074889E+02  0.39999978824E+02 0.  0.
         12    1    3    3    0    0  0.36072289721E+02 -0.21569888136E+01 -0.70652558031E+01  0.36820925111E+02  0.00000000000E+00 0. -1.
         11    1    4    4    0    0  0.56485860678E+01 -0.63017589313E+01  0.34026212420E+01  0.91212127358E+01  0.51100000000E-03 0. -1.
        -11    1    4    4    0    0 -0.44346006914E+01 -0.15557627558E+01  0.46695409419E+01  0.66250052010E+01  0.51100000000E-03 0.  1.
        -12    1    4    4    0    0 -0.37286275098E+02  0.10014510501E+02 -0.10069063807E+01  0.38620856952E+02  0.00000000000E+00 0.  1.
</event>
<event>
 8    1  0.1278459E-006  0.9118800E+02  0.7816164E-02  0.1184000E+00
        -11   -1    0    0    0    0  0.00000000000E+00  0.00000000000E+00  0.45593999997E+02  0.45594000000E+02  0.51100000000E-03 0.  1.
         11   -1    0    0    0    0 -0.00000000000E+00 -0.00000000000E+00 -0.45593999997E+02  0.45594000000E+02  0.51100000000E-03 0. -1.
         23    2    1    2    0    0 -0.44408920985E-15  0.35527136788E-14 -0.35527136788E-14  0.91188000000E+02  0.91188000000E+02 0.  0.
    9900012    2    3    3    0    0  0.39027535458E+01  0.25136798831E+02 -0.26621225723E+02  0.54367084752E+02  0.40000001310E+02 0.  0.
        -12    1    3    3    0    0 -0.39027535458E+01 -0.25136798831E+02  0.26621225723E+02  0.36820915248E+02  0.00000000000E+00 0.  1.
         11    1    4    4    0    0 -0.36892391528E+01  0.63679147529E+01 -0.34838232368E+01  0.81423490735E+01  0.51100000000E-03 0.  1.
        -11    1    4    4    0    0  0.50328420285E+00 -0.85861175802E+01 -0.14172674561E+02  0.16578281412E+02  0.51100000000E-03 0. -1.
        -12    1    4    4    0    0  0.70887084958E+01  0.27355001658E+02 -0.89647279252E+01  0.29646454267E+02  0.00000000000E+00 0.  1.
</event>
<event>
 8    1  0.1278459E-006  0.9118800E+02  0.7816164E-02  0.1184000E+00
        -11   -1    0    0    0    0  0.00000000000E+00  0.00000000000E+00  0.45593999997E+02  0.45594000000E+02  0.51100000000E-03 0.  1.
         11   -1    0    0    0    0 -0.00000000000E+00 -0.00000000000E+00 -0.45593999997E+02  0.45594000000E+02  0.51100000000E-03 0. -1.
         23    2    1    2    0    0  0.00000000000E+00 -0.17763568394E-14  0.00000000000E+00  0.91188000000E+02  0.91188000000E+02 0.  0.
    9900012    2    3    3    0    0 -0.34012091930E+02  0.12950383068E+02  0.55898314659E+01  0.54367067979E+02  0.39999963071E+02 0.  0.
        -12    1    3    3    0    0  0.34012091930E+02 -0.12950383068E+02 -0.55898314659E+01  0.36820932021E+02  0.00000000000E+00 0.  1.
         11    1    4    4    0    0  0.63565312749E+00 -0.78728011464E+01  0.59558743099E+01  0.98922945694E+01  0.51100000000E-03 0. -1.
        -11    1    4    4    0    0 -0.13794203697E+02  0.10032930914E+02 -0.92099998202E+01  0.19384629357E+02  0.51100000000E-03 0.  1.
        -12    1    4    4    0    0 -0.20853541361E+02  0.10790253300E+02  0.88439569761E+01  0.25090144053E+02  0.00000000000E+00 0.  1.
</event>
<event>
 8    1  0.1278459E-006  0.9118800E+02  0.7816164E-02  0.1184000E+00
        -11   -1    0    0    0    0  0.00000000000E+00  0.00000000000E+00  0.45593999997E+02  0.45594000000E+02  0.51100000000E-03 0.  1.
         11   -1    0    0    0    0 -0.00000000000E+00 -0.00000000000E+00 -0.45593999997E+02  0.45594000000E+02  0.51100000000E-03 0. -1.
         23    2    1    2    0    0  0.00000000000E+00  0.00000000000E+00  0.00000000000E+00  0.91188000000E+02  0.91188000000E+02 0.  0.
    9900012    2    3    3    0    0  0.20036877433E+02 -0.22331919990E+02 -0.21344554962E+02  0.54367066630E+02  0.39999959996E+02 0.  0.
        -12    1    3    3    0    0 -0.20036877433E+02  0.22331919990E+02  0.21344554962E+02  0.36820933370E+02  0.00000000000E+00 0.  1.
         11    1    4    4    0    0 -0.14093263241E+01 -0.13434835886E+02  0.19147236341E+00  0.13509910358E+02  0.51100000000E-03 0. -1.
        -11    1    4    4    0    0  0.13079673219E+01 -0.68521257889E+01  0.41784683902E+01  0.81315438074E+01  0.51100000000E-03 0.  1.
         12    1    4    4    0    0  0.20138236435E+02 -0.20449583156E+01 -0.25714495716E+02  0.32725612464E+02  0.00000000000E+00 0. -1.
</event>
<event>
 8    1  0.1278459E-006  0.9118800E+02  0.7816164E-02  0.1184000E+00
        -11   -1    0    0    0    0  0.00000000000E+00  0.00000000000E+00  0.45593999997E+02  0.45594000000E+02  0.51100000000E-03 0.  1.
         11   -1    0    0    0    0 -0.00000000000E+00 -0.00000000000E+00 -0.45593999997E+02  0.45594000000E+02  0.51100000000E-03 0. -1.
         23    2    1    2    0    0  0.33306690739E-15 -0.35527136788E-14  0.00000000000E+00  0.91188000000E+02  0.91188000000E+02 0.  0.
    9900012    2    3    3    0    0 -0.89701796662E+00  0.29646737312E+02  0.21818543931E+02  0.54367047626E+02  0.39999916673E+02 0.  0.
         12    1    3    3    0    0  0.89701796662E+00 -0.29646737312E+02 -0.21818543931E+02  0.36820952374E+02  0.00000000000E+00 0. -1.
         11    1    4    4    0    0 -0.11594634010E+02  0.14591641786E+02  0.17815134208E+02  0.25782369072E+02  0.51100000000E-03 0. -1.
        -11    1    4    4    0    0 -0.21196852366E+00  0.12233442546E+02  0.10016245476E+02  0.15812249077E+02  0.51100000000E-03 0.  1.
         12    1    4    4    0    0  0.10909584567E+02  0.28216529801E+01 -0.60128357525E+01  0.12772429477E+02  0.00000000000E+00 0. -1.
</event>
<event>
 8    1  0.1278459E-006  0.9118800E+02  0.7816164E-02  0.1184000E+00
        -11   -1    0    0    0    0  0.00000000000E+00  0.00000000000E+00  0.45593999997E+02  0.45594000000E+02  0.51100000000E-03 0. -1.
         11   -1    0    0    0    0 -0.00000000000E+00 -0.00000000000E+00 -0.45593999997E+02  0.45594000000E+02  0.51100000000E-03 0.  1.
         23    2    1    2    0    0  0.00000000000E+00  0.35527136788E-14  0.00000000000E+00  0.91188000000E+02  0.91188000000E+02 0.  0.
    9900012    2    3    3    0    0 -0.50184207192E+01  0.18478538584E+02  0.31450567683E+02  0.54367093679E+02  0.40000021659E+02 0.  0.
        -12    1    3    3    0    0  0.50184207192E+01 -0.18478538584E+02 -0.31450567683E+02  0.36820906321E+02  0.00000000000E+00 0.  1.
         11    1    4    4    0    0 -0.12354078224E+02  0.82338342222E+01  0.14594899582E+02  0.20818990581E+02  0.51100000000E-03 0. -1.
        -11    1    4    4    0    0  0.10355659431E+02  0.53114284266E+01 -0.36855970256E+01  0.12207971980E+02  0.51100000000E-03 0.  1.
        -12    1    4    4    0    0 -0.30200019261E+01  0.49332759355E+01  0.20541265127E+02  0.21340131117E+02  0.00000000000E+00 0.  1.
</event>
<event>
 8    1  0.1278459E-006  0.9118800E+02  0.7816164E-02  0.1184000E+00
        -11   -1    0    0    0    0  0.00000000000E+00  0.00000000000E+00  0.45593999997E+02  0.45594000000E+02  0.51100000000E-03 0. -1.
         11   -1    0    0    0    0 -0.00000000000E+00 -0.00000000000E+00 -0.45593999997E+02  0.45594000000E+02  0.51100000000E-03 0.  1.
         23    2    1    2    0    0  0.00000000000E+00  0.00000000000E+00  0.00000000000E+00  0.91188000000E+02  0.91188000000E+02 0.  0.
    9900012    2    3    3    0    0 -0.19961003069E+02 -0.28784883401E+02  0.11347719276E+02  0.54367056385E+02  0.39999936641E+02 0.  0.
        -12    1    3    3    0    0  0.19961003069E+02  0.28784883401E+02 -0.11347719276E+02  0.36820943615E+02  0.00000000000E+00 0.  1.
         11    1    4    4    0    0 -0.16611057846E+02 -0.31530389479E+01  0.10686816474E+02  0.20001923507E+02  0.51100000000E-03 0. -1.
        -11    1    4    4    0    0  0.67603601862E+00 -0.23412837438E+02 -0.78408401321E+01  0.24700136757E+02  0.51100000000E-03 0.  1.
        -12    1    4    4    0    0 -0.40259812419E+01 -0.22190070148E+01  0.85017429340E+01  0.96649961204E+01  0.00000000000E+00 0.  1.
</event>
<event>
 8    1  0.1278459E-006  0.9118800E+02  0.7816164E-02  0.1184000E+00
        -11   -1    0    0    0    0  0.00000000000E+00  0.00000000000E+00  0.45593999997E+02  0.45594000000E+02  0.51100000000E-03 0. -1.
         11   -1    0    0    0    0 -0.00000000000E+00 -0.00000000000E+00 -0.45593999997E+02  0.45594000000E+02  0.51100000000E-03 0.  1.
         23    2    1    2    0    0  0.00000000000E+00  0.00000000000E+00  0.00000000000E+00  0.91188000000E+02  0.91188000000E+02 0.  0.
    9900012    2    3    3    0    0 -0.21291508630E+02 -0.21737635572E+02  0.20734662017E+02  0.54367090872E+02  0.40000015262E+02 0.  0.
        -12    1    3    3    0    0  0.21291508630E+02  0.21737635572E+02 -0.20734662017E+02  0.36820909128E+02  0.00000000000E+00 0.  1.
         11    1    4    4    0    0 -0.11769433041E+02 -0.14986863043E+02  0.10931757584E+02  0.21968817495E+02  0.51100000000E-03 0. -1.
        -11    1    4    4    0    0 -0.53177997546E+01 -0.17883071027E+02  0.36829660058E+01  0.19017030853E+02  0.51100000000E-03 0.  1.
        -12    1    4    4    0    0 -0.42042758345E+01  0.11132298498E+02  0.61199384281E+01  0.13381242525E+02  0.00000000000E+00 0.  1.
</event>
<event>
 8    1  0.1278459E-006  0.9118800E+02  0.7816164E-02  0.1184000E+00
        -11   -1    0    0    0    0  0.00000000000E+00  0.00000000000E+00  0.45593999997E+02  0.45594000000E+02  0.51100000000E-03 0. -1.
         11   -1    0    0    0    0 -0.00000000000E+00 -0.00000000000E+00 -0.45593999997E+02  0.45594000000E+02  0.51100000000E-03 0.  1.
         23    2    1    2    0    0 -0.17763568394E-14 -0.35527136788E-14  0.00000000000E+00  0.91188000000E+02  0.91188000000E+02 0.  0.
    9900012    2    3    3    0    0  0.13066459096E+02  0.27094112857E+02 -0.21235745547E+02  0.54367079401E+02  0.39999989111E+02 0.  0.
         12    1    3    3    0    0 -0.13066459096E+02 -0.27094112857E+02  0.21235745547E+02  0.36820920599E+02  0.00000000000E+00 0. -1.
         11    1    4    4    0    0 -0.82700337506E+01  0.84191741960E+01 -0.82137934798E+00  0.11830072556E+02  0.51100000000E-03 0. -1.
        -11    1    4    4    0    0  0.97441869783E+01  0.22187862708E+02 -0.17997289170E+02  0.30185308499E+02  0.51100000000E-03 0.  1.
         12    1    4    4    0    0  0.11592305868E+02 -0.35129240468E+01 -0.24170770281E+01  0.12351698347E+02  0.00000000000E+00 0. -1.
</event>
<event>
 8    1  0.1278459E-006  0.9118800E+02  0.7816164E-02  0.1184000E+00
        -11   -1    0    0    0    0  0.00000000000E+00  0.00000000000E+00  0.45593999997E+02  0.45594000000E+02  0.51100000000E-03 0.  1.
         11   -1    0    0    0    0 -0.00000000000E+00 -0.00000000000E+00 -0.45593999997E+02  0.45594000000E+02  0.51100000000E-03 0. -1.
         23    2    1    2    0    0  0.00000000000E+00  0.00000000000E+00  0.00000000000E+00  0.91188000000E+02  0.91188000000E+02 0.  0.
    9900012    2    3    3    0    0  0.26349005763E+02 -0.25095729414E+02 -0.56313904948E+01  0.54367105138E+02  0.40000047783E+02 0.  0.
        -12    1    3    3    0    0 -0.26349005763E+02  0.25095729414E+02  0.56313904948E+01  0.36820894862E+02  0.00000000000E+00 0.  1.
         11    1    4    4    0    0  0.13973990679E+01 -0.84381112197E+01 -0.98710575164E-02  0.85530428977E+01  0.51100000000E-03 0. -1.
        -11    1    4    4    0    0  0.25976881814E+02 -0.10535355316E+02  0.93954947466E+01  0.29564631272E+02  0.51100000000E-03 0.  1.
        -12    1    4    4    0    0 -0.10252751188E+01 -0.61222628777E+01 -0.15017014184E+02  0.16249430969E+02  0.00000000000E+00 0.  1.
</event>
<event>
 8    1  0.1278459E-006  0.9118800E+02  0.7816164E-02  0.1184000E+00
        -11   -1    0    0    0    0  0.00000000000E+00  0.00000000000E+00  0.45593999997E+02  0.45594000000E+02  0.51100000000E-03 0. -1.
         11   -1    0    0    0    0 -0.00000000000E+00 -0.00000000000E+00 -0.45593999997E+02  0.45594000000E+02  0.51100000000E-03 0.  1.
         23    2    1    2    0    0  0.00000000000E+00  0.00000000000E+00  0.00000000000E+00  0.91188000000E+02  0.91188000000E+02 0.  0.
    9900012    2    3    3    0    0 -0.20770910960E+02 -0.29407899536E+02 -0.77152598241E+01  0.54367074817E+02  0.39999978660E+02 0.  0.
         12    1    3    3    0    0  0.20770910960E+02  0.29407899536E+02  0.77152598241E+01  0.36820925183E+02  0.00000000000E+00 0. -1.
         11    1    4    4    0    0 -0.27623711410E+01  0.74025854956E+00 -0.22519264301E+01  0.36400343334E+01  0.51100000000E-03 0. -1.
        -11    1    4    4    0    0 -0.42794144994E+01 -0.29185695683E+02 -0.15848402129E+02  0.33485669640E+02  0.51100000000E-03 0.  1.
         12    1    4    4    0    0 -0.13729125319E+02 -0.96246240246E+00  0.10385068736E+02  0.17241370843E+02  0.00000000000E+00 0. -1.
</event>
<event>
 8    1  0.1278459E-006  0.9118800E+02  0.7816164E-02  0.1184000E+00
        -11   -1    0    0    0    0  0.00000000000E+00  0.00000000000E+00  0.45593999997E+02  0.45594000000E+02  0.51100000000E-03 0.  1.
         11   -1    0    0    0    0 -0.00000000000E+00 -0.00000000000E+00 -0.45593999997E+02  0.45594000000E+02  0.51100000000E-03 0. -1.
         23    2    1    2    0    0 -0.35527136788E-14 -0.35527136788E-14 -0.17763568394E-14  0.91188000000E+02  0.91188000000E+02 0.  0.
    9900012    2    3    3    0    0  0.24886426535E+02  0.24706339159E+02 -0.11226835713E+02  0.54367092075E+02  0.40000018004E+02 0.  0.
        -12    1    3    3    0    0 -0.24886426535E+02 -0.24706339159E+02  0.11226835713E+02  0.36820907925E+02  0.00000000000E+00 0.  1.
         11    1    4    4    0    0  0.16108483258E+01  0.76342058084E+01  0.69165975783E+01  0.10426660682E+02  0.51100000000E-03 0. -1.
        -11    1    4    4    0    0  0.84334778748E+01 -0.73406718565E+01 -0.28680210366E+01  0.11542727464E+02  0.51100000000E-03 0.  1.
         12    1    4    4    0    0  0.14842100334E+02  0.24412805207E+02 -0.15275412255E+02  0.32397703930E+02  0.00000000000E+00 0. -1.
</event>
<event>
 8    1  0.1278459E-006  0.9118800E+02  0.7816164E-02  0.1184000E+00
        -11   -1    0    0    0    0  0.00000000000E+00  0.00000000000E+00  0.45593999997E+02  0.45594000000E+02  0.51100000000E-03 0. -1.
         11   -1    0    0    0    0 -0.00000000000E+00 -0.00000000000E+00 -0.45593999997E+02  0.45594000000E+02  0.51100000000E-03 0.  1.
         23    2    1    2    0    0  0.88817841970E-15  0.00000000000E+00  0.00000000000E+00  0.91188000000E+02  0.91188000000E+02 0.  0.
    9900012    2    3    3    0    0 -0.69083779001E+01  0.78179515675E+01 -0.35311924359E+02  0.54367108459E+02  0.40000055354E+02 0.  0.
         12    1    3    3    0    0  0.69083779001E+01 -0.78179515675E+01  0.35311924359E+02  0.36820891541E+02  0.00000000000E+00 0. -1.
         11    1    4    4    0    0 -0.15622744031E+02 -0.24281679324E+01 -0.26611160634E+02  0.30953513551E+02  0.51100000000E-03 0.  1.
        -11    1    4    4    0    0  0.58376391643E+01  0.14844196976E+02 -0.45599483954E+01  0.16589796398E+02  0.51100000000E-03 0. -1.
        -12    1    4    4    0    0  0.28767269668E+01 -0.45980774764E+01 -0.41408153294E+01  0.68237985105E+01  0.00000000000E+00 0.  1.
</event>
<event>
 8    1  0.1278459E-006  0.9118800E+02  0.7816164E-02  0.1184000E+00
        -11   -1    0    0    0    0  0.00000000000E+00  0.00000000000E+00  0.45593999997E+02  0.45594000000E+02  0.51100000000E-03 0.  1.
         11   -1    0    0    0    0 -0.00000000000E+00 -0.00000000000E+00 -0.45593999997E+02  0.45594000000E+02  0.51100000000E-03 0. -1.
         23    2    1    2    0    0 -0.35527136788E-14  0.00000000000E+00 -0.35527136788E-14  0.91188000000E+02  0.91188000000E+02 0.  0.
    9900012    2    3    3    0    0  0.20649431854E+02 -0.86788789283E+01  0.29224261089E+02  0.54367090023E+02  0.40000013326E+02 0.  0.
         12    1    3    3    0    0 -0.20649431854E+02  0.86788789283E+01 -0.29224261089E+02  0.36820909977E+02  0.00000000000E+00 0. -1.
         11    1    4    4    0    0  0.44922236395E+01  0.26600899004E+01 -0.60837777707E+00  0.52560703274E+01  0.51100000000E-03 0. -1.
        -11    1    4    4    0    0 -0.78346791173E+01 -0.12745298013E+02  0.12169754880E+02  0.19285428499E+02  0.51100000000E-03 0.  1.
        -12    1    4    4    0    0  0.23991887332E+02  0.14063291839E+01  0.17662883986E+02  0.29825591196E+02  0.00000000000E+00 0.  1.
</event>
<event>
 8    1  0.1278459E-006  0.9118800E+02  0.7816164E-02  0.1184000E+00
        -11   -1    0    0    0    0  0.00000000000E+00  0.00000000000E+00  0.45593999997E+02  0.45594000000E+02  0.51100000000E-03 0.  1.
         11   -1    0    0    0    0 -0.00000000000E+00 -0.00000000000E+00 -0.45593999997E+02  0.45594000000E+02  0.51100000000E-03 0. -1.
         23    2    1    2    0    0  0.00000000000E+00 -0.17763568394E-14  0.00000000000E+00  0.91188000000E+02  0.91188000000E+02 0.  0.
    9900012    2    3    3    0    0  0.78793886151E+01  0.14026642365E+02  0.33120213392E+02  0.54367082085E+02  0.39999995229E+02 0.  0.
         12    1    3    3    0    0 -0.78793886151E+01 -0.14026642365E+02 -0.33120213392E+02  0.36820917915E+02  0.00000000000E+00 0. -1.
         11    1    4    4    0    0  0.70788295860E+01 -0.46909994864E+01  0.15577184116E+02  0.17741588704E+02  0.51100000000E-03 0. -1.
        -11    1    4    4    0    0  0.71926687641E+00 -0.66287187868E+01  0.23245774010E+01  0.70612263771E+01  0.51100000000E-03 0.  1.
        -12    1    4    4    0    0  0.81292152717E-01  0.25346360638E+02  0.15218451875E+02  0.29564267004E+02  0.00000000000E+00 0.  1.
</event>
<event>
 8    1  0.1278459E-006  0.9118800E+02  0.7816164E-02  0.1184000E+00
        -11   -1    0    0    0    0  0.00000000000E+00  0.00000000000E+00  0.45593999997E+02  0.45594000000E+02  0.51100000000E-03 0. -1.
         11   -1    0    0    0    0 -0.00000000000E+00 -0.00000000000E+00 -0.45593999997E+02  0.45594000000E+02  0.51100000000E-03 0.  1.
         23    2    1    2    0    0 -0.88817841970E-15 -0.35527136788E-14  0.00000000000E+00  0.91188000000E+02  0.91188000000E+02 0.  0.
    9900012    2    3    3    0    0 -0.72410153597E+01  0.16723837781E+02 -0.31994722914E+02  0.54367063729E+02  0.39999953383E+02 0.  0.
         12    1    3    3    0    0  0.72410153597E+01 -0.16723837781E+02  0.31994722914E+02  0.36820936271E+02  0.00000000000E+00 0. -1.
         11    1    4    4    0    0 -0.12366545864E+02  0.62218335891E+01 -0.15357781549E+02  0.20676172861E+02  0.51100000000E-03 0. -1.
        -11    1    4    4    0    0 -0.23352994764E+01  0.15718297150E+02 -0.18511285198E+02  0.24396437627E+02  0.51100000000E-03 0.  1.
         12    1    4    4    0    0  0.74608299810E+01 -0.52162929583E+01  0.18743438335E+01  0.92944532404E+01  0.00000000000E+00 0. -1.
</event>
<event>
 8    1  0.1278459E-006  0.9118800E+02  0.7816164E-02  0.1184000E+00
        -11   -1    0    0    0    0  0.00000000000E+00  0.00000000000E+00  0.45593999997E+02  0.45594000000E+02  0.51100000000E-03 0.  1.
         11   -1    0    0    0    0 -0.00000000000E+00 -0.00000000000E+00 -0.45593999997E+02  0.45594000000E+02  0.51100000000E-03 0. -1.
         23    2    1    2    0    0  0.35527136788E-14 -0.35527136788E-14  0.00000000000E+00  0.91188000000E+02  0.91188000000E+02 0.  0.
    9900012    2    3    3    0    0  0.29376315094E+02  0.16059596562E+02 -0.15326563753E+02  0.54367053696E+02  0.39999930511E+02 0.  0.
        -12    1    3    3    0    0 -0.29376315094E+02 -0.16059596562E+02  0.15326563753E+02  0.36820946304E+02  0.00000000000E+00 0.  1.
         11    1    4    4    0    0  0.58518952155E+01  0.55908880277E+00 -0.60973277090E+01  0.84696318311E+01  0.51100000000E-03 0. -1.
        -11    1    4    4    0    0 -0.10712550079E+01  0.19802360349E+01  0.11046117293E+02  0.11273226227E+02  0.51100000000E-03 0.  1.
        -12    1    4    4    0    0  0.24595674886E+02  0.13520271725E+02 -0.20275353337E+02  0.34624195638E+02  0.00000000000E+00 0.  1.
</event>
<event>
 8    1  0.1278459E-006  0.9118800E+02  0.7816164E-02  0.1184000E+00
        -11   -1    0    0    0    0  0.00000000000E+00  0.00000000000E+00  0.45593999997E+02  0.45594000000E+02  0.51100000000E-03 0.  1.
         11   -1    0    0    0    0 -0.00000000000E+00 -0.00000000000E+00 -0.45593999997E+02  0.45594000000E+02  0.51100000000E-03 0. -1.
         23    2    1    2    0    0 -0.17763568394E-14  0.35527136788E-14  0.35527136788E-14  0.91188000000E+02  0.91188000000E+02 0.  0.
    9900012    2    3    3    0    0  0.12255977131E+02  0.16290232633E+02 -0.30662664976E+02  0.54367086403E+02  0.40000005073E+02 0.  0.
        -12    1    3    3    0    0 -0.12255977131E+02 -0.16290232633E+02  0.30662664976E+02  0.36820913597E+02  0.00000000000E+00 0.  1.
         11    1    4    4    0    0 -0.34403377270E+01 -0.22939733320E+01 -0.36385667492E+01  0.55079402296E+01  0.51100000000E-03 0. -1.
        -11    1    4    4    0    0 -0.62786257275E+01  0.17559324727E+02 -0.11098763163E+02  0.21701003892E+02  0.51100000000E-03 0.  1.
         12    1    4    4    0    0  0.21974940585E+02  0.10248812377E+01 -0.15925335064E+02  0.27158142281E+02  0.00000000000E+00 0. -1.
</event>
<event>
 8    1  0.1278459E-006  0.9118800E+02  0.7816164E-02  0.1184000E+00
        -11   -1    0    0    0    0  0.00000000000E+00  0.00000000000E+00  0.45593999997E+02  0.45594000000E+02  0.51100000000E-03 0. -1.
         11   -1    0    0    0    0 -0.00000000000E+00 -0.00000000000E+00 -0.45593999997E+02  0.45594000000E+02  0.51100000000E-03 0.  1.
         23    2    1    2    0    0 -0.35527136788E-14  0.00000000000E+00  0.00000000000E+00  0.91188000000E+02  0.91188000000E+02 0.  0.
    9900012    2    3    3    0    0 -0.12350080588E+02  0.32020531337E+02 -0.13339431596E+02  0.54367090819E+02  0.40000015140E+02 0.  0.
         12    1    3    3    0    0  0.12350080588E+02 -0.32020531337E+02  0.13339431596E+02  0.36820909181E+02  0.00000000000E+00 0. -1.
         11    1    4    4    0    0  0.12403293954E+02  0.38708927818E+01 -0.53053633796E+01  0.14034685344E+02  0.51100000000E-03 0. -1.
        -11    1    4    4    0    0 -0.10695660495E+02  0.19665828893E+02 -0.83965440785E+01  0.23909076356E+02  0.51100000000E-03 0.  1.
         12    1    4    4    0    0 -0.14057714047E+02  0.84838096614E+01  0.36247586198E+00  0.16423329119E+02  0.00000000000E+00 0. -1.
</event>
<event>
 8    1  0.1278459E-006  0.9118800E+02  0.7816164E-02  0.1184000E+00
        -11   -1    0    0    0    0  0.00000000000E+00  0.00000000000E+00  0.45593999997E+02  0.45594000000E+02  0.51100000000E-03 0. -1.
         11   -1    0    0    0    0 -0.00000000000E+00 -0.00000000000E+00 -0.45593999997E+02  0.45594000000E+02  0.51100000000E-03 0.  1.
         23    2    1    2    0    0 -0.17763568394E-14  0.00000000000E+00 -0.71054273576E-14  0.91188000000E+02  0.91188000000E+02 0.  0.
    9900012    2    3    3    0    0  0.70821015662E+01  0.24198461408E+02  0.26833895190E+02  0.54367087081E+02  0.40000006619E+02 0.  0.
        -12    1    3    3    0    0 -0.70821015662E+01 -0.24198461408E+02 -0.26833895190E+02  0.36820912919E+02  0.00000000000E+00 0.  1.
         11    1    4    4    0    0  0.10621500463E+02  0.18881977799E+00  0.21825873303E+02  0.24273868062E+02  0.51100000000E-03 0. -1.
        -11    1    4    4    0    0 -0.69969746814E+01  0.13737331479E+02  0.97731421078E+01  0.18253389761E+02  0.51100000000E-03 0.  1.
        -12    1    4    4    0    0  0.34575757846E+01  0.10272310151E+02 -0.47651202208E+01  0.11839829259E+02  0.00000000000E+00 0.  1.
</event>
<event>
 8    1  0.1278459E-006  0.9118800E+02  0.7816164E-02  0.1184000E+00
        -11   -1    0    0    0    0  0.00000000000E+00  0.00000000000E+00  0.45593999997E+02  0.45594000000E+02  0.51100000000E-03 0.  1.
         11   -1    0    0    0    0 -0.00000000000E+00 -0.00000000000E+00 -0.45593999997E+02  0.45594000000E+02  0.51100000000E-03 0. -1.
         23    2    1    2    0    0 -0.35527136788E-14  0.35527136788E-14  0.88817841970E-15  0.91188000000E+02  0.91188000000E+02 0.  0.
    9900012    2    3    3    0    0  0.25679184728E+02 -0.25195794843E+02 -0.78442007230E+01  0.54367080796E+02  0.39999992291E+02 0.  0.
        -12    1    3    3    0    0 -0.25679184728E+02  0.25195794843E+02  0.78442007230E+01  0.36820919204E+02  0.00000000000E+00 0.  1.
         11    1    4    4    0    0 -0.60989706688E+01 -0.11140908153E+02  0.22058509600E+01  0.12891200736E+02  0.51100000000E-03 0.  1.
        -11    1    4    4    0    0 -0.81481296945E+00 -0.45108045393E+01  0.25582404584E+01  0.52493687498E+01  0.51100000000E-03 0. -1.
         12    1    4    4    0    0  0.32592968366E+02 -0.95440821501E+01 -0.12608292141E+02  0.36226511310E+02  0.00000000000E+00 0. -1.
</event>
<event>
 8    1  0.1278459E-006  0.9118800E+02  0.7816164E-02  0.1184000E+00
        -11   -1    0    0    0    0  0.00000000000E+00  0.00000000000E+00  0.45593999997E+02  0.45594000000E+02  0.51100000000E-03 0.  1.
         11   -1    0    0    0    0 -0.00000000000E+00 -0.00000000000E+00 -0.45593999997E+02  0.45594000000E+02  0.51100000000E-03 0. -1.
         23    2    1    2    0    0  0.00000000000E+00  0.00000000000E+00  0.00000000000E+00  0.91188000000E+02  0.91188000000E+02 0.  0.
    9900012    2    3    3    0    0  0.78745183385E+01  0.33425821001E+01 -0.35813382201E+02  0.54367092368E+02  0.40000018671E+02 0.  0.
        -12    1    3    3    0    0 -0.78745183385E+01 -0.33425821001E+01  0.35813382201E+02  0.36820907632E+02  0.00000000000E+00 0.  1.
         11    1    4    4    0    0  0.11733316508E+02  0.53590564558E+01 -0.29665446768E+01  0.13235958218E+02  0.51100000000E-03 0. -1.
        -11    1    4    4    0    0 -0.10680058785E+02  0.54647490265E+00 -0.32066392646E+02  0.33802600907E+02  0.51100000000E-03 0.  1.
        -12    1    4    4    0    0  0.68212606150E+01 -0.25629492583E+01 -0.78044487843E+00  0.73285332425E+01  0.00000000000E+00 0.  1.
</event>
<event>
 8    1  0.1278459E-006  0.9118800E+02  0.7816164E-02  0.1184000E+00
        -11   -1    0    0    0    0  0.00000000000E+00  0.00000000000E+00  0.45593999997E+02  0.45594000000E+02  0.51100000000E-03 0. -1.
         11   -1    0    0    0    0 -0.00000000000E+00 -0.00000000000E+00 -0.45593999997E+02  0.45594000000E+02  0.51100000000E-03 0.  1.
         23    2    1    2    0    0 -0.88817841970E-15  0.00000000000E+00  0.99920072216E-15  0.91188000000E+02  0.91188000000E+02 0.  0.
    9900012    2    3    3    0    0 -0.49558154368E+01 -0.36483454482E+02 -0.41957288953E+00  0.54367101057E+02  0.40000038479E+02 0.  0.
         12    1    3    3    0    0  0.49558154368E+01  0.36483454482E+02  0.41957288953E+00  0.36820898943E+02  0.00000000000E+00 0. -1.
         11    1    4    4    0    0  0.11099499408E+02 -0.59220728356E+01  0.32252123416E+00  0.12584667416E+02  0.51100000000E-03 0. -1.
        -11    1    4    4    0    0 -0.87069583596E+01 -0.20114056504E+02  0.10919194269E+02  0.24487041403E+02  0.51100000000E-03 0.  1.
        -12    1    4    4    0    0 -0.73483564849E+01 -0.10447325142E+02 -0.11661288393E+02  0.17295392237E+02  0.00000000000E+00 0.  1.
</event>
<event>
 8    1  0.1278459E-006  0.9118800E+02  0.7816164E-02  0.1184000E+00
        -11   -1    0    0    0    0  0.00000000000E+00  0.00000000000E+00  0.45593999997E+02  0.45594000000E+02  0.51100000000E-03 0. -1.
         11   -1    0    0    0    0 -0.00000000000E+00 -0.00000000000E+00 -0.45593999997E+02  0.45594000000E+02  0.51100000000E-03 0.  1.
         23    2    1    2    0    0  0.44408920985E-15  0.35527136788E-14 -0.35527136788E-14  0.91188000000E+02  0.91188000000E+02 0.  0.
    9900012    2    3    3    0    0  0.24981780855E+01  0.25873316955E+02  0.26078920738E+02  0.54367088402E+02  0.40000009631E+02 0.  0.
        -12    1    3    3    0    0 -0.24981780855E+01 -0.25873316955E+02 -0.26078920738E+02  0.36820911598E+02  0.00000000000E+00 0.  1.
         11    1    4    4    0    0 -0.88576330459E+01  0.23656521644E+01  0.19345258693E+02  0.21407779135E+02  0.51100000000E-03 0. -1.
        -11    1    4    4    0    0  0.24493384321E+00  0.19063760387E+02 -0.32095459338E+00  0.19068035158E+02  0.51100000000E-03 0.  1.
         12    1    4    4    0    0  0.11110877288E+02  0.44439044034E+01  0.70546166392E+01  0.13891274110E+02  0.00000000000E+00 0. -1.
</event>
<event>
 8    1  0.1278459E-006  0.9118800E+02  0.7816164E-02  0.1184000E+00
        -11   -1    0    0    0    0  0.00000000000E+00  0.00000000000E+00  0.45593999997E+02  0.45594000000E+02  0.51100000000E-03 0.  1.
         11   -1    0    0    0    0 -0.00000000000E+00 -0.00000000000E+00 -0.45593999997E+02  0.45594000000E+02  0.51100000000E-03 0. -1.
         23    2    1    2    0    0  0.35527136788E-14  0.00000000000E+00  0.71054273576E-14  0.91188000000E+02  0.91188000000E+02 0.  0.
    9900012    2    3    3    0    0 -0.18741206791E+02 -0.94823188421E+01 -0.30242895775E+02  0.54367082745E+02  0.39999996735E+02 0.  0.
        -12    1    3    3    0    0  0.18741206791E+02  0.94823188421E+01  0.30242895775E+02  0.36820917255E+02  0.00000000000E+00 0.  1.
         11    1    4    4    0    0 -0.55963234009E+00 -0.15404324181E+02 -0.11602994604E+02  0.19293415350E+02  0.51100000000E-03 0. -1.
        -11    1    4    4    0    0 -0.13900388766E+02 -0.67849731312E+01 -0.58321584473E+01  0.16530902597E+02  0.51100000000E-03 0.  1.
        -12    1    4    4    0    0 -0.42811856845E+01  0.12706978470E+02 -0.12807742724E+02  0.18542764799E+02  0.00000000000E+00 0.  1.
</event>
<event>
 8    1  0.1278459E-006  0.9118800E+02  0.7816164E-02  0.1184000E+00
        -11   -1    0    0    0    0  0.00000000000E+00  0.00000000000E+00  0.45593999997E+02  0.45594000000E+02  0.51100000000E-03 0. -1.
         11   -1    0    0    0    0 -0.00000000000E+00 -0.00000000000E+00 -0.45593999997E+02  0.45594000000E+02  0.51100000000E-03 0.  1.
         23    2    1    2    0    0  0.88817841970E-15  0.00000000000E+00  0.00000000000E+00  0.91188000000E+02  0.91188000000E+02 0.  0.
    9900012    2    3    3    0    0  0.54906986579E+01  0.31838739967E+02  0.17661437858E+02  0.54367088527E+02  0.40000009916E+02 0.  0.
         12    1    3    3    0    0 -0.54906986579E+01 -0.31838739967E+02 -0.17661437858E+02  0.36820911473E+02  0.00000000000E+00 0. -1.
         11    1    4    4    0    0 -0.94147667635E+01  0.18673777778E+01  0.77417623038E+01  0.12331253659E+02  0.51100000000E-03 0. -1.
        -11    1    4    4    0    0  0.18838485785E+02  0.25304705544E+02  0.14185624371E+02  0.34589718247E+02  0.51100000000E-03 0.  1.
        -12    1    4    4    0    0 -0.39330203636E+01  0.46666566457E+01 -0.42659488171E+01  0.74461166214E+01  0.00000000000E+00 0.  1.
</event>
<event>
 8    1  0.1278459E-006  0.9118800E+02  0.7816164E-02  0.1184000E+00
        -11   -1    0    0    0    0  0.00000000000E+00  0.00000000000E+00  0.45593999997E+02  0.45594000000E+02  0.51100000000E-03 0. -1.
         11   -1    0    0    0    0 -0.00000000000E+00 -0.00000000000E+00 -0.45593999997E+02  0.45594000000E+02  0.51100000000E-03 0.  1.
         23    2    1    2    0    0  0.00000000000E+00 -0.17763568394E-14  0.71054273576E-14  0.91188000000E+02  0.91188000000E+02 0.  0.
    9900012    2    3    3    0    0  0.71957735858E+01  0.10328570812E+02 -0.34602334377E+02  0.54367080989E+02  0.39999992730E+02 0.  0.
         12    1    3    3    0    0 -0.71957735858E+01 -0.10328570812E+02  0.34602334377E+02  0.36820919011E+02  0.00000000000E+00 0. -1.
         11    1    4    4    0    0 -0.22310463962E+01 -0.13596421025E+02 -0.45315228915E+01  0.14504307384E+02  0.51100000000E-03 0. -1.
        -11    1    4    4    0    0  0.66305613345E+01  0.11856311303E+02 -0.18147505240E+02  0.22668665775E+02  0.51100000000E-03 0.  1.
         12    1    4    4    0    0  0.27962586475E+01  0.12068680533E+02 -0.11923306245E+02  0.17194107830E+02  0.00000000000E+00 0. -1.
</event>
<event>
 8    1  0.1278459E-006  0.9118800E+02  0.7816164E-02  0.1184000E+00
        -11   -1    0    0    0    0  0.00000000000E+00  0.00000000000E+00  0.45593999997E+02  0.45594000000E+02  0.51100000000E-03 0.  1.
         11   -1    0    0    0    0 -0.00000000000E+00 -0.00000000000E+00 -0.45593999997E+02  0.45594000000E+02  0.51100000000E-03 0. -1.
         23    2    1    2    0    0  0.71054273576E-14  0.00000000000E+00  0.10658141036E-13  0.91188000000E+02  0.91188000000E+02 0.  0.
    9900012    2    3    3    0    0  0.21957298549E+02  0.95493986624E+01  0.27972606859E+02  0.54367072406E+02  0.39999973164E+02 0.  0.
         12    1    3    3    0    0 -0.21957298549E+02 -0.95493986624E+01 -0.27972606859E+02  0.36820927594E+02  0.00000000000E+00 0. -1.
         11    1    4    4    0    0  0.20144800076E+02 -0.23786951810E+01  0.16719691276E+02  0.26287244768E+02  0.51100000000E-03 0. -1.
        -11    1    4    4    0    0  0.20255895169E+01  0.12344507396E+02 -0.37578103092E+01  0.13061815124E+02  0.51100000000E-03 0.  1.
        -12    1    4    4    0    0 -0.21309104408E+00 -0.41641355280E+00  0.15010725893E+02  0.15018012514E+02  0.00000000000E+00 0.  1.
</event>
<event>
 8    1  0.1278459E-006  0.9118800E+02  0.7816164E-02  0.1184000E+00
        -11   -1    0    0    0    0  0.00000000000E+00  0.00000000000E+00  0.45593999997E+02  0.45594000000E+02  0.51100000000E-03 0.  1.
         11   -1    0    0    0    0 -0.00000000000E+00 -0.00000000000E+00 -0.45593999997E+02  0.45594000000E+02  0.51100000000E-03 0. -1.
         23    2    1    2    0    0 -0.35527136788E-14  0.35527136788E-14  0.00000000000E+00  0.91188000000E+02  0.91188000000E+02 0.  0.
    9900012    2    3    3    0    0  0.26373067119E+02 -0.25572385914E+02 -0.25084409926E+01  0.54367110999E+02  0.40000061144E+02 0.  0.
         12    1    3    3    0    0 -0.26373067119E+02  0.25572385914E+02  0.25084409926E+01  0.36820889001E+02  0.00000000000E+00 0. -1.
         11    1    4    4    0    0  0.15970822584E+02 -0.71560143354E+01 -0.32086116307E+01  0.17792439519E+02  0.51100000000E-03 0. -1.
        -11    1    4    4    0    0  0.17067989574E+02 -0.21117112037E+02  0.57912013912E+01  0.27763045631E+02  0.51100000000E-03 0.  1.
         12    1    4    4    0    0 -0.66657450399E+01  0.27007404584E+01 -0.50910307531E+01  0.88116258483E+01  0.00000000000E+00 0. -1.
</event>
<event>
 8    1  0.1278459E-006  0.9118800E+02  0.7816164E-02  0.1184000E+00
        -11   -1    0    0    0    0  0.00000000000E+00  0.00000000000E+00  0.45593999997E+02  0.45594000000E+02  0.51100000000E-03 0. -1.
         11   -1    0    0    0    0 -0.00000000000E+00 -0.00000000000E+00 -0.45593999997E+02  0.45594000000E+02  0.51100000000E-03 0.  1.
         23    2    1    2    0    0  0.00000000000E+00 -0.17763568394E-14 -0.17763568394E-14  0.91188000000E+02  0.91188000000E+02 0.  0.
    9900012    2    3    3    0    0 -0.33462653349E+02 -0.13648713121E+02 -0.70529829507E+01  0.54367066993E+02  0.39999960823E+02 0.  0.
         12    1    3    3    0    0  0.33462653349E+02  0.13648713121E+02  0.70529829507E+01  0.36820933007E+02  0.00000000000E+00 0. -1.
         11    1    4    4    0    0 -0.61175278045E+01  0.90446056145E+01  0.36490095524E+00  0.10925300459E+02  0.51100000000E-03 0. -1.
        -11    1    4    4    0    0 -0.95418042287E+01 -0.89720709697E+01  0.87519819259E+01  0.15752500542E+02  0.51100000000E-03 0.  1.
        -12    1    4    4    0    0 -0.17803321316E+02 -0.13721247766E+02 -0.16169865832E+02  0.27689265991E+02  0.00000000000E+00 0.  1.
</event>
<event>
 8    1  0.1278459E-006  0.9118800E+02  0.7816164E-02  0.1184000E+00
        -11   -1    0    0    0    0  0.00000000000E+00  0.00000000000E+00  0.45593999997E+02  0.45594000000E+02  0.51100000000E-03 0.  1.
         11   -1    0    0    0    0 -0.00000000000E+00 -0.00000000000E+00 -0.45593999997E+02  0.45594000000E+02  0.51100000000E-03 0. -1.
         23    2    1    2    0    0  0.00000000000E+00  0.00000000000E+00  0.00000000000E+00  0.91188000000E+02  0.91188000000E+02 0.  0.
    9900012    2    3    3    0    0  0.17946962489E+02  0.30877881254E+02 -0.89578588774E+01  0.54367078651E+02  0.39999987400E+02 0.  0.
         12    1    3    3    0    0 -0.17946962489E+02 -0.30877881254E+02  0.89578588774E+01  0.36820921349E+02  0.00000000000E+00 0. -1.
         11    1    4    4    0    0  0.11359401173E+02  0.12337062019E+02 -0.15042430747E+02  0.22528067323E+02  0.51100000000E-03 0. -1.
        -11    1    4    4    0    0 -0.69557062221E+01  0.13659421388E+01  0.69801946731E+01  0.99484051440E+01  0.51100000000E-03 0.  1.
         12    1    4    4    0    0  0.13543267538E+02  0.17174877097E+02 -0.89562280324E+00  0.21890606184E+02  0.00000000000E+00 0. -1.
</event>
<event>
 8    1  0.1278459E-006  0.9118800E+02  0.7816164E-02  0.1184000E+00
        -11   -1    0    0    0    0  0.00000000000E+00  0.00000000000E+00  0.45593999997E+02  0.45594000000E+02  0.51100000000E-03 0.  1.
         11   -1    0    0    0    0 -0.00000000000E+00 -0.00000000000E+00 -0.45593999997E+02  0.45594000000E+02  0.51100000000E-03 0. -1.
         23    2    1    2    0    0 -0.35527136788E-14  0.00000000000E+00  0.00000000000E+00  0.91188000000E+02  0.91188000000E+02 0.  0.
    9900012    2    3    3    0    0  0.19577749600E+02 -0.16959039923E+02 -0.26170261323E+02  0.54367083496E+02  0.39999998445E+02 0.  0.
        -12    1    3    3    0    0 -0.19577749600E+02  0.16959039923E+02  0.26170261323E+02  0.36820916504E+02  0.00000000000E+00 0.  1.
         11    1    4    4    0    0  0.27890132575E+02 -0.94468312739E+00 -0.15750204455E+02  0.32044045655E+02  0.51100000000E-03 0.  1.
        -11    1    4    4    0    0 -0.61960258661E+01 -0.36383875278E+01 -0.38965544918E+01  0.81738447198E+01  0.51100000000E-03 0. -1.
        -12    1    4    4    0    0 -0.21163571090E+01 -0.12375969268E+02 -0.65235023755E+01  0.14149193121E+02  0.00000000000E+00 0.  1.
</event>
<event>
 8    1  0.1278459E-006  0.9118800E+02  0.7816164E-02  0.1184000E+00
        -11   -1    0    0    0    0  0.00000000000E+00  0.00000000000E+00  0.45593999997E+02  0.45594000000E+02  0.51100000000E-03 0.  1.
         11   -1    0    0    0    0 -0.00000000000E+00 -0.00000000000E+00 -0.45593999997E+02  0.45594000000E+02  0.51100000000E-03 0. -1.
         23    2    1    2    0    0  0.00000000000E+00  0.00000000000E+00 -0.88817841970E-15  0.91188000000E+02  0.91188000000E+02 0.  0.
    9900012    2    3    3    0    0  0.32919453604E+02  0.16189953019E+02 -0.31583534874E+01  0.54367079301E+02  0.39999988883E+02 0.  0.
        -12    1    3    3    0    0 -0.32919453604E+02 -0.16189953019E+02  0.31583534874E+01  0.36820920699E+02  0.00000000000E+00 0.  1.
         11    1    4    4    0    0  0.14763980327E+02  0.19825201410E+02  0.36404189180E+01  0.24985323216E+02  0.51100000000E-03 0.  1.
        -11    1    4    4    0    0  0.70310533395E+01  0.71494944727E+01 -0.93129673873E+01  0.13685113960E+02  0.51100000000E-03 0. -1.
        -12    1    4    4    0    0  0.11124419938E+02 -0.10784742864E+02  0.25141949819E+01  0.15696642125E+02  0.00000000000E+00 0.  1.
</event>
<event>
 8    1  0.1278459E-006  0.9118800E+02  0.7816164E-02  0.1184000E+00
        -11   -1    0    0    0    0  0.00000000000E+00  0.00000000000E+00  0.45593999997E+02  0.45594000000E+02  0.51100000000E-03 0.  1.
         11   -1    0    0    0    0 -0.00000000000E+00 -0.00000000000E+00 -0.45593999997E+02  0.45594000000E+02  0.51100000000E-03 0. -1.
         23    2    1    2    0    0  0.00000000000E+00  0.00000000000E+00  0.00000000000E+00  0.91188000000E+02  0.91188000000E+02 0.  0.
    9900012    2    3    3    0    0  0.19390509386E+02  0.20582582991E+02  0.23582734681E+02  0.54367082685E+02  0.39999996597E+02 0.  0.
         12    1    3    3    0    0 -0.19390509386E+02 -0.20582582991E+02 -0.23582734681E+02  0.36820917315E+02  0.00000000000E+00 0. -1.
         11    1    4    4    0    0  0.46069136390E+00 -0.29839363878E+01  0.15147174632E+02  0.15445161459E+02  0.51100000000E-03 0. -1.
        -11    1    4    4    0    0 -0.13156835969E+00  0.17764110301E+02  0.64457299308E+01  0.18897840078E+02  0.51100000000E-03 0.  1.
         12    1    4    4    0    0  0.19061386382E+02  0.58024090779E+01  0.19898301186E+01  0.20024081148E+02  0.00000000000E+00 0. -1.
</event>
<event>
 8    1  0.1278459E-006  0.9118800E+02  0.7816164E-02  0.1184000E+00
        -11   -1    0    0    0    0  0.00000000000E+00  0.00000000000E+00  0.45593999997E+02  0.45594000000E+02  0.51100000000E-03 0. -1.
         11   -1    0    0    0    0 -0.00000000000E+00 -0.00000000000E+00 -0.45593999997E+02  0.45594000000E+02  0.51100000000E-03 0.  1.
         23    2    1    2    0    0  0.00000000000E+00 -0.35527136788E-14  0.00000000000E+00  0.91188000000E+02  0.91188000000E+02 0.  0.
    9900012    2    3    3    0    0 -0.19065121874E+02  0.22040768851E+02  0.22505687682E+02  0.54367077393E+02  0.39999984532E+02 0.  0.
         12    1    3    3    0    0  0.19065121874E+02 -0.22040768851E+02 -0.22505687682E+02  0.36820922607E+02  0.00000000000E+00 0. -1.
         11    1    4    4    0    0 -0.26318877641E+02  0.10829366570E+02  0.25415434901E+02  0.38156294790E+02  0.51100000000E-03 0. -1.
        -11    1    4    4    0    0  0.66270750105E+01  0.24147464072E+01 -0.20761746628E+01  0.73525250695E+01  0.51100000000E-03 0.  1.
         12    1    4    4    0    0  0.62668075672E+00  0.87966558731E+01 -0.83357255593E+00  0.88582575334E+01  0.00000000000E+00 0. -1.
</event>
<event>
 8    1  0.1278459E-006  0.9118800E+02  0.7816164E-02  0.1184000E+00
        -11   -1    0    0    0    0  0.00000000000E+00  0.00000000000E+00  0.45593999997E+02  0.45594000000E+02  0.51100000000E-03 0. -1.
         11   -1    0    0    0    0 -0.00000000000E+00 -0.00000000000E+00 -0.45593999997E+02  0.45594000000E+02  0.51100000000E-03 0.  1.
         23    2    1    2    0    0  0.35527136788E-14  0.35527136788E-14 -0.44408920985E-15  0.91188000000E+02  0.91188000000E+02 0.  0.
    9900012    2    3    3    0    0 -0.24918100427E+02  0.26932664101E+02  0.30821773979E+01  0.54367082820E+02  0.39999996906E+02 0.  0.
         12    1    3    3    0    0  0.24918100427E+02 -0.26932664101E+02 -0.30821773979E+01  0.36820917180E+02  0.00000000000E+00 0. -1.
         11    1    4    4    0    0 -0.26917577002E+02  0.11355660865E+02  0.81483093541E+01  0.30329885113E+02  0.51100000000E-03 0. -1.
        -11    1    4    4    0    0  0.77016490466E+01  0.20412397124E+01 -0.48897079636E+01  0.93483314999E+01  0.51100000000E-03 0.  1.
        -12    1    4    4    0    0 -0.57021724712E+01  0.13535763523E+02 -0.17642399252E+00  0.14688866208E+02  0.00000000000E+00 0.  1.
</event>
<event>
 8    1  0.1278459E-006  0.9118800E+02  0.7816164E-02  0.1184000E+00
        -11   -1    0    0    0    0  0.00000000000E+00  0.00000000000E+00  0.45593999997E+02  0.45594000000E+02  0.51100000000E-03 0.  1.
         11   -1    0    0    0    0 -0.00000000000E+00 -0.00000000000E+00 -0.45593999997E+02  0.45594000000E+02  0.51100000000E-03 0. -1.
         23    2    1    2    0    0  0.00000000000E+00  0.13322676296E-14  0.00000000000E+00  0.91188000000E+02  0.91188000000E+02 0.  0.
    9900012    2    3    3    0    0  0.28385507793E+02 -0.27231832984E+01  0.23294404229E+02  0.54367054217E+02  0.39999931699E+02 0.  0.
         12    1    3    3    0    0 -0.28385507793E+02  0.27231832984E+01 -0.23294404229E+02  0.36820945783E+02  0.00000000000E+00 0. -1.
         11    1    4    4    0    0  0.16825489926E+02 -0.13466965245E+02  0.22188815629E+02  0.30932180710E+02  0.51100000000E-03 0. -1.
        -11    1    4    4    0    0  0.11779305353E+02  0.12612571316E+02  0.59366784793E+01  0.18250291544E+02  0.51100000000E-03 0.  1.
         12    1    4    4    0    0 -0.21928748535E+00 -0.18687893696E+01 -0.48310898799E+01  0.51845819636E+01  0.00000000000E+00 0. -1.
</event>
<event>
 8    1  0.1278459E-006  0.9118800E+02  0.7816164E-02  0.1184000E+00
        -11   -1    0    0    0    0  0.00000000000E+00  0.00000000000E+00  0.45593999997E+02  0.45594000000E+02  0.51100000000E-03 0.  1.
         11   -1    0    0    0    0 -0.00000000000E+00 -0.00000000000E+00 -0.45593999997E+02  0.45594000000E+02  0.51100000000E-03 0. -1.
         23    2    1    2    0    0 -0.71054273576E-14  0.00000000000E+00  0.88817841970E-15  0.91188000000E+02  0.91188000000E+02 0.  0.
    9900012    2    3    3    0    0 -0.35603568214E+02  0.90326301666E+01 -0.25646679697E+01  0.54367082045E+02  0.39999995137E+02 0.  0.
         12    1    3    3    0    0  0.35603568214E+02 -0.90326301666E+01  0.25646679697E+01  0.36820917955E+02  0.00000000000E+00 0. -1.
         11    1    4    4    0    0 -0.30600244742E+02  0.27376748606E+01 -0.17958758791E+01  0.30774908812E+02  0.51100000000E-03 0.  1.
        -11    1    4    4    0    0 -0.22509846558E+01  0.35631766250E+01 -0.11464772635E+02  0.12214915940E+02  0.51100000000E-03 0. -1.
        -12    1    4    4    0    0 -0.27523388158E+01  0.27317786810E+01  0.10695980544E+02  0.11377257293E+02  0.00000000000E+00 0.  1.
</event>
<event>
 8    1  0.1278459E-006  0.9118800E+02  0.7816164E-02  0.1184000E+00
        -11   -1    0    0    0    0  0.00000000000E+00  0.00000000000E+00  0.45593999997E+02  0.45594000000E+02  0.51100000000E-03 0. -1.
         11   -1    0    0    0    0 -0.00000000000E+00 -0.00000000000E+00 -0.45593999997E+02  0.45594000000E+02  0.51100000000E-03 0.  1.
         23    2    1    2    0    0  0.00000000000E+00  0.00000000000E+00  0.00000000000E+00  0.91188000000E+02  0.91188000000E+02 0.  0.
    9900012    2    3    3    0    0  0.27382855325E+02  0.23022768285E+02 -0.87126039710E+01  0.54367107925E+02  0.40000054136E+02 0.  0.
         12    1    3    3    0    0 -0.27382855325E+02 -0.23022768285E+02  0.87126039710E+01  0.36820892075E+02  0.00000000000E+00 0. -1.
         11    1    4    4    0    0 -0.49556970336E+00 -0.41639461713E+01  0.16550221066E+01  0.45081188408E+01  0.51100000000E-03 0. -1.
        -11    1    4    4    0    0  0.27583097139E+02  0.70598959640E+01 -0.81040827380E+01  0.29603133890E+02  0.51100000000E-03 0.  1.
        -12    1    4    4    0    0  0.29532788874E+00  0.20126818493E+02 -0.22635433396E+01  0.20255855194E+02  0.00000000000E+00 0.  1.
</event>
<event>
 8    1  0.1278459E-006  0.9118800E+02  0.7816164E-02  0.1184000E+00
        -11   -1    0    0    0    0  0.00000000000E+00  0.00000000000E+00  0.45593999997E+02  0.45594000000E+02  0.51100000000E-03 0. -1.
         11   -1    0    0    0    0 -0.00000000000E+00 -0.00000000000E+00 -0.45593999997E+02  0.45594000000E+02  0.51100000000E-03 0.  1.
         23    2    1    2    0    0  0.00000000000E+00 -0.17763568394E-14  0.00000000000E+00  0.91188000000E+02  0.91188000000E+02 0.  0.
    9900012    2    3    3    0    0 -0.32877816039E+02 -0.12584961571E+02  0.10791138605E+02  0.54367072287E+02  0.39999972893E+02 0.  0.
         12    1    3    3    0    0  0.32877816039E+02  0.12584961571E+02 -0.10791138605E+02  0.36820927713E+02  0.00000000000E+00 0. -1.
         11    1    4    4    0    0  0.21956727642E+01  0.57451711243E+01  0.32906358665E+01  0.69754035584E+01  0.51100000000E-03 0. -1.
        -11    1    4    4    0    0  0.37964104534E+01 -0.22686640279E+00 -0.27659279063E+00  0.38132275736E+01  0.51100000000E-03 0.  1.
        -12    1    4    4    0    0 -0.38869899256E+02 -0.18103266292E+02  0.77770955296E+01  0.43578441155E+02  0.00000000000E+00 0.  1.
</event>
<event>
 8    1  0.1278459E-006  0.9118800E+02  0.7816164E-02  0.1184000E+00
        -11   -1    0    0    0    0  0.00000000000E+00  0.00000000000E+00  0.45593999997E+02  0.45594000000E+02  0.51100000000E-03 0. -1.
         11   -1    0    0    0    0 -0.00000000000E+00 -0.00000000000E+00 -0.45593999997E+02  0.45594000000E+02  0.51100000000E-03 0.  1.
         23    2    1    2    0    0  0.35527136788E-14  0.00000000000E+00  0.00000000000E+00  0.91188000000E+02  0.91188000000E+02 0.  0.
    9900012    2    3    3    0    0  0.30640424315E+02 -0.96807444177E+01  0.17978515726E+02  0.54367089604E+02  0.40000012371E+02 0.  0.
        -12    1    3    3    0    0 -0.30640424315E+02  0.96807444177E+01 -0.17978515726E+02  0.36820910396E+02  0.00000000000E+00 0.  1.
         11    1    4    4    0    0  0.17254237705E+02  0.11708960762E+01  0.80160824314E+01  0.19061408506E+02  0.51100000000E-03 0. -1.
        -11    1    4    4    0    0  0.12002780448E+02 -0.65217727877E+01 -0.86351704120E+01  0.16160644390E+02  0.51100000000E-03 0.  1.
         12    1    4    4    0    0  0.13834061609E+01 -0.43298677062E+01  0.18597603707E+02  0.19145036709E+02  0.00000000000E+00 0. -1.
</event>
<event>
 8    1  0.1278459E-006  0.9118800E+02  0.7816164E-02  0.1184000E+00
        -11   -1    0    0    0    0  0.00000000000E+00  0.00000000000E+00  0.45593999997E+02  0.45594000000E+02  0.51100000000E-03 0.  1.
         11   -1    0    0    0    0 -0.00000000000E+00 -0.00000000000E+00 -0.45593999997E+02  0.45594000000E+02  0.51100000000E-03 0. -1.
         23    2    1    2    0    0 -0.19428902931E-15 -0.35527136788E-14  0.00000000000E+00  0.91188000000E+02  0.91188000000E+02 0.  0.
    9900012    2    3    3    0    0  0.18800759848E+00  0.18327075066E+02  0.31935286030E+02  0.54367088534E+02  0.40000009932E+02 0.  0.
         12    1    3    3    0    0 -0.18800759848E+00 -0.18327075066E+02 -0.31935286030E+02  0.36820911466E+02  0.00000000000E+00 0. -1.
         11    1    4    4    0    0 -0.20849285678E+01 -0.12373996966E+01  0.20310525502E+02  0.20454719053E+02  0.51100000000E-03 0. -1.
        -11    1    4    4    0    0  0.37865660018E+01  0.16860302580E+01  0.15080881323E+02  0.15640133052E+02  0.51100000000E-03 0.  1.
        -12    1    4    4    0    0 -0.15136298355E+01  0.17878444505E+02 -0.34561207947E+01  0.18272236429E+02  0.00000000000E+00 0.  1.
</event>
<event>
 8    1  0.1278459E-006  0.9118800E+02  0.7816164E-02  0.1184000E+00
        -11   -1    0    0    0    0  0.00000000000E+00  0.00000000000E+00  0.45593999997E+02  0.45594000000E+02  0.51100000000E-03 0. -1.
         11   -1    0    0    0    0 -0.00000000000E+00 -0.00000000000E+00 -0.45593999997E+02  0.45594000000E+02  0.51100000000E-03 0.  1.
         23    2    1    2    0    0  0.00000000000E+00  0.17763568394E-14  0.00000000000E+00  0.91188000000E+02  0.91188000000E+02 0.  0.
    9900012    2    3    3    0    0  0.21809917947E+02  0.10984076156E+02  0.27558244800E+02  0.54367091452E+02  0.40000016583E+02 0.  0.
        -12    1    3    3    0    0 -0.21809917947E+02 -0.10984076156E+02 -0.27558244800E+02  0.36820908548E+02  0.00000000000E+00 0.  1.
         11    1    4    4    0    0  0.12287516975E+02 -0.55384982458E-01  0.14200187262E+00  0.12288462300E+02  0.51100000000E-03 0. -1.
        -11    1    4    4    0    0 -0.60838371775E+01  0.32495656345E+01 -0.25929252308E+01  0.73685828440E+01  0.51100000000E-03 0.  1.
        -12    1    4    4    0    0  0.15606238150E+02  0.77898955042E+01  0.30009168158E+02  0.34710046308E+02  0.00000000000E+00 0.  1.
</event>
<event>
 8    1  0.1278459E-006  0.9118800E+02  0.7816164E-02  0.1184000E+00
        -11   -1    0    0    0    0  0.00000000000E+00  0.00000000000E+00  0.45593999997E+02  0.45594000000E+02  0.51100000000E-03 0. -1.
         11   -1    0    0    0    0 -0.00000000000E+00 -0.00000000000E+00 -0.45593999997E+02  0.45594000000E+02  0.51100000000E-03 0.  1.
         23    2    1    2    0    0 -0.17763568394E-14  0.00000000000E+00  0.17763568394E-14  0.91188000000E+02  0.91188000000E+02 0.  0.
    9900012    2    3    3    0    0  0.23077304543E+01 -0.34651107464E+02 -0.12237437855E+02  0.54367085379E+02  0.40000002738E+02 0.  0.
         12    1    3    3    0    0 -0.23077304543E+01  0.34651107464E+02  0.12237437855E+02  0.36820914621E+02  0.00000000000E+00 0. -1.
         11    1    4    4    0    0 -0.49485803018E+01 -0.31836359986E+01 -0.32017389349E+01  0.66988892843E+01  0.51100000000E-03 0. -1.
        -11    1    4    4    0    0  0.15894190463E+02 -0.17252111064E+02 -0.17249160704E+02  0.29116905259E+02  0.51100000000E-03 0.  1.
        -12    1    4    4    0    0 -0.86378797065E+01 -0.14215360401E+02  0.82134617845E+01  0.18551290835E+02  0.00000000000E+00 0.  1.
</event>
<event>
 8    1  0.1278459E-006  0.9118800E+02  0.7816164E-02  0.1184000E+00
        -11   -1    0    0    0    0  0.00000000000E+00  0.00000000000E+00  0.45593999997E+02  0.45594000000E+02  0.51100000000E-03 0.  1.
         11   -1    0    0    0    0 -0.00000000000E+00 -0.00000000000E+00 -0.45593999997E+02  0.45594000000E+02  0.51100000000E-03 0. -1.
         23    2    1    2    0    0  0.00000000000E+00  0.22204460493E-14  0.00000000000E+00  0.91188000000E+02  0.91188000000E+02 0.  0.
    9900012    2    3    3    0    0  0.32784108201E+02 -0.17993691625E+01 -0.16665593021E+02  0.54367116378E+02  0.40000073408E+02 0.  0.
         12    1    3    3    0    0 -0.32784108201E+02  0.17993691625E+01  0.16665593021E+02  0.36820883622E+02  0.00000000000E+00 0. -1.
         11    1    4    4    0    0  0.34594726035E+01  0.10202282937E+02  0.85566771025E+00  0.10806789316E+02  0.51100000000E-03 0. -1.
        -11    1    4    4    0    0  0.19128148790E+02 -0.73977356304E+01  0.24643996957E+01  0.20656375159E+02  0.51100000000E-03 0.  1.
         12    1    4    4    0    0  0.10196486808E+02 -0.46039164697E+01 -0.19985660427E+02  0.22903951903E+02  0.00000000000E+00 0. -1.
</event>
<event>
 8    1  0.1278459E-006  0.9118800E+02  0.7816164E-02  0.1184000E+00
        -11   -1    0    0    0    0  0.00000000000E+00  0.00000000000E+00  0.45593999997E+02  0.45594000000E+02  0.51100000000E-03 0.  1.
         11   -1    0    0    0    0 -0.00000000000E+00 -0.00000000000E+00 -0.45593999997E+02  0.45594000000E+02  0.51100000000E-03 0. -1.
         23    2    1    2    0    0 -0.17763568394E-14  0.00000000000E+00  0.88817841970E-15  0.91188000000E+02  0.91188000000E+02 0.  0.
    9900012    2    3    3    0    0  0.10290776834E+02  0.34713210775E+02 -0.66987540296E+01  0.54367076659E+02  0.39999982859E+02 0.  0.
        -12    1    3    3    0    0 -0.10290776834E+02 -0.34713210775E+02  0.66987540296E+01  0.36820923341E+02  0.00000000000E+00 0.  1.
         11    1    4    4    0    0  0.11045508448E+02  0.29264534843E+02 -0.34869497107E+01  0.31473402660E+02  0.51100000000E-03 0. -1.
        -11    1    4    4    0    0  0.69168053323E+01  0.18188908910E+01 -0.98123300793E+01  0.12142173690E+02  0.51100000000E-03 0.  1.
        -12    1    4    4    0    0 -0.76715369466E+01  0.36297850408E+01  0.66005257604E+01  0.10751500308E+02  0.00000000000E+00 0.  1.
</event>
<event>
 8    1  0.1278459E-006  0.9118800E+02  0.7816164E-02  0.1184000E+00
        -11   -1    0    0    0    0  0.00000000000E+00  0.00000000000E+00  0.45593999997E+02  0.45594000000E+02  0.51100000000E-03 0.  1.
         11   -1    0    0    0    0 -0.00000000000E+00 -0.00000000000E+00 -0.45593999997E+02  0.45594000000E+02  0.51100000000E-03 0. -1.
         23    2    1    2    0    0  0.00000000000E+00  0.88817841970E-15  0.00000000000E+00  0.91188000000E+02  0.91188000000E+02 0.  0.
    9900012    2    3    3    0    0 -0.35276339237E+02 -0.43777725262E+01  0.96019427423E+01  0.54367050709E+02  0.39999923702E+02 0.  0.
         12    1    3    3    0    0  0.35276339237E+02  0.43777725262E+01 -0.96019427423E+01  0.36820949291E+02  0.00000000000E+00 0. -1.
         11    1    4    4    0    0  0.62596626217E+01  0.37732028609E+01 -0.14111852492E+00  0.73102907374E+01  0.51100000000E-03 0. -1.
        -11    1    4    4    0    0 -0.15217724295E+02 -0.71965550693E+01  0.11927233079E+02  0.20630764086E+02  0.51100000000E-03 0.  1.
        -12    1    4    4    0    0 -0.26318277564E+02 -0.95442031778E+00 -0.21841718121E+01  0.26425995886E+02  0.00000000000E+00 0.  1.
</event>
<event>
 8    1  0.1278459E-006  0.9118800E+02  0.7816164E-02  0.1184000E+00
        -11   -1    0    0    0    0  0.00000000000E+00  0.00000000000E+00  0.45593999997E+02  0.45594000000E+02  0.51100000000E-03 0.  1.
         11   -1    0    0    0    0 -0.00000000000E+00 -0.00000000000E+00 -0.45593999997E+02  0.45594000000E+02  0.51100000000E-03 0. -1.
         23    2    1    2    0    0  0.17763568394E-14  0.00000000000E+00  0.35527136788E-14  0.91188000000E+02  0.91188000000E+02 0.  0.
    9900012    2    3    3    0    0 -0.11650229986E+02  0.17885494386E+02 -0.30002687752E+02  0.54367081482E+02  0.39999993853E+02 0.  0.
        -12    1    3    3    0    0  0.11650229986E+02 -0.17885494386E+02  0.30002687752E+02  0.36820918518E+02  0.00000000000E+00 0.  1.
         11    1    4    4    0    0  0.67987531459E+00  0.17617809124E+02 -0.26417557780E+01  0.17827739695E+02  0.51100000000E-03 0. -1.
        -11    1    4    4    0    0 -0.14734332429E+02  0.66044671870E+01 -0.13258276562E+02  0.20892616796E+02  0.51100000000E-03 0.  1.
        -12    1    4    4    0    0  0.24042271278E+01 -0.63367819248E+01 -0.14102655412E+02  0.15646724990E+02  0.00000000000E+00 0.  1.
</event>
<event>
 8    1  0.1278459E-006  0.9118800E+02  0.7816164E-02  0.1184000E+00
        -11   -1    0    0    0    0  0.00000000000E+00  0.00000000000E+00  0.45593999997E+02  0.45594000000E+02  0.51100000000E-03 0. -1.
         11   -1    0    0    0    0 -0.00000000000E+00 -0.00000000000E+00 -0.45593999997E+02  0.45594000000E+02  0.51100000000E-03 0.  1.
         23    2    1    2    0    0  0.00000000000E+00  0.35527136788E-14  0.44408920985E-15  0.91188000000E+02  0.91188000000E+02 0.  0.
    9900012    2    3    3    0    0  0.24682096960E+02 -0.27095278520E+02 -0.35241879602E+01  0.54367082994E+02  0.39999997301E+02 0.  0.
         12    1    3    3    0    0 -0.24682096960E+02  0.27095278520E+02  0.35241879602E+01  0.36820917006E+02  0.00000000000E+00 0. -1.
         11    1    4    4    0    0  0.15122823027E+02  0.71176093506E+01 -0.31377990800E+01  0.17006055466E+02  0.51100000000E-03 0. -1.
        -11    1    4    4    0    0  0.50609004816E+01 -0.22954741646E+02 -0.56001125022E+01  0.24163901548E+02  0.51100000000E-03 0.  1.
         12    1    4    4    0    0  0.44983734507E+01 -0.11258146225E+02  0.52137236220E+01  0.13197125980E+02  0.00000000000E+00 0. -1.
</event>
<event>
 8    1  0.1278459E-006  0.9118800E+02  0.7816164E-02  0.1184000E+00
        -11   -1    0    0    0    0  0.00000000000E+00  0.00000000000E+00  0.45593999997E+02  0.45594000000E+02  0.51100000000E-03 0.  1.
         11   -1    0    0    0    0 -0.00000000000E+00 -0.00000000000E+00 -0.45593999997E+02  0.45594000000E+02  0.51100000000E-03 0. -1.
         23    2    1    2    0    0  0.00000000000E+00 -0.35527136788E-14  0.00000000000E+00  0.91188000000E+02  0.91188000000E+02 0.  0.
    9900012    2    3    3    0    0  0.18750632347E+02 -0.16947920578E+02 -0.26776029813E+02  0.54367163537E+02  0.40000180915E+02 0.  0.
        -12    1    3    3    0    0 -0.18750632347E+02  0.16947920578E+02  0.26776029813E+02  0.36820836463E+02  0.00000000000E+00 0.  1.
         11    1    4    4    0    0  0.10177336679E+02 -0.11537128433E+02 -0.12421075744E+02  0.19772876302E+02  0.51100000000E-03 0. -1.
        -11    1    4    4    0    0  0.96289759684E+01  0.72157918537E+01 -0.17780001156E+02  0.21468890787E+02  0.51100000000E-03 0.  1.
        -12    1    4    4    0    0 -0.10556803003E+01 -0.12626583999E+02  0.34250470867E+01  0.13125396448E+02  0.00000000000E+00 0.  1.
</event>
<event>
 8    1  0.1278459E-006  0.9118800E+02  0.7816164E-02  0.1184000E+00
        -11   -1    0    0    0    0  0.00000000000E+00  0.00000000000E+00  0.45593999997E+02  0.45594000000E+02  0.51100000000E-03 0.  1.
         11   -1    0    0    0    0 -0.00000000000E+00 -0.00000000000E+00 -0.45593999997E+02  0.45594000000E+02  0.51100000000E-03 0. -1.
         23    2    1    2    0    0  0.00000000000E+00 -0.71054273576E-14  0.35527136788E-14  0.91188000000E+02  0.91188000000E+02 0.  0.
    9900012    2    3    3    0    0  0.57334699123E+01 -0.31916264799E+02  0.17442955262E+02  0.54367118367E+02  0.40000077941E+02 0.  0.
         12    1    3    3    0    0 -0.57334699123E+01  0.31916264799E+02 -0.17442955262E+02  0.36820881633E+02  0.00000000000E+00 0. -1.
         11    1    4    4    0    0  0.11073756688E+02 -0.11183544446E+01  0.16523046951E+01  0.11252062696E+02  0.51100000000E-03 0. -1.
        -11    1    4    4    0    0  0.90198205984E+01 -0.12308052404E+02  0.11970223003E+02  0.19394111390E+02  0.51100000000E-03 0.  1.
         12    1    4    4    0    0 -0.14360107374E+02 -0.18489857950E+02  0.38204275637E+01  0.23720944281E+02  0.00000000000E+00 0. -1.
</event>
<event>
 8    1  0.1278459E-006  0.9118800E+02  0.7816164E-02  0.1184000E+00
        -11   -1    0    0    0    0  0.00000000000E+00  0.00000000000E+00  0.45593999997E+02  0.45594000000E+02  0.51100000000E-03 0. -1.
         11   -1    0    0    0    0 -0.00000000000E+00 -0.00000000000E+00 -0.45593999997E+02  0.45594000000E+02  0.51100000000E-03 0.  1.
         23    2    1    2    0    0  0.00000000000E+00  0.00000000000E+00  0.00000000000E+00  0.91188000000E+02  0.91188000000E+02 0.  0.
    9900012    2    3    3    0    0  0.21296326696E+02  0.25255066033E+02  0.16261242175E+02  0.54367083551E+02  0.39999998572E+02 0.  0.
        -12    1    3    3    0    0 -0.21296326696E+02 -0.25255066033E+02 -0.16261242175E+02  0.36820916449E+02  0.00000000000E+00 0.  1.
         11    1    4    4    0    0  0.56761747477E+00 -0.46899286079E+00 -0.80378408645E+01  0.80714949003E+01  0.51100000000E-03 0. -1.
        -11    1    4    4    0    0  0.29308245679E+01 -0.31742641192E+01 -0.37264123738E+00  0.43364210011E+01  0.51100000000E-03 0.  1.
         12    1    4    4    0    0  0.17797884653E+02  0.28898323013E+02  0.24671724276E+02  0.41959167650E+02  0.00000000000E+00 0. -1.
</event>
<event>
 8    1  0.1278459E-006  0.9118800E+02  0.7816164E-02  0.1184000E+00
        -11   -1    0    0    0    0  0.00000000000E+00  0.00000000000E+00  0.45593999997E+02  0.45594000000E+02  0.51100000000E-03 0. -1.
         11   -1    0    0    0    0 -0.00000000000E+00 -0.00000000000E+00 -0.45593999997E+02  0.45594000000E+02  0.51100000000E-03 0.  1.
         23    2    1    2    0    0  0.35527136788E-14  0.00000000000E+00  0.00000000000E+00  0.91188000000E+02  0.91188000000E+02 0.  0.
    9900012    2    3    3    0    0  0.30300454080E+02  0.18600240979E+02  0.95757066793E+01  0.54367073337E+02  0.39999975287E+02 0.  0.
        -12    1    3    3    0    0 -0.30300454080E+02 -0.18600240979E+02 -0.95757066793E+01  0.36820926663E+02  0.00000000000E+00 0.  1.
         11    1    4    4    0    0 -0.25701337426E+01  0.76017483071E+01  0.37676606858E+01  0.88649552781E+01  0.51100000000E-03 0. -1.
        -11    1    4    4    0    0 -0.24594132343E+01  0.82272778171E+01  0.52390167215E+01  0.10059031276E+02  0.51100000000E-03 0.  1.
         12    1    4    4    0    0  0.35330001056E+02  0.27712148548E+01  0.56902927197E+00  0.35443086783E+02  0.00000000000E+00 0. -1.
</event>
<event>
 8    1  0.1278459E-006  0.9118800E+02  0.7816164E-02  0.1184000E+00
        -11   -1    0    0    0    0  0.00000000000E+00  0.00000000000E+00  0.45593999997E+02  0.45594000000E+02  0.51100000000E-03 0. -1.
         11   -1    0    0    0    0 -0.00000000000E+00 -0.00000000000E+00 -0.45593999997E+02  0.45594000000E+02  0.51100000000E-03 0.  1.
         23    2    1    2    0    0  0.00000000000E+00  0.00000000000E+00  0.88817841970E-15  0.91188000000E+02  0.91188000000E+02 0.  0.
    9900012    2    3    3    0    0  0.21479970608E+02  0.29525850338E+02  0.47555731348E+01  0.54367075903E+02  0.39999981137E+02 0.  0.
        -12    1    3    3    0    0 -0.21479970608E+02 -0.29525850338E+02 -0.47555731348E+01  0.36820924097E+02  0.00000000000E+00 0.  1.
         11    1    4    4    0    0  0.29672241018E+01 -0.15752896902E+01  0.12861548330E+02  0.13293057669E+02  0.51100000000E-03 0. -1.
        -11    1    4    4    0    0 -0.76253439713E+00  0.30023689360E+01 -0.62183389190E+01  0.69471877121E+01  0.51100000000E-03 0.  1.
        -12    1    4    4    0    0  0.19275280903E+02  0.28098771092E+02 -0.18876362763E+01  0.34126830522E+02  0.00000000000E+00 0.  1.
</event>
<event>
 8    1  0.1278459E-006  0.9118800E+02  0.7816164E-02  0.1184000E+00
        -11   -1    0    0    0    0  0.00000000000E+00  0.00000000000E+00  0.45593999997E+02  0.45594000000E+02  0.51100000000E-03 0. -1.
         11   -1    0    0    0    0 -0.00000000000E+00 -0.00000000000E+00 -0.45593999997E+02  0.45594000000E+02  0.51100000000E-03 0.  1.
         23    2    1    2    0    0 -0.35527136788E-14 -0.35527136788E-14 -0.17763568394E-14  0.91188000000E+02  0.91188000000E+02 0.  0.
    9900012    2    3    3    0    0 -0.30867868545E+02 -0.18391984951E+02  0.80429548944E+01  0.54367088247E+02  0.40000009276E+02 0.  0.
        -12    1    3    3    0    0  0.30867868545E+02  0.18391984951E+02 -0.80429548944E+01  0.36820911753E+02  0.00000000000E+00 0.  1.
         11    1    4    4    0    0 -0.19100498911E+01 -0.48241770795E+01  0.28244707175E+01  0.59075045642E+01  0.51100000000E-03 0. -1.
        -11    1    4    4    0    0 -0.20370341936E+02 -0.23767933089E+02 -0.49489973692E+01  0.31691608497E+02  0.51100000000E-03 0.  1.
        -12    1    4    4    0    0 -0.85874767173E+01  0.10200125218E+02  0.10167481546E+02  0.16767975185E+02  0.00000000000E+00 0.  1.
</event>
<event>
 8    1  0.1278459E-006  0.9118800E+02  0.7816164E-02  0.1184000E+00
        -11   -1    0    0    0    0  0.00000000000E+00  0.00000000000E+00  0.45593999997E+02  0.45594000000E+02  0.51100000000E-03 0.  1.
         11   -1    0    0    0    0 -0.00000000000E+00 -0.00000000000E+00 -0.45593999997E+02  0.45594000000E+02  0.51100000000E-03 0. -1.
         23    2    1    2    0    0  0.00000000000E+00  0.00000000000E+00  0.00000000000E+00  0.91188000000E+02  0.91188000000E+02 0.  0.
    9900012    2    3    3    0    0 -0.34575062517E+02  0.54844147820E+01 -0.11413426797E+02  0.54367081152E+02  0.39999993102E+02 0.  0.
         12    1    3    3    0    0  0.34575062517E+02 -0.54844147820E+01  0.11413426797E+02  0.36820918848E+02  0.00000000000E+00 0. -1.
         11    1    4    4    0    0 -0.18869515247E+02  0.77104722085E+01 -0.10956702356E+02  0.23142154483E+02  0.51100000000E-03 0. -1.
        -11    1    4    4    0    0 -0.13629245575E+02  0.11195705262E+02 -0.76652433015E-01  0.17638197956E+02  0.51100000000E-03 0.  1.
        -12    1    4    4    0    0 -0.20763016946E+01 -0.13421762689E+02 -0.38007200793E+00  0.13586728713E+02  0.00000000000E+00 0.  1.
</event>
<event>
 8    1  0.1278459E-006  0.9118800E+02  0.7816164E-02  0.1184000E+00
        -11   -1    0    0    0    0  0.00000000000E+00  0.00000000000E+00  0.45593999997E+02  0.45594000000E+02  0.51100000000E-03 0.  1.
         11   -1    0    0    0    0 -0.00000000000E+00 -0.00000000000E+00 -0.45593999997E+02  0.45594000000E+02  0.51100000000E-03 0. -1.
         23    2    1    2    0    0  0.35527136788E-14 -0.35527136788E-14 -0.35527136788E-14  0.91188000000E+02  0.91188000000E+02 0.  0.
    9900012    2    3    3    0    0 -0.16809799769E+02  0.30583222557E+02  0.11742085472E+02  0.54367089617E+02  0.40000012400E+02 0.  0.
         12    1    3    3    0    0  0.16809799769E+02 -0.30583222557E+02 -0.11742085472E+02  0.36820910383E+02  0.00000000000E+00 0. -1.
         11    1    4    4    0    0 -0.18932722186E+02  0.16776673607E+02  0.34765324961E+01  0.25534114928E+02  0.51100000000E-03 0. -1.
        -11    1    4    4    0    0 -0.63833995084E+01  0.17196412245E+02  0.42195233937E+01  0.18822028618E+02  0.51100000000E-03 0.  1.
        -12    1    4    4    0    0  0.85063219256E+01 -0.33898632947E+01  0.40460295820E+01  0.10010946071E+02  0.00000000000E+00 0.  1.
</event>
<event>
 8    1  0.1278459E-006  0.9118800E+02  0.7816164E-02  0.1184000E+00
        -11   -1    0    0    0    0  0.00000000000E+00  0.00000000000E+00  0.45593999997E+02  0.45594000000E+02  0.51100000000E-03 0. -1.
         11   -1    0    0    0    0 -0.00000000000E+00 -0.00000000000E+00 -0.45593999997E+02  0.45594000000E+02  0.51100000000E-03 0.  1.
         23    2    1    2    0    0 -0.35527136788E-14  0.35527136788E-14  0.00000000000E+00  0.91188000000E+02  0.91188000000E+02 0.  0.
    9900012    2    3    3    0    0 -0.29069925436E+02  0.21638465458E+02  0.65188260540E+01  0.54367097711E+02  0.40000030852E+02 0.  0.
        -12    1    3    3    0    0  0.29069925436E+02 -0.21638465458E+02 -0.65188260540E+01  0.36820902289E+02  0.00000000000E+00 0.  1.
         11    1    4    4    0    0 -0.15850734327E+02  0.93848224493E+01  0.11202416579E+02  0.21559564203E+02  0.51100000000E-03 0. -1.
        -11    1    4    4    0    0 -0.20070351591E+02  0.14048080234E+02 -0.67841851701E+01  0.25420321398E+02  0.51100000000E-03 0.  1.
        -12    1    4    4    0    0  0.68511604825E+01 -0.17944372256E+01  0.21005946446E+01  0.73872121111E+01  0.00000000000E+00 0.  1.
</event>
<event>
 8    1  0.1278459E-006  0.9118800E+02  0.7816164E-02  0.1184000E+00
        -11   -1    0    0    0    0  0.00000000000E+00  0.00000000000E+00  0.45593999997E+02  0.45594000000E+02  0.51100000000E-03 0.  1.
         11   -1    0    0    0    0 -0.00000000000E+00 -0.00000000000E+00 -0.45593999997E+02  0.45594000000E+02  0.51100000000E-03 0. -1.
         23    2    1    2    0    0 -0.17763568394E-14  0.71054273576E-14  0.00000000000E+00  0.91188000000E+02  0.91188000000E+02 0.  0.
    9900012    2    3    3    0    0 -0.98757224552E+01  0.29037174900E+02  0.20373818091E+02  0.54367083610E+02  0.39999998707E+02 0.  0.
        -12    1    3    3    0    0  0.98757224552E+01 -0.29037174900E+02 -0.20373818091E+02  0.36820916390E+02  0.00000000000E+00 0.  1.
         11    1    4    4    0    0  0.28673967657E+01  0.20987640018E+02  0.27785336550E+01  0.21364064391E+02  0.51100000000E-03 0. -1.
        -11    1    4    4    0    0  0.66121357876E+01 -0.28707390188E+00  0.60836417501E+01  0.89896300426E+01  0.51100000000E-03 0.  1.
        -12    1    4    4    0    0 -0.19355255009E+02  0.83366087833E+01  0.11511642686E+02  0.24013389177E+02  0.00000000000E+00 0.  1.
</event>
<event>
 8    1  0.1278459E-006  0.9118800E+02  0.7816164E-02  0.1184000E+00
        -11   -1    0    0    0    0  0.00000000000E+00  0.00000000000E+00  0.45593999997E+02  0.45594000000E+02  0.51100000000E-03 0. -1.
         11   -1    0    0    0    0 -0.00000000000E+00 -0.00000000000E+00 -0.45593999997E+02  0.45594000000E+02  0.51100000000E-03 0.  1.
         23    2    1    2    0    0  0.00000000000E+00  0.00000000000E+00  0.00000000000E+00  0.91188000000E+02  0.91188000000E+02 0.  0.
    9900012    2    3    3    0    0 -0.23668413326E+02 -0.89289749395E+01  0.26755547764E+02  0.54367085848E+02  0.40000003807E+02 0.  0.
        -12    1    3    3    0    0  0.23668413326E+02  0.89289749395E+01 -0.26755547764E+02  0.36820914152E+02  0.00000000000E+00 0.  1.
         11    1    4    4    0    0 -0.28004922041E+02 -0.12900382040E+02  0.23771812492E+02  0.38933206710E+02  0.51100000000E-03 0. -1.
        -11    1    4    4    0    0  0.94563768614E+01  0.21048988824E+01  0.17110270897E+01  0.98377475376E+01  0.51100000000E-03 0.  1.
        -12    1    4    4    0    0 -0.51198681471E+01  0.18665082177E+01  0.12727081819E+01  0.55961316002E+01  0.00000000000E+00 0.  1.
</event>
<event>
 8    1  0.1278459E-006  0.9118800E+02  0.7816164E-02  0.1184000E+00
        -11   -1    0    0    0    0  0.00000000000E+00  0.00000000000E+00  0.45593999997E+02  0.45594000000E+02  0.51100000000E-03 0. -1.
         11   -1    0    0    0    0 -0.00000000000E+00 -0.00000000000E+00 -0.45593999997E+02  0.45594000000E+02  0.51100000000E-03 0.  1.
         23    2    1    2    0    0  0.00000000000E+00 -0.17763568394E-14  0.00000000000E+00  0.91188000000E+02  0.91188000000E+02 0.  0.
    9900012    2    3    3    0    0 -0.20619690355E+02 -0.85552150797E+01 -0.29281665677E+02  0.54367091807E+02  0.40000017392E+02 0.  0.
         12    1    3    3    0    0  0.20619690355E+02  0.85552150797E+01  0.29281665677E+02  0.36820908193E+02  0.00000000000E+00 0. -1.
         11    1    4    4    0    0 -0.78300442111E+01  0.89113282379E+01 -0.17104504984E+02  0.20815509946E+02  0.51100000000E-03 0. -1.
        -11    1    4    4    0    0  0.12809378753E+01  0.40942052947E+01 -0.54604261631E+01  0.69440314644E+01  0.51100000000E-03 0.  1.
         12    1    4    4    0    0 -0.14070584019E+02 -0.21560748612E+02 -0.67167345300E+01  0.26607550396E+02  0.00000000000E+00 0. -1.
</event>
<event>
 8    1  0.1278459E-006  0.9118800E+02  0.7816164E-02  0.1184000E+00
        -11   -1    0    0    0    0  0.00000000000E+00  0.00000000000E+00  0.45593999997E+02  0.45594000000E+02  0.51100000000E-03 0.  1.
         11   -1    0    0    0    0 -0.00000000000E+00 -0.00000000000E+00 -0.45593999997E+02  0.45594000000E+02  0.51100000000E-03 0. -1.
         23    2    1    2    0    0 -0.71054273576E-14  0.00000000000E+00 -0.17763568394E-14  0.91188000000E+02  0.91188000000E+02 0.  0.
    9900012    2    3    3    0    0  0.27279898087E+02 -0.20535761278E+02 -0.13779364788E+02  0.54367065399E+02  0.39999957191E+02 0.  0.
         12    1    3    3    0    0 -0.27279898087E+02  0.20535761278E+02  0.13779364788E+02  0.36820934601E+02  0.00000000000E+00 0. -1.
         11    1    4    4    0    0  0.25621263401E+01 -0.11602790130E+02  0.30018263413E+01  0.12255618786E+02  0.51100000000E-03 0. -1.
        -11    1    4    4    0    0  0.44244182236E+01 -0.67785529114E+01  0.70515007077E+01  0.10735358340E+02  0.51100000000E-03 0.  1.
        -12    1    4    4    0    0  0.20293353523E+02 -0.21544182366E+01 -0.23832691837E+02  0.31376088273E+02  0.00000000000E+00 0.  1.
</event>
<event>
 8    1  0.1278459E-006  0.9118800E+02  0.7816164E-02  0.1184000E+00
        -11   -1    0    0    0    0  0.00000000000E+00  0.00000000000E+00  0.45593999997E+02  0.45594000000E+02  0.51100000000E-03 0.  1.
         11   -1    0    0    0    0 -0.00000000000E+00 -0.00000000000E+00 -0.45593999997E+02  0.45594000000E+02  0.51100000000E-03 0. -1.
         23    2    1    2    0    0  0.00000000000E+00  0.00000000000E+00 -0.11102230246E-15  0.91188000000E+02  0.91188000000E+02 0.  0.
    9900012    2    3    3    0    0  0.33435383990E+02 -0.15418459303E+02  0.35531588134E+00  0.54367081500E+02  0.39999993895E+02 0.  0.
        -12    1    3    3    0    0 -0.33435383990E+02  0.15418459303E+02 -0.35531588134E+00  0.36820918500E+02  0.00000000000E+00 0.  1.
         11    1    4    4    0    0  0.10320411814E+02  0.22888717895E+01  0.41533283522E+01  0.11357815404E+02  0.51100000000E-03 0. -1.
        -11    1    4    4    0    0  0.77228398787E+01 -0.54464370249E+00  0.12551053261E+02  0.14746790525E+02  0.51100000000E-03 0.  1.
        -12    1    4    4    0    0  0.15392132297E+02 -0.17162687390E+02 -0.16349065732E+02  0.28262475571E+02  0.00000000000E+00 0.  1.
</event>
<event>
 8    1  0.1278459E-006  0.9118800E+02  0.7816164E-02  0.1184000E+00
        -11   -1    0    0    0    0  0.00000000000E+00  0.00000000000E+00  0.45593999997E+02  0.45594000000E+02  0.51100000000E-03 0.  1.
         11   -1    0    0    0    0 -0.00000000000E+00 -0.00000000000E+00 -0.45593999997E+02  0.45594000000E+02  0.51100000000E-03 0. -1.
         23    2    1    2    0    0  0.35527136788E-14 -0.88817841970E-15  0.00000000000E+00  0.91188000000E+02  0.91188000000E+02 0.  0.
    9900012    2    3    3    0    0  0.24009181227E+02  0.62609560458E+01  0.27205506905E+02  0.54367082579E+02  0.39999996354E+02 0.  0.
        -12    1    3    3    0    0 -0.24009181227E+02 -0.62609560458E+01 -0.27205506905E+02  0.36820917421E+02  0.00000000000E+00 0.  1.
         11    1    4    4    0    0 -0.75422627197E+01  0.34123988605E+01  0.11448213516E+02  0.14127695703E+02  0.51100000000E-03 0. -1.
        -11    1    4    4    0    0  0.10653725007E+02 -0.65788595702E+00  0.15778141276E+02  0.19049525266E+02  0.51100000000E-03 0.  1.
         12    1    4    4    0    0  0.20897718939E+02  0.35064431423E+01 -0.20847887576E-01  0.21189861609E+02  0.00000000000E+00 0. -1.
</event>
<event>
 8    1  0.1278459E-006  0.9118800E+02  0.7816164E-02  0.1184000E+00
        -11   -1    0    0    0    0  0.00000000000E+00  0.00000000000E+00  0.45593999997E+02  0.45594000000E+02  0.51100000000E-03 0. -1.
         11   -1    0    0    0    0 -0.00000000000E+00 -0.00000000000E+00 -0.45593999997E+02  0.45594000000E+02  0.51100000000E-03 0.  1.
         23    2    1    2    0    0  0.35527136788E-14  0.88817841970E-15  0.35527136788E-14  0.91188000000E+02  0.91188000000E+02 0.  0.
    9900012    2    3    3    0    0  0.22482617877E+02 -0.13766774088E+01  0.29127560822E+02  0.54367107197E+02  0.40000052478E+02 0.  0.
        -12    1    3    3    0    0 -0.22482617877E+02  0.13766774088E+01 -0.29127560822E+02  0.36820892803E+02  0.00000000000E+00 0.  1.
         11    1    4    4    0    0  0.42125769883E+01  0.51071680872E-01  0.54710868679E+01  0.69051578531E+01  0.51100000000E-03 0. -1.
        -11    1    4    4    0    0  0.22890176889E+02  0.59256589130E+01  0.15322492811E+01  0.23694333071E+02  0.51100000000E-03 0.  1.
        -12    1    4    4    0    0 -0.46201359998E+01 -0.73534080027E+01  0.22124224674E+02  0.23767616273E+02  0.00000000000E+00 0.  1.
</event>
<event>
 8    1  0.1278459E-006  0.9118800E+02  0.7816164E-02  0.1184000E+00
        -11   -1    0    0    0    0  0.00000000000E+00  0.00000000000E+00  0.45593999997E+02  0.45594000000E+02  0.51100000000E-03 0.  1.
         11   -1    0    0    0    0 -0.00000000000E+00 -0.00000000000E+00 -0.45593999997E+02  0.45594000000E+02  0.51100000000E-03 0. -1.
         23    2    1    2    0    0 -0.71054273576E-14 -0.17763568394E-14 -0.17763568394E-14  0.91188000000E+02  0.91188000000E+02 0.  0.
    9900012    2    3    3    0    0  0.35864463303E+02  0.48523341166E+01  0.67804828557E+01  0.54367084447E+02  0.40000000614E+02 0.  0.
         12    1    3    3    0    0 -0.35864463303E+02 -0.48523341166E+01 -0.67804828557E+01  0.36820915553E+02  0.00000000000E+00 0. -1.
         11    1    4    4    0    0  0.30893099219E+02  0.14005977781E+02 -0.50932814158E+01  0.34300036571E+02  0.51100000000E-03 0. -1.
        -11    1    4    4    0    0  0.23305502727E+01 -0.89856137480E+00  0.11086252565E+02  0.11364148596E+02  0.51100000000E-03 0.  1.
        -12    1    4    4    0    0  0.26408138112E+01 -0.82550822892E+01  0.78751170628E+00  0.87028992798E+01  0.00000000000E+00 0.  1.
</event>
<event>
 8    1  0.1278459E-006  0.9118800E+02  0.7816164E-02  0.1184000E+00
        -11   -1    0    0    0    0  0.00000000000E+00  0.00000000000E+00  0.45593999997E+02  0.45594000000E+02  0.51100000000E-03 0. -1.
         11   -1    0    0    0    0 -0.00000000000E+00 -0.00000000000E+00 -0.45593999997E+02  0.45594000000E+02  0.51100000000E-03 0.  1.
         23    2    1    2    0    0  0.00000000000E+00  0.00000000000E+00  0.00000000000E+00  0.91188000000E+02  0.91188000000E+02 0.  0.
    9900012    2    3    3    0    0  0.33415200595E+02  0.10037971834E+02 -0.11766186643E+02  0.54367086684E+02  0.40000005713E+02 0.  0.
        -12    1    3    3    0    0 -0.33415200595E+02 -0.10037971834E+02  0.11766186643E+02  0.36820913316E+02  0.00000000000E+00 0.  1.
         11    1    4    4    0    0  0.22561958968E+02  0.19045142388E+02 -0.32712871024E+01  0.29706241106E+02  0.51100000000E-03 0. -1.
        -11    1    4    4    0    0  0.63355439127E+01 -0.10567273885E+02  0.25892876127E+01  0.12590107412E+02  0.51100000000E-03 0.  1.
         12    1    4    4    0    0  0.45176977143E+01  0.15601033308E+01 -0.11084187153E+02  0.12070738166E+02  0.00000000000E+00 0. -1.
</event>
<event>
 8    1  0.1278459E-006  0.9118800E+02  0.7816164E-02  0.1184000E+00
        -11   -1    0    0    0    0  0.00000000000E+00  0.00000000000E+00  0.45593999997E+02  0.45594000000E+02  0.51100000000E-03 0.  1.
         11   -1    0    0    0    0 -0.00000000000E+00 -0.00000000000E+00 -0.45593999997E+02  0.45594000000E+02  0.51100000000E-03 0. -1.
         23    2    1    2    0    0  0.35527136788E-14  0.00000000000E+00  0.00000000000E+00  0.91188000000E+02  0.91188000000E+02 0.  0.
    9900012    2    3    3    0    0 -0.17346071688E+02  0.23668189245E+02  0.22242082799E+02  0.54367087024E+02  0.40000006489E+02 0.  0.
         12    1    3    3    0    0  0.17346071688E+02 -0.23668189245E+02 -0.22242082799E+02  0.36820912976E+02  0.00000000000E+00 0. -1.
         11    1    4    4    0    0  0.40799463856E+00  0.83940017148E+01 -0.27305062861E+01  0.88363674240E+01  0.51100000000E-03 0. -1.
        -11    1    4    4    0    0  0.50846926063E+01  0.14227788708E+02  0.83403399950E+01  0.17258196369E+02  0.51100000000E-03 0.  1.
        -12    1    4    4    0    0 -0.22838758933E+02  0.10463988224E+01  0.16632249090E+02  0.28272523231E+02  0.00000000000E+00 0.  1.
</event>
<event>
 8    1  0.1278459E-006  0.9118800E+02  0.7816164E-02  0.1184000E+00
        -11   -1    0    0    0    0  0.00000000000E+00  0.00000000000E+00  0.45593999997E+02  0.45594000000E+02  0.51100000000E-03 0.  1.
         11   -1    0    0    0    0 -0.00000000000E+00 -0.00000000000E+00 -0.45593999997E+02  0.45594000000E+02  0.51100000000E-03 0. -1.
         23    2    1    2    0    0  0.00000000000E+00 -0.35527136788E-14  0.00000000000E+00  0.91188000000E+02  0.91188000000E+02 0.  0.
    9900012    2    3    3    0    0  0.18236825889E+02  0.29843076783E+02 -0.11514733482E+02  0.54367080164E+02  0.39999990851E+02 0.  0.
        -12    1    3    3    0    0 -0.18236825889E+02 -0.29843076783E+02  0.11514733482E+02  0.36820919836E+02  0.00000000000E+00 0.  1.
         11    1    4    4    0    0 -0.55404776649E+01  0.25598463444E+02 -0.67876594881E+01  0.27056432600E+02  0.51100000000E-03 0. -1.
        -11    1    4    4    0    0  0.21972713711E+02  0.28286421120E+00 -0.17653995300E+01  0.22045335011E+02  0.51100000000E-03 0.  1.
        -12    1    4    4    0    0  0.18045898430E+01  0.39617491275E+01 -0.29616744641E+01  0.52653125531E+01  0.00000000000E+00 0.  1.
</event>
<event>
 8    1  0.1278459E-006  0.9118800E+02  0.7816164E-02  0.1184000E+00
        -11   -1    0    0    0    0  0.00000000000E+00  0.00000000000E+00  0.45593999997E+02  0.45594000000E+02  0.51100000000E-03 0.  1.
         11   -1    0    0    0    0 -0.00000000000E+00 -0.00000000000E+00 -0.45593999997E+02  0.45594000000E+02  0.51100000000E-03 0. -1.
         23    2    1    2    0    0 -0.44408920985E-15  0.17763568394E-14  0.00000000000E+00  0.91188000000E+02  0.91188000000E+02 0.  0.
    9900012    2    3    3    0    0 -0.20354758813E+01  0.11926145172E+02 -0.34776482352E+02  0.54367084401E+02  0.40000000510E+02 0.  0.
        -12    1    3    3    0    0  0.20354758813E+01 -0.11926145172E+02  0.34776482352E+02  0.36820915599E+02  0.00000000000E+00 0.  1.
         11    1    4    4    0    0  0.56016967657E+01  0.14534723113E+02 -0.36457193156E+02  0.39645480395E+02  0.51100000000E-03 0. -1.
        -11    1    4    4    0    0  0.31915979264E+01  0.74021951134E+00  0.64915568941E+00  0.33400038351E+01  0.51100000000E-03 0.  1.
         12    1    4    4    0    0 -0.10828770573E+02 -0.33487974524E+01  0.10315551150E+01  0.11381600171E+02  0.00000000000E+00 0. -1.
</event>
<event>
 8    1  0.1278459E-006  0.9118800E+02  0.7816164E-02  0.1184000E+00
        -11   -1    0    0    0    0  0.00000000000E+00  0.00000000000E+00  0.45593999997E+02  0.45594000000E+02  0.51100000000E-03 0. -1.
         11   -1    0    0    0    0 -0.00000000000E+00 -0.00000000000E+00 -0.45593999997E+02  0.45594000000E+02  0.51100000000E-03 0.  1.
         23    2    1    2    0    0  0.00000000000E+00  0.35527136788E-14 -0.35527136788E-14  0.91188000000E+02  0.91188000000E+02 0.  0.
    9900012    2    3    3    0    0  0.62362128103E+01 -0.20871036535E+02  0.29686362911E+02  0.54367208874E+02  0.40000284269E+02 0.  0.
        -12    1    3    3    0    0 -0.62362128103E+01  0.20871036535E+02 -0.29686362911E+02  0.36820791126E+02  0.00000000000E+00 0.  1.
         11    1    4    4    0    0  0.91912376525E+01  0.20041759948E+01  0.10260676325E+01  0.94630009009E+01  0.51100000000E-03 0.  1.
        -11    1    4    4    0    0  0.49792974513E+01 -0.10257396876E+02 -0.12653491857E+01  0.11472083621E+02  0.51100000000E-03 0. -1.
         12    1    4    4    0    0 -0.79343222935E+01 -0.12617815654E+02  0.29925644464E+02  0.33432124353E+02  0.00000000000E+00 0. -1.
</event>
<event>
 8    1  0.1278459E-006  0.9118800E+02  0.7816164E-02  0.1184000E+00
        -11   -1    0    0    0    0  0.00000000000E+00  0.00000000000E+00  0.45593999997E+02  0.45594000000E+02  0.51100000000E-03 0. -1.
         11   -1    0    0    0    0 -0.00000000000E+00 -0.00000000000E+00 -0.45593999997E+02  0.45594000000E+02  0.51100000000E-03 0.  1.
         23    2    1    2    0    0  0.00000000000E+00  0.35527136788E-14  0.00000000000E+00  0.91188000000E+02  0.91188000000E+02 0.  0.
    9900012    2    3    3    0    0  0.32930248404E+02  0.16232435417E+02 -0.28088994334E+01  0.54367039454E+02  0.39999898043E+02 0.  0.
         12    1    3    3    0    0 -0.32930248404E+02 -0.16232435417E+02  0.28088994334E+01  0.36820960546E+02  0.00000000000E+00 0. -1.
         11    1    4    4    0    0  0.50879142540E+01  0.13444792213E+02  0.42344736233E+01  0.14985996004E+02  0.51100000000E-03 0. -1.
        -11    1    4    4    0    0  0.18307212902E+02 -0.11462818097E+02 -0.39016160856E+01  0.21949324621E+02  0.51100000000E-03 0.  1.
        -12    1    4    4    0    0  0.95351212473E+01  0.14250461300E+02 -0.31417569712E+01  0.17431718829E+02  0.00000000000E+00 0.  1.
</event>
<event>
 8    1  0.1278459E-006  0.9118800E+02  0.7816164E-02  0.1184000E+00
        -11   -1    0    0    0    0  0.00000000000E+00  0.00000000000E+00  0.45593999997E+02  0.45594000000E+02  0.51100000000E-03 0.  1.
         11   -1    0    0    0    0 -0.00000000000E+00 -0.00000000000E+00 -0.45593999997E+02  0.45594000000E+02  0.51100000000E-03 0. -1.
         23    2    1    2    0    0  0.17763568394E-14  0.35527136788E-14  0.00000000000E+00  0.91188000000E+02  0.91188000000E+02 0.  0.
    9900012    2    3    3    0    0 -0.11430843320E+02  0.31480722812E+02  0.15299687909E+02  0.54367074728E+02  0.39999978458E+02 0.  0.
         12    1    3    3    0    0  0.11430843320E+02 -0.31480722812E+02 -0.15299687909E+02  0.36820925272E+02  0.00000000000E+00 0. -1.
         11    1    4    4    0    0 -0.36267032391E+00  0.70727993141E+01  0.31489791508E+01  0.77506186756E+01  0.51100000000E-03 0. -1.
        -11    1    4    4    0    0 -0.73300655586E+01  0.31144839090E+02 -0.27386351520E+00  0.31996966490E+02  0.51100000000E-03 0.  1.
         12    1    4    4    0    0 -0.37381074372E+01 -0.67369155927E+01  0.12424572273E+02  0.14619489563E+02  0.00000000000E+00 0. -1.
</event>
<event>
 8    1  0.1278459E-006  0.9118800E+02  0.7816164E-02  0.1184000E+00
        -11   -1    0    0    0    0  0.00000000000E+00  0.00000000000E+00  0.45593999997E+02  0.45594000000E+02  0.51100000000E-03 0. -1.
         11   -1    0    0    0    0 -0.00000000000E+00 -0.00000000000E+00 -0.45593999997E+02  0.45594000000E+02  0.51100000000E-03 0.  1.
         23    2    1    2    0    0 -0.35527136788E-14  0.00000000000E+00  0.00000000000E+00  0.91188000000E+02  0.91188000000E+02 0.  0.
    9900012    2    3    3    0    0  0.23110493632E+02 -0.21240405285E+02 -0.19249152625E+02  0.54367087337E+02  0.40000007202E+02 0.  0.
         12    1    3    3    0    0 -0.23110493632E+02  0.21240405285E+02  0.19249152625E+02  0.36820912663E+02  0.00000000000E+00 0. -1.
         11    1    4    4    0    0  0.27583854384E+01  0.96349244142E+01 -0.61393769841E+01  0.11752974462E+02  0.51100000000E-03 0. -1.
        -11    1    4    4    0    0  0.24312161540E+01 -0.18699160028E+02 -0.53566792769E+01  0.19602637855E+02  0.51100000000E-03 0.  1.
         12    1    4    4    0    0  0.17920892040E+02 -0.12176169671E+02 -0.77530963641E+01  0.23011475020E+02  0.00000000000E+00 0. -1.
</event>
<event>
 8    1  0.1278459E-006  0.9118800E+02  0.7816164E-02  0.1184000E+00
        -11   -1    0    0    0    0  0.00000000000E+00  0.00000000000E+00  0.45593999997E+02  0.45594000000E+02  0.51100000000E-03 0. -1.
         11   -1    0    0    0    0 -0.00000000000E+00 -0.00000000000E+00 -0.45593999997E+02  0.45594000000E+02  0.51100000000E-03 0.  1.
         23    2    1    2    0    0  0.35527136788E-14 -0.35527136788E-14  0.00000000000E+00  0.91188000000E+02  0.91188000000E+02 0.  0.
    9900012    2    3    3    0    0  0.20200196853E+02 -0.22359514396E+02  0.21161011418E+02  0.54367024441E+02  0.39999863817E+02 0.  0.
         12    1    3    3    0    0 -0.20200196853E+02  0.22359514396E+02 -0.21161011418E+02  0.36820975559E+02  0.00000000000E+00 0. -1.
         11    1    4    4    0    0 -0.73686726259E+01 -0.12618453346E+02  0.97706442957E+01  0.17578059942E+02  0.51100000000E-03 0. -1.
        -11    1    4    4    0    0  0.78442610730E+01  0.29116797750E+01 -0.34505906898E+01  0.90507948415E+01  0.51100000000E-03 0.  1.
        -12    1    4    4    0    0  0.19724608406E+02 -0.12652740825E+02  0.14840957812E+02  0.27738169657E+02  0.00000000000E+00 0.  1.
</event>
<event>
 8    1  0.1278459E-006  0.9118800E+02  0.7816164E-02  0.1184000E+00
        -11   -1    0    0    0    0  0.00000000000E+00  0.00000000000E+00  0.45593999997E+02  0.45594000000E+02  0.51100000000E-03 0. -1.
         11   -1    0    0    0    0 -0.00000000000E+00 -0.00000000000E+00 -0.45593999997E+02  0.45594000000E+02  0.51100000000E-03 0.  1.
         23    2    1    2    0    0  0.00000000000E+00 -0.17763568394E-14  0.00000000000E+00  0.91188000000E+02  0.91188000000E+02 0.  0.
    9900012    2    3    3    0    0 -0.11312021861E+02 -0.15368756533E+02 -0.31489987247E+02  0.54367084575E+02  0.40000000905E+02 0.  0.
         12    1    3    3    0    0  0.11312021861E+02  0.15368756533E+02  0.31489987247E+02  0.36820915425E+02  0.00000000000E+00 0. -1.
         11    1    4    4    0    0 -0.12215727559E+02 -0.68105883831E+01 -0.19229416275E+02  0.23777690478E+02  0.51100000000E-03 0. -1.
        -11    1    4    4    0    0 -0.69549894275E+01  0.63475827671E+00 -0.16384979482E+02  0.17811298349E+02  0.51100000000E-03 0.  1.
         12    1    4    4    0    0  0.78586951262E+01 -0.91929264264E+01  0.41244085102E+01  0.12778095747E+02  0.00000000000E+00 0. -1.
</event>
<event>
 8    1  0.1278459E-006  0.9118800E+02  0.7816164E-02  0.1184000E+00
        -11   -1    0    0    0    0  0.00000000000E+00  0.00000000000E+00  0.45593999997E+02  0.45594000000E+02  0.51100000000E-03 0.  1.
         11   -1    0    0    0    0 -0.00000000000E+00 -0.00000000000E+00 -0.45593999997E+02  0.45594000000E+02  0.51100000000E-03 0. -1.
         23    2    1    2    0    0 -0.35527136788E-14 -0.35527136788E-14  0.00000000000E+00  0.91188000000E+02  0.91188000000E+02 0.  0.
    9900012    2    3    3    0    0 -0.27231417832E+02 -0.23163227070E+02 -0.88144601745E+01  0.54367083205E+02  0.39999997784E+02 0.  0.
        -12    1    3    3    0    0  0.27231417832E+02  0.23163227070E+02  0.88144601745E+01  0.36820916795E+02  0.00000000000E+00 0.  1.
         11    1    4    4    0    0 -0.28688580487E+02 -0.24563142800E+02  0.18913684327E+01  0.37814810715E+02  0.51100000000E-03 0. -1.
        -11    1    4    4    0    0 -0.47974731572E+01 -0.85215384415E+00 -0.80165088423E+01  0.93811688583E+01  0.51100000000E-03 0.  1.
         12    1    4    4    0    0  0.62546358124E+01  0.22520695742E+01 -0.26893197648E+01  0.71711036326E+01  0.00000000000E+00 0. -1.
</event>
<event>
 8    1  0.1278459E-006  0.9118800E+02  0.7816164E-02  0.1184000E+00
        -11   -1    0    0    0    0  0.00000000000E+00  0.00000000000E+00  0.45593999997E+02  0.45594000000E+02  0.51100000000E-03 0. -1.
         11   -1    0    0    0    0 -0.00000000000E+00 -0.00000000000E+00 -0.45593999997E+02  0.45594000000E+02  0.51100000000E-03 0.  1.
         23    2    1    2    0    0 -0.88817841970E-15  0.00000000000E+00  0.71054273576E-14  0.91188000000E+02  0.91188000000E+02 0.  0.
    9900012    2    3    3    0    0  0.34722440014E+01  0.95764639460E+01 -0.35383785202E+02  0.54367117401E+02  0.40000075739E+02 0.  0.
         12    1    3    3    0    0 -0.34722440014E+01 -0.95764639460E+01  0.35383785202E+02  0.36820882599E+02  0.00000000000E+00 0. -1.
         11    1    4    4    0    0  0.73318530157E+00  0.25990454140E+01 -0.74134705759E+00  0.28003916640E+01  0.51100000000E-03 0. -1.
        -11    1    4    4    0    0 -0.36733157096E+00  0.21049387843E+02 -0.29550477665E+02  0.36282811241E+02  0.51100000000E-03 0.  1.
         12    1    4    4    0    0  0.31063902708E+01 -0.14071969311E+02 -0.50919604801E+01  0.15283914497E+02  0.00000000000E+00 0. -1.
</event>
<event>
 8    1  0.1278459E-006  0.9118800E+02  0.7816164E-02  0.1184000E+00
        -11   -1    0    0    0    0  0.00000000000E+00  0.00000000000E+00  0.45593999997E+02  0.45594000000E+02  0.51100000000E-03 0.  1.
         11   -1    0    0    0    0 -0.00000000000E+00 -0.00000000000E+00 -0.45593999997E+02  0.45594000000E+02  0.51100000000E-03 0. -1.
         23    2    1    2    0    0  0.00000000000E+00  0.00000000000E+00  0.00000000000E+00  0.91188000000E+02  0.91188000000E+02 0.  0.
    9900012    2    3    3    0    0 -0.32988715196E+02  0.13253737244E+02 -0.95845051611E+01  0.54367087187E+02  0.40000006860E+02 0.  0.
         12    1    3    3    0    0  0.32988715196E+02 -0.13253737244E+02  0.95845051611E+01  0.36820912813E+02  0.00000000000E+00 0. -1.
         11    1    4    4    0    0 -0.94215223772E+01  0.57561517693E+01 -0.59484592235E+01  0.12541233372E+02  0.51100000000E-03 0. -1.
        -11    1    4    4    0    0  0.47552720230E+01  0.50533555048E+01  0.84513935830E+01  0.10935038529E+02  0.51100000000E-03 0.  1.
         12    1    4    4    0    0 -0.28322464842E+02  0.24442299702E+01 -0.12087439521E+02  0.30890815286E+02  0.00000000000E+00 0. -1.
</event>
<event>
 8    1  0.1278459E-006  0.9118800E+02  0.7816164E-02  0.1184000E+00
        -11   -1    0    0    0    0  0.00000000000E+00  0.00000000000E+00  0.45593999997E+02  0.45594000000E+02  0.51100000000E-03 0. -1.
         11   -1    0    0    0    0 -0.00000000000E+00 -0.00000000000E+00 -0.45593999997E+02  0.45594000000E+02  0.51100000000E-03 0.  1.
         23    2    1    2    0    0 -0.35527136788E-14  0.00000000000E+00 -0.35527136788E-14  0.91188000000E+02  0.91188000000E+02 0.  0.
    9900012    2    3    3    0    0  0.25392634017E+02  0.97308009144E+01  0.24825541847E+02  0.54367056547E+02  0.39999937011E+02 0.  0.
         12    1    3    3    0    0 -0.25392634017E+02 -0.97308009144E+01 -0.24825541847E+02  0.36820943453E+02  0.00000000000E+00 0. -1.
         11    1    4    4    0    0  0.14778200510E+02  0.17904264397E+02  0.20341481771E+02  0.30866385840E+02  0.51100000000E-03 0. -1.
        -11    1    4    4    0    0 -0.53304379449E+01 -0.46998559740E+00  0.75630615613E+00  0.54042996225E+01  0.51100000000E-03 0.  1.
        -12    1    4    4    0    0  0.15944871452E+02 -0.77034778856E+01  0.37277539193E+01  0.18096371085E+02  0.00000000000E+00 0.  1.
</event>
<event>
 8    1  0.1278459E-006  0.9118800E+02  0.7816164E-02  0.1184000E+00
        -11   -1    0    0    0    0  0.00000000000E+00  0.00000000000E+00  0.45593999997E+02  0.45594000000E+02  0.51100000000E-03 0.  1.
         11   -1    0    0    0    0 -0.00000000000E+00 -0.00000000000E+00 -0.45593999997E+02  0.45594000000E+02  0.51100000000E-03 0. -1.
         23    2    1    2    0    0 -0.17763568394E-14  0.88817841970E-15  0.00000000000E+00  0.91188000000E+02  0.91188000000E+02 0.  0.
    9900012    2    3    3    0    0  0.87432583660E+01 -0.62922970404E+01  0.35209971281E+02  0.54367086832E+02  0.40000006052E+02 0.  0.
         12    1    3    3    0    0 -0.87432583660E+01  0.62922970404E+01 -0.35209971281E+02  0.36820913168E+02  0.00000000000E+00 0. -1.
         11    1    4    4    0    0  0.14660474519E+02  0.64862284650E+01  0.56468202181E+01  0.16996683548E+02  0.51100000000E-03 0. -1.
        -11    1    4    4    0    0 -0.32955015764E+01 -0.12927194158E+02  0.78085309079E+01  0.15457872901E+02  0.51100000000E-03 0.  1.
        -12    1    4    4    0    0 -0.26217145762E+01  0.14866865213E+00  0.21754620155E+02  0.21912530383E+02  0.00000000000E+00 0.  1.
</event>
<event>
 8    1  0.1278459E-006  0.9118800E+02  0.7816164E-02  0.1184000E+00
        -11   -1    0    0    0    0  0.00000000000E+00  0.00000000000E+00  0.45593999997E+02  0.45594000000E+02  0.51100000000E-03 0. -1.
         11   -1    0    0    0    0 -0.00000000000E+00 -0.00000000000E+00 -0.45593999997E+02  0.45594000000E+02  0.51100000000E-03 0.  1.
         23    2    1    2    0    0 -0.11102230246E-15  0.00000000000E+00  0.00000000000E+00  0.91188000000E+02  0.91188000000E+02 0.  0.
    9900012    2    3    3    0    0 -0.45349304513E+00 -0.42369352462E+01 -0.36573491228E+02  0.54367115481E+02  0.40000071361E+02 0.  0.
         12    1    3    3    0    0  0.45349304513E+00  0.42369352462E+01  0.36573491228E+02  0.36820884519E+02  0.00000000000E+00 0. -1.
         11    1    4    4    0    0  0.65243656153E+01 -0.16509070246E+01 -0.26759353510E+02  0.27592677311E+02  0.51100000000E-03 0. -1.
        -11    1    4    4    0    0 -0.86668296347E+01 -0.16654129585E+01 -0.17097741463E+02  0.19241109626E+02  0.51100000000E-03 0.  1.
         12    1    4    4    0    0  0.16889709742E+01 -0.92061526312E+00  0.72836037456E+01  0.75333285431E+01  0.00000000000E+00 0. -1.
</event>
<event>
 8    1  0.1278459E-006  0.9118800E+02  0.7816164E-02  0.1184000E+00
        -11   -1    0    0    0    0  0.00000000000E+00  0.00000000000E+00  0.45593999997E+02  0.45594000000E+02  0.51100000000E-03 0.  1.
         11   -1    0    0    0    0 -0.00000000000E+00 -0.00000000000E+00 -0.45593999997E+02  0.45594000000E+02  0.51100000000E-03 0. -1.
         23    2    1    2    0    0 -0.13322676296E-14  0.44408920985E-15 -0.71054273576E-14  0.91188000000E+02  0.91188000000E+02 0.  0.
    9900012    2    3    3    0    0  0.28864395982E+01  0.38633241729E+01  0.36503737034E+02  0.54367087129E+02  0.40000006728E+02 0.  0.
         12    1    3    3    0    0 -0.28864395982E+01 -0.38633241729E+01 -0.36503737034E+02  0.36820912871E+02  0.00000000000E+00 0. -1.
         11    1    4    4    0    0 -0.61101713362E+00 -0.59792936268E+00 -0.23306935449E+01  0.24825378390E+01  0.51100000000E-03 0. -1.
        -11    1    4    4    0    0 -0.14558886742E+02 -0.16178837525E+01  0.11794174321E+02  0.18806415904E+02  0.51100000000E-03 0.  1.
        -12    1    4    4    0    0  0.18056343473E+02  0.60791372881E+01  0.27040256258E+02  0.33078133386E+02  0.00000000000E+00 0.  1.
</event>
<event>
 8    1  0.1278459E-006  0.9118800E+02  0.7816164E-02  0.1184000E+00
        -11   -1    0    0    0    0  0.00000000000E+00  0.00000000000E+00  0.45593999997E+02  0.45594000000E+02  0.51100000000E-03 0. -1.
         11   -1    0    0    0    0 -0.00000000000E+00 -0.00000000000E+00 -0.45593999997E+02  0.45594000000E+02  0.51100000000E-03 0.  1.
         23    2    1    2    0    0  0.00000000000E+00 -0.88817841970E-15  0.00000000000E+00  0.91188000000E+02  0.91188000000E+02 0.  0.
    9900012    2    3    3    0    0  0.16801568676E+02  0.52041761684E+01  0.32348207571E+02  0.54367045469E+02  0.39999911755E+02 0.  0.
        -12    1    3    3    0    0 -0.16801568676E+02 -0.52041761684E+01 -0.32348207571E+02  0.36820954531E+02  0.00000000000E+00 0.  1.
         11    1    4    4    0    0  0.87624662628E+01 -0.45586054405E+01  0.10158822855E+01  0.99294368243E+01  0.51100000000E-03 0.  1.
        -11    1    4    4    0    0 -0.10939431240E+02  0.42532781883E+01  0.12281640077E+02  0.16988237532E+02  0.51100000000E-03 0. -1.
         12    1    4    4    0    0  0.18978533653E+02  0.55095034206E+01  0.19050685208E+02  0.27449371113E+02  0.00000000000E+00 0. -1.
</event>
<event>
 8    1  0.1278459E-006  0.9118800E+02  0.7816164E-02  0.1184000E+00
        -11   -1    0    0    0    0  0.00000000000E+00  0.00000000000E+00  0.45593999997E+02  0.45594000000E+02  0.51100000000E-03 0.  1.
         11   -1    0    0    0    0 -0.00000000000E+00 -0.00000000000E+00 -0.45593999997E+02  0.45594000000E+02  0.51100000000E-03 0. -1.
         23    2    1    2    0    0 -0.44408920985E-15  0.00000000000E+00 -0.35527136788E-14  0.91188000000E+02  0.91188000000E+02 0.  0.
    9900012    2    3    3    0    0 -0.26883994383E+01 -0.18042827908E+02  0.31984512914E+02  0.54367079360E+02  0.39999989016E+02 0.  0.
         12    1    3    3    0    0  0.26883994383E+01  0.18042827908E+02 -0.31984512914E+02  0.36820920640E+02  0.00000000000E+00 0. -1.
         11    1    4    4    0    0 -0.83104196261E+01  0.82243049647E+01  0.65896156216E+01  0.13421076738E+02  0.51100000000E-03 0. -1.
        -11    1    4    4    0    0  0.16488923481E+01 -0.69452492333E+01  0.18859833390E+02  0.20165531202E+02  0.51100000000E-03 0.  1.
         12    1    4    4    0    0  0.39731278397E+01 -0.19321883639E+02  0.65350639024E+01  0.20780471419E+02  0.00000000000E+00 0. -1.
</event>
<event>
 8    1  0.1278459E-006  0.9118800E+02  0.7816164E-02  0.1184000E+00
        -11   -1    0    0    0    0  0.00000000000E+00  0.00000000000E+00  0.45593999997E+02  0.45594000000E+02  0.51100000000E-03 0. -1.
         11   -1    0    0    0    0 -0.00000000000E+00 -0.00000000000E+00 -0.45593999997E+02  0.45594000000E+02  0.51100000000E-03 0.  1.
         23    2    1    2    0    0 -0.35527136788E-14 -0.35527136788E-14  0.17763568394E-14  0.91188000000E+02  0.91188000000E+02 0.  0.
    9900012    2    3    3    0    0  0.20399673545E+02  0.27385665305E+02 -0.13771698340E+02  0.54367068180E+02  0.39999963530E+02 0.  0.
         12    1    3    3    0    0 -0.20399673545E+02 -0.27385665305E+02  0.13771698340E+02  0.36820931820E+02  0.00000000000E+00 0. -1.
         11    1    4    4    0    0  0.96272769652E+00  0.25744814620E+02 -0.58620710669E+01  0.26421320971E+02  0.51100000000E-03 0. -1.
        -11    1    4    4    0    0 -0.28380819785E+01  0.32669844686E+01 -0.25109032888E+00  0.43348521831E+01  0.51100000000E-03 0.  1.
        -12    1    4    4    0    0  0.22275027827E+02 -0.16261337837E+01 -0.76585369444E+01  0.23610895025E+02  0.00000000000E+00 0.  1.
</event>
<event>
 8    1  0.1278459E-006  0.9118800E+02  0.7816164E-02  0.1184000E+00
        -11   -1    0    0    0    0  0.00000000000E+00  0.00000000000E+00  0.45593999997E+02  0.45594000000E+02  0.51100000000E-03 0.  1.
         11   -1    0    0    0    0 -0.00000000000E+00 -0.00000000000E+00 -0.45593999997E+02  0.45594000000E+02  0.51100000000E-03 0. -1.
         23    2    1    2    0    0  0.17763568394E-14 -0.35527136788E-14 -0.35527136788E-14  0.91188000000E+02  0.91188000000E+02 0.  0.
    9900012    2    3    3    0    0 -0.10113989686E+02 -0.18747644135E+02 -0.30033526269E+02  0.54367086810E+02  0.40000006001E+02 0.  0.
        -12    1    3    3    0    0  0.10113989686E+02  0.18747644135E+02  0.30033526269E+02  0.36820913190E+02  0.00000000000E+00 0.  1.
         11    1    4    4    0    0 -0.14497950276E+02 -0.61962390326E+01 -0.24683304553E+02  0.29289067316E+02  0.51100000000E-03 0. -1.
        -11    1    4    4    0    0  0.96958480323E+01 -0.15040085903E+02 -0.12839944888E+01  0.17940521039E+02  0.51100000000E-03 0.  1.
        -12    1    4    4    0    0 -0.53118874429E+01  0.24886808002E+01 -0.40662272272E+01  0.71374984550E+01  0.00000000000E+00 0.  1.
</event>
<event>
 8    1  0.1278459E-006  0.9118800E+02  0.7816164E-02  0.1184000E+00
        -11   -1    0    0    0    0  0.00000000000E+00  0.00000000000E+00  0.45593999997E+02  0.45594000000E+02  0.51100000000E-03 0. -1.
         11   -1    0    0    0    0 -0.00000000000E+00 -0.00000000000E+00 -0.45593999997E+02  0.45594000000E+02  0.51100000000E-03 0.  1.
         23    2    1    2    0    0  0.00000000000E+00 -0.35527136788E-14  0.88817841970E-15  0.91188000000E+02  0.91188000000E+02 0.  0.
    9900012    2    3    3    0    0  0.29695138281E+02  0.21362349653E+02 -0.41986370035E+01  0.54367085116E+02  0.40000002138E+02 0.  0.
         12    1    3    3    0    0 -0.29695138281E+02 -0.21362349653E+02  0.41986370035E+01  0.36820914884E+02  0.00000000000E+00 0. -1.
         11    1    4    4    0    0  0.12916596635E+02 -0.71518860128E+01 -0.12708033730E+01  0.14819004138E+02  0.51100000000E-03 0. -1.
        -11    1    4    4    0    0  0.13578850981E+02  0.17774608597E+02 -0.11768154832E+02  0.25274718063E+02  0.51100000000E-03 0.  1.
         12    1    4    4    0    0  0.31996906648E+01  0.10739627069E+02  0.88403212018E+01  0.14273362914E+02  0.00000000000E+00 0. -1.
</event>
<event>
 8    1  0.1278459E-006  0.9118800E+02  0.7816164E-02  0.1184000E+00
        -11   -1    0    0    0    0  0.00000000000E+00  0.00000000000E+00  0.45593999997E+02  0.45594000000E+02  0.51100000000E-03 0.  1.
         11   -1    0    0    0    0 -0.00000000000E+00 -0.00000000000E+00 -0.45593999997E+02  0.45594000000E+02  0.51100000000E-03 0. -1.
         23    2    1    2    0    0  0.00000000000E+00  0.00000000000E+00  0.00000000000E+00  0.91188000000E+02  0.91188000000E+02 0.  0.
    9900012    2    3    3    0    0  0.13708108892E+02  0.23457766797E+02 -0.24851570453E+02  0.54367087104E+02  0.40000006671E+02 0.  0.
        -12    1    3    3    0    0 -0.13708108892E+02 -0.23457766797E+02  0.24851570453E+02  0.36820912896E+02  0.00000000000E+00 0.  1.
         11    1    4    4    0    0  0.14272145974E+02  0.41300028341E+01 -0.68907275633E+01  0.16377826496E+02  0.51100000000E-03 0. -1.
        -11    1    4    4    0    0  0.66743217193E+01  0.23956561868E+02 -0.12856944949E+02  0.27995793624E+02  0.51100000000E-03 0.  1.
        -12    1    4    4    0    0 -0.72383588012E+01 -0.46287979048E+01 -0.51038979413E+01  0.99934669847E+01  0.00000000000E+00 0.  1.
</event>
<event>
 8    1  0.1278459E-006  0.9118800E+02  0.7816164E-02  0.1184000E+00
        -11   -1    0    0    0    0  0.00000000000E+00  0.00000000000E+00  0.45593999997E+02  0.45594000000E+02  0.51100000000E-03 0. -1.
         11   -1    0    0    0    0 -0.00000000000E+00 -0.00000000000E+00 -0.45593999997E+02  0.45594000000E+02  0.51100000000E-03 0.  1.
         23    2    1    2    0    0  0.17763568394E-14  0.00000000000E+00 -0.71054273576E-14  0.91188000000E+02  0.91188000000E+02 0.  0.
    9900012    2    3    3    0    0 -0.14796626738E+02  0.68224805938E+01  0.33019614128E+02  0.54367064087E+02  0.39999954200E+02 0.  0.
        -12    1    3    3    0    0  0.14796626738E+02 -0.68224805938E+01 -0.33019614128E+02  0.36820935913E+02  0.00000000000E+00 0.  1.
         11    1    4    4    0    0 -0.20547797293E+02 -0.49442285368E+00  0.15362785535E+02  0.25660701612E+02  0.51100000000E-03 0. -1.
        -11    1    4    4    0    0 -0.42112077436E+01  0.66951644776E+01 -0.56507215003E+00  0.79296156804E+01  0.51100000000E-03 0.  1.
        -12    1    4    4    0    0  0.99623782981E+01  0.62173896985E+00  0.18221900743E+02  0.20776746796E+02  0.00000000000E+00 0.  1.
</event>
<event>
 8    1  0.1278459E-006  0.9118800E+02  0.7816164E-02  0.1184000E+00
        -11   -1    0    0    0    0  0.00000000000E+00  0.00000000000E+00  0.45593999997E+02  0.45594000000E+02  0.51100000000E-03 0.  1.
         11   -1    0    0    0    0 -0.00000000000E+00 -0.00000000000E+00 -0.45593999997E+02  0.45594000000E+02  0.51100000000E-03 0. -1.
         23    2    1    2    0    0  0.00000000000E+00  0.00000000000E+00  0.00000000000E+00  0.91188000000E+02  0.91188000000E+02 0.  0.
    9900012    2    3    3    0    0 -0.95067920639E+01  0.18031223144E+01  0.35526714125E+02  0.54367112423E+02  0.40000064390E+02 0.  0.
         12    1    3    3    0    0  0.95067920639E+01 -0.18031223144E+01 -0.35526714125E+02  0.36820887577E+02  0.00000000000E+00 0. -1.
         11    1    4    4    0    0  0.66400360210E+00  0.45824704931E+01 -0.53419473810E+01  0.70693945064E+01  0.51100000000E-03 0. -1.
        -11    1    4    4    0    0 -0.13882332814E+02 -0.27193852068E+01  0.13093910630E+02  0.19276014010E+02  0.51100000000E-03 0.  1.
        -12    1    4    4    0    0  0.37115371484E+01 -0.59962971925E-01  0.27774750877E+02  0.28021703907E+02  0.00000000000E+00 0.  1.
</event>
<event>
 8    1  0.1278459E-006  0.9118800E+02  0.7816164E-02  0.1184000E+00
        -11   -1    0    0    0    0  0.00000000000E+00  0.00000000000E+00  0.45593999997E+02  0.45594000000E+02  0.51100000000E-03 0. -1.
         11   -1    0    0    0    0 -0.00000000000E+00 -0.00000000000E+00 -0.45593999997E+02  0.45594000000E+02  0.51100000000E-03 0.  1.
         23    2    1    2    0    0 -0.17763568394E-14 -0.35527136788E-14  0.00000000000E+00  0.91188000000E+02  0.91188000000E+02 0.  0.
    9900012    2    3    3    0    0 -0.44380825166E+01  0.31219992179E+02 -0.19010399058E+02  0.54367085285E+02  0.40000002525E+02 0.  0.
         12    1    3    3    0    0  0.44380825166E+01 -0.31219992179E+02  0.19010399058E+02  0.36820914715E+02  0.00000000000E+00 0. -1.
         11    1    4    4    0    0 -0.15397691993E+02  0.55635580974E+01 -0.11407107128E+02  0.19954051987E+02  0.51100000000E-03 0. -1.
        -11    1    4    4    0    0  0.62860214614E+01 -0.80795461232E+00 -0.34628128719E+01  0.72220447046E+01  0.51100000000E-03 0.  1.
        -12    1    4    4    0    0  0.46735880147E+01  0.26464388694E+02 -0.41404790585E+01  0.27190988594E+02  0.00000000000E+00 0.  1.
</event>
<event>
 8    1  0.1278459E-006  0.9118800E+02  0.7816164E-02  0.1184000E+00
        -11   -1    0    0    0    0  0.00000000000E+00  0.00000000000E+00  0.45593999997E+02  0.45594000000E+02  0.51100000000E-03 0.  1.
         11   -1    0    0    0    0 -0.00000000000E+00 -0.00000000000E+00 -0.45593999997E+02  0.45594000000E+02  0.51100000000E-03 0. -1.
         23    2    1    2    0    0  0.00000000000E+00  0.00000000000E+00  0.00000000000E+00  0.91188000000E+02  0.91188000000E+02 0.  0.
    9900012    2    3    3    0    0 -0.14313989288E+02 -0.16313547567E+02  0.29744881986E+02  0.54367080295E+02  0.39999991149E+02 0.  0.
        -12    1    3    3    0    0  0.14313989288E+02  0.16313547567E+02 -0.29744881986E+02  0.36820919705E+02  0.00000000000E+00 0.  1.
         11    1    4    4    0    0 -0.39678781893E+01 -0.45017303565E+01 -0.45494485431E+01  0.75304127268E+01  0.51100000000E-03 0. -1.
        -11    1    4    4    0    0  0.82268425760E+01  0.11126176908E+01  0.45592635009E+01  0.94713114630E+01  0.51100000000E-03 0.  1.
        -12    1    4    4    0    0 -0.18572953674E+02 -0.12924434901E+02  0.29735067028E+02  0.37365356105E+02  0.00000000000E+00 0.  1.
</event>
<event>
 8    1  0.1278459E-006  0.9118800E+02  0.7816164E-02  0.1184000E+00
        -11   -1    0    0    0    0  0.00000000000E+00  0.00000000000E+00  0.45593999997E+02  0.45594000000E+02  0.51100000000E-03 0.  1.
         11   -1    0    0    0    0 -0.00000000000E+00 -0.00000000000E+00 -0.45593999997E+02  0.45594000000E+02  0.51100000000E-03 0. -1.
         23    2    1    2    0    0  0.17763568394E-14  0.17763568394E-14  0.00000000000E+00  0.91188000000E+02  0.91188000000E+02 0.  0.
    9900012    2    3    3    0    0  0.15435871816E+02  0.15792129555E+02 -0.29463919957E+02  0.54367081029E+02  0.39999992823E+02 0.  0.
        -12    1    3    3    0    0 -0.15435871816E+02 -0.15792129555E+02  0.29463919957E+02  0.36820918971E+02  0.00000000000E+00 0.  1.
         11    1    4    4    0    0  0.16463306574E+02  0.21851360527E+02 -0.26608509405E+02  0.38164580349E+02  0.51100000000E-03 0. -1.
        -11    1    4    4    0    0  0.36576355997E+01  0.36450917664E+01 -0.11805707602E+01  0.52970500985E+01  0.51100000000E-03 0.  1.
         12    1    4    4    0    0 -0.46850703576E+01 -0.97043227379E+01 -0.16748397914E+01  0.10905450581E+02  0.00000000000E+00 0. -1.
</event>
<event>
 8    1  0.1278459E-006  0.9118800E+02  0.7816164E-02  0.1184000E+00
        -11   -1    0    0    0    0  0.00000000000E+00  0.00000000000E+00  0.45593999997E+02  0.45594000000E+02  0.51100000000E-03 0. -1.
         11   -1    0    0    0    0 -0.00000000000E+00 -0.00000000000E+00 -0.45593999997E+02  0.45594000000E+02  0.51100000000E-03 0.  1.
         23    2    1    2    0    0  0.44408920985E-15 -0.71054273576E-14  0.00000000000E+00  0.91188000000E+02  0.91188000000E+02 0.  0.
    9900012    2    3    3    0    0  0.21147391850E+00  0.35905241681E+02  0.81567480939E+01  0.54367304177E+02  0.40000501530E+02 0.  0.
         12    1    3    3    0    0 -0.21147391850E+00 -0.35905241681E+02 -0.81567480939E+01  0.36820695823E+02  0.00000000000E+00 0. -1.
         11    1    4    4    0    0  0.35109133133E+01  0.10343168873E+02  0.19856275069E+02  0.22662288378E+02  0.51100000000E-03 0. -1.
        -11    1    4    4    0    0 -0.48165193689E+01  0.53358867680E+01  0.17116249212E+01  0.73891952582E+01  0.51100000000E-03 0.  1.
        -12    1    4    4    0    0  0.15170799741E+01  0.20226186041E+02 -0.13411151897E+02  0.24315820541E+02  0.00000000000E+00 0.  1.
</event>
<event>
 8    1  0.1278459E-006  0.9118800E+02  0.7816164E-02  0.1184000E+00
        -11   -1    0    0    0    0  0.00000000000E+00  0.00000000000E+00  0.45593999997E+02  0.45594000000E+02  0.51100000000E-03 0.  1.
         11   -1    0    0    0    0 -0.00000000000E+00 -0.00000000000E+00 -0.45593999997E+02  0.45594000000E+02  0.51100000000E-03 0. -1.
         23    2    1    2    0    0  0.00000000000E+00 -0.24424906542E-14  0.00000000000E+00  0.91188000000E+02  0.91188000000E+02 0.  0.
    9900012    2    3    3    0    0 -0.32305970084E+02 -0.15429370590E+01  0.17598772796E+02  0.54367174890E+02  0.40000206796E+02 0.  0.
         12    1    3    3    0    0  0.32305970084E+02  0.15429370590E+01 -0.17598772796E+02  0.36820825110E+02  0.00000000000E+00 0. -1.
         11    1    4    4    0    0  0.42479202075E+01  0.77167799761E+01  0.14550029382E+01  0.89280766742E+01  0.51100000000E-03 0. -1.
        -11    1    4    4    0    0 -0.27104012231E+02  0.11462136529E+01  0.15767489936E+02  0.31377619794E+02  0.51100000000E-03 0.  1.
         12    1    4    4    0    0 -0.94498780603E+01 -0.10405930688E+02  0.37627992194E+00  0.14061478422E+02  0.00000000000E+00 0. -1.
</event>
<event>
 8    1  0.1278459E-006  0.9118800E+02  0.7816164E-02  0.1184000E+00
        -11   -1    0    0    0    0  0.00000000000E+00  0.00000000000E+00  0.45593999997E+02  0.45594000000E+02  0.51100000000E-03 0.  1.
         11   -1    0    0    0    0 -0.00000000000E+00 -0.00000000000E+00 -0.45593999997E+02  0.45594000000E+02  0.51100000000E-03 0. -1.
         23    2    1    2    0    0 -0.88817841970E-15 -0.71054273576E-14  0.17763568394E-14  0.91188000000E+02  0.91188000000E+02 0.  0.
    9900012    2    3    3    0    0  0.40913329382E+01  0.35546294932E+02 -0.86891520335E+01  0.54367089478E+02  0.40000012084E+02 0.  0.
        -12    1    3    3    0    0 -0.40913329382E+01 -0.35546294932E+02  0.86891520335E+01  0.36820910522E+02  0.00000000000E+00 0.  1.
         11    1    4    4    0    0  0.71321468717E+01  0.12281499870E+02  0.85864898929E+01  0.16596100957E+02  0.51100000000E-03 0. -1.
        -11    1    4    4    0    0 -0.44868898251E+00 -0.45729842131E+01  0.52832158648E+00  0.46252167924E+01  0.51100000000E-03 0.  1.
         12    1    4    4    0    0 -0.25921249509E+01  0.27837779275E+02 -0.17803963513E+02  0.33145771729E+02  0.00000000000E+00 0. -1.
</event>
<event>
 8    1  0.1278459E-006  0.9118800E+02  0.7816164E-02  0.1184000E+00
        -11   -1    0    0    0    0  0.00000000000E+00  0.00000000000E+00  0.45593999997E+02  0.45594000000E+02  0.51100000000E-03 0.  1.
         11   -1    0    0    0    0 -0.00000000000E+00 -0.00000000000E+00 -0.45593999997E+02  0.45594000000E+02  0.51100000000E-03 0. -1.
         23    2    1    2    0    0  0.00000000000E+00  0.00000000000E+00  0.00000000000E+00  0.91188000000E+02  0.91188000000E+02 0.  0.
    9900012    2    3    3    0    0  0.33802352083E+02 -0.54510859842E+01 -0.13544969439E+02  0.54367088253E+02  0.40000009290E+02 0.  0.
        -12    1    3    3    0    0 -0.33802352083E+02  0.54510859842E+01  0.13544969439E+02  0.36820911747E+02  0.00000000000E+00 0.  1.
         11    1    4    4    0    0  0.40509563571E+01 -0.15918084913E+02 -0.66834096212E+01  0.17733122656E+02  0.51100000000E-03 0. -1.
        -11    1    4    4    0    0  0.14022139942E+02 -0.31191076300E+01 -0.66961364668E+01  0.15848895381E+02  0.51100000000E-03 0.  1.
        -12    1    4    4    0    0  0.15729255784E+02  0.13586106559E+02 -0.16542335139E+00  0.20785070215E+02  0.00000000000E+00 0.  1.
</event>
<event>
 8    1  0.1278459E-006  0.9118800E+02  0.7816164E-02  0.1184000E+00
        -11   -1    0    0    0    0  0.00000000000E+00  0.00000000000E+00  0.45593999997E+02  0.45594000000E+02  0.51100000000E-03 0. -1.
         11   -1    0    0    0    0 -0.00000000000E+00 -0.00000000000E+00 -0.45593999997E+02  0.45594000000E+02  0.51100000000E-03 0.  1.
         23    2    1    2    0    0  0.88817841970E-15  0.00000000000E+00  0.35527136788E-14  0.91188000000E+02  0.91188000000E+02 0.  0.
    9900012    2    3    3    0    0  0.58305292994E+01 -0.24767959523E+02 -0.26614524491E+02  0.54367084683E+02  0.40000001153E+02 0.  0.
         12    1    3    3    0    0 -0.58305292994E+01  0.24767959523E+02  0.26614524491E+02  0.36820915317E+02  0.00000000000E+00 0. -1.
         11    1    4    4    0    0  0.14841987657E+02  0.21356602147E+01 -0.76483301999E+01  0.16832783408E+02  0.51100000000E-03 0. -1.
        -11    1    4    4    0    0  0.31648130333E-01  0.15650801314E+01  0.75794558965E+00  0.17392409838E+01  0.51100000000E-03 0.  1.
        -12    1    4    4    0    0 -0.90431064880E+01 -0.28468699869E+02 -0.19724139881E+02  0.35795060291E+02  0.00000000000E+00 0.  1.
</event>
<event>
 8    1  0.1278459E-006  0.9118800E+02  0.7816164E-02  0.1184000E+00
        -11   -1    0    0    0    0  0.00000000000E+00  0.00000000000E+00  0.45593999997E+02  0.45594000000E+02  0.51100000000E-03 0. -1.
         11   -1    0    0    0    0 -0.00000000000E+00 -0.00000000000E+00 -0.45593999997E+02  0.45594000000E+02  0.51100000000E-03 0.  1.
         23    2    1    2    0    0 -0.35527136788E-14 -0.35527136788E-14  0.00000000000E+00  0.91188000000E+02  0.91188000000E+02 0.  0.
    9900012    2    3    3    0    0  0.28146583152E+02 -0.20378965966E+02 -0.12175731944E+02  0.54367070553E+02  0.39999968939E+02 0.  0.
        -12    1    3    3    0    0 -0.28146583152E+02  0.20378965966E+02  0.12175731944E+02  0.36820929447E+02  0.00000000000E+00 0.  1.
         11    1    4    4    0    0  0.17166384246E+02 -0.18996060696E+02  0.87302721882E+01  0.27050928316E+02  0.51100000000E-03 0. -1.
        -11    1    4    4    0    0  0.11174181349E+01 -0.24984080776E+01  0.12722225410E+01  0.30181478866E+01  0.51100000000E-03 0.  1.
        -12    1    4    4    0    0  0.98627807717E+01  0.11155028075E+01 -0.22178226673E+02  0.24297994350E+02  0.00000000000E+00 0.  1.
</event>
<event>
 8    1  0.1278459E-006  0.9118800E+02  0.7816164E-02  0.1184000E+00
        -11   -1    0    0    0    0  0.00000000000E+00  0.00000000000E+00  0.45593999997E+02  0.45594000000E+02  0.51100000000E-03 0. -1.
         11   -1    0    0    0    0 -0.00000000000E+00 -0.00000000000E+00 -0.45593999997E+02  0.45594000000E+02  0.51100000000E-03 0.  1.
         23    2    1    2    0    0  0.15543122345E-14  0.00000000000E+00  0.00000000000E+00  0.91188000000E+02  0.91188000000E+02 0.  0.
    9900012    2    3    3    0    0 -0.64815415883E+00 -0.16853912014E+02 -0.32730824200E+02  0.54367064287E+02  0.39999954655E+02 0.  0.
         12    1    3    3    0    0  0.64815415883E+00  0.16853912014E+02  0.32730824200E+02  0.36820935713E+02  0.00000000000E+00 0. -1.
         11    1    4    4    0    0 -0.13343740235E+02 -0.17699170897E+02 -0.69022892062E+01  0.23215461453E+02  0.51100000000E-03 0. -1.
        -11    1    4    4    0    0 -0.38644507826E+00 -0.29001004671E+01 -0.92609039374E+01  0.97120679835E+01  0.51100000000E-03 0.  1.
         12    1    4    4    0    0  0.13082031154E+02  0.37453593506E+01 -0.16567631056E+02  0.21439534851E+02  0.00000000000E+00 0. -1.
</event>
<event>
 8    1  0.1278459E-006  0.9118800E+02  0.7816164E-02  0.1184000E+00
        -11   -1    0    0    0    0  0.00000000000E+00  0.00000000000E+00  0.45593999997E+02  0.45594000000E+02  0.51100000000E-03 0.  1.
         11   -1    0    0    0    0 -0.00000000000E+00 -0.00000000000E+00 -0.45593999997E+02  0.45594000000E+02  0.51100000000E-03 0. -1.
         23    2    1    2    0    0  0.00000000000E+00  0.00000000000E+00  0.00000000000E+00  0.91188000000E+02  0.91188000000E+02 0.  0.
    9900012    2    3    3    0    0 -0.31387338016E+02 -0.18555510613E+02 -0.51296743502E+01  0.54367007064E+02  0.39999824203E+02 0.  0.
        -12    1    3    3    0    0  0.31387338016E+02  0.18555510613E+02  0.51296743502E+01  0.36820992936E+02  0.00000000000E+00 0.  1.
         11    1    4    4    0    0  0.47776141838E+01 -0.78513229422E+01 -0.12052430292E+01  0.92693840277E+01  0.51100000000E-03 0. -1.
        -11    1    4    4    0    0 -0.30231990219E+00  0.35311600997E+01  0.43751237548E+01  0.56304704159E+01  0.51100000000E-03 0.  1.
         12    1    4    4    0    0 -0.35862632298E+02 -0.14235347771E+02 -0.82995550758E+01  0.39467152620E+02  0.00000000000E+00 0. -1.
</event>
<event>
 8    1  0.1278459E-006  0.9118800E+02  0.7816164E-02  0.1184000E+00
        -11   -1    0    0    0    0  0.00000000000E+00  0.00000000000E+00  0.45593999997E+02  0.45594000000E+02  0.51100000000E-03 0.  1.
         11   -1    0    0    0    0 -0.00000000000E+00 -0.00000000000E+00 -0.45593999997E+02  0.45594000000E+02  0.51100000000E-03 0. -1.
         23    2    1    2    0    0  0.00000000000E+00  0.71054273576E-14  0.00000000000E+00  0.91188000000E+02  0.91188000000E+02 0.  0.
    9900012    2    3    3    0    0  0.32735704749E+01 -0.35201674085E+02  0.10290914645E+02  0.54367122141E+02  0.40000086545E+02 0.  0.
         12    1    3    3    0    0 -0.32735704749E+01  0.35201674085E+02 -0.10290914645E+02  0.36820877859E+02  0.00000000000E+00 0. -1.
         11    1    4    4    0    0 -0.55506499192E+01  0.27015600670E+01  0.19805678737E+01  0.64831158160E+01  0.51100000000E-03 0. -1.
        -11    1    4    4    0    0 -0.77919549865E+01 -0.27294994265E+01  0.14093571961E+01  0.83756204307E+01  0.51100000000E-03 0.  1.
        -12    1    4    4    0    0  0.16616175381E+02 -0.35173734726E+02  0.69009895754E+01  0.39508385894E+02  0.00000000000E+00 0.  1.
</event>
<event>
 8    1  0.1278459E-006  0.9118800E+02  0.7816164E-02  0.1184000E+00
        -11   -1    0    0    0    0  0.00000000000E+00  0.00000000000E+00  0.45593999997E+02  0.45594000000E+02  0.51100000000E-03 0.  1.
         11   -1    0    0    0    0 -0.00000000000E+00 -0.00000000000E+00 -0.45593999997E+02  0.45594000000E+02  0.51100000000E-03 0. -1.
         23    2    1    2    0    0  0.88817841970E-15  0.71054273576E-14 -0.22204460493E-15  0.91188000000E+02  0.91188000000E+02 0.  0.
    9900012    2    3    3    0    0 -0.60976396746E+01  0.36280955368E+02 -0.15136326728E+01  0.54367081817E+02  0.39999994618E+02 0.  0.
         12    1    3    3    0    0  0.60976396746E+01 -0.36280955368E+02  0.15136326728E+01  0.36820918183E+02  0.00000000000E+00 0. -1.
         11    1    4    4    0    0 -0.11698004806E+02 -0.99416236608E+00 -0.12182290409E+01  0.11803209627E+02  0.51100000000E-03 0. -1.
        -11    1    4    4    0    0  0.35848562109E+01 -0.45879865480E+00  0.29106148314E+01  0.46404061478E+01  0.51100000000E-03 0.  1.
        -12    1    4    4    0    0  0.20155089206E+01  0.37733916388E+02 -0.32060184633E+01  0.37923466042E+02  0.00000000000E+00 0.  1.
</event>
<event>
 8    1  0.1278459E-006  0.9118800E+02  0.7816164E-02  0.1184000E+00
        -11   -1    0    0    0    0  0.00000000000E+00  0.00000000000E+00  0.45593999997E+02  0.45594000000E+02  0.51100000000E-03 0. -1.
         11   -1    0    0    0    0 -0.00000000000E+00 -0.00000000000E+00 -0.45593999997E+02  0.45594000000E+02  0.51100000000E-03 0.  1.
         23    2    1    2    0    0  0.71054273576E-14 -0.17763568394E-14  0.17763568394E-14  0.91188000000E+02  0.91188000000E+02 0.  0.
    9900012    2    3    3    0    0 -0.34164400497E+02  0.86562469259E+01 -0.10660532537E+02  0.54367030076E+02  0.39999876664E+02 0.  0.
        -12    1    3    3    0    0  0.34164400497E+02 -0.86562469259E+01  0.10660532537E+02  0.36820969924E+02  0.00000000000E+00 0.  1.
         11    1    4    4    0    0 -0.10993427248E+02  0.12700835938E+01  0.22521391399E+01  0.11293391251E+02  0.51100000000E-03 0. -1.
        -11    1    4    4    0    0 -0.17142666880E+02  0.20460246734E+02 -0.81362006847E+01  0.27905026178E+02  0.51100000000E-03 0.  1.
         12    1    4    4    0    0 -0.60283063701E+01 -0.13074083402E+02 -0.47764709926E+01  0.15168612647E+02  0.00000000000E+00 0. -1.
</event>
<event>
 8    1  0.1278459E-006  0.9118800E+02  0.7816164E-02  0.1184000E+00
        -11   -1    0    0    0    0  0.00000000000E+00  0.00000000000E+00  0.45593999997E+02  0.45594000000E+02  0.51100000000E-03 0.  1.
         11   -1    0    0    0    0 -0.00000000000E+00 -0.00000000000E+00 -0.45593999997E+02  0.45594000000E+02  0.51100000000E-03 0. -1.
         23    2    1    2    0    0  0.17763568394E-14  0.17763568394E-14 -0.10658141036E-13  0.91188000000E+02  0.91188000000E+02 0.  0.
    9900012    2    3    3    0    0  0.12939091931E+02 -0.12912385552E+02 -0.31962957138E+02  0.54367076198E+02  0.39999981809E+02 0.  0.
        -12    1    3    3    0    0 -0.12939091931E+02  0.12912385552E+02  0.31962957138E+02  0.36820923802E+02  0.00000000000E+00 0.  1.
         11    1    4    4    0    0 -0.25516517258E+01  0.10387802431E+02 -0.14960449091E+01  0.10800718333E+02  0.51100000000E-03 0. -1.
        -11    1    4    4    0    0 -0.10199010621E+01 -0.96402068811E+01 -0.87983480641E+01  0.13091398543E+02  0.51100000000E-03 0.  1.
         12    1    4    4    0    0  0.16510644719E+02 -0.13659981102E+02 -0.21668564164E+02  0.30474959322E+02  0.00000000000E+00 0. -1.
</event>
<event>
 8    1  0.1278459E-006  0.9118800E+02  0.7816164E-02  0.1184000E+00
        -11   -1    0    0    0    0  0.00000000000E+00  0.00000000000E+00  0.45593999997E+02  0.45594000000E+02  0.51100000000E-03 0. -1.
         11   -1    0    0    0    0 -0.00000000000E+00 -0.00000000000E+00 -0.45593999997E+02  0.45594000000E+02  0.51100000000E-03 0.  1.
         23    2    1    2    0    0  0.00000000000E+00  0.00000000000E+00  0.35527136788E-14  0.91188000000E+02  0.91188000000E+02 0.  0.
    9900012    2    3    3    0    0 -0.18519446154E+02  0.11340916070E+02  0.29735413461E+02  0.54367067409E+02  0.39999961773E+02 0.  0.
        -12    1    3    3    0    0  0.18519446154E+02 -0.11340916070E+02 -0.29735413461E+02  0.36820932591E+02  0.00000000000E+00 0.  1.
         11    1    4    4    0    0 -0.15615721039E+02  0.14152671129E+02  0.33169444607E+01  0.21334267376E+02  0.51100000000E-03 0. -1.
        -11    1    4    4    0    0  0.20932458883E+01  0.64192285688E+00 -0.25921445510E+01  0.33930748500E+01  0.51100000000E-03 0.  1.
         12    1    4    4    0    0 -0.49969710037E+01 -0.34536779151E+01  0.29010613551E+02  0.29639725184E+02  0.00000000000E+00 0. -1.
</event>
<event>
 8    1  0.1278459E-006  0.9118800E+02  0.7816164E-02  0.1184000E+00
        -11   -1    0    0    0    0  0.00000000000E+00  0.00000000000E+00  0.45593999997E+02  0.45594000000E+02  0.51100000000E-03 0.  1.
         11   -1    0    0    0    0 -0.00000000000E+00 -0.00000000000E+00 -0.45593999997E+02  0.45594000000E+02  0.51100000000E-03 0. -1.
         23    2    1    2    0    0  0.71054273576E-14  0.00000000000E+00  0.00000000000E+00  0.91188000000E+02  0.91188000000E+02 0.  0.
    9900012    2    3    3    0    0 -0.30484094321E+02  0.11721220075E+02  0.17003271070E+02  0.54367106017E+02  0.40000049787E+02 0.  0.
         12    1    3    3    0    0  0.30484094321E+02 -0.11721220075E+02 -0.17003271070E+02  0.36820893983E+02  0.00000000000E+00 0. -1.
         11    1    4    4    0    0  0.59010789950E+01  0.78337981285E+01  0.13130118832E+02  0.16388750631E+02  0.51100000000E-03 0. -1.
        -11    1    4    4    0    0 -0.24729113366E+02  0.56311157988E+01 -0.60799722242E+00  0.25369433850E+02  0.51100000000E-03 0.  1.
         12    1    4    4    0    0 -0.11656059951E+02 -0.17436938527E+01  0.44811494601E+01  0.12608921536E+02  0.00000000000E+00 0. -1.
</event>
<event>
 8    1  0.1278459E-006  0.9118800E+02  0.7816164E-02  0.1184000E+00
        -11   -1    0    0    0    0  0.00000000000E+00  0.00000000000E+00  0.45593999997E+02  0.45594000000E+02  0.51100000000E-03 0. -1.
         11   -1    0    0    0    0 -0.00000000000E+00 -0.00000000000E+00 -0.45593999997E+02  0.45594000000E+02  0.51100000000E-03 0.  1.
         23    2    1    2    0    0  0.00000000000E+00  0.17763568394E-14  0.66613381478E-15  0.91188000000E+02  0.91188000000E+02 0.  0.
    9900012    2    3    3    0    0  0.34171906698E+02  0.13638486514E+02  0.14321980130E+01  0.54367099509E+02  0.40000034952E+02 0.  0.
        -12    1    3    3    0    0 -0.34171906698E+02 -0.13638486514E+02 -0.14321980130E+01  0.36820900491E+02  0.00000000000E+00 0.  1.
         11    1    4    4    0    0  0.21719021603E+02  0.13640195420E+02 -0.14998108837E+02  0.29710504867E+02  0.51100000000E-03 0. -1.
        -11    1    4    4    0    0  0.65883164890E+01 -0.47065231794E+01  0.19309498011E+01  0.83238117466E+01  0.51100000000E-03 0.  1.
         12    1    4    4    0    0  0.58645686059E+01  0.47048142731E+01  0.14499357049E+02  0.16332782896E+02  0.00000000000E+00 0. -1.
</event>
<event>
 8    1  0.1278459E-006  0.9118800E+02  0.7816164E-02  0.1184000E+00
        -11   -1    0    0    0    0  0.00000000000E+00  0.00000000000E+00  0.45593999997E+02  0.45594000000E+02  0.51100000000E-03 0.  1.
         11   -1    0    0    0    0 -0.00000000000E+00 -0.00000000000E+00 -0.45593999997E+02  0.45594000000E+02  0.51100000000E-03 0. -1.
         23    2    1    2    0    0 -0.71054273576E-14  0.00000000000E+00 -0.35527136788E-14  0.91188000000E+02  0.91188000000E+02 0.  0.
    9900012    2    3    3    0    0  0.25913122344E+02  0.16569012214E+02  0.20242444869E+02  0.54367100369E+02  0.40000036911E+02 0.  0.
         12    1    3    3    0    0 -0.25913122344E+02 -0.16569012214E+02 -0.20242444869E+02  0.36820899631E+02  0.00000000000E+00 0. -1.
         11    1    4    4    0    0  0.74494502038E+01  0.62897570978E+01 -0.45400390188E+01  0.10754873651E+02  0.51100000000E-03 0. -1.
        -11    1    4    4    0    0  0.16434469376E+02  0.66678359566E+00 -0.53368259210E+00  0.16456646116E+02  0.51100000000E-03 0.  1.
         12    1    4    4    0    0  0.20292027645E+01  0.96124715203E+01  0.25316166480E+02  0.27155580602E+02  0.00000000000E+00 0. -1.
</event>
<event>
 8    1  0.1278459E-006  0.9118800E+02  0.7816164E-02  0.1184000E+00
        -11   -1    0    0    0    0  0.00000000000E+00  0.00000000000E+00  0.45593999997E+02  0.45594000000E+02  0.51100000000E-03 0. -1.
         11   -1    0    0    0    0 -0.00000000000E+00 -0.00000000000E+00 -0.45593999997E+02  0.45594000000E+02  0.51100000000E-03 0.  1.
         23    2    1    2    0    0 -0.17763568394E-14  0.17763568394E-14  0.00000000000E+00  0.91188000000E+02  0.91188000000E+02 0.  0.
    9900012    2    3    3    0    0  0.12663042295E+02  0.14016253714E+02 -0.31606521056E+02  0.54367079566E+02  0.39999989486E+02 0.  0.
         12    1    3    3    0    0 -0.12663042295E+02 -0.14016253714E+02  0.31606521056E+02  0.36820920434E+02  0.00000000000E+00 0. -1.
         11    1    4    4    0    0 -0.34541795380E+01  0.67335302180E+01  0.36930476103E+01  0.84208305048E+01  0.51100000000E-03 0. -1.
        -11    1    4    4    0    0  0.13523398470E+02  0.15498758249E+02 -0.27364446298E+02  0.34233123359E+02  0.51100000000E-03 0.  1.
        -12    1    4    4    0    0  0.25938233629E+01 -0.82160347530E+01 -0.79351223684E+01  0.11713125702E+02  0.00000000000E+00 0.  1.
</event>
<event>
 8    1  0.1278459E-006  0.9118800E+02  0.7816164E-02  0.1184000E+00
        -11   -1    0    0    0    0  0.00000000000E+00  0.00000000000E+00  0.45593999997E+02  0.45594000000E+02  0.51100000000E-03 0. -1.
         11   -1    0    0    0    0 -0.00000000000E+00 -0.00000000000E+00 -0.45593999997E+02  0.45594000000E+02  0.51100000000E-03 0.  1.
         23    2    1    2    0    0  0.00000000000E+00 -0.35527136788E-14  0.00000000000E+00  0.91188000000E+02  0.91188000000E+02 0.  0.
    9900012    2    3    3    0    0 -0.93543936714E+01  0.22025488842E+02  0.27984888558E+02  0.54367070798E+02  0.39999969499E+02 0.  0.
        -12    1    3    3    0    0  0.93543936714E+01 -0.22025488842E+02 -0.27984888558E+02  0.36820929202E+02  0.00000000000E+00 0.  1.
         11    1    4    4    0    0  0.84469725072E+01  0.68725161423E+01  0.10855299472E+02  0.15375966621E+02  0.51100000000E-03 0. -1.
        -11    1    4    4    0    0 -0.11988689745E+02 -0.22879224266E+01 -0.21035326852E+01  0.12384995795E+02  0.51100000000E-03 0.  1.
        -12    1    4    4    0    0 -0.58126764338E+01  0.17440895127E+02  0.19233121771E+02  0.26606108382E+02  0.00000000000E+00 0.  1.
</event>
<event>
 8    1  0.1278459E-006  0.9118800E+02  0.7816164E-02  0.1184000E+00
        -11   -1    0    0    0    0  0.00000000000E+00  0.00000000000E+00  0.45593999997E+02  0.45594000000E+02  0.51100000000E-03 0.  1.
         11   -1    0    0    0    0 -0.00000000000E+00 -0.00000000000E+00 -0.45593999997E+02  0.45594000000E+02  0.51100000000E-03 0. -1.
         23    2    1    2    0    0 -0.88817841970E-15 -0.44408920985E-15  0.00000000000E+00  0.91188000000E+02  0.91188000000E+02 0.  0.
    9900012    2    3    3    0    0  0.77539784313E+01 -0.56667602799E+00  0.35990758404E+02  0.54367082117E+02  0.39999995303E+02 0.  0.
         12    1    3    3    0    0 -0.77539784313E+01  0.56667602799E+00 -0.35990758404E+02  0.36820917883E+02  0.00000000000E+00 0. -1.
         11    1    4    4    0    0  0.92345528068E+01 -0.53891616620E+01  0.14687854247E+02  0.18167363364E+02  0.51100000000E-03 0. -1.
        -11    1    4    4    0    0  0.10668061495E+02 -0.13589560698E+01  0.19740278189E+02  0.22479610337E+02  0.51100000000E-03 0.  1.
         12    1    4    4    0    0 -0.12148635870E+02  0.61814417038E+01  0.15626259676E+01  0.13720108416E+02  0.00000000000E+00 0. -1.
</event>
<event>
 8    1  0.1278459E-006  0.9118800E+02  0.7816164E-02  0.1184000E+00
        -11   -1    0    0    0    0  0.00000000000E+00  0.00000000000E+00  0.45593999997E+02  0.45594000000E+02  0.51100000000E-03 0.  1.
         11   -1    0    0    0    0 -0.00000000000E+00 -0.00000000000E+00 -0.45593999997E+02  0.45594000000E+02  0.51100000000E-03 0. -1.
         23    2    1    2    0    0  0.35527136788E-14  0.00000000000E+00  0.00000000000E+00  0.91188000000E+02  0.91188000000E+02 0.  0.
    9900012    2    3    3    0    0  0.26258358390E+02  0.22375182631E+02 -0.12869680692E+02  0.54367097455E+02  0.40000030268E+02 0.  0.
         12    1    3    3    0    0 -0.26258358390E+02 -0.22375182631E+02  0.12869680692E+02  0.36820902545E+02  0.00000000000E+00 0. -1.
         11    1    4    4    0    0 -0.88319880892E+01  0.81031729371E+01 -0.40232479147E+01  0.12643257069E+02  0.51100000000E-03 0. -1.
        -11    1    4    4    0    0  0.19439575066E+02 -0.87109673673E-01 -0.28019404535E+01  0.19640660309E+02  0.51100000000E-03 0.  1.
         12    1    4    4    0    0  0.15650771414E+02  0.14359119367E+02 -0.60444923242E+01  0.22083180077E+02  0.00000000000E+00 0. -1.
</event>
<event>
 8    1  0.1278459E-006  0.9118800E+02  0.7816164E-02  0.1184000E+00
        -11   -1    0    0    0    0  0.00000000000E+00  0.00000000000E+00  0.45593999997E+02  0.45594000000E+02  0.51100000000E-03 0.  1.
         11   -1    0    0    0    0 -0.00000000000E+00 -0.00000000000E+00 -0.45593999997E+02  0.45594000000E+02  0.51100000000E-03 0. -1.
         23    2    1    2    0    0  0.35527136788E-14  0.35527136788E-14  0.71054273576E-14  0.91188000000E+02  0.91188000000E+02 0.  0.
    9900012    2    3    3    0    0 -0.21034073493E+02 -0.20080438539E+02 -0.22585910499E+02  0.54367087291E+02  0.40000007098E+02 0.  0.
        -12    1    3    3    0    0  0.21034073493E+02  0.20080438539E+02  0.22585910499E+02  0.36820912709E+02  0.00000000000E+00 0.  1.
         11    1    4    4    0    0 -0.53892757939E+01  0.28059822384E+01  0.13281259270E+01  0.62194653021E+01  0.51100000000E-03 0. -1.
        -11    1    4    4    0    0  0.75663272257E+01 -0.71524060092E+01  0.12298789027E+01  0.10484217748E+02  0.51100000000E-03 0.  1.
         12    1    4    4    0    0 -0.23211124925E+02 -0.15734014769E+02 -0.25143915328E+02  0.37663404241E+02  0.00000000000E+00 0. -1.
</event>
<event>
 8    1  0.1278459E-006  0.9118800E+02  0.7816164E-02  0.1184000E+00
        -11   -1    0    0    0    0  0.00000000000E+00  0.00000000000E+00  0.45593999997E+02  0.45594000000E+02  0.51100000000E-03 0.  1.
         11   -1    0    0    0    0 -0.00000000000E+00 -0.00000000000E+00 -0.45593999997E+02  0.45594000000E+02  0.51100000000E-03 0. -1.
         23    2    1    2    0    0  0.00000000000E+00  0.00000000000E+00  0.00000000000E+00  0.91188000000E+02  0.91188000000E+02 0.  0.
    9900012    2    3    3    0    0  0.38254324500E+01 -0.34079435583E+02  0.13406615907E+02  0.54367092717E+02  0.40000019466E+02 0.  0.
         12    1    3    3    0    0 -0.38254324500E+01  0.34079435583E+02 -0.13406615907E+02  0.36820907283E+02  0.00000000000E+00 0. -1.
         11    1    4    4    0    0 -0.59144669352E+01 -0.12132420106E+01  0.39167783841E+01  0.71968068249E+01  0.51100000000E-03 0. -1.
        -11    1    4    4    0    0 -0.16135206457E+01 -0.34671781791E+02  0.72163088282E+01  0.35451530500E+02  0.51100000000E-03 0.  1.
        -12    1    4    4    0    0  0.11353420031E+02  0.18055882183E+01  0.22735286948E+01  0.11718755392E+02  0.00000000000E+00 0.  1.
</event>
<event>
 8    1  0.1278459E-006  0.9118800E+02  0.7816164E-02  0.1184000E+00
        -11   -1    0    0    0    0  0.00000000000E+00  0.00000000000E+00  0.45593999997E+02  0.45594000000E+02  0.51100000000E-03 0.  1.
         11   -1    0    0    0    0 -0.00000000000E+00 -0.00000000000E+00 -0.45593999997E+02  0.45594000000E+02  0.51100000000E-03 0. -1.
         23    2    1    2    0    0  0.00000000000E+00  0.44408920985E-15  0.00000000000E+00  0.91188000000E+02  0.91188000000E+02 0.  0.
    9900012    2    3    3    0    0  0.25760642643E+02 -0.37290161827E+01  0.26043495842E+02  0.54367082756E+02  0.39999996758E+02 0.  0.
         12    1    3    3    0    0 -0.25760642643E+02  0.37290161827E+01 -0.26043495842E+02  0.36820917244E+02  0.00000000000E+00 0. -1.
         11    1    4    4    0    0  0.10420007492E+02  0.10345746750E+02  0.30323404174E+01  0.14993535961E+02  0.51100000000E-03 0. -1.
        -11    1    4    4    0    0  0.93515053953E+01 -0.29487196914E+01  0.24747453471E+02  0.26619204619E+02  0.51100000000E-03 0.  1.
        -12    1    4    4    0    0  0.59891297548E+01 -0.11126043241E+02 -0.17362980466E+01  0.12754342175E+02  0.00000000000E+00 0.  1.
</event>
<event>
 8    1  0.1278459E-006  0.9118800E+02  0.7816164E-02  0.1184000E+00
        -11   -1    0    0    0    0  0.00000000000E+00  0.00000000000E+00  0.45593999997E+02  0.45594000000E+02  0.51100000000E-03 0. -1.
         11   -1    0    0    0    0 -0.00000000000E+00 -0.00000000000E+00 -0.45593999997E+02  0.45594000000E+02  0.51100000000E-03 0.  1.
         23    2    1    2    0    0  0.17763568394E-14  0.00000000000E+00  0.88817841970E-15  0.91188000000E+02  0.91188000000E+02 0.  0.
    9900012    2    3    3    0    0  0.14092443258E+02  0.33912595292E+02 -0.26685182026E+01  0.54367053980E+02  0.39999931158E+02 0.  0.
         12    1    3    3    0    0 -0.14092443258E+02 -0.33912595292E+02  0.26685182026E+01  0.36820946020E+02  0.00000000000E+00 0. -1.
         11    1    4    4    0    0  0.85130875356E+01  0.36090111621E+01 -0.35959043489E+01  0.99210961745E+01  0.51100000000E-03 0. -1.
        -11    1    4    4    0    0  0.16944293048E+02  0.24779491983E+02  0.63701059596E+01  0.30687302586E+02  0.51100000000E-03 0.  1.
        -12    1    4    4    0    0 -0.11364937326E+02  0.55240921468E+01 -0.54427198134E+01  0.13758655219E+02  0.00000000000E+00 0.  1.
</event>
<event>
 8    1  0.1278459E-006  0.9118800E+02  0.7816164E-02  0.1184000E+00
        -11   -1    0    0    0    0  0.00000000000E+00  0.00000000000E+00  0.45593999997E+02  0.45594000000E+02  0.51100000000E-03 0. -1.
         11   -1    0    0    0    0 -0.00000000000E+00 -0.00000000000E+00 -0.45593999997E+02  0.45594000000E+02  0.51100000000E-03 0.  1.
         23    2    1    2    0    0  0.00000000000E+00  0.00000000000E+00  0.00000000000E+00  0.91188000000E+02  0.91188000000E+02 0.  0.
    9900012    2    3    3    0    0 -0.17128605032E+02  0.17683849440E+02 -0.27380167992E+02  0.54367065185E+02  0.39999956702E+02 0.  0.
        -12    1    3    3    0    0  0.17128605032E+02 -0.17683849440E+02  0.27380167992E+02  0.36820934815E+02  0.00000000000E+00 0.  1.
         11    1    4    4    0    0 -0.15835208024E+02  0.19575547787E+02 -0.27583166079E+02  0.37346846393E+02  0.51100000000E-03 0. -1.
        -11    1    4    4    0    0  0.51638516900E+01 -0.12634784426E+01 -0.60193761417E+01  0.80308549637E+01  0.51100000000E-03 0.  1.
         12    1    4    4    0    0 -0.64572486978E+01 -0.62821990408E+00  0.62223742285E+01  0.89893638280E+01  0.00000000000E+00 0. -1.
</event>
<event>
 8    1  0.1278459E-006  0.9118800E+02  0.7816164E-02  0.1184000E+00
        -11   -1    0    0    0    0  0.00000000000E+00  0.00000000000E+00  0.45593999997E+02  0.45594000000E+02  0.51100000000E-03 0.  1.
         11   -1    0    0    0    0 -0.00000000000E+00 -0.00000000000E+00 -0.45593999997E+02  0.45594000000E+02  0.51100000000E-03 0. -1.
         23    2    1    2    0    0  0.35527136788E-14  0.00000000000E+00  0.00000000000E+00  0.91188000000E+02  0.91188000000E+02 0.  0.
    9900012    2    3    3    0    0 -0.31022520794E+02 -0.96096446699E+01  0.17350388991E+02  0.54367108305E+02  0.40000055002E+02 0.  0.
         12    1    3    3    0    0  0.31022520794E+02  0.96096446699E+01 -0.17350388991E+02  0.36820891695E+02  0.00000000000E+00 0. -1.
         11    1    4    4    0    0 -0.72627772459E+01 -0.47359120614E+01  0.21948143840E+01  0.89439368746E+01  0.51100000000E-03 0. -1.
        -11    1    4    4    0    0 -0.15181851246E+02 -0.16329961419E+02  0.20360389768E+02  0.30194398802E+02  0.51100000000E-03 0.  1.
         12    1    4    4    0    0 -0.85778923019E+01  0.11456228811E+02 -0.52048151612E+01  0.15228772628E+02  0.00000000000E+00 0. -1.
</event>
<event>
 8    1  0.1278459E-006  0.9118800E+02  0.7816164E-02  0.1184000E+00
        -11   -1    0    0    0    0  0.00000000000E+00  0.00000000000E+00  0.45593999997E+02  0.45594000000E+02  0.51100000000E-03 0. -1.
         11   -1    0    0    0    0 -0.00000000000E+00 -0.00000000000E+00 -0.45593999997E+02  0.45594000000E+02  0.51100000000E-03 0.  1.
         23    2    1    2    0    0 -0.88817841970E-15 -0.66613381478E-15  0.00000000000E+00  0.91188000000E+02  0.91188000000E+02 0.  0.
    9900012    2    3    3    0    0  0.77508102159E+01  0.17277589328E+01 -0.35954410788E+02  0.54367083864E+02  0.39999999285E+02 0.  0.
         12    1    3    3    0    0 -0.77508102159E+01 -0.17277589328E+01  0.35954410788E+02  0.36820916136E+02  0.00000000000E+00 0. -1.
         11    1    4    4    0    0  0.52619763040E+00  0.67378334141E+01 -0.47080593614E+01  0.82365712693E+01  0.51100000000E-03 0. -1.
        -11    1    4    4    0    0  0.48164163364E+01 -0.58844448462E-02 -0.37476361439E+02  0.37784594320E+02  0.51100000000E-03 0.  1.
         12    1    4    4    0    0  0.24081962491E+01 -0.50041900364E+01  0.62300100124E+01  0.83459182748E+01  0.00000000000E+00 0. -1.
</event>
<event>
 8    1  0.1278459E-006  0.9118800E+02  0.7816164E-02  0.1184000E+00
        -11   -1    0    0    0    0  0.00000000000E+00  0.00000000000E+00  0.45593999997E+02  0.45594000000E+02  0.51100000000E-03 0.  1.
         11   -1    0    0    0    0 -0.00000000000E+00 -0.00000000000E+00 -0.45593999997E+02  0.45594000000E+02  0.51100000000E-03 0. -1.
         23    2    1    2    0    0  0.00000000000E+00  0.00000000000E+00 -0.35527136788E-14  0.91188000000E+02  0.91188000000E+02 0.  0.
    9900012    2    3    3    0    0  0.21079611549E+02  0.17948659823E+02  0.24275115079E+02  0.54367005654E+02  0.39999820990E+02 0.  0.
         12    1    3    3    0    0 -0.21079611549E+02 -0.17948659823E+02 -0.24275115079E+02  0.36820994346E+02  0.00000000000E+00 0. -1.
         11    1    4    4    0    0  0.20807073194E+02  0.12693894163E+02  0.12496254514E+02  0.27390246823E+02  0.51100000000E-03 0.  1.
        -11    1    4    4    0    0 -0.15650122053E+01  0.16432424471E+01  0.18764351373E+02  0.18901068532E+02  0.51100000000E-03 0. -1.
         12    1    4    4    0    0  0.18375505603E+01  0.36115232138E+01 -0.69854908077E+01  0.80756902993E+01  0.00000000000E+00 0. -1.
</event>
<event>
 8    1  0.1278459E-006  0.9118800E+02  0.7816164E-02  0.1184000E+00
        -11   -1    0    0    0    0  0.00000000000E+00  0.00000000000E+00  0.45593999997E+02  0.45594000000E+02  0.51100000000E-03 0. -1.
         11   -1    0    0    0    0 -0.00000000000E+00 -0.00000000000E+00 -0.45593999997E+02  0.45594000000E+02  0.51100000000E-03 0.  1.
         23    2    1    2    0    0  0.00000000000E+00  0.00000000000E+00 -0.71054273576E-14  0.91188000000E+02  0.91188000000E+02 0.  0.
    9900012    2    3    3    0    0  0.82591489540E+01  0.13862160069E+02 -0.33096919373E+02  0.54367094318E+02  0.40000023117E+02 0.  0.
         12    1    3    3    0    0 -0.82591489540E+01 -0.13862160069E+02  0.33096919373E+02  0.36820905682E+02  0.00000000000E+00 0. -1.
         11    1    4    4    0    0 -0.32874663667E+01  0.62332808875E+01 -0.31023530037E+02  0.31813843558E+02  0.51100000000E-03 0.  1.
        -11    1    4    4    0    0 -0.37209685981E+01  0.22179787671E+01  0.33449375870E+01  0.54729923115E+01  0.51100000000E-03 0. -1.
        -12    1    4    4    0    0  0.15267583919E+02  0.54109004148E+01 -0.54183269236E+01  0.17080258448E+02  0.00000000000E+00 0.  1.
</event>
<event>
 8    1  0.1278459E-006  0.9118800E+02  0.7816164E-02  0.1184000E+00
        -11   -1    0    0    0    0  0.00000000000E+00  0.00000000000E+00  0.45593999997E+02  0.45594000000E+02  0.51100000000E-03 0.  1.
         11   -1    0    0    0    0 -0.00000000000E+00 -0.00000000000E+00 -0.45593999997E+02  0.45594000000E+02  0.51100000000E-03 0. -1.
         23    2    1    2    0    0  0.00000000000E+00  0.00000000000E+00  0.00000000000E+00  0.91188000000E+02  0.91188000000E+02 0.  0.
    9900012    2    3    3    0    0 -0.98839273583E+01 -0.23292469576E+02  0.26749736936E+02  0.54367087666E+02  0.40000007951E+02 0.  0.
         12    1    3    3    0    0  0.98839273583E+01  0.23292469576E+02 -0.26749736936E+02  0.36820912334E+02  0.00000000000E+00 0. -1.
         11    1    4    4    0    0 -0.16799365387E+02 -0.27347709111E+02  0.24837675638E+02  0.40583568132E+02  0.51100000000E-03 0. -1.
        -11    1    4    4    0    0  0.45673016437E+01  0.75482843235E+01  0.31952831774E+01  0.93833189958E+01  0.51100000000E-03 0.  1.
         12    1    4    4    0    0  0.23481363850E+01 -0.34930447888E+01 -0.12832218786E+01  0.44002005373E+01  0.00000000000E+00 0. -1.
</event>
<event>
 8    1  0.1278459E-006  0.9118800E+02  0.7816164E-02  0.1184000E+00
        -11   -1    0    0    0    0  0.00000000000E+00  0.00000000000E+00  0.45593999997E+02  0.45594000000E+02  0.51100000000E-03 0. -1.
         11   -1    0    0    0    0 -0.00000000000E+00 -0.00000000000E+00 -0.45593999997E+02  0.45594000000E+02  0.51100000000E-03 0.  1.
         23    2    1    2    0    0  0.00000000000E+00  0.00000000000E+00  0.00000000000E+00  0.91188000000E+02  0.91188000000E+02 0.  0.
    9900012    2    3    3    0    0  0.21812909106E+02  0.23927947724E+02 -0.17533584607E+02  0.54367132613E+02  0.40000110417E+02 0.  0.
        -12    1    3    3    0    0 -0.21812909106E+02 -0.23927947724E+02  0.17533584607E+02  0.36820867387E+02  0.00000000000E+00 0.  1.
         11    1    4    4    0    0  0.16250326095E+02  0.13157484673E+02 -0.12422279796E+02  0.24320886840E+02  0.51100000000E-03 0. -1.
        -11    1    4    4    0    0 -0.17054209213E+01  0.17200468407E+02 -0.91241651080E+01  0.19545203072E+02  0.51100000000E-03 0.  1.
        -12    1    4    4    0    0  0.72680039325E+01 -0.64300053559E+01  0.40128602967E+01  0.10501042701E+02  0.00000000000E+00 0.  1.
</event>
<event>
 8    1  0.1278459E-006  0.9118800E+02  0.7816164E-02  0.1184000E+00
        -11   -1    0    0    0    0  0.00000000000E+00  0.00000000000E+00  0.45593999997E+02  0.45594000000E+02  0.51100000000E-03 0. -1.
         11   -1    0    0    0    0 -0.00000000000E+00 -0.00000000000E+00 -0.45593999997E+02  0.45594000000E+02  0.51100000000E-03 0.  1.
         23    2    1    2    0    0  0.00000000000E+00  0.35527136788E-14  0.00000000000E+00  0.91188000000E+02  0.91188000000E+02 0.  0.
    9900012    2    3    3    0    0  0.88858083616E+01 -0.29776472229E+02 -0.19753068041E+02  0.54367087658E+02  0.40000007935E+02 0.  0.
         12    1    3    3    0    0 -0.88858083616E+01  0.29776472229E+02  0.19753068041E+02  0.36820912342E+02  0.00000000000E+00 0. -1.
         11    1    4    4    0    0 -0.21125925183E+00  0.12408760969E+01 -0.91137859711E+01  0.92002988510E+01  0.51100000000E-03 0. -1.
        -11    1    4    4    0    0 -0.26669165939E+01 -0.12569040906E+02 -0.17970369655E+02  0.22091342631E+02  0.51100000000E-03 0.  1.
         12    1    4    4    0    0  0.11763984207E+02 -0.18448307419E+02  0.73310875853E+01  0.23075446177E+02  0.00000000000E+00 0. -1.
</event>
<event>
 8    1  0.1278459E-006  0.9118800E+02  0.7816164E-02  0.1184000E+00
        -11   -1    0    0    0    0  0.00000000000E+00  0.00000000000E+00  0.45593999997E+02  0.45594000000E+02  0.51100000000E-03 0. -1.
         11   -1    0    0    0    0 -0.00000000000E+00 -0.00000000000E+00 -0.45593999997E+02  0.45594000000E+02  0.51100000000E-03 0.  1.
         23    2    1    2    0    0  0.00000000000E+00 -0.17763568394E-14 -0.17763568394E-14  0.91188000000E+02  0.91188000000E+02 0.  0.
    9900012    2    3    3    0    0  0.30047047153E+02 -0.14288152939E+02 -0.15773572779E+02  0.54367055481E+02  0.39999934580E+02 0.  0.
         12    1    3    3    0    0 -0.30047047153E+02  0.14288152939E+02  0.15773572779E+02  0.36820944519E+02  0.00000000000E+00 0. -1.
         11    1    4    4    0    0  0.97055877284E+01 -0.45007351053E+01  0.41373619721E+01  0.11470519343E+02  0.51100000000E-03 0. -1.
        -11    1    4    4    0    0 -0.81177884929E+01 -0.15720799651E+01 -0.30537192558E+01  0.88144839319E+01  0.51100000000E-03 0.  1.
         12    1    4    4    0    0  0.28459247918E+02 -0.82153378682E+01 -0.16857215496E+02  0.34082052207E+02  0.00000000000E+00 0. -1.
</event>
<event>
 8    1  0.1278459E-006  0.9118800E+02  0.7816164E-02  0.1184000E+00
        -11   -1    0    0    0    0  0.00000000000E+00  0.00000000000E+00  0.45593999997E+02  0.45594000000E+02  0.51100000000E-03 0. -1.
         11   -1    0    0    0    0 -0.00000000000E+00 -0.00000000000E+00 -0.45593999997E+02  0.45594000000E+02  0.51100000000E-03 0.  1.
         23    2    1    2    0    0 -0.35527136788E-14  0.00000000000E+00  0.00000000000E+00  0.91188000000E+02  0.91188000000E+02 0.  0.
    9900012    2    3    3    0    0  0.14382632210E+02  0.32196470340E+02  0.10597519249E+02  0.54367078965E+02  0.39999988117E+02 0.  0.
        -12    1    3    3    0    0 -0.14382632210E+02 -0.32196470340E+02 -0.10597519249E+02  0.36820921035E+02  0.00000000000E+00 0.  1.
         11    1    4    4    0    0 -0.67396806988E+01  0.23163751123E+01  0.65480418732E+01  0.96781063343E+01  0.51100000000E-03 0. -1.
        -11    1    4    4    0    0  0.71697923516E-01 -0.72307142949E+00  0.73617366049E+01  0.73975089716E+01  0.51100000000E-03 0.  1.
         12    1    4    4    0    0  0.21050614985E+02  0.30603166657E+02 -0.33122592288E+01  0.37291463659E+02  0.00000000000E+00 0. -1.
</event>
<event>
 8    1  0.1278459E-006  0.9118800E+02  0.7816164E-02  0.1184000E+00
        -11   -1    0    0    0    0  0.00000000000E+00  0.00000000000E+00  0.45593999997E+02  0.45594000000E+02  0.51100000000E-03 0.  1.
         11   -1    0    0    0    0 -0.00000000000E+00 -0.00000000000E+00 -0.45593999997E+02  0.45594000000E+02  0.51100000000E-03 0. -1.
         23    2    1    2    0    0  0.35527136788E-14 -0.13322676296E-14  0.35527136788E-14  0.91188000000E+02  0.91188000000E+02 0.  0.
    9900012    2    3    3    0    0 -0.29205296751E+02 -0.18528278159E+01 -0.22347201814E+02  0.54367085316E+02  0.40000002595E+02 0.  0.
        -12    1    3    3    0    0  0.29205296751E+02  0.18528278159E+01  0.22347201814E+02  0.36820914684E+02  0.00000000000E+00 0.  1.
         11    1    4    4    0    0 -0.15098654348E+02 -0.57559414943E-01  0.26775012523E+00  0.15101137924E+02  0.51100000000E-03 0. -1.
        -11    1    4    4    0    0 -0.21177879211E+01  0.11944764288E+02 -0.30252433900E+01  0.12502580430E+02  0.51100000000E-03 0.  1.
        -12    1    4    4    0    0 -0.11988854482E+02 -0.13740032689E+02 -0.19589708550E+02  0.26763366962E+02  0.00000000000E+00 0.  1.
</event>
<event>
 8    1  0.1278459E-006  0.9118800E+02  0.7816164E-02  0.1184000E+00
        -11   -1    0    0    0    0  0.00000000000E+00  0.00000000000E+00  0.45593999997E+02  0.45594000000E+02  0.51100000000E-03 0.  1.
         11   -1    0    0    0    0 -0.00000000000E+00 -0.00000000000E+00 -0.45593999997E+02  0.45594000000E+02  0.51100000000E-03 0. -1.
         23    2    1    2    0    0  0.00000000000E+00 -0.17763568394E-14  0.00000000000E+00  0.91188000000E+02  0.91188000000E+02 0.  0.
    9900012    2    3    3    0    0 -0.53041489624E+01  0.81969141141E+01 -0.35502917947E+02  0.54367074157E+02  0.39999977155E+02 0.  0.
        -12    1    3    3    0    0  0.53041489624E+01 -0.81969141141E+01  0.35502917947E+02  0.36820925843E+02  0.00000000000E+00 0.  1.
         11    1    4    4    0    0  0.42248506873E+00  0.11382973453E+02 -0.11314848049E+02  0.16055415438E+02  0.51100000000E-03 0. -1.
        -11    1    4    4    0    0  0.94249867440E+01  0.67931519905E+00  0.70944577944E-01  0.94497025169E+01  0.51100000000E-03 0.  1.
         12    1    4    4    0    0 -0.15151620775E+02 -0.38653745376E+01 -0.24259014476E+02  0.28861956202E+02  0.00000000000E+00 0. -1.
</event>
<event>
 8    1  0.1278459E-006  0.9118800E+02  0.7816164E-02  0.1184000E+00
        -11   -1    0    0    0    0  0.00000000000E+00  0.00000000000E+00  0.45593999997E+02  0.45594000000E+02  0.51100000000E-03 0. -1.
         11   -1    0    0    0    0 -0.00000000000E+00 -0.00000000000E+00 -0.45593999997E+02  0.45594000000E+02  0.51100000000E-03 0.  1.
         23    2    1    2    0    0  0.00000000000E+00  0.00000000000E+00  0.00000000000E+00  0.91188000000E+02  0.91188000000E+02 0.  0.
    9900012    2    3    3    0    0  0.32674851120E+02  0.98478268023E+01  0.13825827368E+02  0.54367094378E+02  0.40000023253E+02 0.  0.
        -12    1    3    3    0    0 -0.32674851120E+02 -0.98478268023E+01 -0.13825827368E+02  0.36820905622E+02  0.00000000000E+00 0.  1.
         11    1    4    4    0    0  0.13982641233E+02  0.19347879481E+02  0.10963459416E+02  0.26268843501E+02  0.51100000000E-03 0. -1.
        -11    1    4    4    0    0 -0.36472031025E+01 -0.15817598506E+01  0.18250003142E+01  0.43743206448E+01  0.51100000000E-03 0.  1.
         12    1    4    4    0    0  0.22339412990E+02 -0.79182928281E+01  0.10373676378E+01  0.23723930232E+02  0.00000000000E+00 0. -1.
</event>
<event>
 8    1  0.1278459E-006  0.9118800E+02  0.7816164E-02  0.1184000E+00
        -11   -1    0    0    0    0  0.00000000000E+00  0.00000000000E+00  0.45593999997E+02  0.45594000000E+02  0.51100000000E-03 0. -1.
         11   -1    0    0    0    0 -0.00000000000E+00 -0.00000000000E+00 -0.45593999997E+02  0.45594000000E+02  0.51100000000E-03 0.  1.
         23    2    1    2    0    0  0.00000000000E+00  0.00000000000E+00 -0.71054273576E-14  0.91188000000E+02  0.91188000000E+02 0.  0.
    9900012    2    3    3    0    0 -0.13019132892E+02  0.11338960376E+02 -0.32522437414E+02  0.54367098612E+02  0.40000032906E+02 0.  0.
         12    1    3    3    0    0  0.13019132892E+02 -0.11338960376E+02  0.32522437414E+02  0.36820901388E+02  0.00000000000E+00 0. -1.
         11    1    4    4    0    0  0.90782917942E+01  0.79353502209E+01 -0.18949273920E+01  0.12205569020E+02  0.51100000000E-03 0. -1.
        -11    1    4    4    0    0 -0.15015773670E+02 -0.44552016826E+01 -0.26546822730E+02  0.30822979711E+02  0.51100000000E-03 0.  1.
         12    1    4    4    0    0 -0.70816510165E+01  0.78588118374E+01 -0.40806872920E+01  0.11338549880E+02  0.00000000000E+00 0. -1.
</event>
<event>
 8    1  0.1278459E-006  0.9118800E+02  0.7816164E-02  0.1184000E+00
        -11   -1    0    0    0    0  0.00000000000E+00  0.00000000000E+00  0.45593999997E+02  0.45594000000E+02  0.51100000000E-03 0. -1.
         11   -1    0    0    0    0 -0.00000000000E+00 -0.00000000000E+00 -0.45593999997E+02  0.45594000000E+02  0.51100000000E-03 0.  1.
         23    2    1    2    0    0  0.35527136788E-14  0.17763568394E-14  0.00000000000E+00  0.91188000000E+02  0.91188000000E+02 0.  0.
    9900012    2    3    3    0    0  0.31639749919E+02 -0.13470023442E+02 -0.13162996915E+02  0.54367084826E+02  0.40000001479E+02 0.  0.
         12    1    3    3    0    0 -0.31639749919E+02  0.13470023442E+02  0.13162996915E+02  0.36820915174E+02  0.00000000000E+00 0. -1.
         11    1    4    4    0    0  0.14358524513E+02 -0.10567754103E+01 -0.14065904341E+02  0.20127932474E+02  0.51100000000E-03 0. -1.
        -11    1    4    4    0    0  0.14100995624E+02 -0.99079256579E+01 -0.11813317987E+02  0.20894007528E+02  0.51100000000E-03 0.  1.
         12    1    4    4    0    0  0.31802297809E+01 -0.25053223734E+01  0.12716225413E+02  0.13345144825E+02  0.00000000000E+00 0. -1.
</event>
<event>
 8    1  0.1278459E-006  0.9118800E+02  0.7816164E-02  0.1184000E+00
        -11   -1    0    0    0    0  0.00000000000E+00  0.00000000000E+00  0.45593999997E+02  0.45594000000E+02  0.51100000000E-03 0. -1.
         11   -1    0    0    0    0 -0.00000000000E+00 -0.00000000000E+00 -0.45593999997E+02  0.45594000000E+02  0.51100000000E-03 0.  1.
         23    2    1    2    0    0  0.00000000000E+00  0.53290705182E-14  0.66613381478E-15  0.91188000000E+02  0.91188000000E+02 0.  0.
    9900012    2    3    3    0    0 -0.35350504767E+02 -0.10253228556E+02 -0.10001582725E+01  0.54366984266E+02  0.39999772230E+02 0.  0.
        -12    1    3    3    0    0  0.35350504767E+02  0.10253228556E+02  0.10001582725E+01  0.36821015734E+02  0.00000000000E+00 0.  1.
         11    1    4    4    0    0 -0.26247720941E+02 -0.16018818585E+02 -0.62646410032E+01  0.31381381910E+02  0.51100000000E-03 0. -1.
        -11    1    4    4    0    0 -0.34119201340E+01  0.11866529600E+02  0.73717524791E+01  0.14380488817E+02  0.51100000000E-03 0.  1.
        -12    1    4    4    0    0 -0.56908636924E+01 -0.61009395711E+01 -0.21072697484E+01  0.86051135384E+01  0.00000000000E+00 0.  1.
</event>
<event>
 8    1  0.1278459E-006  0.9118800E+02  0.7816164E-02  0.1184000E+00
        -11   -1    0    0    0    0  0.00000000000E+00  0.00000000000E+00  0.45593999997E+02  0.45594000000E+02  0.51100000000E-03 0. -1.
         11   -1    0    0    0    0 -0.00000000000E+00 -0.00000000000E+00 -0.45593999997E+02  0.45594000000E+02  0.51100000000E-03 0.  1.
         23    2    1    2    0    0 -0.88817841970E-15  0.00000000000E+00 -0.71054273576E-14  0.91188000000E+02  0.91188000000E+02 0.  0.
    9900012    2    3    3    0    0 -0.79090106060E+01  0.14208171599E+02 -0.33035667971E+02  0.54367082749E+02  0.39999996743E+02 0.  0.
         12    1    3    3    0    0  0.79090106060E+01 -0.14208171599E+02  0.33035667971E+02  0.36820917251E+02  0.00000000000E+00 0. -1.
         11    1    4    4    0    0 -0.36997802439E+01  0.13995018313E+02 -0.17468164912E+02  0.22686685459E+02  0.51100000000E-03 0. -1.
        -11    1    4    4    0    0  0.67964228397E+01  0.53119707430E+01 -0.17392850529E+02  0.19414418517E+02  0.51100000000E-03 0.  1.
         12    1    4    4    0    0 -0.11005653202E+02 -0.50988174574E+01  0.18253474707E+01  0.12265978773E+02  0.00000000000E+00 0. -1.
</event>
<event>
 8    1  0.1278459E-006  0.9118800E+02  0.7816164E-02  0.1184000E+00
        -11   -1    0    0    0    0  0.00000000000E+00  0.00000000000E+00  0.45593999997E+02  0.45594000000E+02  0.51100000000E-03 0.  1.
         11   -1    0    0    0    0 -0.00000000000E+00 -0.00000000000E+00 -0.45593999997E+02  0.45594000000E+02  0.51100000000E-03 0. -1.
         23    2    1    2    0    0 -0.17763568394E-14  0.00000000000E+00 -0.35527136788E-14  0.91188000000E+02  0.91188000000E+02 0.  0.
    9900012    2    3    3    0    0  0.13583114362E+02 -0.17350008409E+02 -0.29500158106E+02  0.54367039721E+02  0.39999898653E+02 0.  0.
        -12    1    3    3    0    0 -0.13583114362E+02  0.17350008409E+02  0.29500158106E+02  0.36820960279E+02  0.00000000000E+00 0.  1.
         11    1    4    4    0    0  0.17452224877E+02 -0.18747202572E+02 -0.65987366897E+01  0.26449595150E+02  0.51100000000E-03 0. -1.
        -11    1    4    4    0    0 -0.87486758633E+01  0.14335157649E+00 -0.20594764501E+02  0.22376420718E+02  0.51100000000E-03 0.  1.
        -12    1    4    4    0    0  0.48795653484E+01  0.12538425865E+01 -0.23066569156E+01  0.55410238537E+01  0.00000000000E+00 0.  1.
</event>
<event>
 8    1  0.1278459E-006  0.9118800E+02  0.7816164E-02  0.1184000E+00
        -11   -1    0    0    0    0  0.00000000000E+00  0.00000000000E+00  0.45593999997E+02  0.45594000000E+02  0.51100000000E-03 0. -1.
         11   -1    0    0    0    0 -0.00000000000E+00 -0.00000000000E+00 -0.45593999997E+02  0.45594000000E+02  0.51100000000E-03 0.  1.
         23    2    1    2    0    0 -0.72164496601E-15  0.44408920985E-15  0.00000000000E+00  0.91188000000E+02  0.91188000000E+02 0.  0.
    9900012    2    3    3    0    0  0.23431973332E+00 -0.11586055243E+01  0.36802011219E+02  0.54367010032E+02  0.39999830969E+02 0.  0.
        -12    1    3    3    0    0 -0.23431973332E+00  0.11586055243E+01 -0.36802011219E+02  0.36820989968E+02  0.00000000000E+00 0.  1.
         11    1    4    4    0    0 -0.55065347344E+01 -0.97648739247E-01 -0.27924671660E+01  0.61748953992E+01  0.51100000000E-03 0. -1.
        -11    1    4    4    0    0 -0.48292394898E+01  0.81627543081E+01  0.47036527659E+01  0.10586617096E+02  0.51100000000E-03 0.  1.
         12    1    4    4    0    0  0.10570093957E+02 -0.92237110932E+01  0.34890825619E+02  0.37605497536E+02  0.00000000000E+00 0. -1.
</event>
<event>
 8    1  0.1278459E-006  0.9118800E+02  0.7816164E-02  0.1184000E+00
        -11   -1    0    0    0    0  0.00000000000E+00  0.00000000000E+00  0.45593999997E+02  0.45594000000E+02  0.51100000000E-03 0. -1.
         11   -1    0    0    0    0 -0.00000000000E+00 -0.00000000000E+00 -0.45593999997E+02  0.45594000000E+02  0.51100000000E-03 0.  1.
         23    2    1    2    0    0 -0.35527136788E-14 -0.17763568394E-14  0.35527136788E-14  0.91188000000E+02  0.91188000000E+02 0.  0.
    9900012    2    3    3    0    0  0.27949905843E+02 -0.10839200903E+02 -0.21379877317E+02  0.54367018658E+02  0.39999850635E+02 0.  0.
         12    1    3    3    0    0 -0.27949905843E+02  0.10839200903E+02  0.21379877317E+02  0.36820981342E+02  0.00000000000E+00 0. -1.
         11    1    4    4    0    0 -0.26521213303E+00  0.45486929978E+01 -0.13176292689E+02  0.13941866258E+02  0.51100000000E-03 0.  1.
        -11    1    4    4    0    0 -0.21411166349E+01 -0.77233223195E+01  0.16792306440E+00  0.80163761459E+01  0.51100000000E-03 0. -1.
        -12    1    4    4    0    0  0.30356234611E+02 -0.76645715814E+01 -0.83715076925E+01  0.32408776255E+02  0.00000000000E+00 0.  1.
</event>
<event>
 8    1  0.1278459E-006  0.9118800E+02  0.7816164E-02  0.1184000E+00
        -11   -1    0    0    0    0  0.00000000000E+00  0.00000000000E+00  0.45593999997E+02  0.45594000000E+02  0.51100000000E-03 0.  1.
         11   -1    0    0    0    0 -0.00000000000E+00 -0.00000000000E+00 -0.45593999997E+02  0.45594000000E+02  0.51100000000E-03 0. -1.
         23    2    1    2    0    0  0.35527136788E-14  0.00000000000E+00  0.35527136788E-14  0.91188000000E+02  0.91188000000E+02 0.  0.
    9900012    2    3    3    0    0  0.31027430415E+02  0.84534211264E+01  0.17933700497E+02  0.54367090445E+02  0.40000014288E+02 0.  0.
         12    1    3    3    0    0 -0.31027430415E+02 -0.84534211264E+01 -0.17933700497E+02  0.36820909555E+02  0.00000000000E+00 0. -1.
         11    1    4    4    0    0  0.21330270346E+01 -0.21708191037E+01  0.59107381315E+01  0.66482392730E+01  0.51100000000E-03 0. -1.
        -11    1    4    4    0    0  0.17817159309E+01  0.10196068240E+02  0.17237103555E+02  0.20106020453E+02  0.51100000000E-03 0.  1.
         12    1    4    4    0    0  0.27112687450E+02  0.42817199046E+00 -0.52141411898E+01  0.27612830720E+02  0.00000000000E+00 0. -1.
</event>
<event>
 8    1  0.1278459E-006  0.9118800E+02  0.7816164E-02  0.1184000E+00
        -11   -1    0    0    0    0  0.00000000000E+00  0.00000000000E+00  0.45593999997E+02  0.45594000000E+02  0.51100000000E-03 0.  1.
         11   -1    0    0    0    0 -0.00000000000E+00 -0.00000000000E+00 -0.45593999997E+02  0.45594000000E+02  0.51100000000E-03 0. -1.
         23    2    1    2    0    0 -0.17763568394E-14 -0.88817841970E-15  0.00000000000E+00  0.91188000000E+02  0.91188000000E+02 0.  0.
    9900012    2    3    3    0    0  0.12781061798E+02 -0.66130231692E+01 -0.33892358253E+02  0.54367087952E+02  0.40000008604E+02 0.  0.
        -12    1    3    3    0    0 -0.12781061798E+02  0.66130231692E+01  0.33892358253E+02  0.36820912048E+02  0.00000000000E+00 0.  1.
         11    1    4    4    0    0 -0.44063179868E+01 -0.58574336851E+01 -0.21347665934E+02  0.22570954979E+02  0.51100000000E-03 0. -1.
        -11    1    4    4    0    0  0.10723726556E+02 -0.12062059438E+02 -0.78960061544E+01  0.17967707216E+02  0.51100000000E-03 0.  1.
        -12    1    4    4    0    0  0.64636532286E+01  0.11306469954E+02 -0.46486861648E+01  0.13828425757E+02  0.00000000000E+00 0.  1.
</event>
<event>
 8    1  0.1278459E-006  0.9118800E+02  0.7816164E-02  0.1184000E+00
        -11   -1    0    0    0    0  0.00000000000E+00  0.00000000000E+00  0.45593999997E+02  0.45594000000E+02  0.51100000000E-03 0.  1.
         11   -1    0    0    0    0 -0.00000000000E+00 -0.00000000000E+00 -0.45593999997E+02  0.45594000000E+02  0.51100000000E-03 0. -1.
         23    2    1    2    0    0  0.00000000000E+00 -0.17763568394E-14  0.00000000000E+00  0.91188000000E+02  0.91188000000E+02 0.  0.
    9900012    2    3    3    0    0  0.14703716174E+02  0.74301580492E+01  0.32929833733E+02  0.54367075682E+02  0.39999980632E+02 0.  0.
         12    1    3    3    0    0 -0.14703716174E+02 -0.74301580492E+01 -0.32929833733E+02  0.36820924318E+02  0.00000000000E+00 0. -1.
         11    1    4    4    0    0 -0.33814135947E+01 -0.23345278566E+01  0.67774755597E+01  0.79257903982E+01  0.51100000000E-03 0. -1.
        -11    1    4    4    0    0  0.87482170959E+01  0.42630432761E+01  0.32470021995E+02  0.33897008260E+02  0.51100000000E-03 0.  1.
         12    1    4    4    0    0  0.93369126729E+01  0.55016426297E+01 -0.63176638218E+01  0.12544277024E+02  0.00000000000E+00 0. -1.
</event>
<event>
 8    1  0.1278459E-006  0.9118800E+02  0.7816164E-02  0.1184000E+00
        -11   -1    0    0    0    0  0.00000000000E+00  0.00000000000E+00  0.45593999997E+02  0.45594000000E+02  0.51100000000E-03 0. -1.
         11   -1    0    0    0    0 -0.00000000000E+00 -0.00000000000E+00 -0.45593999997E+02  0.45594000000E+02  0.51100000000E-03 0.  1.
         23    2    1    2    0    0  0.17763568394E-14 -0.35527136788E-14  0.35527136788E-14  0.91188000000E+02  0.91188000000E+02 0.  0.
    9900012    2    3    3    0    0 -0.10676681834E+02 -0.25301366443E+02 -0.24528143660E+02  0.54367075103E+02  0.39999979312E+02 0.  0.
         12    1    3    3    0    0  0.10676681834E+02  0.25301366443E+02  0.24528143660E+02  0.36820924897E+02  0.00000000000E+00 0. -1.
         11    1    4    4    0    0 -0.51405704639E+01 -0.24075753811E+01 -0.15966917239E+02  0.16945923707E+02  0.51100000000E-03 0. -1.
        -11    1    4    4    0    0 -0.96380640340E+01 -0.25853335941E+02 -0.13317240037E+00  0.27591755884E+02  0.51100000000E-03 0.  1.
        -12    1    4    4    0    0  0.41019526637E+01  0.29595448791E+01 -0.84280540214E+01  0.98293955121E+01  0.00000000000E+00 0.  1.
</event>
<event>
 8    1  0.1278459E-006  0.9118800E+02  0.7816164E-02  0.1184000E+00
        -11   -1    0    0    0    0  0.00000000000E+00  0.00000000000E+00  0.45593999997E+02  0.45594000000E+02  0.51100000000E-03 0.  1.
         11   -1    0    0    0    0 -0.00000000000E+00 -0.00000000000E+00 -0.45593999997E+02  0.45594000000E+02  0.51100000000E-03 0. -1.
         23    2    1    2    0    0 -0.71054273576E-14 -0.88817841970E-15  0.17763568394E-14  0.91188000000E+02  0.91188000000E+02 0.  0.
    9900012    2    3    3    0    0 -0.34119892148E+02 -0.39920703254E+01 -0.13254284026E+02  0.54367085961E+02  0.40000004064E+02 0.  0.
        -12    1    3    3    0    0  0.34119892148E+02  0.39920703254E+01  0.13254284026E+02  0.36820914039E+02  0.00000000000E+00 0.  1.
         11    1    4    4    0    0 -0.11695524305E+02 -0.96710809290E+01 -0.80182817678E+01  0.17164146873E+02  0.51100000000E-03 0. -1.
        -11    1    4    4    0    0 -0.72747654138E+01 -0.78520300040E+01  0.76420410166E+01  0.13152086457E+02  0.51100000000E-03 0.  1.
        -12    1    4    4    0    0 -0.15149602429E+02  0.13531040608E+02 -0.12878043275E+02  0.24050852631E+02  0.00000000000E+00 0.  1.
</event>
<event>
 8    1  0.1278459E-006  0.9118800E+02  0.7816164E-02  0.1184000E+00
        -11   -1    0    0    0    0  0.00000000000E+00  0.00000000000E+00  0.45593999997E+02  0.45594000000E+02  0.51100000000E-03 0. -1.
         11   -1    0    0    0    0 -0.00000000000E+00 -0.00000000000E+00 -0.45593999997E+02  0.45594000000E+02  0.51100000000E-03 0.  1.
         23    2    1    2    0    0 -0.71054273576E-14  0.17763568394E-14 -0.44408920985E-15  0.91188000000E+02  0.91188000000E+02 0.  0.
    9900012    2    3    3    0    0 -0.33734677546E+02  0.14430921160E+02  0.30821273651E+01  0.54367089314E+02  0.40000011710E+02 0.  0.
        -12    1    3    3    0    0  0.33734677546E+02 -0.14430921160E+02 -0.30821273651E+01  0.36820910686E+02  0.00000000000E+00 0.  1.
         11    1    4    4    0    0  0.10504370951E+01  0.11715688008E+02  0.89445547025E+01  0.14777206187E+02  0.51100000000E-03 0. -1.
        -11    1    4    4    0    0 -0.82044897077E+01 -0.70570457742E+01 -0.11952414320E+01  0.10887798160E+02  0.51100000000E-03 0.  1.
         12    1    4    4    0    0 -0.26580624933E+02  0.97722789261E+01 -0.46671859054E+01  0.28702084968E+02  0.00000000000E+00 0. -1.
</event>
<event>
 8    1  0.1278459E-006  0.9118800E+02  0.7816164E-02  0.1184000E+00
        -11   -1    0    0    0    0  0.00000000000E+00  0.00000000000E+00  0.45593999997E+02  0.45594000000E+02  0.51100000000E-03 0.  1.
         11   -1    0    0    0    0 -0.00000000000E+00 -0.00000000000E+00 -0.45593999997E+02  0.45594000000E+02  0.51100000000E-03 0. -1.
         23    2    1    2    0    0  0.00000000000E+00  0.00000000000E+00 -0.35527136788E-14  0.91188000000E+02  0.91188000000E+02 0.  0.
    9900012    2    3    3    0    0 -0.17511247961E+02  0.18946234946E+02  0.26271203556E+02  0.54367085290E+02  0.40000002536E+02 0.  0.
         12    1    3    3    0    0  0.17511247961E+02 -0.18946234946E+02 -0.26271203556E+02  0.36820914710E+02  0.00000000000E+00 0. -1.
         11    1    4    4    0    0 -0.38353071361E+01  0.27630877509E+01  0.10982879548E+02  0.11956917587E+02  0.51100000000E-03 0.  1.
        -11    1    4    4    0    0  0.38482921476E+01  0.69861554966E+01  0.20455728095E+02  0.21955694780E+02  0.51100000000E-03 0. -1.
         12    1    4    4    0    0 -0.17524232973E+02  0.91969916986E+01 -0.51674040880E+01  0.20454472924E+02  0.00000000000E+00 0. -1.
</event>
<event>
 8    1  0.1278459E-006  0.9118800E+02  0.7816164E-02  0.1184000E+00
        -11   -1    0    0    0    0  0.00000000000E+00  0.00000000000E+00  0.45593999997E+02  0.45594000000E+02  0.51100000000E-03 0.  1.
         11   -1    0    0    0    0 -0.00000000000E+00 -0.00000000000E+00 -0.45593999997E+02  0.45594000000E+02  0.51100000000E-03 0. -1.
         23    2    1    2    0    0  0.44408920985E-15  0.00000000000E+00  0.00000000000E+00  0.91188000000E+02  0.91188000000E+02 0.  0.
    9900012    2    3    3    0    0  0.11548530890E+01  0.29490743257E+02  0.22016807809E+02  0.54367116665E+02  0.40000074060E+02 0.  0.
         12    1    3    3    0    0 -0.11548530890E+01 -0.29490743257E+02 -0.22016807809E+02  0.36820883335E+02  0.00000000000E+00 0. -1.
         11    1    4    4    0    0  0.42014740231E+01 -0.24353222394E+01 -0.34512858435E+01  0.59577304917E+01  0.51100000000E-03 0. -1.
        -11    1    4    4    0    0  0.41061068418E+01  0.24560511539E+02  0.48399238630E+01  0.25367374790E+02  0.51100000000E-03 0.  1.
        -12    1    4    4    0    0 -0.71527277759E+01  0.73655539572E+01  0.20628169789E+02  0.23042011383E+02  0.00000000000E+00 0.  1.
</event>
<event>
 8    1  0.1278459E-006  0.9118800E+02  0.7816164E-02  0.1184000E+00
        -11   -1    0    0    0    0  0.00000000000E+00  0.00000000000E+00  0.45593999997E+02  0.45594000000E+02  0.51100000000E-03 0.  1.
         11   -1    0    0    0    0 -0.00000000000E+00 -0.00000000000E+00 -0.45593999997E+02  0.45594000000E+02  0.51100000000E-03 0. -1.
         23    2    1    2    0    0  0.00000000000E+00 -0.88817841970E-15 -0.10658141036E-13  0.91188000000E+02  0.91188000000E+02 0.  0.
    9900012    2    3    3    0    0 -0.21241784464E+02  0.78813063071E+01  0.29025013473E+02  0.54367084702E+02  0.40000001194E+02 0.  0.
         12    1    3    3    0    0  0.21241784464E+02 -0.78813063071E+01 -0.29025013473E+02  0.36820915298E+02  0.00000000000E+00 0. -1.
         11    1    4    4    0    0 -0.13685818400E+02  0.36447299814E+01 -0.61442790040E+01  0.15438194411E+02  0.51100000000E-03 0. -1.
        -11    1    4    4    0    0 -0.50815112637E+00 -0.50204540754E+01  0.10029201661E+02  0.11227112849E+02  0.51100000000E-03 0.  1.
         12    1    4    4    0    0 -0.70478149368E+01  0.92570304011E+01  0.25140090816E+02  0.27701777442E+02  0.00000000000E+00 0. -1.
</event>
<event>
 8    1  0.1278459E-006  0.9118800E+02  0.7816164E-02  0.1184000E+00
        -11   -1    0    0    0    0  0.00000000000E+00  0.00000000000E+00  0.45593999997E+02  0.45594000000E+02  0.51100000000E-03 0. -1.
         11   -1    0    0    0    0 -0.00000000000E+00 -0.00000000000E+00 -0.45593999997E+02  0.45594000000E+02  0.51100000000E-03 0.  1.
         23    2    1    2    0    0  0.00000000000E+00  0.00000000000E+00  0.71054273576E-14  0.91188000000E+02  0.91188000000E+02 0.  0.
    9900012    2    3    3    0    0 -0.19720881902E+02  0.17405387683E+02  0.25766624694E+02  0.54367086764E+02  0.40000005897E+02 0.  0.
         12    1    3    3    0    0  0.19720881902E+02 -0.17405387683E+02 -0.25766624694E+02  0.36820913236E+02  0.00000000000E+00 0. -1.
         11    1    4    4    0    0 -0.21244180009E+02  0.20309923363E+02  0.11825596374E+02  0.31680481391E+02  0.51100000000E-03 0.  1.
        -11    1    4    4    0    0 -0.48301326560E+00  0.46480193901E+01  0.14116778279E+02  0.14870131651E+02  0.51100000000E-03 0. -1.
        -12    1    4    4    0    0  0.20063113722E+01 -0.75525550704E+01 -0.17574995987E+00  0.78164737229E+01  0.00000000000E+00 0.  1.
</event>
<event>
 8    1  0.1278459E-006  0.9118800E+02  0.7816164E-02  0.1184000E+00
        -11   -1    0    0    0    0  0.00000000000E+00  0.00000000000E+00  0.45593999997E+02  0.45594000000E+02  0.51100000000E-03 0. -1.
         11   -1    0    0    0    0 -0.00000000000E+00 -0.00000000000E+00 -0.45593999997E+02  0.45594000000E+02  0.51100000000E-03 0.  1.
         23    2    1    2    0    0 -0.17763568394E-14  0.00000000000E+00 -0.35527136788E-14  0.91188000000E+02  0.91188000000E+02 0.  0.
    9900012    2    3    3    0    0 -0.82437745890E+01 -0.27891769023E+02  0.22580324766E+02  0.54367059419E+02  0.39999943557E+02 0.  0.
        -12    1    3    3    0    0  0.82437745890E+01  0.27891769023E+02 -0.22580324766E+02  0.36820940581E+02  0.00000000000E+00 0.  1.
         11    1    4    4    0    0 -0.66169021843E+01  0.15372849839E+01  0.13905091186E+02  0.15475729411E+02  0.51100000000E-03 0. -1.
        -11    1    4    4    0    0  0.10461982422E+02 -0.18670895931E+02  0.24072040301E+01  0.21537178612E+02  0.51100000000E-03 0.  1.
        -12    1    4    4    0    0 -0.12088854827E+02 -0.10758158077E+02  0.62680295500E+01  0.17354151396E+02  0.00000000000E+00 0.  1.
</event>
<event>
 8    1  0.1278459E-006  0.9118800E+02  0.7816164E-02  0.1184000E+00
        -11   -1    0    0    0    0  0.00000000000E+00  0.00000000000E+00  0.45593999997E+02  0.45594000000E+02  0.51100000000E-03 0.  1.
         11   -1    0    0    0    0 -0.00000000000E+00 -0.00000000000E+00 -0.45593999997E+02  0.45594000000E+02  0.51100000000E-03 0. -1.
         23    2    1    2    0    0 -0.88817841970E-15  0.00000000000E+00  0.17763568394E-14  0.91188000000E+02  0.91188000000E+02 0.  0.
    9900012    2    3    3    0    0 -0.45763372571E+01  0.36168405902E+02 -0.51655912938E+01  0.54367084998E+02  0.40000001869E+02 0.  0.
         12    1    3    3    0    0  0.45763372571E+01 -0.36168405902E+02  0.51655912938E+01  0.36820915002E+02  0.00000000000E+00 0. -1.
         11    1    4    4    0    0  0.18605241721E+01  0.25273188684E+01 -0.66308835126E+01  0.73360416627E+01  0.51100000000E-03 0. -1.
        -11    1    4    4    0    0 -0.15672601632E+02  0.19208200699E+02  0.11332371381E+02  0.27258174139E+02  0.51100000000E-03 0.  1.
        -12    1    4    4    0    0  0.92357402025E+01  0.14432886334E+02 -0.98670791626E+01  0.19772869196E+02  0.00000000000E+00 0.  1.
</event>
<event>
 8    1  0.1278459E-006  0.9118800E+02  0.7816164E-02  0.1184000E+00
        -11   -1    0    0    0    0  0.00000000000E+00  0.00000000000E+00  0.45593999997E+02  0.45594000000E+02  0.51100000000E-03 0.  1.
         11   -1    0    0    0    0 -0.00000000000E+00 -0.00000000000E+00 -0.45593999997E+02  0.45594000000E+02  0.51100000000E-03 0. -1.
         23    2    1    2    0    0  0.00000000000E+00  0.00000000000E+00  0.00000000000E+00  0.91188000000E+02  0.91188000000E+02 0.  0.
    9900012    2    3    3    0    0  0.88989503370E+01  0.26262494656E+02  0.24225373191E+02  0.54367100379E+02  0.40000036934E+02 0.  0.
         12    1    3    3    0    0 -0.88989503370E+01 -0.26262494656E+02 -0.24225373191E+02  0.36820899621E+02  0.00000000000E+00 0. -1.
         11    1    4    4    0    0  0.95124812348E+01  0.11271290077E+02 -0.16352491553E+00  0.14749780334E+02  0.51100000000E-03 0. -1.
        -11    1    4    4    0    0  0.96224503330E+01  0.15969034038E+02  0.80402777187E+01  0.20303882992E+02  0.51100000000E-03 0.  1.
         12    1    4    4    0    0 -0.10235981231E+02 -0.97782945891E+00  0.16348620388E+02  0.19313437053E+02  0.00000000000E+00 0. -1.
</event>
<event>
 8    1  0.1278459E-006  0.9118800E+02  0.7816164E-02  0.1184000E+00
        -11   -1    0    0    0    0  0.00000000000E+00  0.00000000000E+00  0.45593999997E+02  0.45594000000E+02  0.51100000000E-03 0. -1.
         11   -1    0    0    0    0 -0.00000000000E+00 -0.00000000000E+00 -0.45593999997E+02  0.45594000000E+02  0.51100000000E-03 0.  1.
         23    2    1    2    0    0 -0.35527136788E-14  0.35527136788E-14 -0.35527136788E-14  0.91188000000E+02  0.91188000000E+02 0.  0.
    9900012    2    3    3    0    0 -0.10072459947E+02 -0.26678952428E+02 -0.23292910320E+02  0.54367073569E+02  0.39999975815E+02 0.  0.
         12    1    3    3    0    0  0.10072459947E+02  0.26678952428E+02  0.23292910320E+02  0.36820926431E+02  0.00000000000E+00 0. -1.
         11    1    4    4    0    0  0.45780749621E+00  0.12935868702E+01 -0.12519871871E+01  0.18575324687E+01  0.51100000000E-03 0. -1.
        -11    1    4    4    0    0  0.13357113318E+01  0.82428150127E+01 -0.88845342018E+01  0.12192746710E+02  0.51100000000E-03 0.  1.
        -12    1    4    4    0    0 -0.11865978775E+02 -0.36215354311E+02 -0.13156388932E+02  0.40316794390E+02  0.00000000000E+00 0.  1.
</event>
<event>
 8    1  0.1278459E-006  0.9118800E+02  0.7816164E-02  0.1184000E+00
        -11   -1    0    0    0    0  0.00000000000E+00  0.00000000000E+00  0.45593999997E+02  0.45594000000E+02  0.51100000000E-03 0.  1.
         11   -1    0    0    0    0 -0.00000000000E+00 -0.00000000000E+00 -0.45593999997E+02  0.45594000000E+02  0.51100000000E-03 0. -1.
         23    2    1    2    0    0 -0.35527136788E-14 -0.17763568394E-14 -0.35527136788E-14  0.91188000000E+02  0.91188000000E+02 0.  0.
    9900012    2    3    3    0    0 -0.31413356308E+02 -0.94565955699E+01 -0.16720083464E+02  0.54366982289E+02  0.39999767722E+02 0.  0.
         12    1    3    3    0    0  0.31413356308E+02  0.94565955699E+01  0.16720083464E+02  0.36821017711E+02  0.00000000000E+00 0. -1.
         11    1    4    4    0    0 -0.29454618535E+02 -0.40866080167E+01 -0.23333618414E+02  0.37798580221E+02  0.51100000000E-03 0. -1.
        -11    1    4    4    0    0  0.13169101887E+01 -0.92560276456E+01  0.17065343263E+01  0.95037129528E+01  0.51100000000E-03 0.  1.
         12    1    4    4    0    0 -0.32756479611E+01  0.38860400924E+01  0.49070006243E+01  0.70646891150E+01  0.00000000000E+00 0. -1.
</event>
<event>
 8    1  0.1278459E-006  0.9118800E+02  0.7816164E-02  0.1184000E+00
        -11   -1    0    0    0    0  0.00000000000E+00  0.00000000000E+00  0.45593999997E+02  0.45594000000E+02  0.51100000000E-03 0. -1.
         11   -1    0    0    0    0 -0.00000000000E+00 -0.00000000000E+00 -0.45593999997E+02  0.45594000000E+02  0.51100000000E-03 0.  1.
         23    2    1    2    0    0  0.35527136788E-14  0.00000000000E+00  0.00000000000E+00  0.91188000000E+02  0.91188000000E+02 0.  0.
    9900012    2    3    3    0    0 -0.86292884842E+01  0.35440898417E+02 -0.50256707260E+01  0.54367091991E+02  0.40000017811E+02 0.  0.
         12    1    3    3    0    0  0.86292884842E+01 -0.35440898417E+02  0.50256707260E+01  0.36820908009E+02  0.00000000000E+00 0. -1.
         11    1    4    4    0    0  0.12840451821E+02  0.21974381992E+02 -0.50947180735E+01  0.25955862910E+02  0.51100000000E-03 0. -1.
        -11    1    4    4    0    0 -0.21389729883E+02  0.15474708058E+02  0.79290652553E-02  0.26400515091E+02  0.51100000000E-03 0.  1.
        -12    1    4    4    0    0 -0.80010421957E-01 -0.20081916328E+01  0.61118282285E-01  0.20107139891E+01  0.00000000000E+00 0.  1.
</event>
<event>
 8    1  0.1278459E-006  0.9118800E+02  0.7816164E-02  0.1184000E+00
        -11   -1    0    0    0    0  0.00000000000E+00  0.00000000000E+00  0.45593999997E+02  0.45594000000E+02  0.51100000000E-03 0. -1.
         11   -1    0    0    0    0 -0.00000000000E+00 -0.00000000000E+00 -0.45593999997E+02  0.45594000000E+02  0.51100000000E-03 0.  1.
         23    2    1    2    0    0  0.17763568394E-14  0.17763568394E-14  0.00000000000E+00  0.91188000000E+02  0.91188000000E+02 0.  0.
    9900012    2    3    3    0    0  0.12342703143E+02  0.88595086249E+01  0.33540201540E+02  0.54367104665E+02  0.40000046704E+02 0.  0.
        -12    1    3    3    0    0 -0.12342703143E+02 -0.88595086249E+01 -0.33540201540E+02  0.36820895335E+02  0.00000000000E+00 0.  1.
         11    1    4    4    0    0 -0.95926465584E+01  0.19093473434E+01  0.93220408537E+01  0.13511658714E+02  0.51100000000E-03 0. -1.
        -11    1    4    4    0    0  0.12664024821E+02  0.71042799408E+01 -0.42360601109E+00  0.14526794569E+02  0.51100000000E-03 0.  1.
         12    1    4    4    0    0  0.92713248812E+01 -0.15411865937E+00  0.24641766697E+02  0.26328651382E+02  0.00000000000E+00 0. -1.
</event>
<event>
 8    1  0.1278459E-006  0.9118800E+02  0.7816164E-02  0.1184000E+00
        -11   -1    0    0    0    0  0.00000000000E+00  0.00000000000E+00  0.45593999997E+02  0.45594000000E+02  0.51100000000E-03 0. -1.
         11   -1    0    0    0    0 -0.00000000000E+00 -0.00000000000E+00 -0.45593999997E+02  0.45594000000E+02  0.51100000000E-03 0.  1.
         23    2    1    2    0    0  0.00000000000E+00  0.00000000000E+00 -0.35527136788E-14  0.91188000000E+02  0.91188000000E+02 0.  0.
    9900012    2    3    3    0    0 -0.14623883787E+02 -0.22885009717E+02  0.24863613832E+02  0.54367069274E+02  0.39999966024E+02 0.  0.
        -12    1    3    3    0    0  0.14623883787E+02  0.22885009717E+02 -0.24863613832E+02  0.36820930726E+02  0.00000000000E+00 0.  1.
         11    1    4    4    0    0 -0.10938913197E+02 -0.32388362274E+02  0.14223426862E+02  0.37026635072E+02  0.51100000000E-03 0. -1.
        -11    1    4    4    0    0 -0.44861698819E+01  0.49371916710E+01  0.11375189736E+01  0.67672395762E+01  0.51100000000E-03 0.  1.
         12    1    4    4    0    0  0.80119929244E+00  0.45661608868E+01  0.95026679963E+01  0.10573194626E+02  0.00000000000E+00 0. -1.
</event>
<event>
 8    1  0.1278459E-006  0.9118800E+02  0.7816164E-02  0.1184000E+00
        -11   -1    0    0    0    0  0.00000000000E+00  0.00000000000E+00  0.45593999997E+02  0.45594000000E+02  0.51100000000E-03 0. -1.
         11   -1    0    0    0    0 -0.00000000000E+00 -0.00000000000E+00 -0.45593999997E+02  0.45594000000E+02  0.51100000000E-03 0.  1.
         23    2    1    2    0    0  0.35527136788E-14  0.00000000000E+00  0.00000000000E+00  0.91188000000E+02  0.91188000000E+02 0.  0.
    9900012    2    3    3    0    0  0.30827143757E+02  0.11123170187E+02  0.16785165158E+02  0.54367089139E+02  0.40000011311E+02 0.  0.
        -12    1    3    3    0    0 -0.30827143757E+02 -0.11123170187E+02 -0.16785165158E+02  0.36820910861E+02  0.00000000000E+00 0.  1.
         11    1    4    4    0    0  0.83183333664E+01 -0.26450843357E+01 -0.36002001678E+01  0.94420645331E+01  0.51100000000E-03 0. -1.
        -11    1    4    4    0    0  0.23307252988E+02  0.14982962137E+02  0.34434493254E+01  0.27920862089E+02  0.51100000000E-03 0.  1.
         12    1    4    4    0    0 -0.79844259746E+00 -0.12147076146E+01  0.16941916000E+02  0.17004162517E+02  0.00000000000E+00 0. -1.
</event>
<event>
 8    1  0.1278459E-006  0.9118800E+02  0.7816164E-02  0.1184000E+00
        -11   -1    0    0    0    0  0.00000000000E+00  0.00000000000E+00  0.45593999997E+02  0.45594000000E+02  0.51100000000E-03 0.  1.
         11   -1    0    0    0    0 -0.00000000000E+00 -0.00000000000E+00 -0.45593999997E+02  0.45594000000E+02  0.51100000000E-03 0. -1.
         23    2    1    2    0    0 -0.88817841970E-15  0.00000000000E+00 -0.35527136788E-14  0.91188000000E+02  0.91188000000E+02 0.  0.
    9900012    2    3    3    0    0 -0.79725223713E+01  0.23032460204E+02 -0.27599371450E+02  0.54367073335E+02  0.39999975282E+02 0.  0.
        -12    1    3    3    0    0  0.79725223713E+01 -0.23032460204E+02  0.27599371450E+02  0.36820926665E+02  0.00000000000E+00 0.  1.
         11    1    4    4    0    0  0.58358208520E+01  0.33514043840E+01 -0.24591746590E+02  0.25495935303E+02  0.51100000000E-03 0. -1.
        -11    1    4    4    0    0 -0.98305084297E+01  0.10548571878E+02  0.58314469333E+01  0.15553682466E+02  0.51100000000E-03 0.  1.
        -12    1    4    4    0    0 -0.39778347936E+01  0.91324839413E+01 -0.88390717934E+01  0.13317455566E+02  0.00000000000E+00 0.  1.
</event>
<event>
 8    1  0.1278459E-006  0.9118800E+02  0.7816164E-02  0.1184000E+00
        -11   -1    0    0    0    0  0.00000000000E+00  0.00000000000E+00  0.45593999997E+02  0.45594000000E+02  0.51100000000E-03 0. -1.
         11   -1    0    0    0    0 -0.00000000000E+00 -0.00000000000E+00 -0.45593999997E+02  0.45594000000E+02  0.51100000000E-03 0.  1.
         23    2    1    2    0    0  0.00000000000E+00  0.17763568394E-14  0.00000000000E+00  0.91188000000E+02  0.91188000000E+02 0.  0.
    9900012    2    3    3    0    0 -0.65205749688E+01  0.88027348641E+01 -0.35153559178E+02  0.54367098845E+02  0.40000033436E+02 0.  0.
         12    1    3    3    0    0  0.65205749688E+01 -0.88027348641E+01  0.35153559178E+02  0.36820901155E+02  0.00000000000E+00 0. -1.
         11    1    4    4    0    0 -0.26077035263E+01  0.15856533270E+02 -0.26694440314E+02  0.31158031212E+02  0.51100000000E-03 0. -1.
        -11    1    4    4    0    0 -0.21036879290E+01 -0.13978622311E+02 -0.36942001863E+01  0.14610766574E+02  0.51100000000E-03 0.  1.
        -12    1    4    4    0    0 -0.18091835136E+01  0.69248239048E+01 -0.47649186773E+01  0.85983010588E+01  0.00000000000E+00 0.  1.
</event>
<event>
 8    1  0.1278459E-006  0.9118800E+02  0.7816164E-02  0.1184000E+00
        -11   -1    0    0    0    0  0.00000000000E+00  0.00000000000E+00  0.45593999997E+02  0.45594000000E+02  0.51100000000E-03 0.  1.
         11   -1    0    0    0    0 -0.00000000000E+00 -0.00000000000E+00 -0.45593999997E+02  0.45594000000E+02  0.51100000000E-03 0. -1.
         23    2    1    2    0    0  0.00000000000E+00 -0.17763568394E-14  0.00000000000E+00  0.91188000000E+02  0.91188000000E+02 0.  0.
    9900012    2    3    3    0    0 -0.34399861903E+02 -0.12636137810E+02  0.35716800788E+01  0.54367090502E+02  0.40000014418E+02 0.  0.
         12    1    3    3    0    0  0.34399861903E+02  0.12636137810E+02 -0.35716800788E+01  0.36820909498E+02  0.00000000000E+00 0. -1.
         11    1    4    4    0    0 -0.11289133959E+02  0.37208762673E+01 -0.11265900702E+02  0.16377117715E+02  0.51100000000E-03 0. -1.
        -11    1    4    4    0    0 -0.47034891562E+01  0.44545273832E+01  0.60120686639E+01  0.88380198195E+01  0.51100000000E-03 0.  1.
         12    1    4    4    0    0 -0.18407238787E+02 -0.20811541460E+02  0.88255121170E+01  0.29151952968E+02  0.00000000000E+00 0. -1.
</event>
<event>
 8    1  0.1278459E-006  0.9118800E+02  0.7816164E-02  0.1184000E+00
        -11   -1    0    0    0    0  0.00000000000E+00  0.00000000000E+00  0.45593999997E+02  0.45594000000E+02  0.51100000000E-03 0.  1.
         11   -1    0    0    0    0 -0.00000000000E+00 -0.00000000000E+00 -0.45593999997E+02  0.45594000000E+02  0.51100000000E-03 0. -1.
         23    2    1    2    0    0  0.00000000000E+00  0.35527136788E-14  0.00000000000E+00  0.91188000000E+02  0.91188000000E+02 0.  0.
    9900012    2    3    3    0    0  0.18620036304E+02  0.20369158480E+02 -0.24375632696E+02  0.54367084226E+02  0.40000000109E+02 0.  0.
        -12    1    3    3    0    0 -0.18620036304E+02 -0.20369158480E+02  0.24375632696E+02  0.36820915774E+02  0.00000000000E+00 0.  1.
         11    1    4    4    0    0  0.23146325914E+02  0.61783312743E+01 -0.23533937259E+02  0.33582292712E+02  0.51100000000E-03 0. -1.
        -11    1    4    4    0    0  0.41779142990E+01  0.75431741482E+01 -0.38252833345E+01  0.94333046686E+01  0.51100000000E-03 0.  1.
        -12    1    4    4    0    0 -0.87042039089E+01  0.66476530570E+01  0.29835878968E+01  0.11351486845E+02  0.00000000000E+00 0.  1.
</event>
<event>
 8    1  0.1278459E-006  0.9118800E+02  0.7816164E-02  0.1184000E+00
        -11   -1    0    0    0    0  0.00000000000E+00  0.00000000000E+00  0.45593999997E+02  0.45594000000E+02  0.51100000000E-03 0. -1.
         11   -1    0    0    0    0 -0.00000000000E+00 -0.00000000000E+00 -0.45593999997E+02  0.45594000000E+02  0.51100000000E-03 0.  1.
         23    2    1    2    0    0  0.00000000000E+00 -0.33306690739E-15  0.00000000000E+00  0.91188000000E+02  0.91188000000E+02 0.  0.
    9900012    2    3    3    0    0 -0.10554512676E+02 -0.93205997148E+00  0.35263487473E+02  0.54367081728E+02  0.39999994416E+02 0.  0.
        -12    1    3    3    0    0  0.10554512676E+02  0.93205997148E+00 -0.35263487473E+02  0.36820918272E+02  0.00000000000E+00 0.  1.
         11    1    4    4    0    0 -0.30245343672E-02 -0.86849053146E+01  0.23450361347E+02  0.25006939777E+02  0.51100000000E-03 0. -1.
        -11    1    4    4    0    0  0.37426925758E+01  0.11039092893E+01 -0.49799964797E+01  0.63266680515E+01  0.51100000000E-03 0.  1.
        -12    1    4    4    0    0 -0.14294180717E+02  0.66489360537E+01  0.16793122606E+02  0.23033473900E+02  0.00000000000E+00 0.  1.
</event>
<event>
 8    1  0.1278459E-006  0.9118800E+02  0.7816164E-02  0.1184000E+00
        -11   -1    0    0    0    0  0.00000000000E+00  0.00000000000E+00  0.45593999997E+02  0.45594000000E+02  0.51100000000E-03 0.  1.
         11   -1    0    0    0    0 -0.00000000000E+00 -0.00000000000E+00 -0.45593999997E+02  0.45594000000E+02  0.51100000000E-03 0. -1.
         23    2    1    2    0    0  0.00000000000E+00 -0.17763568394E-14 -0.17763568394E-14  0.91188000000E+02  0.91188000000E+02 0.  0.
    9900012    2    3    3    0    0  0.33043945451E+02 -0.13040677480E+02  0.96859690616E+01  0.54367087507E+02  0.40000007590E+02 0.  0.
         12    1    3    3    0    0 -0.33043945451E+02  0.13040677480E+02 -0.96859690616E+01  0.36820912493E+02  0.00000000000E+00 0. -1.
         11    1    4    4    0    0 -0.58501614925E+01  0.33950122366E+01  0.67226498908E+00  0.67972375309E+01  0.51100000000E-03 0. -1.
        -11    1    4    4    0    0  0.10958852851E+02 -0.13449511959E+02 -0.18518557513E+01  0.17447498323E+02  0.51100000000E-03 0.  1.
         12    1    4    4    0    0  0.27935254092E+02 -0.29861777580E+01  0.10865559824E+02  0.30122351653E+02  0.00000000000E+00 0. -1.
</event>
<event>
 8    1  0.1278459E-006  0.9118800E+02  0.7816164E-02  0.1184000E+00
        -11   -1    0    0    0    0  0.00000000000E+00  0.00000000000E+00  0.45593999997E+02  0.45594000000E+02  0.51100000000E-03 0.  1.
         11   -1    0    0    0    0 -0.00000000000E+00 -0.00000000000E+00 -0.45593999997E+02  0.45594000000E+02  0.51100000000E-03 0. -1.
         23    2    1    2    0    0  0.00000000000E+00 -0.17763568394E-14  0.00000000000E+00  0.91188000000E+02  0.91188000000E+02 0.  0.
    9900012    2    3    3    0    0 -0.11305775871E+02  0.85685851770E+01  0.33978515203E+02  0.54367072317E+02  0.39999972962E+02 0.  0.
         12    1    3    3    0    0  0.11305775871E+02 -0.85685851770E+01 -0.33978515203E+02  0.36820927683E+02  0.00000000000E+00 0. -1.
         11    1    4    4    0    0 -0.81776364680E+01 -0.72494932271E+01  0.25995896260E+01  0.11233287886E+02  0.51100000000E-03 0. -1.
        -11    1    4    4    0    0 -0.13449928861E+02  0.11314468358E+02  0.23688824517E+02  0.29497087786E+02  0.51100000000E-03 0.  1.
        -12    1    4    4    0    0  0.10321789458E+02  0.45036100457E+01  0.76901010603E+01  0.13636696645E+02  0.00000000000E+00 0.  1.
</event>
<event>
 8    1  0.1278459E-006  0.9118800E+02  0.7816164E-02  0.1184000E+00
        -11   -1    0    0    0    0  0.00000000000E+00  0.00000000000E+00  0.45593999997E+02  0.45594000000E+02  0.51100000000E-03 0.  1.
         11   -1    0    0    0    0 -0.00000000000E+00 -0.00000000000E+00 -0.45593999997E+02  0.45594000000E+02  0.51100000000E-03 0. -1.
         23    2    1    2    0    0  0.00000000000E+00  0.00000000000E+00  0.00000000000E+00  0.91188000000E+02  0.91188000000E+02 0.  0.
    9900012    2    3    3    0    0  0.24555584809E+02 -0.26499496355E+02  0.71120272294E+01  0.54367068674E+02  0.39999964656E+02 0.  0.
        -12    1    3    3    0    0 -0.24555584809E+02  0.26499496355E+02 -0.71120272294E+01  0.36820931326E+02  0.00000000000E+00 0.  1.
         11    1    4    4    0    0 -0.20473851239E+01 -0.26514127761E+02  0.41036265682E+01  0.26907814999E+02  0.51100000000E-03 0. -1.
        -11    1    4    4    0    0  0.16570288983E+02 -0.26327631371E+01  0.32039621453E+01  0.17081314130E+02  0.51100000000E-03 0.  1.
         12    1    4    4    0    0  0.10032680950E+02  0.26473945425E+01 -0.19556148411E+00  0.10377939545E+02  0.00000000000E+00 0. -1.
</event>
<event>
 8    1  0.1278459E-006  0.9118800E+02  0.7816164E-02  0.1184000E+00
        -11   -1    0    0    0    0  0.00000000000E+00  0.00000000000E+00  0.45593999997E+02  0.45594000000E+02  0.51100000000E-03 0. -1.
         11   -1    0    0    0    0 -0.00000000000E+00 -0.00000000000E+00 -0.45593999997E+02  0.45594000000E+02  0.51100000000E-03 0.  1.
         23    2    1    2    0    0 -0.71054273576E-14  0.00000000000E+00  0.00000000000E+00  0.91188000000E+02  0.91188000000E+02 0.  0.
    9900012    2    3    3    0    0 -0.35500611715E+02 -0.91440455223E+01  0.34446498529E+01  0.54367182338E+02  0.40000223776E+02 0.  0.
        -12    1    3    3    0    0  0.35500611715E+02  0.91440455223E+01 -0.34446498529E+01  0.36820817662E+02  0.00000000000E+00 0.  1.
         11    1    4    4    0    0 -0.90821903747E+01  0.73513920164E+01  0.79749431541E+01  0.14146690961E+02  0.51100000000E-03 0. -1.
        -11    1    4    4    0    0 -0.21098630161E+02  0.34416105353E+00  0.24249164872E+01  0.21240312186E+02  0.51100000000E-03 0.  1.
         12    1    4    4    0    0 -0.53197911793E+01 -0.16839598592E+02 -0.69552097884E+01  0.18980179191E+02  0.00000000000E+00 0. -1.
</event>
<event>
 8    1  0.1278459E-006  0.9118800E+02  0.7816164E-02  0.1184000E+00
        -11   -1    0    0    0    0  0.00000000000E+00  0.00000000000E+00  0.45593999997E+02  0.45594000000E+02  0.51100000000E-03 0.  1.
         11   -1    0    0    0    0 -0.00000000000E+00 -0.00000000000E+00 -0.45593999997E+02  0.45594000000E+02  0.51100000000E-03 0. -1.
         23    2    1    2    0    0  0.00000000000E+00  0.00000000000E+00  0.71054273576E-14  0.91188000000E+02  0.91188000000E+02 0.  0.
    9900012    2    3    3    0    0  0.97536996604E+01  0.58902676114E+01  0.35013523920E+02  0.54367125936E+02  0.40000095195E+02 0.  0.
         12    1    3    3    0    0 -0.97536996604E+01 -0.58902676114E+01 -0.35013523920E+02  0.36820874064E+02  0.00000000000E+00 0. -1.
         11    1    4    4    0    0  0.86767125488E+01  0.19742633503E+02  0.19929999775E+02  0.29364294808E+02  0.51100000000E-03 0. -1.
        -11    1    4    4    0    0 -0.64794030856E+01 -0.43747374967E+01  0.60590548198E+01  0.98910635465E+01  0.51100000000E-03 0.  1.
        -12    1    4    4    0    0  0.75563901972E+01 -0.94776283954E+01  0.90244693249E+01  0.15111767581E+02  0.00000000000E+00 0.  1.
</event>
<event>
 8    1  0.1278459E-006  0.9118800E+02  0.7816164E-02  0.1184000E+00
        -11   -1    0    0    0    0  0.00000000000E+00  0.00000000000E+00  0.45593999997E+02  0.45594000000E+02  0.51100000000E-03 0.  1.
         11   -1    0    0    0    0 -0.00000000000E+00 -0.00000000000E+00 -0.45593999997E+02  0.45594000000E+02  0.51100000000E-03 0. -1.
         23    2    1    2    0    0 -0.44408920985E-15 -0.11102230246E-14  0.71054273576E-14  0.91188000000E+02  0.91188000000E+02 0.  0.
    9900012    2    3    3    0    0 -0.30278935774E+01  0.55278386739E+00  0.36692040967E+02  0.54367087738E+02  0.40000008116E+02 0.  0.
         12    1    3    3    0    0  0.30278935774E+01 -0.55278386739E+00 -0.36692040967E+02  0.36820912262E+02  0.00000000000E+00 0. -1.
         11    1    4    4    0    0  0.95101278130E+00  0.84371969074E+01  0.58046100248E+00  0.85104437136E+01  0.51100000000E-03 0. -1.
        -11    1    4    4    0    0  0.18017207101E+01 -0.84679308645E+01 -0.60937012898E+00  0.86789044734E+01  0.51100000000E-03 0.  1.
         12    1    4    4    0    0 -0.57806270687E+01  0.58351782443E+00  0.36720950093E+02  0.37177739551E+02  0.00000000000E+00 0. -1.
</event>
<event>
 8    1  0.1278459E-006  0.9118800E+02  0.7816164E-02  0.1184000E+00
        -11   -1    0    0    0    0  0.00000000000E+00  0.00000000000E+00  0.45593999997E+02  0.45594000000E+02  0.51100000000E-03 0. -1.
         11   -1    0    0    0    0 -0.00000000000E+00 -0.00000000000E+00 -0.45593999997E+02  0.45594000000E+02  0.51100000000E-03 0.  1.
         23    2    1    2    0    0  0.00000000000E+00  0.00000000000E+00  0.00000000000E+00  0.91188000000E+02  0.91188000000E+02 0.  0.
    9900012    2    3    3    0    0 -0.35123566512E+02  0.28648591158E+01  0.10672821298E+02  0.54367062251E+02  0.39999950014E+02 0.  0.
        -12    1    3    3    0    0  0.35123566512E+02 -0.28648591158E+01 -0.10672821298E+02  0.36820937749E+02  0.00000000000E+00 0.  1.
         11    1    4    4    0    0 -0.30622370816E+02  0.66209970849E+01  0.10921147939E+02  0.33178888911E+02  0.51100000000E-03 0. -1.
        -11    1    4    4    0    0  0.22292613888E+01 -0.41181328498E+01 -0.89978844820E+01  0.10143497913E+02  0.51100000000E-03 0.  1.
        -12    1    4    4    0    0 -0.67304570840E+01  0.36199488063E+00  0.87495578417E+01  0.11044675427E+02  0.00000000000E+00 0.  1.
</event>
<event>
 8    1  0.1278459E-006  0.9118800E+02  0.7816164E-02  0.1184000E+00
        -11   -1    0    0    0    0  0.00000000000E+00  0.00000000000E+00  0.45593999997E+02  0.45594000000E+02  0.51100000000E-03 0.  1.
         11   -1    0    0    0    0 -0.00000000000E+00 -0.00000000000E+00 -0.45593999997E+02  0.45594000000E+02  0.51100000000E-03 0. -1.
         23    2    1    2    0    0  0.00000000000E+00  0.13322676296E-14  0.00000000000E+00  0.91188000000E+02  0.91188000000E+02 0.  0.
    9900012    2    3    3    0    0 -0.14024479009E+02 -0.73863148008E+00  0.34037563049E+02  0.54366983091E+02  0.39999769551E+02 0.  0.
         12    1    3    3    0    0  0.14024479009E+02  0.73863148008E+00 -0.34037563049E+02  0.36821016909E+02  0.00000000000E+00 0. -1.
         11    1    4    4    0    0 -0.16864015246E+02 -0.16002395070E+02  0.10167326028E+02  0.25374124162E+02  0.51100000000E-03 0. -1.
        -11    1    4    4    0    0 -0.16440772828E+00  0.18493316727E+01  0.57427243801E+00  0.19434110813E+01  0.51100000000E-03 0.  1.
         12    1    4    4    0    0  0.30039439648E+01  0.13414431917E+02  0.23295964583E+02  0.27049447847E+02  0.00000000000E+00 0. -1.
</event>
<event>
 8    1  0.1278459E-006  0.9118800E+02  0.7816164E-02  0.1184000E+00
        -11   -1    0    0    0    0  0.00000000000E+00  0.00000000000E+00  0.45593999997E+02  0.45594000000E+02  0.51100000000E-03 0. -1.
         11   -1    0    0    0    0 -0.00000000000E+00 -0.00000000000E+00 -0.45593999997E+02  0.45594000000E+02  0.51100000000E-03 0.  1.
         23    2    1    2    0    0 -0.35527136788E-14  0.00000000000E+00  0.00000000000E+00  0.91188000000E+02  0.91188000000E+02 0.  0.
    9900012    2    3    3    0    0  0.20521819251E+02  0.10358670189E+02 -0.28763396913E+02  0.54367080464E+02  0.39999991534E+02 0.  0.
         12    1    3    3    0    0 -0.20521819251E+02 -0.10358670189E+02  0.28763396913E+02  0.36820919536E+02  0.00000000000E+00 0. -1.
         11    1    4    4    0    0  0.93882187319E+01  0.15846677127E+02 -0.14861060262E+01  0.18478753700E+02  0.51100000000E-03 0. -1.
        -11    1    4    4    0    0 -0.19192166666E+01 -0.75445710261E+01 -0.31868670878E+01  0.84119003012E+01  0.51100000000E-03 0.  1.
        -12    1    4    4    0    0  0.13052817186E+02  0.20565640875E+01 -0.24090423799E+02  0.27476426463E+02  0.00000000000E+00 0.  1.
</event>
<event>
 8    1  0.1278459E-006  0.9118800E+02  0.7816164E-02  0.1184000E+00
        -11   -1    0    0    0    0  0.00000000000E+00  0.00000000000E+00  0.45593999997E+02  0.45594000000E+02  0.51100000000E-03 0.  1.
         11   -1    0    0    0    0 -0.00000000000E+00 -0.00000000000E+00 -0.45593999997E+02  0.45594000000E+02  0.51100000000E-03 0. -1.
         23    2    1    2    0    0  0.00000000000E+00 -0.35527136788E-14 -0.59327542878E-15  0.91188000000E+02  0.91188000000E+02 0.  0.
    9900012    2    3    3    0    0  0.27495790124E+02  0.24490013757E+02 -0.11657775787E-01  0.54367090394E+02  0.40000014171E+02 0.  0.
         12    1    3    3    0    0 -0.27495790124E+02 -0.24490013757E+02  0.11657775787E-01  0.36820909606E+02  0.00000000000E+00 0. -1.
         11    1    4    4    0    0  0.12922393316E+02  0.46772800473E+01 -0.11870449743E+02  0.18159646885E+02  0.51100000000E-03 0. -1.
        -11    1    4    4    0    0  0.66159608930E+01  0.19675443860E+02 -0.13331200120E+01  0.20800750921E+02  0.51100000000E-03 0.  1.
         12    1    4    4    0    0  0.79574359151E+01  0.13728984905E+00  0.13191911979E+02  0.15406692588E+02  0.00000000000E+00 0. -1.
</event>
<event>
 8    1  0.1278459E-006  0.9118800E+02  0.7816164E-02  0.1184000E+00
        -11   -1    0    0    0    0  0.00000000000E+00  0.00000000000E+00  0.45593999997E+02  0.45594000000E+02  0.51100000000E-03 0. -1.
         11   -1    0    0    0    0 -0.00000000000E+00 -0.00000000000E+00 -0.45593999997E+02  0.45594000000E+02  0.51100000000E-03 0.  1.
         23    2    1    2    0    0  0.00000000000E+00 -0.17763568394E-14 -0.17763568394E-14  0.91188000000E+02  0.91188000000E+02 0.  0.
    9900012    2    3    3    0    0  0.35945331711E+02  0.59660587114E+01  0.53019614298E+01  0.54367197139E+02  0.40000257517E+02 0.  0.
         12    1    3    3    0    0 -0.35945331711E+02 -0.59660587114E+01 -0.53019614298E+01  0.36820802861E+02  0.00000000000E+00 0. -1.
         11    1    4    4    0    0  0.12335342353E+01  0.12166187145E+02 -0.54109362601E+01  0.13372208039E+02  0.51100000000E-03 0. -1.
        -11    1    4    4    0    0  0.33651797415E+02 -0.74728482252E+01  0.14084991790E+02  0.37238070893E+02  0.51100000000E-03 0.  1.
        -12    1    4    4    0    0  0.10600000601E+01  0.12727197914E+01 -0.33720940998E+01  0.37569182068E+01  0.00000000000E+00 0.  1.
</event>
<event>
 8    1  0.1278459E-006  0.9118800E+02  0.7816164E-02  0.1184000E+00
        -11   -1    0    0    0    0  0.00000000000E+00  0.00000000000E+00  0.45593999997E+02  0.45594000000E+02  0.51100000000E-03 0.  1.
         11   -1    0    0    0    0 -0.00000000000E+00 -0.00000000000E+00 -0.45593999997E+02  0.45594000000E+02  0.51100000000E-03 0. -1.
         23    2    1    2    0    0  0.35527136788E-14  0.44408920985E-15  0.00000000000E+00  0.91188000000E+02  0.91188000000E+02 0.  0.
    9900012    2    3    3    0    0  0.16590852749E+02  0.38315925823E+01  0.32647241879E+02  0.54367083404E+02  0.39999998236E+02 0.  0.
         12    1    3    3    0    0 -0.16590852749E+02 -0.38315925823E+01 -0.32647241879E+02  0.36820916596E+02  0.00000000000E+00 0. -1.
         11    1    4    4    0    0  0.87480636633E+00  0.93012469305E+01  0.15453705135E+02  0.18058114057E+02  0.51100000000E-03 0. -1.
        -11    1    4    4    0    0 -0.50988556035E+01 -0.94933617086E+01  0.60595197664E+01  0.12362848582E+02  0.51100000000E-03 0.  1.
        -12    1    4    4    0    0  0.20814901987E+02  0.40237073604E+01  0.11134016977E+02  0.23946120765E+02  0.00000000000E+00 0.  1.
</event>
<event>
 8    1  0.1278459E-006  0.9118800E+02  0.7816164E-02  0.1184000E+00
        -11   -1    0    0    0    0  0.00000000000E+00  0.00000000000E+00  0.45593999997E+02  0.45594000000E+02  0.51100000000E-03 0.  1.
         11   -1    0    0    0    0 -0.00000000000E+00 -0.00000000000E+00 -0.45593999997E+02  0.45594000000E+02  0.51100000000E-03 0. -1.
         23    2    1    2    0    0  0.00000000000E+00  0.00000000000E+00  0.17763568394E-14  0.91188000000E+02  0.91188000000E+02 0.  0.
    9900012    2    3    3    0    0  0.25124082333E+02 -0.25298853177E+02 -0.91938715630E+01  0.54367098878E+02  0.40000033511E+02 0.  0.
         12    1    3    3    0    0 -0.25124082333E+02  0.25298853177E+02  0.91938715630E+01  0.36820901122E+02  0.00000000000E+00 0. -1.
         11    1    4    4    0    0 -0.48644612383E+01 -0.32422467255E+01 -0.10500200760E+02  0.12017876819E+02  0.51100000000E-03 0. -1.
        -11    1    4    4    0    0  0.28306545125E+02 -0.15444514987E+02 -0.55006118089E+01  0.32711622868E+02  0.51100000000E-03 0.  1.
         12    1    4    4    0    0  0.16819984456E+01 -0.66120914651E+01  0.68069410057E+01  0.96375991911E+01  0.00000000000E+00 0. -1.
</event>
<event>
 8    1  0.1278459E-006  0.9118800E+02  0.7816164E-02  0.1184000E+00
        -11   -1    0    0    0    0  0.00000000000E+00  0.00000000000E+00  0.45593999997E+02  0.45594000000E+02  0.51100000000E-03 0.  1.
         11   -1    0    0    0    0 -0.00000000000E+00 -0.00000000000E+00 -0.45593999997E+02  0.45594000000E+02  0.51100000000E-03 0. -1.
         23    2    1    2    0    0 -0.17763568394E-14  0.00000000000E+00 -0.35527136788E-14  0.91188000000E+02  0.91188000000E+02 0.  0.
    9900012    2    3    3    0    0  0.85707949430E+01  0.19063182433E+02 -0.30313610665E+02  0.54367103189E+02  0.40000043340E+02 0.  0.
        -12    1    3    3    0    0 -0.85707949430E+01 -0.19063182433E+02  0.30313610665E+02  0.36820896811E+02  0.00000000000E+00 0.  1.
         11    1    4    4    0    0  0.93080361599E+01 -0.13310006453E+01 -0.11867219754E+02  0.15140739904E+02  0.51100000000E-03 0.  1.
        -11    1    4    4    0    0 -0.59997277617E+01 -0.46493452682E+01 -0.94045853540E+01  0.12085502496E+02  0.51100000000E-03 0. -1.
        -12    1    4    4    0    0  0.52624865448E+01  0.25043528346E+02 -0.90418055571E+01  0.27140860789E+02  0.00000000000E+00 0.  1.
</event>
<event>
 8    1  0.1278459E-006  0.9118800E+02  0.7816164E-02  0.1184000E+00
        -11   -1    0    0    0    0  0.00000000000E+00  0.00000000000E+00  0.45593999997E+02  0.45594000000E+02  0.51100000000E-03 0.  1.
         11   -1    0    0    0    0 -0.00000000000E+00 -0.00000000000E+00 -0.45593999997E+02  0.45594000000E+02  0.51100000000E-03 0. -1.
         23    2    1    2    0    0  0.00000000000E+00 -0.88817841970E-15  0.00000000000E+00  0.91188000000E+02  0.91188000000E+02 0.  0.
    9900012    2    3    3    0    0  0.34665142419E+02 -0.65110658963E+01  0.10569469497E+02  0.54367085244E+02  0.40000002431E+02 0.  0.
        -12    1    3    3    0    0 -0.34665142419E+02  0.65110658963E+01 -0.10569469497E+02  0.36820914756E+02  0.00000000000E+00 0.  1.
         11    1    4    4    0    0  0.81608713458E-01  0.22042420227E+01 -0.72047059471E+01  0.75347946834E+01  0.51100000000E-03 0. -1.
        -11    1    4    4    0    0  0.27544152554E+01 -0.95457475374E+01  0.99160954128E+01  0.14036988564E+02  0.51100000000E-03 0.  1.
         12    1    4    4    0    0  0.31829118450E+02  0.83043961846E+00  0.78580800312E+01  0.32795301997E+02  0.00000000000E+00 0. -1.
</event>
<event>
 8    1  0.1278459E-006  0.9118800E+02  0.7816164E-02  0.1184000E+00
        -11   -1    0    0    0    0  0.00000000000E+00  0.00000000000E+00  0.45593999997E+02  0.45594000000E+02  0.51100000000E-03 0.  1.
         11   -1    0    0    0    0 -0.00000000000E+00 -0.00000000000E+00 -0.45593999997E+02  0.45594000000E+02  0.51100000000E-03 0. -1.
         23    2    1    2    0    0 -0.44408920985E-15  0.00000000000E+00  0.10658141036E-13  0.91188000000E+02  0.91188000000E+02 0.  0.
    9900012    2    3    3    0    0  0.21444705433E+01 -0.18099917358E+02 -0.31993374740E+02  0.54367057732E+02  0.39999939711E+02 0.  0.
        -12    1    3    3    0    0 -0.21444705433E+01  0.18099917358E+02  0.31993374740E+02  0.36820942268E+02  0.00000000000E+00 0.  1.
         11    1    4    4    0    0 -0.17295700015E+01  0.36587914697E+01 -0.10234231747E+02  0.11005347206E+02  0.51100000000E-03 0. -1.
        -11    1    4    4    0    0  0.13680543752E+01 -0.65823177123E+01  0.76429751297E+01  0.10179074041E+02  0.51100000000E-03 0.  1.
        -12    1    4    4    0    0  0.25059861696E+01 -0.15176391116E+02 -0.29402118122E+02  0.33182636484E+02  0.00000000000E+00 0.  1.
</event>
<event>
 8    1  0.1278459E-006  0.9118800E+02  0.7816164E-02  0.1184000E+00
        -11   -1    0    0    0    0  0.00000000000E+00  0.00000000000E+00  0.45593999997E+02  0.45594000000E+02  0.51100000000E-03 0. -1.
         11   -1    0    0    0    0 -0.00000000000E+00 -0.00000000000E+00 -0.45593999997E+02  0.45594000000E+02  0.51100000000E-03 0.  1.
         23    2    1    2    0    0  0.17763568394E-14 -0.26645352591E-14  0.00000000000E+00  0.91188000000E+02  0.91188000000E+02 0.  0.
    9900012    2    3    3    0    0  0.85493109131E+01  0.40008327911E+01  0.35590490258E+02  0.54367076914E+02  0.39999983440E+02 0.  0.
        -12    1    3    3    0    0 -0.85493109131E+01 -0.40008327911E+01 -0.35590490258E+02  0.36820923086E+02  0.00000000000E+00 0.  1.
         11    1    4    4    0    0  0.61606330079E+01 -0.49356401335E+01  0.36164811861E+02  0.37016314779E+02  0.51100000000E-03 0. -1.
        -11    1    4    4    0    0  0.15629592380E+01 -0.29932125290E+01 -0.36813891045E+01  0.49954768364E+01  0.51100000000E-03 0.  1.
         12    1    4    4    0    0  0.82571866724E+00  0.11929685454E+02  0.31070675013E+01  0.12355285298E+02  0.00000000000E+00 0. -1.
</event>
<event>
 8    1  0.1278459E-006  0.9118800E+02  0.7816164E-02  0.1184000E+00
        -11   -1    0    0    0    0  0.00000000000E+00  0.00000000000E+00  0.45593999997E+02  0.45594000000E+02  0.51100000000E-03 0.  1.
         11   -1    0    0    0    0 -0.00000000000E+00 -0.00000000000E+00 -0.45593999997E+02  0.45594000000E+02  0.51100000000E-03 0. -1.
         23    2    1    2    0    0 -0.35527136788E-14  0.00000000000E+00  0.00000000000E+00  0.91188000000E+02  0.91188000000E+02 0.  0.
    9900012    2    3    3    0    0  0.23699468538E+02  0.26185226001E+02 -0.10413887588E+02  0.54367083059E+02  0.39999997449E+02 0.  0.
        -12    1    3    3    0    0 -0.23699468538E+02 -0.26185226001E+02  0.10413887588E+02  0.36820916941E+02  0.00000000000E+00 0.  1.
         11    1    4    4    0    0  0.95387206821E+01 -0.10111426929E+02 -0.26340462403E+01  0.14148015643E+02  0.51100000000E-03 0.  1.
        -11    1    4    4    0    0  0.90107546042E+01  0.15776974834E+02 -0.52507875311E+01  0.18912361128E+02  0.51100000000E-03 0. -1.
        -12    1    4    4    0    0  0.51499932520E+01  0.20519678095E+02 -0.25290538167E+01  0.21306706288E+02  0.00000000000E+00 0.  1.
</event>
<event>
 8    1  0.1278459E-006  0.9118800E+02  0.7816164E-02  0.1184000E+00
        -11   -1    0    0    0    0  0.00000000000E+00  0.00000000000E+00  0.45593999997E+02  0.45594000000E+02  0.51100000000E-03 0.  1.
         11   -1    0    0    0    0 -0.00000000000E+00 -0.00000000000E+00 -0.45593999997E+02  0.45594000000E+02  0.51100000000E-03 0. -1.
         23    2    1    2    0    0  0.00000000000E+00  0.00000000000E+00 -0.28310687128E-14  0.91188000000E+02  0.91188000000E+02 0.  0.
    9900012    2    3    3    0    0  0.33985147958E+02 -0.14166977178E+02  0.29350943157E+00  0.54367086488E+02  0.40000005266E+02 0.  0.
         12    1    3    3    0    0 -0.33985147958E+02  0.14166977178E+02 -0.29350943157E+00  0.36820913512E+02  0.00000000000E+00 0. -1.
         11    1    4    4    0    0 -0.16484421618E+01  0.10216640460E+00 -0.29465989884E+01  0.33779054745E+01  0.51100000000E-03 0. -1.
        -11    1    4    4    0    0  0.26854659666E+02 -0.20054325794E+02 -0.91466373082E+01  0.34742045178E+02  0.51100000000E-03 0.  1.
        -12    1    4    4    0    0  0.87789304533E+01  0.57851822111E+01  0.12386745728E+02  0.16247135835E+02  0.00000000000E+00 0.  1.
</event>
<event>
 8    1  0.1278459E-006  0.9118800E+02  0.7816164E-02  0.1184000E+00
        -11   -1    0    0    0    0  0.00000000000E+00  0.00000000000E+00  0.45593999997E+02  0.45594000000E+02  0.51100000000E-03 0.  1.
         11   -1    0    0    0    0 -0.00000000000E+00 -0.00000000000E+00 -0.45593999997E+02  0.45594000000E+02  0.51100000000E-03 0. -1.
         23    2    1    2    0    0  0.88817841970E-15 -0.17763568394E-14  0.71054273576E-14  0.91188000000E+02  0.91188000000E+02 0.  0.
    9900012    2    3    3    0    0  0.66997641225E+01 -0.94607882133E+01  0.34948336893E+02  0.54367087403E+02  0.40000007352E+02 0.  0.
         12    1    3    3    0    0 -0.66997641225E+01  0.94607882133E+01 -0.34948336893E+02  0.36820912597E+02  0.00000000000E+00 0. -1.
         11    1    4    4    0    0  0.46145477966E+01 -0.19768369594E+02  0.12113920904E+02  0.23639576302E+02  0.51100000000E-03 0. -1.
        -11    1    4    4    0    0  0.78343294236E+01 -0.56599097734E+00  0.60289018877E+01  0.99017534577E+01  0.51100000000E-03 0.  1.
         12    1    4    4    0    0 -0.57491130977E+01  0.10873572358E+02  0.16805514101E+02  0.20825757644E+02  0.00000000000E+00 0. -1.
</event>
<event>
 8    1  0.1278459E-006  0.9118800E+02  0.7816164E-02  0.1184000E+00
        -11   -1    0    0    0    0  0.00000000000E+00  0.00000000000E+00  0.45593999997E+02  0.45594000000E+02  0.51100000000E-03 0. -1.
         11   -1    0    0    0    0 -0.00000000000E+00 -0.00000000000E+00 -0.45593999997E+02  0.45594000000E+02  0.51100000000E-03 0.  1.
         23    2    1    2    0    0  0.17763568394E-14  0.35527136788E-14  0.17763568394E-14  0.91188000000E+02  0.91188000000E+02 0.  0.
    9900012    2    3    3    0    0 -0.15397516509E+02  0.29695698912E+02  0.15390319448E+02  0.54367082287E+02  0.39999995691E+02 0.  0.
         12    1    3    3    0    0  0.15397516509E+02 -0.29695698912E+02 -0.15390319448E+02  0.36820917713E+02  0.00000000000E+00 0. -1.
         11    1    4    4    0    0 -0.21553148169E+02  0.29815647580E+02  0.21673878681E+02  0.42699743019E+02  0.51100000000E-03 0. -1.
        -11    1    4    4    0    0  0.20995830203E+01 -0.37867537156E+01 -0.23044431982E+01  0.49049170509E+01  0.51100000000E-03 0.  1.
         12    1    4    4    0    0  0.40560486399E+01  0.36668050475E+01 -0.39791160347E+01  0.67624222172E+01  0.00000000000E+00 0. -1.
</event>
<event>
 8    1  0.1278459E-006  0.9118800E+02  0.7816164E-02  0.1184000E+00
        -11   -1    0    0    0    0  0.00000000000E+00  0.00000000000E+00  0.45593999997E+02  0.45594000000E+02  0.51100000000E-03 0. -1.
         11   -1    0    0    0    0 -0.00000000000E+00 -0.00000000000E+00 -0.45593999997E+02  0.45594000000E+02  0.51100000000E-03 0.  1.
         23    2    1    2    0    0  0.00000000000E+00  0.88817841970E-15  0.00000000000E+00  0.91188000000E+02  0.91188000000E+02 0.  0.
    9900012    2    3    3    0    0  0.26607037393E+02  0.58450484250E+01  0.24772592873E+02  0.54367076769E+02  0.39999983111E+02 0.  0.
        -12    1    3    3    0    0 -0.26607037393E+02 -0.58450484250E+01 -0.24772592873E+02  0.36820923231E+02  0.00000000000E+00 0.  1.
         11    1    4    4    0    0  0.20334316875E+02  0.13876049427E+02  0.14028005471E+02  0.28333974805E+02  0.51100000000E-03 0. -1.
        -11    1    4    4    0    0  0.61709571660E+01 -0.13818292610E+02  0.12870911381E+02  0.19866712940E+02  0.51100000000E-03 0.  1.
        -12    1    4    4    0    0  0.10176335166E+00  0.57872916078E+01 -0.21263239792E+01  0.61663890242E+01  0.00000000000E+00 0.  1.
</event>
<event>
 8    1  0.1278459E-006  0.9118800E+02  0.7816164E-02  0.1184000E+00
        -11   -1    0    0    0    0  0.00000000000E+00  0.00000000000E+00  0.45593999997E+02  0.45594000000E+02  0.51100000000E-03 0. -1.
         11   -1    0    0    0    0 -0.00000000000E+00 -0.00000000000E+00 -0.45593999997E+02  0.45594000000E+02  0.51100000000E-03 0.  1.
         23    2    1    2    0    0  0.00000000000E+00  0.00000000000E+00  0.00000000000E+00  0.91188000000E+02  0.91188000000E+02 0.  0.
    9900012    2    3    3    0    0 -0.26912542394E+02  0.66387718153E+01 -0.24236783251E+02  0.54367083503E+02  0.39999998462E+02 0.  0.
         12    1    3    3    0    0  0.26912542394E+02 -0.66387718153E+01  0.24236783251E+02  0.36820916497E+02  0.00000000000E+00 0. -1.
         11    1    4    4    0    0 -0.17330492331E+02  0.14693027241E+02 -0.12504299876E+02  0.25934311820E+02  0.51100000000E-03 0. -1.
        -11    1    4    4    0    0  0.10699970135E+01 -0.26111801991E+01 -0.15606013470E+02  0.15859092418E+02  0.51100000000E-03 0.  1.
         12    1    4    4    0    0 -0.10652047077E+02 -0.54430752265E+01  0.38735300957E+01  0.12573679265E+02  0.00000000000E+00 0. -1.
</event>
<event>
 8    1  0.1278459E-006  0.9118800E+02  0.7816164E-02  0.1184000E+00
        -11   -1    0    0    0    0  0.00000000000E+00  0.00000000000E+00  0.45593999997E+02  0.45594000000E+02  0.51100000000E-03 0. -1.
         11   -1    0    0    0    0 -0.00000000000E+00 -0.00000000000E+00 -0.45593999997E+02  0.45594000000E+02  0.51100000000E-03 0.  1.
         23    2    1    2    0    0  0.00000000000E+00  0.00000000000E+00  0.00000000000E+00  0.91188000000E+02  0.91188000000E+02 0.  0.
    9900012    2    3    3    0    0 -0.89950762084E+01  0.73014772244E+01  0.34950766318E+02  0.54367095178E+02  0.40000025078E+02 0.  0.
        -12    1    3    3    0    0  0.89950762084E+01 -0.73014772244E+01 -0.34950766318E+02  0.36820904822E+02  0.00000000000E+00 0.  1.
         11    1    4    4    0    0  0.15618117829E+01 -0.44120701281E+01  0.30181174883E+02  0.30541920968E+02  0.51100000000E-03 0. -1.
        -11    1    4    4    0    0 -0.47138080612E+01  0.47843635192E+01  0.10956296469E+02  0.12851091522E+02  0.51100000000E-03 0.  1.
        -12    1    4    4    0    0 -0.58430799301E+01  0.69291838333E+01 -0.61867050341E+01  0.10974082688E+02  0.00000000000E+00 0.  1.
</event>
<event>
 8    1  0.1278459E-006  0.9118800E+02  0.7816164E-02  0.1184000E+00
        -11   -1    0    0    0    0  0.00000000000E+00  0.00000000000E+00  0.45593999997E+02  0.45594000000E+02  0.51100000000E-03 0. -1.
         11   -1    0    0    0    0 -0.00000000000E+00 -0.00000000000E+00 -0.45593999997E+02  0.45594000000E+02  0.51100000000E-03 0.  1.
         23    2    1    2    0    0  0.17763568394E-14  0.00000000000E+00  0.00000000000E+00  0.91188000000E+02  0.91188000000E+02 0.  0.
    9900012    2    3    3    0    0 -0.15119917119E+02 -0.12588247239E+02 -0.31123984120E+02  0.54367105799E+02  0.40000049291E+02 0.  0.
         12    1    3    3    0    0  0.15119917119E+02  0.12588247239E+02  0.31123984120E+02  0.36820894201E+02  0.00000000000E+00 0. -1.
         11    1    4    4    0    0  0.57893527322E+00  0.67442527220E+00 -0.84995477564E+01  0.85458953787E+01  0.51100000000E-03 0. -1.
        -11    1    4    4    0    0 -0.19917605643E+02 -0.37855858738E+00 -0.56550394696E+00  0.19929227686E+02  0.51100000000E-03 0.  1.
        -12    1    4    4    0    0  0.42187532515E+01 -0.12884113924E+02 -0.22058932416E+02  0.25891982735E+02  0.00000000000E+00 0.  1.
</event>
<event>
 8    1  0.1278459E-006  0.9118800E+02  0.7816164E-02  0.1184000E+00
        -11   -1    0    0    0    0  0.00000000000E+00  0.00000000000E+00  0.45593999997E+02  0.45594000000E+02  0.51100000000E-03 0. -1.
         11   -1    0    0    0    0 -0.00000000000E+00 -0.00000000000E+00 -0.45593999997E+02  0.45594000000E+02  0.51100000000E-03 0.  1.
         23    2    1    2    0    0  0.00000000000E+00  0.17763568394E-14  0.00000000000E+00  0.91188000000E+02  0.91188000000E+02 0.  0.
    9900012    2    3    3    0    0  0.58795428586E+01  0.11788079718E+02  0.34383887651E+02  0.54367087767E+02  0.40000008183E+02 0.  0.
        -12    1    3    3    0    0 -0.58795428586E+01 -0.11788079718E+02 -0.34383887651E+02  0.36820912233E+02  0.00000000000E+00 0.  1.
         11    1    4    4    0    0 -0.75953969853E+01  0.85752313883E-01  0.14552996470E+02  0.16416062723E+02  0.51100000000E-03 0. -1.
        -11    1    4    4    0    0  0.13086422320E+02 -0.50664170661E+01  0.14900375725E+02  0.20468127125E+02  0.51100000000E-03 0.  1.
         12    1    4    4    0    0  0.38851752407E+00  0.16768744470E+02  0.49305154566E+01  0.17482897918E+02  0.00000000000E+00 0. -1.
</event>
<event>
 8    1  0.1278459E-006  0.9118800E+02  0.7816164E-02  0.1184000E+00
        -11   -1    0    0    0    0  0.00000000000E+00  0.00000000000E+00  0.45593999997E+02  0.45594000000E+02  0.51100000000E-03 0. -1.
         11   -1    0    0    0    0 -0.00000000000E+00 -0.00000000000E+00 -0.45593999997E+02  0.45594000000E+02  0.51100000000E-03 0.  1.
         23    2    1    2    0    0  0.00000000000E+00  0.00000000000E+00  0.00000000000E+00  0.91188000000E+02  0.91188000000E+02 0.  0.
    9900012    2    3    3    0    0  0.12956681790E+02  0.24906680683E+02  0.23823535927E+02  0.54367092763E+02  0.40000019572E+02 0.  0.
        -12    1    3    3    0    0 -0.12956681790E+02 -0.24906680683E+02 -0.23823535927E+02  0.36820907237E+02  0.00000000000E+00 0.  1.
         11    1    4    4    0    0  0.10443380145E+02  0.54600205314E+01  0.71457921893E-01  0.11784783391E+02  0.51100000000E-03 0. -1.
        -11    1    4    4    0    0 -0.47279797513E+01 -0.62880973698E+01  0.20016735884E+01  0.81179220541E+01  0.51100000000E-03 0.  1.
         12    1    4    4    0    0  0.72412813960E+01  0.25734757522E+02  0.21750404417E+02  0.34464387319E+02  0.00000000000E+00 0. -1.
</event>
<event>
 8    1  0.1278459E-006  0.9118800E+02  0.7816164E-02  0.1184000E+00
        -11   -1    0    0    0    0  0.00000000000E+00  0.00000000000E+00  0.45593999997E+02  0.45594000000E+02  0.51100000000E-03 0. -1.
         11   -1    0    0    0    0 -0.00000000000E+00 -0.00000000000E+00 -0.45593999997E+02  0.45594000000E+02  0.51100000000E-03 0.  1.
         23    2    1    2    0    0  0.88817841970E-15  0.00000000000E+00  0.35527136788E-14  0.91188000000E+02  0.91188000000E+02 0.  0.
    9900012    2    3    3    0    0 -0.39881882111E+01  0.19434573429E+02 -0.31018885961E+02  0.54367087792E+02  0.40000008240E+02 0.  0.
         12    1    3    3    0    0  0.39881882111E+01 -0.19434573429E+02  0.31018885961E+02  0.36820912208E+02  0.00000000000E+00 0. -1.
         11    1    4    4    0    0  0.53958513626E+01 -0.76257248403E+00  0.35881254438E+01  0.65246741821E+01  0.51100000000E-03 0. -1.
        -11    1    4    4    0    0 -0.78094553688E+01  0.18213087500E+02 -0.38440412397E+02  0.43247768208E+02  0.51100000000E-03 0.  1.
        -12    1    4    4    0    0 -0.15745842048E+01  0.19840584124E+01  0.38334009923E+01  0.45946454020E+01  0.00000000000E+00 0.  1.
</event>
<event>
 8    1  0.1278459E-006  0.9118800E+02  0.7816164E-02  0.1184000E+00
        -11   -1    0    0    0    0  0.00000000000E+00  0.00000000000E+00  0.45593999997E+02  0.45594000000E+02  0.51100000000E-03 0. -1.
         11   -1    0    0    0    0 -0.00000000000E+00 -0.00000000000E+00 -0.45593999997E+02  0.45594000000E+02  0.51100000000E-03 0.  1.
         23    2    1    2    0    0  0.00000000000E+00  0.00000000000E+00  0.88817841970E-15  0.91188000000E+02  0.91188000000E+02 0.  0.
    9900012    2    3    3    0    0 -0.44313000592E+01 -0.36535547238E+02  0.11389021022E+01  0.54367085696E+02  0.40000003461E+02 0.  0.
        -12    1    3    3    0    0  0.44313000592E+01  0.36535547238E+02 -0.11389021022E+01  0.36820914304E+02  0.00000000000E+00 0.  1.
         11    1    4    4    0    0  0.20956647346E+01 -0.85056417399E+01 -0.65082838247E+01  0.10913088962E+02  0.51100000000E-03 0. -1.
        -11    1    4    4    0    0 -0.52193673771E+01 -0.11408163141E+01 -0.99488702687E+01  0.11292620492E+02  0.51100000000E-03 0.  1.
         12    1    4    4    0    0 -0.13075974167E+01 -0.26889089184E+02  0.17596056196E+02  0.32161376242E+02  0.00000000000E+00 0. -1.
</event>
<event>
 8    1  0.1278459E-006  0.9118800E+02  0.7816164E-02  0.1184000E+00
        -11   -1    0    0    0    0  0.00000000000E+00  0.00000000000E+00  0.45593999997E+02  0.45594000000E+02  0.51100000000E-03 0. -1.
         11   -1    0    0    0    0 -0.00000000000E+00 -0.00000000000E+00 -0.45593999997E+02  0.45594000000E+02  0.51100000000E-03 0.  1.
         23    2    1    2    0    0  0.00000000000E+00  0.00000000000E+00  0.00000000000E+00  0.91188000000E+02  0.91188000000E+02 0.  0.
    9900012    2    3    3    0    0 -0.21671587176E+02  0.41995058542E+01  0.29470100460E+02  0.54367077126E+02  0.39999983925E+02 0.  0.
        -12    1    3    3    0    0  0.21671587176E+02 -0.41995058542E+01 -0.29470100460E+02  0.36820922874E+02  0.00000000000E+00 0.  1.
         11    1    4    4    0    0 -0.28915739229E+02 -0.10077025862E+01  0.28936304177E+02  0.40919984596E+02  0.51100000000E-03 0. -1.
        -11    1    4    4    0    0  0.24469411997E+01 -0.28248571970E+01 -0.12142201831E+01  0.39295890794E+01  0.51100000000E-03 0.  1.
         12    1    4    4    0    0  0.47972108534E+01  0.80320656374E+01  0.17480164669E+01  0.95175034512E+01  0.00000000000E+00 0. -1.
</event>
<event>
 8    1  0.1278459E-006  0.9118800E+02  0.7816164E-02  0.1184000E+00
        -11   -1    0    0    0    0  0.00000000000E+00  0.00000000000E+00  0.45593999997E+02  0.45594000000E+02  0.51100000000E-03 0. -1.
         11   -1    0    0    0    0 -0.00000000000E+00 -0.00000000000E+00 -0.45593999997E+02  0.45594000000E+02  0.51100000000E-03 0.  1.
         23    2    1    2    0    0  0.00000000000E+00  0.35527136788E-14  0.71054273576E-14  0.91188000000E+02  0.91188000000E+02 0.  0.
    9900012    2    3    3    0    0 -0.77679401084E+01  0.18661163679E+02  0.30776609347E+02  0.54367087379E+02  0.40000007297E+02 0.  0.
        -12    1    3    3    0    0  0.77679401084E+01 -0.18661163679E+02 -0.30776609347E+02  0.36820912621E+02  0.00000000000E+00 0.  1.
         11    1    4    4    0    0 -0.20816488883E+02  0.58218743121E+01  0.14055559708E+02  0.25783312217E+02  0.51100000000E-03 0. -1.
        -11    1    4    4    0    0 -0.17045008960E+01  0.40375542963E+00 -0.13005063926E+01  0.21816642477E+01  0.51100000000E-03 0.  1.
         12    1    4    4    0    0  0.14753049671E+02  0.12435533937E+02  0.18021556032E+02  0.26402110914E+02  0.00000000000E+00 0. -1.
</event>
<event>
 8    1  0.1278459E-006  0.9118800E+02  0.7816164E-02  0.1184000E+00
        -11   -1    0    0    0    0  0.00000000000E+00  0.00000000000E+00  0.45593999997E+02  0.45594000000E+02  0.51100000000E-03 0. -1.
         11   -1    0    0    0    0 -0.00000000000E+00 -0.00000000000E+00 -0.45593999997E+02  0.45594000000E+02  0.51100000000E-03 0.  1.
         23    2    1    2    0    0  0.11102230246E-14 -0.35527136788E-14  0.71054273576E-14  0.91188000000E+02  0.91188000000E+02 0.  0.
    9900012    2    3    3    0    0 -0.13600572981E+01  0.11280549607E+02 -0.35023951398E+02  0.54367112900E+02  0.40000065477E+02 0.  0.
         12    1    3    3    0    0  0.13600572981E+01 -0.11280549607E+02  0.35023951398E+02  0.36820887100E+02  0.00000000000E+00 0. -1.
         11    1    4    4    0    0  0.37812219880E+01 -0.13623644074E+01  0.81017802976E+01  0.90439217573E+01  0.51100000000E-03 0. -1.
        -11    1    4    4    0    0  0.30467489709E+00  0.97326278756E+00 -0.42228675817E+01  0.43442695727E+01  0.51100000000E-03 0.  1.
         12    1    4    4    0    0 -0.54459541832E+01  0.11669651227E+02 -0.38902864114E+02  0.40978921570E+02  0.00000000000E+00 0. -1.
</event>
<event>
 8    1  0.1278459E-006  0.9118800E+02  0.7816164E-02  0.1184000E+00
        -11   -1    0    0    0    0  0.00000000000E+00  0.00000000000E+00  0.45593999997E+02  0.45594000000E+02  0.51100000000E-03 0. -1.
         11   -1    0    0    0    0 -0.00000000000E+00 -0.00000000000E+00 -0.45593999997E+02  0.45594000000E+02  0.51100000000E-03 0.  1.
         23    2    1    2    0    0  0.00000000000E+00  0.00000000000E+00  0.00000000000E+00  0.91188000000E+02  0.91188000000E+02 0.  0.
    9900012    2    3    3    0    0  0.27476867622E+02  0.23515126566E+02 -0.69165937597E+01  0.54367099672E+02  0.40000035322E+02 0.  0.
         12    1    3    3    0    0 -0.27476867622E+02 -0.23515126566E+02  0.69165937597E+01  0.36820900328E+02  0.00000000000E+00 0. -1.
         11    1    4    4    0    0 -0.73998822096E+01  0.73044142447E+01 -0.16782655871E+01  0.10532297936E+02  0.51100000000E-03 0. -1.
        -11    1    4    4    0    0  0.33707879418E+02  0.18800617662E+02 -0.84867876254E+00  0.38605758835E+02  0.51100000000E-03 0.  1.
         12    1    4    4    0    0  0.11688704135E+01 -0.25899053402E+01 -0.43896494100E+01  0.52290429007E+01  0.00000000000E+00 0. -1.
</event>
<event>
 8    1  0.1278459E-006  0.9118800E+02  0.7816164E-02  0.1184000E+00
        -11   -1    0    0    0    0  0.00000000000E+00  0.00000000000E+00  0.45593999997E+02  0.45594000000E+02  0.51100000000E-03 0. -1.
         11   -1    0    0    0    0 -0.00000000000E+00 -0.00000000000E+00 -0.45593999997E+02  0.45594000000E+02  0.51100000000E-03 0.  1.
         23    2    1    2    0    0  0.88817841970E-15  0.35527136788E-14  0.00000000000E+00  0.91188000000E+02  0.91188000000E+02 0.  0.
    9900012    2    3    3    0    0  0.72517239745E+01  0.27528221945E+02 -0.23353593947E+02  0.54367070432E+02  0.39999968663E+02 0.  0.
         12    1    3    3    0    0 -0.72517239745E+01 -0.27528221945E+02  0.23353593947E+02  0.36820929568E+02  0.00000000000E+00 0. -1.
         11    1    4    4    0    0  0.49147094402E+01 -0.43837688470E+01 -0.13944474525E+02  0.15421419137E+02  0.51100000000E-03 0. -1.
        -11    1    4    4    0    0  0.26938055413E+01  0.24074357047E+02 -0.15718763041E+02  0.28877513177E+02  0.51100000000E-03 0.  1.
        -12    1    4    4    0    0 -0.35679100700E+00  0.78376337449E+01  0.63096436189E+01  0.10068138117E+02  0.00000000000E+00 0.  1.
</event>
<event>
 8    1  0.1278459E-006  0.9118800E+02  0.7816164E-02  0.1184000E+00
        -11   -1    0    0    0    0  0.00000000000E+00  0.00000000000E+00  0.45593999997E+02  0.45594000000E+02  0.51100000000E-03 0. -1.
         11   -1    0    0    0    0 -0.00000000000E+00 -0.00000000000E+00 -0.45593999997E+02  0.45594000000E+02  0.51100000000E-03 0.  1.
         23    2    1    2    0    0  0.00000000000E+00 -0.35527136788E-14  0.35527136788E-14  0.91188000000E+02  0.91188000000E+02 0.  0.
    9900012    2    3    3    0    0  0.18814606324E+02  0.20828228558E+02  0.23832242181E+02  0.54367078184E+02  0.39999986337E+02 0.  0.
        -12    1    3    3    0    0 -0.18814606324E+02 -0.20828228558E+02 -0.23832242181E+02  0.36820921816E+02  0.00000000000E+00 0.  1.
         11    1    4    4    0    0 -0.22809634879E+01 -0.53564512485E+00  0.12269470285E+01  0.26448269140E+01  0.51100000000E-03 0. -1.
        -11    1    4    4    0    0  0.99079752668E+01  0.65612880393E+01 -0.91129587884E+01  0.14975463023E+02  0.51100000000E-03 0.  1.
         12    1    4    4    0    0  0.11187594545E+02  0.14802585644E+02  0.31718253941E+02  0.36746788247E+02  0.00000000000E+00 0. -1.
</event>
<event>
 8    1  0.1278459E-006  0.9118800E+02  0.7816164E-02  0.1184000E+00
        -11   -1    0    0    0    0  0.00000000000E+00  0.00000000000E+00  0.45593999997E+02  0.45594000000E+02  0.51100000000E-03 0. -1.
         11   -1    0    0    0    0 -0.00000000000E+00 -0.00000000000E+00 -0.45593999997E+02  0.45594000000E+02  0.51100000000E-03 0.  1.
         23    2    1    2    0    0  0.00000000000E+00 -0.88817841970E-15  0.00000000000E+00  0.91188000000E+02  0.91188000000E+02 0.  0.
    9900012    2    3    3    0    0 -0.16099093426E+02 -0.61305136966E+01  0.32542518725E+02  0.54367088383E+02  0.40000009587E+02 0.  0.
        -12    1    3    3    0    0  0.16099093426E+02  0.61305136966E+01 -0.32542518725E+02  0.36820911617E+02  0.00000000000E+00 0.  1.
         11    1    4    4    0    0  0.35245711380E+01 -0.13320020211E+02  0.33160721878E+01  0.14171869148E+02  0.51100000000E-03 0. -1.
        -11    1    4    4    0    0  0.23776913816E+01  0.22280666162E+01  0.10135074410E+02  0.10646005387E+02  0.51100000000E-03 0.  1.
         12    1    4    4    0    0 -0.22001355946E+02  0.49614398984E+01  0.19091372128E+02  0.29549213848E+02  0.00000000000E+00 0. -1.
</event>
<event>
 8    1  0.1278459E-006  0.9118800E+02  0.7816164E-02  0.1184000E+00
        -11   -1    0    0    0    0  0.00000000000E+00  0.00000000000E+00  0.45593999997E+02  0.45594000000E+02  0.51100000000E-03 0.  1.
         11   -1    0    0    0    0 -0.00000000000E+00 -0.00000000000E+00 -0.45593999997E+02  0.45594000000E+02  0.51100000000E-03 0. -1.
         23    2    1    2    0    0  0.00000000000E+00  0.00000000000E+00  0.44408920985E-15  0.91188000000E+02  0.91188000000E+02 0.  0.
    9900012    2    3    3    0    0  0.34140173522E+02  0.13348472243E+02  0.34706738025E+01  0.54367099196E+02  0.40000034238E+02 0.  0.
        -12    1    3    3    0    0 -0.34140173522E+02 -0.13348472243E+02 -0.34706738025E+01  0.36820900804E+02  0.00000000000E+00 0.  1.
         11    1    4    4    0    0  0.49989398343E+00 -0.13136606445E+01 -0.23666094114E+01  0.27525331335E+01  0.51100000000E-03 0. -1.
        -11    1    4    4    0    0  0.21796624620E+01  0.14749925365E+02 -0.83654138344E+01  0.17096531099E+02  0.51100000000E-03 0.  1.
        -12    1    4    4    0    0  0.31460617077E+02 -0.87792477352E-01  0.14202697048E+02  0.34518034964E+02  0.00000000000E+00 0.  1.
</event>
<event>
 8    1  0.1278459E-006  0.9118800E+02  0.7816164E-02  0.1184000E+00
        -11   -1    0    0    0    0  0.00000000000E+00  0.00000000000E+00  0.45593999997E+02  0.45594000000E+02  0.51100000000E-03 0.  1.
         11   -1    0    0    0    0 -0.00000000000E+00 -0.00000000000E+00 -0.45593999997E+02  0.45594000000E+02  0.51100000000E-03 0. -1.
         23    2    1    2    0    0  0.00000000000E+00  0.00000000000E+00  0.00000000000E+00  0.91188000000E+02  0.91188000000E+02 0.  0.
    9900012    2    3    3    0    0 -0.30458300345E+02 -0.16555184136E+02  0.12409581060E+02  0.54367083610E+02  0.39999998706E+02 0.  0.
         12    1    3    3    0    0  0.30458300345E+02  0.16555184136E+02 -0.12409581060E+02  0.36820916390E+02  0.00000000000E+00 0. -1.
         11    1    4    4    0    0 -0.11026955846E+02 -0.12771158272E+01 -0.33655735692E+00  0.11105766573E+02  0.51100000000E-03 0. -1.
        -11    1    4    4    0    0 -0.28101939458E+02 -0.62451322871E+01  0.80894842949E+01  0.29902515530E+02  0.51100000000E-03 0.  1.
        -12    1    4    4    0    0  0.86705949586E+01 -0.90329360213E+01  0.46566541217E+01  0.13358801507E+02  0.00000000000E+00 0.  1.
</event>
<event>
 8    1  0.1278459E-006  0.9118800E+02  0.7816164E-02  0.1184000E+00
        -11   -1    0    0    0    0  0.00000000000E+00  0.00000000000E+00  0.45593999997E+02  0.45594000000E+02  0.51100000000E-03 0.  1.
         11   -1    0    0    0    0 -0.00000000000E+00 -0.00000000000E+00 -0.45593999997E+02  0.45594000000E+02  0.51100000000E-03 0. -1.
         23    2    1    2    0    0  0.35527136788E-14  0.00000000000E+00  0.00000000000E+00  0.91188000000E+02  0.91188000000E+02 0.  0.
    9900012    2    3    3    0    0  0.23026041550E+02  0.23761045085E+02 -0.16155226786E+02  0.54367119979E+02  0.40000081617E+02 0.  0.
         12    1    3    3    0    0 -0.23026041550E+02 -0.23761045085E+02  0.16155226786E+02  0.36820880021E+02  0.00000000000E+00 0. -1.
         11    1    4    4    0    0  0.43379619025E+01 -0.62113456141E-01 -0.13688987656E+02  0.14360019320E+02  0.51100000000E-03 0. -1.
        -11    1    4    4    0    0  0.24972155318E+02  0.20443620412E+02  0.50745672209E+00  0.32277045549E+02  0.51100000000E-03 0.  1.
         12    1    4    4    0    0 -0.62840756706E+01  0.33795381286E+01 -0.29736958523E+01  0.77300551109E+01  0.00000000000E+00 0. -1.
</event>
<event>
 8    1  0.1278459E-006  0.9118800E+02  0.7816164E-02  0.1184000E+00
        -11   -1    0    0    0    0  0.00000000000E+00  0.00000000000E+00  0.45593999997E+02  0.45594000000E+02  0.51100000000E-03 0. -1.
         11   -1    0    0    0    0 -0.00000000000E+00 -0.00000000000E+00 -0.45593999997E+02  0.45594000000E+02  0.51100000000E-03 0.  1.
         23    2    1    2    0    0 -0.66613381478E-15 -0.17763568394E-14  0.00000000000E+00  0.91188000000E+02  0.91188000000E+02 0.  0.
    9900012    2    3    3    0    0  0.12405309511E+01  0.12680080126E+02 -0.34546445603E+02  0.54367078599E+02  0.39999987281E+02 0.  0.
         12    1    3    3    0    0 -0.12405309511E+01 -0.12680080126E+02  0.34546445603E+02  0.36820921401E+02  0.00000000000E+00 0. -1.
         11    1    4    4    0    0  0.51589877000E+01  0.81735927536E+01 -0.28870515669E+02  0.30445516055E+02  0.51100000000E-03 0. -1.
        -11    1    4    4    0    0 -0.64254392994E+01 -0.20057868202E+01 -0.12477288832E+02  0.14177171361E+02  0.51100000000E-03 0.  1.
        -12    1    4    4    0    0  0.25069825505E+01  0.65122741929E+01  0.68013588973E+01  0.97443911827E+01  0.00000000000E+00 0.  1.
</event>
<event>
 8    1  0.1278459E-006  0.9118800E+02  0.7816164E-02  0.1184000E+00
        -11   -1    0    0    0    0  0.00000000000E+00  0.00000000000E+00  0.45593999997E+02  0.45594000000E+02  0.51100000000E-03 0.  1.
         11   -1    0    0    0    0 -0.00000000000E+00 -0.00000000000E+00 -0.45593999997E+02  0.45594000000E+02  0.51100000000E-03 0. -1.
         23    2    1    2    0    0  0.17763568394E-14  0.00000000000E+00 -0.35527136788E-14  0.91188000000E+02  0.91188000000E+02 0.  0.
    9900012    2    3    3    0    0 -0.13931105467E+02 -0.18990468793E+02  0.28303110127E+02  0.54367086820E+02  0.40000006024E+02 0.  0.
         12    1    3    3    0    0  0.13931105467E+02  0.18990468793E+02 -0.28303110127E+02  0.36820913180E+02  0.00000000000E+00 0. -1.
         11    1    4    4    0    0 -0.48707418597E+00 -0.87857481261E+01  0.15772118283E+01  0.89394747503E+01  0.51100000000E-03 0. -1.
        -11    1    4    4    0    0 -0.14793477836E+01 -0.93092626192E+01  0.31222647643E+02  0.32614483998E+02  0.51100000000E-03 0.  1.
         12    1    4    4    0    0 -0.11964683498E+02 -0.89545804803E+00 -0.44967493440E+01  0.12813128072E+02  0.00000000000E+00 0. -1.
</event>
<event>
 8    1  0.1278459E-006  0.9118800E+02  0.7816164E-02  0.1184000E+00
        -11   -1    0    0    0    0  0.00000000000E+00  0.00000000000E+00  0.45593999997E+02  0.45594000000E+02  0.51100000000E-03 0. -1.
         11   -1    0    0    0    0 -0.00000000000E+00 -0.00000000000E+00 -0.45593999997E+02  0.45594000000E+02  0.51100000000E-03 0.  1.
         23    2    1    2    0    0  0.00000000000E+00  0.15543122345E-14  0.35527136788E-14  0.91188000000E+02  0.91188000000E+02 0.  0.
    9900012    2    3    3    0    0 -0.26686901241E+02  0.19927318547E+01  0.25290638187E+02  0.54367108403E+02  0.40000055226E+02 0.  0.
        -12    1    3    3    0    0  0.26686901241E+02 -0.19927318547E+01 -0.25290638187E+02  0.36820891597E+02  0.00000000000E+00 0.  1.
         11    1    4    4    0    0  0.34694194961E+01 -0.31534582840E+01  0.67415072428E+01  0.82115218415E+01  0.51100000000E-03 0. -1.
        -11    1    4    4    0    0 -0.19098226940E+02 -0.84047795946E+01  0.28541921036E+00  0.20867775556E+02  0.51100000000E-03 0.  1.
        -12    1    4    4    0    0 -0.11058093797E+02  0.13550969733E+02  0.18263711734E+02  0.25287811005E+02  0.00000000000E+00 0.  1.
</event>
<event>
 8    1  0.1278459E-006  0.9118800E+02  0.7816164E-02  0.1184000E+00
        -11   -1    0    0    0    0  0.00000000000E+00  0.00000000000E+00  0.45593999997E+02  0.45594000000E+02  0.51100000000E-03 0.  1.
         11   -1    0    0    0    0 -0.00000000000E+00 -0.00000000000E+00 -0.45593999997E+02  0.45594000000E+02  0.51100000000E-03 0. -1.
         23    2    1    2    0    0  0.35527136788E-14  0.35527136788E-14 -0.17763568394E-14  0.91188000000E+02  0.91188000000E+02 0.  0.
    9900012    2    3    3    0    0  0.21753860867E+02 -0.27797605229E+02  0.10480618025E+02  0.54367072889E+02  0.39999974266E+02 0.  0.
         12    1    3    3    0    0 -0.21753860867E+02  0.27797605229E+02 -0.10480618025E+02  0.36820927111E+02  0.00000000000E+00 0. -1.
         11    1    4    4    0    0 -0.66238240954E+00  0.64999796925E+00 -0.62955181019E+01  0.63635521722E+01  0.51100000000E-03 0. -1.
        -11    1    4    4    0    0 -0.11626137165E+01  0.43622071954E+01  0.24419746109E+01  0.51326175126E+01  0.51100000000E-03 0.  1.
        -12    1    4    4    0    0  0.23578856993E+02 -0.32809810394E+02  0.14334161516E+02  0.42870903204E+02  0.00000000000E+00 0.  1.
</event>
<event>
 8    1  0.1278459E-006  0.9118800E+02  0.7816164E-02  0.1184000E+00
        -11   -1    0    0    0    0  0.00000000000E+00  0.00000000000E+00  0.45593999997E+02  0.45594000000E+02  0.51100000000E-03 0. -1.
         11   -1    0    0    0    0 -0.00000000000E+00 -0.00000000000E+00 -0.45593999997E+02  0.45594000000E+02  0.51100000000E-03 0.  1.
         23    2    1    2    0    0 -0.35527136788E-14  0.00000000000E+00  0.88817841970E-15  0.91188000000E+02  0.91188000000E+02 0.  0.
    9900012    2    3    3    0    0 -0.27797538465E+02 -0.23782017127E+02 -0.41823542076E+01  0.54367087870E+02  0.40000008418E+02 0.  0.
         12    1    3    3    0    0  0.27797538465E+02  0.23782017127E+02  0.41823542076E+01  0.36820912130E+02  0.00000000000E+00 0. -1.
         11    1    4    4    0    0 -0.96992022400E+01  0.26316873624E+01  0.50827820824E+01  0.11262103552E+02  0.51100000000E-03 0. -1.
        -11    1    4    4    0    0 -0.25745967964E+01 -0.26250752307E+02 -0.38132176174E+01  0.26650913196E+02  0.51100000000E-03 0.  1.
        -12    1    4    4    0    0 -0.15523739429E+02 -0.16295218257E+00 -0.54519186726E+01  0.16454071122E+02  0.00000000000E+00 0.  1.
</event>
<event>
 8    1  0.1278459E-006  0.9118800E+02  0.7816164E-02  0.1184000E+00
        -11   -1    0    0    0    0  0.00000000000E+00  0.00000000000E+00  0.45593999997E+02  0.45594000000E+02  0.51100000000E-03 0. -1.
         11   -1    0    0    0    0 -0.00000000000E+00 -0.00000000000E+00 -0.45593999997E+02  0.45594000000E+02  0.51100000000E-03 0.  1.
         23    2    1    2    0    0  0.17763568394E-14 -0.35527136788E-14  0.00000000000E+00  0.91188000000E+02  0.91188000000E+02 0.  0.
    9900012    2    3    3    0    0  0.92510141367E+01  0.14328227673E+02  0.32632793941E+02  0.54367100891E+02  0.40000038101E+02 0.  0.
        -12    1    3    3    0    0 -0.92510141367E+01 -0.14328227673E+02 -0.32632793941E+02  0.36820899109E+02  0.00000000000E+00 0.  1.
         11    1    4    4    0    0  0.60866378802E+01  0.41987903154E+01  0.70095602502E+01  0.10188765183E+02  0.51100000000E-03 0. -1.
        -11    1    4    4    0    0  0.11038669895E+02 -0.94986071196E+01  0.77955700352E+01  0.16518071397E+02  0.51100000000E-03 0.  1.
        -12    1    4    4    0    0 -0.78742936382E+01  0.19628044477E+02  0.17827663656E+02  0.27660264310E+02  0.00000000000E+00 0.  1.
</event>
<event>
 8    1  0.1278459E-006  0.9118800E+02  0.7816164E-02  0.1184000E+00
        -11   -1    0    0    0    0  0.00000000000E+00  0.00000000000E+00  0.45593999997E+02  0.45594000000E+02  0.51100000000E-03 0.  1.
         11   -1    0    0    0    0 -0.00000000000E+00 -0.00000000000E+00 -0.45593999997E+02  0.45594000000E+02  0.51100000000E-03 0. -1.
         23    2    1    2    0    0 -0.22204460493E-15  0.00000000000E+00  0.00000000000E+00  0.91188000000E+02  0.91188000000E+02 0.  0.
    9900012    2    3    3    0    0 -0.14580526209E+01 -0.26987431526E+02 -0.25006630317E+02  0.54367096459E+02  0.40000027997E+02 0.  0.
        -12    1    3    3    0    0  0.14580526209E+01  0.26987431526E+02  0.25006630317E+02  0.36820903541E+02  0.00000000000E+00 0.  1.
         11    1    4    4    0    0 -0.80514790484E+00 -0.23238093660E+02 -0.20362559488E+01  0.23341028226E+02  0.51100000000E-03 0. -1.
        -11    1    4    4    0    0  0.48894962026E+01  0.65301500013E+01 -0.49182510306E+01  0.95257139164E+01  0.51100000000E-03 0.  1.
         12    1    4    4    0    0 -0.55424009187E+01 -0.10279487867E+02 -0.18052123337E+02  0.21500354317E+02  0.00000000000E+00 0. -1.
</event>
<event>
 8    1  0.1278459E-006  0.9118800E+02  0.7816164E-02  0.1184000E+00
        -11   -1    0    0    0    0  0.00000000000E+00  0.00000000000E+00  0.45593999997E+02  0.45594000000E+02  0.51100000000E-03 0.  1.
         11   -1    0    0    0    0 -0.00000000000E+00 -0.00000000000E+00 -0.45593999997E+02  0.45594000000E+02  0.51100000000E-03 0. -1.
         23    2    1    2    0    0  0.00000000000E+00  0.00000000000E+00  0.35527136788E-14  0.91188000000E+02  0.91188000000E+02 0.  0.
    9900012    2    3    3    0    0 -0.11967545130E+02  0.16679755076E+02  0.30567033513E+02  0.54367083341E+02  0.39999998093E+02 0.  0.
         12    1    3    3    0    0  0.11967545130E+02 -0.16679755076E+02 -0.30567033513E+02  0.36820916659E+02  0.00000000000E+00 0. -1.
         11    1    4    4    0    0 -0.80759081016E+00 -0.83270363059E+01  0.85269672121E+01  0.11945748476E+02  0.51100000000E-03 0. -1.
        -11    1    4    4    0    0  0.30821518902E+01  0.99304466912E+01 -0.20873479742E+01  0.10605208795E+02  0.51100000000E-03 0.  1.
        -12    1    4    4    0    0 -0.14242106210E+02  0.15076344691E+02  0.24127414275E+02  0.31816126070E+02  0.00000000000E+00 0.  1.
</event>
<event>
 8    1  0.1278459E-006  0.9118800E+02  0.7816164E-02  0.1184000E+00
        -11   -1    0    0    0    0  0.00000000000E+00  0.00000000000E+00  0.45593999997E+02  0.45594000000E+02  0.51100000000E-03 0.  1.
         11   -1    0    0    0    0 -0.00000000000E+00 -0.00000000000E+00 -0.45593999997E+02  0.45594000000E+02  0.51100000000E-03 0. -1.
         23    2    1    2    0    0  0.00000000000E+00  0.00000000000E+00  0.00000000000E+00  0.91188000000E+02  0.91188000000E+02 0.  0.
    9900012    2    3    3    0    0  0.19512765511E+02 -0.56928130932E+01  0.30702162628E+02  0.54367096577E+02  0.40000028268E+02 0.  0.
         12    1    3    3    0    0 -0.19512765511E+02  0.56928130932E+01 -0.30702162628E+02  0.36820903423E+02  0.00000000000E+00 0. -1.
         11    1    4    4    0    0  0.67213537661E+01 -0.36518902061E+01 -0.65351938664E-02  0.76493752357E+01  0.51100000000E-03 0. -1.
        -11    1    4    4    0    0  0.14812531605E+02 -0.63660323699E+01  0.36087863427E+02  0.39525578398E+02  0.51100000000E-03 0.  1.
         12    1    4    4    0    0 -0.20211198605E+01  0.43251094828E+01 -0.53791656045E+01  0.71921429442E+01  0.00000000000E+00 0. -1.
</event>
<event>
 8    1  0.1278459E-006  0.9118800E+02  0.7816164E-02  0.1184000E+00
        -11   -1    0    0    0    0  0.00000000000E+00  0.00000000000E+00  0.45593999997E+02  0.45594000000E+02  0.51100000000E-03 0. -1.
         11   -1    0    0    0    0 -0.00000000000E+00 -0.00000000000E+00 -0.45593999997E+02  0.45594000000E+02  0.51100000000E-03 0.  1.
         23    2    1    2    0    0 -0.88817841970E-15 -0.35527136788E-14  0.00000000000E+00  0.91188000000E+02  0.91188000000E+02 0.  0.
    9900012    2    3    3    0    0  0.50642883552E+01 -0.26861232219E+02 -0.24669969135E+02  0.54367079452E+02  0.39999989227E+02 0.  0.
         12    1    3    3    0    0 -0.50642883552E+01  0.26861232219E+02  0.24669969135E+02  0.36820920548E+02  0.00000000000E+00 0. -1.
         11    1    4    4    0    0  0.13422023799E+02 -0.44749719214E+01  0.73646030527E+00  0.14167514623E+02  0.51100000000E-03 0. -1.
        -11    1    4    4    0    0 -0.62023579023E+01  0.17464894591E+01 -0.84509057748E+01  0.10627195192E+02  0.51100000000E-03 0.  1.
         12    1    4    4    0    0 -0.21553775411E+01 -0.24132749757E+02 -0.16955523665E+02  0.29572369637E+02  0.00000000000E+00 0. -1.
</event>
<event>
 8    1  0.1278459E-006  0.9118800E+02  0.7816164E-02  0.1184000E+00
        -11   -1    0    0    0    0  0.00000000000E+00  0.00000000000E+00  0.45593999997E+02  0.45594000000E+02  0.51100000000E-03 0. -1.
         11   -1    0    0    0    0 -0.00000000000E+00 -0.00000000000E+00 -0.45593999997E+02  0.45594000000E+02  0.51100000000E-03 0.  1.
         23    2    1    2    0    0  0.00000000000E+00  0.17763568394E-14  0.17763568394E-14  0.91188000000E+02  0.91188000000E+02 0.  0.
    9900012    2    3    3    0    0  0.33817818636E+02 -0.41330848131E+01 -0.13966148174E+02  0.54367074670E+02  0.39999978325E+02 0.  0.
        -12    1    3    3    0    0 -0.33817818636E+02  0.41330848131E+01  0.13966148174E+02  0.36820925330E+02  0.00000000000E+00 0.  1.
         11    1    4    4    0    0  0.21418232247E+02  0.11388601295E+01  0.37445133320E+01  0.21772897265E+02  0.51100000000E-03 0. -1.
        -11    1    4    4    0    0  0.65999388703E+01 -0.13682963205E+02 -0.44025599336E+01  0.15816611818E+02  0.51100000000E-03 0.  1.
        -12    1    4    4    0    0  0.57996475184E+01  0.84110182625E+01 -0.13308101573E+02  0.16777565587E+02  0.00000000000E+00 0.  1.
</event>
<event>
 8    1  0.1278459E-006  0.9118800E+02  0.7816164E-02  0.1184000E+00
        -11   -1    0    0    0    0  0.00000000000E+00  0.00000000000E+00  0.45593999997E+02  0.45594000000E+02  0.51100000000E-03 0.  1.
         11   -1    0    0    0    0 -0.00000000000E+00 -0.00000000000E+00 -0.45593999997E+02  0.45594000000E+02  0.51100000000E-03 0. -1.
         23    2    1    2    0    0  0.00000000000E+00  0.00000000000E+00  0.35527136788E-14  0.91188000000E+02  0.91188000000E+02 0.  0.
    9900012    2    3    3    0    0 -0.27227517372E+02 -0.19221552223E+02  0.15651635528E+02  0.54367089272E+02  0.40000011614E+02 0.  0.
         12    1    3    3    0    0  0.27227517372E+02  0.19221552223E+02 -0.15651635528E+02  0.36820910728E+02  0.00000000000E+00 0. -1.
         11    1    4    4    0    0 -0.17946153820E+01  0.87558376385E+01 -0.98462589540E+00  0.89919311350E+01  0.51100000000E-03 0. -1.
        -11    1    4    4    0    0 -0.91014972321E+01 -0.29388705917E+01 -0.24941838926E+01  0.98840864915E+01  0.51100000000E-03 0.  1.
        -12    1    4    4    0    0 -0.16331404758E+02 -0.25038519270E+02  0.19130445316E+02  0.35491071646E+02  0.00000000000E+00 0.  1.
</event>
<event>
 8    1  0.1278459E-006  0.9118800E+02  0.7816164E-02  0.1184000E+00
        -11   -1    0    0    0    0  0.00000000000E+00  0.00000000000E+00  0.45593999997E+02  0.45594000000E+02  0.51100000000E-03 0.  1.
         11   -1    0    0    0    0 -0.00000000000E+00 -0.00000000000E+00 -0.45593999997E+02  0.45594000000E+02  0.51100000000E-03 0. -1.
         23    2    1    2    0    0  0.00000000000E+00  0.00000000000E+00  0.00000000000E+00  0.91188000000E+02  0.91188000000E+02 0.  0.
    9900012    2    3    3    0    0  0.22369017104E+02 -0.22310198708E+02  0.18911988580E+02  0.54367065674E+02  0.39999957817E+02 0.  0.
         12    1    3    3    0    0 -0.22369017104E+02  0.22310198708E+02 -0.18911988580E+02  0.36820934326E+02  0.00000000000E+00 0. -1.
         11    1    4    4    0    0  0.10948606549E+02 -0.96022203429E+01  0.21159545199E+02  0.25686591330E+02  0.51100000000E-03 0. -1.
        -11    1    4    4    0    0 -0.66086286231E+01 -0.64963206731E+01 -0.25413905875E+01  0.96091009437E+01  0.51100000000E-03 0.  1.
         12    1    4    4    0    0  0.18029039178E+02 -0.62116576924E+01  0.29383396876E+00  0.19071373400E+02  0.00000000000E+00 0. -1.
</event>
<event>
 8    1  0.1278459E-006  0.9118800E+02  0.7816164E-02  0.1184000E+00
        -11   -1    0    0    0    0  0.00000000000E+00  0.00000000000E+00  0.45593999997E+02  0.45594000000E+02  0.51100000000E-03 0. -1.
         11   -1    0    0    0    0 -0.00000000000E+00 -0.00000000000E+00 -0.45593999997E+02  0.45594000000E+02  0.51100000000E-03 0.  1.
         23    2    1    2    0    0  0.00000000000E+00  0.17763568394E-14 -0.35527136788E-14  0.91188000000E+02  0.91188000000E+02 0.  0.
    9900012    2    3    3    0    0  0.29373781464E+02 -0.13930735342E+02  0.17288551770E+02  0.54367103121E+02  0.40000043185E+02 0.  0.
        -12    1    3    3    0    0 -0.29373781464E+02  0.13930735342E+02 -0.17288551770E+02  0.36820896879E+02  0.00000000000E+00 0.  1.
         11    1    4    4    0    0  0.12069422879E+02  0.10776656333E+02  0.65272371645E+01  0.17447409998E+02  0.51100000000E-03 0. -1.
        -11    1    4    4    0    0  0.58943297003E+01 -0.79616352639E+00 -0.34282144348E+01  0.68651040377E+01  0.51100000000E-03 0.  1.
         12    1    4    4    0    0  0.11410028884E+02 -0.23911228149E+02  0.14189529041E+02  0.30054589086E+02  0.00000000000E+00 0. -1.
</event>
<event>
 8    1  0.1278459E-006  0.9118800E+02  0.7816164E-02  0.1184000E+00
        -11   -1    0    0    0    0  0.00000000000E+00  0.00000000000E+00  0.45593999997E+02  0.45594000000E+02  0.51100000000E-03 0.  1.
         11   -1    0    0    0    0 -0.00000000000E+00 -0.00000000000E+00 -0.45593999997E+02  0.45594000000E+02  0.51100000000E-03 0. -1.
         23    2    1    2    0    0  0.71054273576E-14  0.17763568394E-14  0.17763568394E-14  0.91188000000E+02  0.91188000000E+02 0.  0.
    9900012    2    3    3    0    0  0.33001340804E+02  0.14538899551E+02  0.74372117345E+01  0.54367079134E+02  0.39999988502E+02 0.  0.
         12    1    3    3    0    0 -0.33001340804E+02 -0.14538899551E+02 -0.74372117345E+01  0.36820920866E+02  0.00000000000E+00 0. -1.
         11    1    4    4    0    0  0.15865375335E+02  0.89918461083E+01 -0.61170311394E+01  0.19234903201E+02  0.51100000000E-03 0. -1.
        -11    1    4    4    0    0  0.64172532024E+01 -0.33836994465E+01 -0.71369206755E+01  0.10176747889E+02  0.51100000000E-03 0.  1.
        -12    1    4    4    0    0  0.10718712267E+02  0.89307528890E+01  0.20691163549E+02  0.24955428044E+02  0.00000000000E+00 0.  1.
</event>
<event>
 8    1  0.1278459E-006  0.9118800E+02  0.7816164E-02  0.1184000E+00
        -11   -1    0    0    0    0  0.00000000000E+00  0.00000000000E+00  0.45593999997E+02  0.45594000000E+02  0.51100000000E-03 0. -1.
         11   -1    0    0    0    0 -0.00000000000E+00 -0.00000000000E+00 -0.45593999997E+02  0.45594000000E+02  0.51100000000E-03 0.  1.
         23    2    1    2    0    0  0.17763568394E-14  0.00000000000E+00  0.00000000000E+00  0.91188000000E+02  0.91188000000E+02 0.  0.
    9900012    2    3    3    0    0 -0.15821454454E+02 -0.33099659369E+01  0.33083189145E+02  0.54367194746E+02  0.40000252063E+02 0.  0.
        -12    1    3    3    0    0  0.15821454454E+02  0.33099659369E+01 -0.33083189145E+02  0.36820805254E+02  0.00000000000E+00 0.  1.
         11    1    4    4    0    0 -0.10362937986E+02 -0.47973320949E+01  0.37001961693E+01  0.12004013116E+02  0.51100000000E-03 0. -1.
        -11    1    4    4    0    0 -0.12745707717E+02  0.10272641156E+02  0.25508191047E+02  0.30309207054E+02  0.51100000000E-03 0.  1.
         12    1    4    4    0    0  0.72871912495E+01 -0.87852749978E+01  0.38748019286E+01  0.12053974576E+02  0.00000000000E+00 0. -1.
</event>
<event>
 8    1  0.1278459E-006  0.9118800E+02  0.7816164E-02  0.1184000E+00
        -11   -1    0    0    0    0  0.00000000000E+00  0.00000000000E+00  0.45593999997E+02  0.45594000000E+02  0.51100000000E-03 0.  1.
         11   -1    0    0    0    0 -0.00000000000E+00 -0.00000000000E+00 -0.45593999997E+02  0.45594000000E+02  0.51100000000E-03 0. -1.
         23    2    1    2    0    0 -0.17763568394E-14  0.35527136788E-14  0.00000000000E+00  0.91188000000E+02  0.91188000000E+02 0.  0.
    9900012    2    3    3    0    0 -0.10929556615E+02 -0.26365958706E+02  0.23262868798E+02  0.54367081340E+02  0.39999993530E+02 0.  0.
         12    1    3    3    0    0  0.10929556615E+02  0.26365958706E+02 -0.23262868798E+02  0.36820918660E+02  0.00000000000E+00 0. -1.
         11    1    4    4    0    0 -0.79139472057E+01 -0.65691013460E+01 -0.74183771540E+00  0.10311836710E+02  0.51100000000E-03 0. -1.
        -11    1    4    4    0    0 -0.12806105798E+01  0.80674641125E+01  0.97140501436E+01  0.12691993977E+02  0.51100000000E-03 0.  1.
        -12    1    4    4    0    0 -0.17349988292E+01 -0.27864321472E+02  0.14290656370E+02  0.31363250653E+02  0.00000000000E+00 0.  1.
</event>
<event>
 8    1  0.1278459E-006  0.9118800E+02  0.7816164E-02  0.1184000E+00
        -11   -1    0    0    0    0  0.00000000000E+00  0.00000000000E+00  0.45593999997E+02  0.45594000000E+02  0.51100000000E-03 0.  1.
         11   -1    0    0    0    0 -0.00000000000E+00 -0.00000000000E+00 -0.45593999997E+02  0.45594000000E+02  0.51100000000E-03 0. -1.
         23    2    1    2    0    0  0.17763568394E-14  0.35527136788E-14  0.00000000000E+00  0.91188000000E+02  0.91188000000E+02 0.  0.
    9900012    2    3    3    0    0 -0.15738763501E+02 -0.20414979500E+02 -0.26292815033E+02  0.54366916544E+02  0.39999617844E+02 0.  0.
        -12    1    3    3    0    0  0.15738763501E+02  0.20414979500E+02  0.26292815033E+02  0.36821083456E+02  0.00000000000E+00 0.  1.
         11    1    4    4    0    0  0.88569369644E+01  0.16133681656E+01 -0.84942297577E+01  0.12377407995E+02  0.51100000000E-03 0. -1.
        -11    1    4    4    0    0 -0.15177120121E+02 -0.17297263090E+02 -0.21359502741E+01  0.23110659217E+02  0.51100000000E-03 0.  1.
         12    1    4    4    0    0 -0.94185803447E+01 -0.47310845747E+01 -0.15662635001E+02  0.18878849333E+02  0.00000000000E+00 0. -1.
</event>
<event>
 8    1  0.1278459E-006  0.9118800E+02  0.7816164E-02  0.1184000E+00
        -11   -1    0    0    0    0  0.00000000000E+00  0.00000000000E+00  0.45593999997E+02  0.45594000000E+02  0.51100000000E-03 0.  1.
         11   -1    0    0    0    0 -0.00000000000E+00 -0.00000000000E+00 -0.45593999997E+02  0.45594000000E+02  0.51100000000E-03 0. -1.
         23    2    1    2    0    0  0.00000000000E+00  0.00000000000E+00  0.00000000000E+00  0.91188000000E+02  0.91188000000E+02 0.  0.
    9900012    2    3    3    0    0 -0.17671546226E+02 -0.44791268934E+01 -0.31991154093E+02  0.54367081163E+02  0.39999993128E+02 0.  0.
        -12    1    3    3    0    0  0.17671546226E+02  0.44791268934E+01  0.31991154093E+02  0.36820918837E+02  0.00000000000E+00 0.  1.
         11    1    4    4    0    0 -0.94608449521E+01  0.20123088133E+00  0.56196898527E+00  0.94796566645E+01  0.51100000000E-03 0.  1.
        -11    1    4    4    0    0 -0.15352537758E+02 -0.11617394390E+02 -0.27898592174E+02  0.33896839286E+02  0.51100000000E-03 0. -1.
         12    1    4    4    0    0  0.71418364840E+01  0.69370366158E+01 -0.46545309042E+01  0.10990585212E+02  0.00000000000E+00 0. -1.
</event>
<event>
 8    1  0.1278459E-006  0.9118800E+02  0.7816164E-02  0.1184000E+00
        -11   -1    0    0    0    0  0.00000000000E+00  0.00000000000E+00  0.45593999997E+02  0.45594000000E+02  0.51100000000E-03 0.  1.
         11   -1    0    0    0    0 -0.00000000000E+00 -0.00000000000E+00 -0.45593999997E+02  0.45594000000E+02  0.51100000000E-03 0. -1.
         23    2    1    2    0    0  0.00000000000E+00 -0.13322676296E-14  0.00000000000E+00  0.91188000000E+02  0.91188000000E+02 0.  0.
    9900012    2    3    3    0    0  0.11331640888E+02 -0.17319996553E+01  0.34991057825E+02  0.54367081547E+02  0.39999994002E+02 0.  0.
         12    1    3    3    0    0 -0.11331640888E+02  0.17319996553E+01 -0.34991057825E+02  0.36820918453E+02  0.00000000000E+00 0. -1.
         11    1    4    4    0    0  0.21508914632E+01  0.13343542525E+02  0.18004614874E+02  0.22513165442E+02  0.51100000000E-03 0. -1.
        -11    1    4    4    0    0  0.70991545052E+01 -0.16627910791E+01  0.16761543126E+02  0.18278736200E+02  0.51100000000E-03 0.  1.
         12    1    4    4    0    0  0.20815949198E+01 -0.13412751101E+02  0.22489982548E+00  0.13575179904E+02  0.00000000000E+00 0. -1.
</event>
<event>
 8    1  0.1278459E-006  0.9118800E+02  0.7816164E-02  0.1184000E+00
        -11   -1    0    0    0    0  0.00000000000E+00  0.00000000000E+00  0.45593999997E+02  0.45594000000E+02  0.51100000000E-03 0. -1.
         11   -1    0    0    0    0 -0.00000000000E+00 -0.00000000000E+00 -0.45593999997E+02  0.45594000000E+02  0.51100000000E-03 0.  1.
         23    2    1    2    0    0  0.17763568394E-14  0.17763568394E-14  0.00000000000E+00  0.91188000000E+02  0.91188000000E+02 0.  0.
    9900012    2    3    3    0    0  0.99673096818E+01  0.12417436946E+02  0.33199992050E+02  0.54367089165E+02  0.40000011369E+02 0.  0.
        -12    1    3    3    0    0 -0.99673096818E+01 -0.12417436946E+02 -0.33199992050E+02  0.36820910835E+02  0.00000000000E+00 0.  1.
         11    1    4    4    0    0  0.95087101200E+01  0.20660278396E+02  0.34402443458E+02  0.41240644850E+02  0.51100000000E-03 0. -1.
        -11    1    4    4    0    0 -0.26847357253E+01  0.12630696404E+01  0.37566447624E+00  0.29906980608E+01  0.51100000000E-03 0.  1.
        -12    1    4    4    0    0  0.31433352871E+01 -0.95059110897E+01 -0.15781158838E+01  0.10135746254E+02  0.00000000000E+00 0.  1.
</event>
<event>
 8    1  0.1278459E-006  0.9118800E+02  0.7816164E-02  0.1184000E+00
        -11   -1    0    0    0    0  0.00000000000E+00  0.00000000000E+00  0.45593999997E+02  0.45594000000E+02  0.51100000000E-03 0. -1.
         11   -1    0    0    0    0 -0.00000000000E+00 -0.00000000000E+00 -0.45593999997E+02  0.45594000000E+02  0.51100000000E-03 0.  1.
         23    2    1    2    0    0  0.17763568394E-14  0.00000000000E+00  0.00000000000E+00  0.91188000000E+02  0.91188000000E+02 0.  0.
    9900012    2    3    3    0    0  0.60474061441E+01  0.18345578566E+02 -0.31347218296E+02  0.54367089244E+02  0.40000011550E+02 0.  0.
         12    1    3    3    0    0 -0.60474061441E+01 -0.18345578566E+02  0.31347218296E+02  0.36820910756E+02  0.00000000000E+00 0. -1.
         11    1    4    4    0    0  0.12625609468E+02  0.17309778098E+01 -0.11623146122E+02  0.17248183228E+02  0.51100000000E-03 0. -1.
        -11    1    4    4    0    0  0.41201565556E+01  0.17849473765E+02 -0.52091077623E+01  0.19045057303E+02  0.51100000000E-03 0.  1.
        -12    1    4    4    0    0 -0.10698359879E+02 -0.12348730085E+01 -0.14514964411E+02  0.18073848713E+02  0.00000000000E+00 0.  1.
</event>
<event>
 8    1  0.1278459E-006  0.9118800E+02  0.7816164E-02  0.1184000E+00
        -11   -1    0    0    0    0  0.00000000000E+00  0.00000000000E+00  0.45593999997E+02  0.45594000000E+02  0.51100000000E-03 0. -1.
         11   -1    0    0    0    0 -0.00000000000E+00 -0.00000000000E+00 -0.45593999997E+02  0.45594000000E+02  0.51100000000E-03 0.  1.
         23    2    1    2    0    0  0.00000000000E+00  0.00000000000E+00  0.35527136788E-14  0.91188000000E+02  0.91188000000E+02 0.  0.
    9900012    2    3    3    0    0  0.23140882710E+02 -0.23458494855E+02 -0.16431010784E+02  0.54367088159E+02  0.40000009075E+02 0.  0.
         12    1    3    3    0    0 -0.23140882710E+02  0.23458494855E+02  0.16431010784E+02  0.36820911841E+02  0.00000000000E+00 0. -1.
         11    1    4    4    0    0  0.83385652677E+01 -0.40842225785E+01 -0.24048600140E+01  0.95914491471E+01  0.51100000000E-03 0. -1.
        -11    1    4    4    0    0  0.14583116826E+02 -0.25638743853E+01 -0.21720043726E+02  0.26286898789E+02  0.51100000000E-03 0.  1.
        -12    1    4    4    0    0  0.21920061565E+00 -0.16810397891E+02  0.76938929563E+01  0.18488740222E+02  0.00000000000E+00 0.  1.
</event>
<event>
 8    1  0.1278459E-006  0.9118800E+02  0.7816164E-02  0.1184000E+00
        -11   -1    0    0    0    0  0.00000000000E+00  0.00000000000E+00  0.45593999997E+02  0.45594000000E+02  0.51100000000E-03 0.  1.
         11   -1    0    0    0    0 -0.00000000000E+00 -0.00000000000E+00 -0.45593999997E+02  0.45594000000E+02  0.51100000000E-03 0. -1.
         23    2    1    2    0    0 -0.44408920985E-15 -0.35527136788E-14  0.00000000000E+00  0.91188000000E+02  0.91188000000E+02 0.  0.
    9900012    2    3    3    0    0 -0.27558396737E+01 -0.30202147662E+02  0.20880966439E+02  0.54367093776E+02  0.40000021881E+02 0.  0.
         12    1    3    3    0    0  0.27558396737E+01  0.30202147662E+02 -0.20880966439E+02  0.36820906224E+02  0.00000000000E+00 0. -1.
         11    1    4    4    0    0 -0.66516727861E+00 -0.11449062393E+02 -0.78948203689E+01  0.13923062382E+02  0.51100000000E-03 0.  1.
        -11    1    4    4    0    0 -0.10324538402E+02 -0.56189874809E+01  0.68917695927E+01  0.13625916553E+02  0.51100000000E-03 0. -1.
        -12    1    4    4    0    0  0.82338660069E+01 -0.13134097789E+02  0.21884017215E+02  0.26818114841E+02  0.00000000000E+00 0.  1.
</event>
<event>
 8    1  0.1278459E-006  0.9118800E+02  0.7816164E-02  0.1184000E+00
        -11   -1    0    0    0    0  0.00000000000E+00  0.00000000000E+00  0.45593999997E+02  0.45594000000E+02  0.51100000000E-03 0.  1.
         11   -1    0    0    0    0 -0.00000000000E+00 -0.00000000000E+00 -0.45593999997E+02  0.45594000000E+02  0.51100000000E-03 0. -1.
         23    2    1    2    0    0  0.00000000000E+00  0.00000000000E+00  0.00000000000E+00  0.91188000000E+02  0.91188000000E+02 0.  0.
    9900012    2    3    3    0    0  0.20909461992E+02  0.23106216795E+02 -0.19613178714E+02  0.54367086993E+02  0.40000006418E+02 0.  0.
        -12    1    3    3    0    0 -0.20909461992E+02 -0.23106216795E+02  0.19613178714E+02  0.36820913007E+02  0.00000000000E+00 0.  1.
         11    1    4    4    0    0 -0.29187101521E+01 -0.21643014721E+01 -0.10872243604E+02  0.11463365608E+02  0.51100000000E-03 0. -1.
        -11    1    4    4    0    0  0.10383207959E+02  0.27891629617E+01 -0.12447454466E+02  0.16447782844E+02  0.51100000000E-03 0.  1.
        -12    1    4    4    0    0  0.13444964186E+02  0.22481355306E+02  0.37065193563E+01  0.26455938541E+02  0.00000000000E+00 0.  1.
</event>
<event>
 8    1  0.1278459E-006  0.9118800E+02  0.7816164E-02  0.1184000E+00
        -11   -1    0    0    0    0  0.00000000000E+00  0.00000000000E+00  0.45593999997E+02  0.45594000000E+02  0.51100000000E-03 0. -1.
         11   -1    0    0    0    0 -0.00000000000E+00 -0.00000000000E+00 -0.45593999997E+02  0.45594000000E+02  0.51100000000E-03 0.  1.
         23    2    1    2    0    0  0.00000000000E+00  0.00000000000E+00  0.00000000000E+00  0.91188000000E+02  0.91188000000E+02 0.  0.
    9900012    2    3    3    0    0 -0.25324555869E+02 -0.11936094616E+02  0.23916036544E+02  0.54367078113E+02  0.39999986173E+02 0.  0.
        -12    1    3    3    0    0  0.25324555869E+02  0.11936094616E+02 -0.23916036544E+02  0.36820921887E+02  0.00000000000E+00 0.  1.
         11    1    4    4    0    0 -0.59286877177E+01 -0.48596738379E+00  0.11912757945E+02  0.13315378496E+02  0.51100000000E-03 0. -1.
        -11    1    4    4    0    0 -0.12605992402E+01 -0.12499767110E+02 -0.73120999934E+01  0.14536165066E+02  0.51100000000E-03 0.  1.
        -12    1    4    4    0    0 -0.18135268911E+02  0.10496398778E+01  0.19315378592E+02  0.26515534551E+02  0.00000000000E+00 0.  1.
</event>
<event>
 8    1  0.1278459E-006  0.9118800E+02  0.7816164E-02  0.1184000E+00
        -11   -1    0    0    0    0  0.00000000000E+00  0.00000000000E+00  0.45593999997E+02  0.45594000000E+02  0.51100000000E-03 0.  1.
         11   -1    0    0    0    0 -0.00000000000E+00 -0.00000000000E+00 -0.45593999997E+02  0.45594000000E+02  0.51100000000E-03 0. -1.
         23    2    1    2    0    0  0.00000000000E+00 -0.35527136788E-14 -0.44408920985E-15  0.91188000000E+02  0.91188000000E+02 0.  0.
    9900012    2    3    3    0    0  0.26445209765E+02  0.25442945167E+02  0.30146002958E+01  0.54367076692E+02  0.39999982935E+02 0.  0.
         12    1    3    3    0    0 -0.26445209765E+02 -0.25442945167E+02 -0.30146002958E+01  0.36820923308E+02  0.00000000000E+00 0. -1.
         11    1    4    4    0    0  0.20414116272E+02 -0.55023800932E+00  0.13264010242E+01  0.20464560708E+02  0.51100000000E-03 0. -1.
        -11    1    4    4    0    0  0.11573425673E+02  0.67659934132E+01  0.33661823326E+01  0.13822229648E+02  0.51100000000E-03 0.  1.
         12    1    4    4    0    0 -0.55423321803E+01  0.19227189763E+02 -0.16779830610E+01  0.20080286336E+02  0.00000000000E+00 0. -1.
</event>
<event>
 8    1  0.1278459E-006  0.9118800E+02  0.7816164E-02  0.1184000E+00
        -11   -1    0    0    0    0  0.00000000000E+00  0.00000000000E+00  0.45593999997E+02  0.45594000000E+02  0.51100000000E-03 0.  1.
         11   -1    0    0    0    0 -0.00000000000E+00 -0.00000000000E+00 -0.45593999997E+02  0.45594000000E+02  0.51100000000E-03 0. -1.
         23    2    1    2    0    0  0.00000000000E+00  0.35527136788E-14  0.00000000000E+00  0.91188000000E+02  0.91188000000E+02 0.  0.
    9900012    2    3    3    0    0  0.24103517040E+02 -0.22088954679E+02  0.16937460447E+02  0.54367095354E+02  0.40000025479E+02 0.  0.
         12    1    3    3    0    0 -0.24103517040E+02  0.22088954679E+02 -0.16937460447E+02  0.36820904646E+02  0.00000000000E+00 0. -1.
         11    1    4    4    0    0  0.22759020193E+02 -0.16240488418E+01  0.13593523905E+02  0.26559262550E+02  0.51100000000E-03 0. -1.
        -11    1    4    4    0    0 -0.58601351591E+01 -0.58122184695E+01  0.72872117121E+01  0.11010291659E+02  0.51100000000E-03 0.  1.
         12    1    4    4    0    0  0.72046320058E+01 -0.14652687368E+02 -0.39432751700E+01  0.16797541145E+02  0.00000000000E+00 0. -1.
</event>
<event>
 8    1  0.1278459E-006  0.9118800E+02  0.7816164E-02  0.1184000E+00
        -11   -1    0    0    0    0  0.00000000000E+00  0.00000000000E+00  0.45593999997E+02  0.45594000000E+02  0.51100000000E-03 0. -1.
         11   -1    0    0    0    0 -0.00000000000E+00 -0.00000000000E+00 -0.45593999997E+02  0.45594000000E+02  0.51100000000E-03 0.  1.
         23    2    1    2    0    0  0.35527136788E-14  0.00000000000E+00 -0.35527136788E-14  0.91188000000E+02  0.91188000000E+02 0.  0.
    9900012    2    3    3    0    0  0.17423919214E+02  0.20001410824E+02 -0.25536870237E+02  0.54367066589E+02  0.39999959903E+02 0.  0.
         12    1    3    3    0    0 -0.17423919214E+02 -0.20001410824E+02  0.25536870237E+02  0.36820933411E+02  0.00000000000E+00 0. -1.
         11    1    4    4    0    0  0.10566064616E+02  0.51853465822E+01  0.36602996049E+01  0.12325880663E+02  0.51100000000E-03 0. -1.
        -11    1    4    4    0    0 -0.50988449211E+01 -0.14701448879E+01  0.12955133332E+01  0.54624079469E+01  0.51100000000E-03 0.  1.
        -12    1    4    4    0    0  0.11956699519E+02  0.16286209130E+02 -0.30492683175E+02  0.36578777979E+02  0.00000000000E+00 0.  1.
</event>
<event>
 8    1  0.1278459E-006  0.9118800E+02  0.7816164E-02  0.1184000E+00
        -11   -1    0    0    0    0  0.00000000000E+00  0.00000000000E+00  0.45593999997E+02  0.45594000000E+02  0.51100000000E-03 0.  1.
         11   -1    0    0    0    0 -0.00000000000E+00 -0.00000000000E+00 -0.45593999997E+02  0.45594000000E+02  0.51100000000E-03 0. -1.
         23    2    1    2    0    0  0.35527136788E-14  0.00000000000E+00  0.00000000000E+00  0.91188000000E+02  0.91188000000E+02 0.  0.
    9900012    2    3    3    0    0  0.16517665801E+02  0.23200589394E+02  0.23338379455E+02  0.54367074057E+02  0.39999976927E+02 0.  0.
         12    1    3    3    0    0 -0.16517665801E+02 -0.23200589394E+02 -0.23338379455E+02  0.36820925943E+02  0.00000000000E+00 0. -1.
         11    1    4    4    0    0  0.27076036047E+01  0.11904783848E+01 -0.71901929219E+01  0.77747817063E+01  0.51100000000E-03 0. -1.
        -11    1    4    4    0    0  0.20590201286E+02  0.16810249754E+02  0.21792101473E+02  0.34372031837E+02  0.51100000000E-03 0.  1.
        -12    1    4    4    0    0 -0.67801390893E+01  0.51998612554E+01  0.87364709044E+01  0.12220260513E+02  0.00000000000E+00 0.  1.
</event>
<event>
 8    1  0.1278459E-006  0.9118800E+02  0.7816164E-02  0.1184000E+00
        -11   -1    0    0    0    0  0.00000000000E+00  0.00000000000E+00  0.45593999997E+02  0.45594000000E+02  0.51100000000E-03 0.  1.
         11   -1    0    0    0    0 -0.00000000000E+00 -0.00000000000E+00 -0.45593999997E+02  0.45594000000E+02  0.51100000000E-03 0. -1.
         23    2    1    2    0    0  0.44408920985E-15  0.00000000000E+00 -0.35527136788E-14  0.91188000000E+02  0.91188000000E+02 0.  0.
    9900012    2    3    3    0    0 -0.68751042203E+00  0.31074399807E+02 -0.19740545976E+02  0.54367080004E+02  0.39999990485E+02 0.  0.
        -12    1    3    3    0    0  0.68751042203E+00 -0.31074399807E+02  0.19740545976E+02  0.36820919996E+02  0.00000000000E+00 0.  1.
         11    1    4    4    0    0 -0.54331534322E+01  0.28844403926E+02 -0.18914043848E+02  0.34917901555E+02  0.51100000000E-03 0. -1.
        -11    1    4    4    0    0  0.68564726761E+01  0.85236001367E+01  0.35470644348E+01  0.11499767094E+02  0.51100000000E-03 0.  1.
        -12    1    4    4    0    0 -0.21108296659E+01 -0.62936042558E+01 -0.43735665628E+01  0.79494113548E+01  0.00000000000E+00 0.  1.
</event>
<event>
 8    1  0.1278459E-006  0.9118800E+02  0.7816164E-02  0.1184000E+00
        -11   -1    0    0    0    0  0.00000000000E+00  0.00000000000E+00  0.45593999997E+02  0.45594000000E+02  0.51100000000E-03 0.  1.
         11   -1    0    0    0    0 -0.00000000000E+00 -0.00000000000E+00 -0.45593999997E+02  0.45594000000E+02  0.51100000000E-03 0. -1.
         23    2    1    2    0    0 -0.17763568394E-14  0.00000000000E+00  0.71054273576E-14  0.91188000000E+02  0.91188000000E+02 0.  0.
    9900012    2    3    3    0    0 -0.12362167395E+02  0.89165343862E+01 -0.33517926439E+02  0.54367093426E+02  0.40000021082E+02 0.  0.
        -12    1    3    3    0    0  0.12362167395E+02 -0.89165343862E+01  0.33517926439E+02  0.36820906574E+02  0.00000000000E+00 0.  1.
         11    1    4    4    0    0 -0.35278858490E+01 -0.60333018907E+01  0.63779468539E+01  0.94617607558E+01  0.51100000000E-03 0.  1.
        -11    1    4    4    0    0 -0.11363445538E+02  0.12282190387E+02 -0.34888482095E+02  0.38693491421E+02  0.51100000000E-03 0. -1.
         12    1    4    4    0    0  0.25291639914E+01  0.26676458897E+01 -0.50073911984E+01  0.62118412489E+01  0.00000000000E+00 0. -1.
</event>
<event>
 8    1  0.1278459E-006  0.9118800E+02  0.7816164E-02  0.1184000E+00
        -11   -1    0    0    0    0  0.00000000000E+00  0.00000000000E+00  0.45593999997E+02  0.45594000000E+02  0.51100000000E-03 0.  1.
         11   -1    0    0    0    0 -0.00000000000E+00 -0.00000000000E+00 -0.45593999997E+02  0.45594000000E+02  0.51100000000E-03 0. -1.
         23    2    1    2    0    0  0.00000000000E+00 -0.35527136788E-14  0.00000000000E+00  0.91188000000E+02  0.91188000000E+02 0.  0.
    9900012    2    3    3    0    0  0.23137211472E+02  0.23582881374E+02 -0.16257016556E+02  0.54367171167E+02  0.40000198310E+02 0.  0.
        -12    1    3    3    0    0 -0.23137211472E+02 -0.23582881374E+02  0.16257016556E+02  0.36820828833E+02  0.00000000000E+00 0.  1.
         11    1    4    4    0    0  0.23507790468E+02  0.82125266446E+01 -0.29075294037E+00  0.24902737683E+02  0.51100000000E-03 0. -1.
        -11    1    4    4    0    0 -0.78857902895E+01  0.89264354679E+01 -0.15508074655E+02  0.19554214851E+02  0.51100000000E-03 0.  1.
        -12    1    4    4    0    0  0.75152112937E+01  0.64439192620E+01 -0.45818896031E+00  0.99102186337E+01  0.00000000000E+00 0.  1.
</event>
<event>
 8    1  0.1278459E-006  0.9118800E+02  0.7816164E-02  0.1184000E+00
        -11   -1    0    0    0    0  0.00000000000E+00  0.00000000000E+00  0.45593999997E+02  0.45594000000E+02  0.51100000000E-03 0.  1.
         11   -1    0    0    0    0 -0.00000000000E+00 -0.00000000000E+00 -0.45593999997E+02  0.45594000000E+02  0.51100000000E-03 0. -1.
         23    2    1    2    0    0  0.00000000000E+00 -0.35527136788E-14  0.00000000000E+00  0.91188000000E+02  0.91188000000E+02 0.  0.
    9900012    2    3    3    0    0 -0.29893654964E+02  0.14413796856E+02  0.15949648239E+02  0.54367089829E+02  0.40000012882E+02 0.  0.
         12    1    3    3    0    0  0.29893654964E+02 -0.14413796856E+02 -0.15949648239E+02  0.36820910171E+02  0.00000000000E+00 0. -1.
         11    1    4    4    0    0 -0.15825756112E+01  0.11579639420E+02  0.13280502561E+02  0.17690798263E+02  0.51100000000E-03 0. -1.
        -11    1    4    4    0    0 -0.11661318859E+02  0.12647507991E+02  0.30616722188E+00  0.17205800026E+02  0.51100000000E-03 0.  1.
         12    1    4    4    0    0 -0.16649760494E+02 -0.98133505545E+01  0.23629784561E+01  0.19470491540E+02  0.00000000000E+00 0. -1.
</event>
<event>
 8    1  0.1278459E-006  0.9118800E+02  0.7816164E-02  0.1184000E+00
        -11   -1    0    0    0    0  0.00000000000E+00  0.00000000000E+00  0.45593999997E+02  0.45594000000E+02  0.51100000000E-03 0. -1.
         11   -1    0    0    0    0 -0.00000000000E+00 -0.00000000000E+00 -0.45593999997E+02  0.45594000000E+02  0.51100000000E-03 0.  1.
         23    2    1    2    0    0  0.71054273576E-14  0.35527136788E-14  0.00000000000E+00  0.91188000000E+02  0.91188000000E+02 0.  0.
    9900012    2    3    3    0    0  0.34544462947E+02  0.10752157970E+02  0.68447772566E+01  0.54367084788E+02  0.40000001392E+02 0.  0.
        -12    1    3    3    0    0 -0.34544462947E+02 -0.10752157970E+02 -0.68447772566E+01  0.36820915212E+02  0.00000000000E+00 0.  1.
         11    1    4    4    0    0  0.10363869948E+02  0.11066441750E+02  0.27179008772E+01  0.15403341155E+02  0.51100000000E-03 0. -1.
        -11    1    4    4    0    0  0.13985606782E+02 -0.12426191622E+02  0.11002161706E+02  0.21703801458E+02  0.51100000000E-03 0.  1.
        -12    1    4    4    0    0  0.10194986217E+02  0.12111907842E+02 -0.68752853263E+01  0.17259942175E+02  0.00000000000E+00 0.  1.
</event>
<event>
 8    1  0.1278459E-006  0.9118800E+02  0.7816164E-02  0.1184000E+00
        -11   -1    0    0    0    0  0.00000000000E+00  0.00000000000E+00  0.45593999997E+02  0.45594000000E+02  0.51100000000E-03 0.  1.
         11   -1    0    0    0    0 -0.00000000000E+00 -0.00000000000E+00 -0.45593999997E+02  0.45594000000E+02  0.51100000000E-03 0. -1.
         23    2    1    2    0    0  0.35527136788E-14 -0.17763568394E-14  0.00000000000E+00  0.91188000000E+02  0.91188000000E+02 0.  0.
    9900012    2    3    3    0    0 -0.30617372521E+02 -0.87470444730E+01  0.18488982697E+02  0.54367125916E+02  0.40000095151E+02 0.  0.
         12    1    3    3    0    0  0.30617372521E+02  0.87470444730E+01 -0.18488982697E+02  0.36820874084E+02  0.00000000000E+00 0. -1.
         11    1    4    4    0    0  0.98229866948E+00 -0.82057723211E+01 -0.59402881911E+00  0.82856792456E+01  0.51100000000E-03 0. -1.
        -11    1    4    4    0    0 -0.45734219085E+01 -0.94746526286E+01  0.13431549441E+02  0.17061411167E+02  0.51100000000E-03 0.  1.
        -12    1    4    4    0    0 -0.27026249282E+02  0.89333804768E+01  0.56514620759E+01  0.29020035503E+02  0.00000000000E+00 0.  1.
</event>
<event>
 8    1  0.1278459E-006  0.9118800E+02  0.7816164E-02  0.1184000E+00
        -11   -1    0    0    0    0  0.00000000000E+00  0.00000000000E+00  0.45593999997E+02  0.45594000000E+02  0.51100000000E-03 0.  1.
         11   -1    0    0    0    0 -0.00000000000E+00 -0.00000000000E+00 -0.45593999997E+02  0.45594000000E+02  0.51100000000E-03 0. -1.
         23    2    1    2    0    0  0.17763568394E-14  0.00000000000E+00 -0.35527136788E-14  0.91188000000E+02  0.91188000000E+02 0.  0.
    9900012    2    3    3    0    0 -0.15941972314E+02  0.16521708737E+02  0.28786582297E+02  0.54367073054E+02  0.39999974640E+02 0.  0.
         12    1    3    3    0    0  0.15941972314E+02 -0.16521708737E+02 -0.28786582297E+02  0.36820926946E+02  0.00000000000E+00 0. -1.
         11    1    4    4    0    0  0.37251834641E+00 -0.14206120078E+01  0.83439444808E+01  0.84722085760E+01  0.51100000000E-03 0. -1.
        -11    1    4    4    0    0 -0.15014419805E+02  0.22952961478E+02  0.26354305856E+02  0.38037096105E+02  0.51100000000E-03 0.  1.
         12    1    4    4    0    0 -0.13000708559E+01 -0.50106407333E+01 -0.59116680398E+01  0.78577683728E+01  0.00000000000E+00 0. -1.
</event>
<event>
 8    1  0.1278459E-006  0.9118800E+02  0.7816164E-02  0.1184000E+00
        -11   -1    0    0    0    0  0.00000000000E+00  0.00000000000E+00  0.45593999997E+02  0.45594000000E+02  0.51100000000E-03 0. -1.
         11   -1    0    0    0    0 -0.00000000000E+00 -0.00000000000E+00 -0.45593999997E+02  0.45594000000E+02  0.51100000000E-03 0.  1.
         23    2    1    2    0    0  0.00000000000E+00  0.00000000000E+00  0.71054273576E-14  0.91188000000E+02  0.91188000000E+02 0.  0.
    9900012    2    3    3    0    0  0.16897793690E+02 -0.59051225065E+01  0.32177214374E+02  0.54367095228E+02  0.40000025191E+02 0.  0.
        -12    1    3    3    0    0 -0.16897793690E+02  0.59051225065E+01 -0.32177214374E+02  0.36820904772E+02  0.00000000000E+00 0.  1.
         11    1    4    4    0    0  0.25400558506E+02  0.86740666608E-01  0.10476063751E+02  0.27476240797E+02  0.51100000000E-03 0. -1.
        -11    1    4    4    0    0  0.15767013856E+01 -0.75683904192E+00  0.11475529768E+02  0.11608039297E+02  0.51100000000E-03 0.  1.
        -12    1    4    4    0    0 -0.10079466202E+02 -0.52350241312E+01  0.10225620855E+02  0.15282815134E+02  0.00000000000E+00 0.  1.
</event>
<event>
 8    1  0.1278459E-006  0.9118800E+02  0.7816164E-02  0.1184000E+00
        -11   -1    0    0    0    0  0.00000000000E+00  0.00000000000E+00  0.45593999997E+02  0.45594000000E+02  0.51100000000E-03 0. -1.
         11   -1    0    0    0    0 -0.00000000000E+00 -0.00000000000E+00 -0.45593999997E+02  0.45594000000E+02  0.51100000000E-03 0.  1.
         23    2    1    2    0    0  0.00000000000E+00  0.00000000000E+00  0.35527136788E-14  0.91188000000E+02  0.91188000000E+02 0.  0.
    9900012    2    3    3    0    0 -0.29905554038E+02  0.42047866961E+01 -0.21065565249E+02  0.54367076156E+02  0.39999981714E+02 0.  0.
         12    1    3    3    0    0  0.29905554038E+02 -0.42047866961E+01  0.21065565249E+02  0.36820923844E+02  0.00000000000E+00 0. -1.
         11    1    4    4    0    0 -0.82116728338E+00 -0.58273127882E+01 -0.99208250758E+01  0.11534932184E+02  0.51100000000E-03 0. -1.
        -11    1    4    4    0    0 -0.29329274103E+02  0.90222288128E+01 -0.18215863204E+02  0.35685075377E+02  0.51100000000E-03 0.  1.
         12    1    4    4    0    0  0.24488734874E+00  0.10098706715E+01  0.70711230310E+01  0.71470685953E+01  0.00000000000E+00 0. -1.
</event>
<event>
 8    1  0.1278459E-006  0.9118800E+02  0.7816164E-02  0.1184000E+00
        -11   -1    0    0    0    0  0.00000000000E+00  0.00000000000E+00  0.45593999997E+02  0.45594000000E+02  0.51100000000E-03 0.  1.
         11   -1    0    0    0    0 -0.00000000000E+00 -0.00000000000E+00 -0.45593999997E+02  0.45594000000E+02  0.51100000000E-03 0. -1.
         23    2    1    2    0    0 -0.26645352591E-14 -0.17763568394E-14  0.71054273576E-14  0.91188000000E+02  0.91188000000E+02 0.  0.
    9900012    2    3    3    0    0  0.64575549869E+01  0.82970069164E+01 -0.35287959130E+02  0.54367076604E+02  0.39999982734E+02 0.  0.
        -12    1    3    3    0    0 -0.64575549869E+01 -0.82970069164E+01  0.35287959130E+02  0.36820923396E+02  0.00000000000E+00 0.  1.
         11    1    4    4    0    0 -0.33104262105E+01  0.28901969100E+01 -0.10161341977E+02  0.11070909218E+02  0.51100000000E-03 0. -1.
        -11    1    4    4    0    0  0.76561084234E+01  0.10387792549E+02  0.41256408956E+01  0.13547809539E+02  0.51100000000E-03 0.  1.
         12    1    4    4    0    0  0.21118727739E+01 -0.49809825426E+01 -0.29252258049E+02  0.29748357848E+02  0.00000000000E+00 0. -1.
</event>
<event>
 8    1  0.1278459E-006  0.9118800E+02  0.7816164E-02  0.1184000E+00
        -11   -1    0    0    0    0  0.00000000000E+00  0.00000000000E+00  0.45593999997E+02  0.45594000000E+02  0.51100000000E-03 0.  1.
         11   -1    0    0    0    0 -0.00000000000E+00 -0.00000000000E+00 -0.45593999997E+02  0.45594000000E+02  0.51100000000E-03 0. -1.
         23    2    1    2    0    0  0.00000000000E+00 -0.13322676296E-14  0.00000000000E+00  0.91188000000E+02  0.91188000000E+02 0.  0.
    9900012    2    3    3    0    0 -0.28124819276E+02  0.21275027077E+01  0.23669541448E+02  0.54367096706E+02  0.40000028560E+02 0.  0.
         12    1    3    3    0    0  0.28124819276E+02 -0.21275027077E+01 -0.23669541448E+02  0.36820903294E+02  0.00000000000E+00 0. -1.
         11    1    4    4    0    0 -0.15217816580E+02  0.16677662528E+02  0.69125781270E+01  0.23611651901E+02  0.51100000000E-03 0. -1.
        -11    1    4    4    0    0  0.55907461407E+00 -0.94162926640E+01  0.11343299735E+01  0.95008334744E+01  0.51100000000E-03 0.  1.
        -12    1    4    4    0    0 -0.13466077310E+02 -0.51338671565E+01  0.15622633347E+02  0.21254611331E+02  0.00000000000E+00 0.  1.
</event>
<event>
 8    1  0.1278459E-006  0.9118800E+02  0.7816164E-02  0.1184000E+00
        -11   -1    0    0    0    0  0.00000000000E+00  0.00000000000E+00  0.45593999997E+02  0.45594000000E+02  0.51100000000E-03 0. -1.
         11   -1    0    0    0    0 -0.00000000000E+00 -0.00000000000E+00 -0.45593999997E+02  0.45594000000E+02  0.51100000000E-03 0.  1.
         23    2    1    2    0    0  0.88817841970E-15 -0.88817841970E-15  0.00000000000E+00  0.91188000000E+02  0.91188000000E+02 0.  0.
    9900012    2    3    3    0    0 -0.38864389326E+01 -0.49006501378E+01  0.36285808959E+02  0.54367072375E+02  0.39999973094E+02 0.  0.
        -12    1    3    3    0    0  0.38864389326E+01  0.49006501378E+01 -0.36285808959E+02  0.36820927625E+02  0.00000000000E+00 0.  1.
         11    1    4    4    0    0 -0.11543103025E+02  0.39877065744E+01  0.35557721075E+02  0.37596496638E+02  0.51100000000E-03 0. -1.
        -11    1    4    4    0    0 -0.27530572307E+01 -0.16961658683E+01 -0.20337299913E+01  0.38199948569E+01  0.51100000000E-03 0.  1.
         12    1    4    4    0    0  0.10409721323E+02 -0.71921908439E+01  0.27618178752E+01  0.12950580880E+02  0.00000000000E+00 0. -1.
</event>
<event>
 8    1  0.1278459E-006  0.9118800E+02  0.7816164E-02  0.1184000E+00
        -11   -1    0    0    0    0  0.00000000000E+00  0.00000000000E+00  0.45593999997E+02  0.45594000000E+02  0.51100000000E-03 0.  1.
         11   -1    0    0    0    0 -0.00000000000E+00 -0.00000000000E+00 -0.45593999997E+02  0.45594000000E+02  0.51100000000E-03 0. -1.
         23    2    1    2    0    0 -0.26645352591E-14  0.00000000000E+00  0.00000000000E+00  0.91188000000E+02  0.91188000000E+02 0.  0.
    9900012    2    3    3    0    0  0.60431047906E+01 -0.19448984278E+02  0.30675680319E+02  0.54367089256E+02  0.40000011578E+02 0.  0.
         12    1    3    3    0    0 -0.60431047906E+01  0.19448984278E+02 -0.30675680319E+02  0.36820910744E+02  0.00000000000E+00 0. -1.
         11    1    4    4    0    0  0.55942082780E-01  0.31126484990E+01  0.21790590163E+01  0.38000011385E+01  0.51100000000E-03 0. -1.
        -11    1    4    4    0    0  0.17929351426E+02 -0.22209610068E+02  0.14031101607E+02  0.31805663560E+02  0.51100000000E-03 0.  1.
        -12    1    4    4    0    0 -0.11942188718E+02 -0.35202270888E+00  0.14465519695E+02  0.18761424558E+02  0.00000000000E+00 0.  1.
</event>
<event>
 8    1  0.1278459E-006  0.9118800E+02  0.7816164E-02  0.1184000E+00
        -11   -1    0    0    0    0  0.00000000000E+00  0.00000000000E+00  0.45593999997E+02  0.45594000000E+02  0.51100000000E-03 0. -1.
         11   -1    0    0    0    0 -0.00000000000E+00 -0.00000000000E+00 -0.45593999997E+02  0.45594000000E+02  0.51100000000E-03 0.  1.
         23    2    1    2    0    0 -0.17763568394E-14  0.44408920985E-15  0.00000000000E+00  0.91188000000E+02  0.91188000000E+02 0.  0.
    9900012    2    3    3    0    0  0.14731547600E+02 -0.17047808841E+01  0.33702428368E+02  0.54367103074E+02  0.40000043078E+02 0.  0.
        -12    1    3    3    0    0 -0.14731547600E+02  0.17047808841E+01 -0.33702428368E+02  0.36820896926E+02  0.00000000000E+00 0.  1.
         11    1    4    4    0    0  0.19952610626E+02  0.85904081356E-01  0.95030355715E+01  0.22100265510E+02  0.51100000000E-03 0. -1.
        -11    1    4    4    0    0  0.55925114076E+01  0.56261241560E+01  0.65985789083E+01  0.10318464068E+02  0.51100000000E-03 0.  1.
         12    1    4    4    0    0 -0.10813574434E+02 -0.74168091214E+01  0.17600813888E+02  0.21948373495E+02  0.00000000000E+00 0. -1.
</event>
<event>
 8    1  0.1278459E-006  0.9118800E+02  0.7816164E-02  0.1184000E+00
        -11   -1    0    0    0    0  0.00000000000E+00  0.00000000000E+00  0.45593999997E+02  0.45594000000E+02  0.51100000000E-03 0. -1.
         11   -1    0    0    0    0 -0.00000000000E+00 -0.00000000000E+00 -0.45593999997E+02  0.45594000000E+02  0.51100000000E-03 0.  1.
         23    2    1    2    0    0  0.00000000000E+00  0.00000000000E+00  0.35527136788E-14  0.91188000000E+02  0.91188000000E+02 0.  0.
    9900012    2    3    3    0    0  0.47072632172E+01  0.27400440614E+02 -0.24142029287E+02  0.54367081341E+02  0.39999993532E+02 0.  0.
         12    1    3    3    0    0 -0.47072632172E+01 -0.27400440614E+02  0.24142029287E+02  0.36820918659E+02  0.00000000000E+00 0. -1.
         11    1    4    4    0    0  0.87130252612E+01  0.14309915634E+02  0.64380421514E+01  0.17948227813E+02  0.51100000000E-03 0. -1.
        -11    1    4    4    0    0  0.19791426522E+01  0.15510664104E+01 -0.18510147490E+02  0.18680159876E+02  0.51100000000E-03 0.  1.
         12    1    4    4    0    0 -0.59849046961E+01  0.11539458570E+02 -0.12069923948E+02  0.17738693651E+02  0.00000000000E+00 0. -1.
</event>
<event>
 8    1  0.1278459E-006  0.9118800E+02  0.7816164E-02  0.1184000E+00
        -11   -1    0    0    0    0  0.00000000000E+00  0.00000000000E+00  0.45593999997E+02  0.45594000000E+02  0.51100000000E-03 0. -1.
         11   -1    0    0    0    0 -0.00000000000E+00 -0.00000000000E+00 -0.45593999997E+02  0.45594000000E+02  0.51100000000E-03 0.  1.
         23    2    1    2    0    0 -0.35527136788E-14  0.00000000000E+00  0.00000000000E+00  0.91188000000E+02  0.91188000000E+02 0.  0.
    9900012    2    3    3    0    0 -0.21886519959E+02  0.13717877611E+02 -0.26240797554E+02  0.54367090474E+02  0.40000014353E+02 0.  0.
         12    1    3    3    0    0  0.21886519959E+02 -0.13717877611E+02  0.26240797554E+02  0.36820909526E+02  0.00000000000E+00 0. -1.
         11    1    4    4    0    0 -0.56987084766E+01 -0.25870851186E+01  0.26565218023E+01  0.67989260961E+01  0.51100000000E-03 0. -1.
        -11    1    4    4    0    0 -0.23786790098E+02  0.10613842610E+02 -0.27660104339E+02  0.37994031247E+02  0.51100000000E-03 0.  1.
        -12    1    4    4    0    0  0.75989786150E+01  0.56911201193E+01 -0.12372150172E+01  0.95741331306E+01  0.00000000000E+00 0.  1.
</event>
<event>
 8    1  0.1278459E-006  0.9118800E+02  0.7816164E-02  0.1184000E+00
        -11   -1    0    0    0    0  0.00000000000E+00  0.00000000000E+00  0.45593999997E+02  0.45594000000E+02  0.51100000000E-03 0.  1.
         11   -1    0    0    0    0 -0.00000000000E+00 -0.00000000000E+00 -0.45593999997E+02  0.45594000000E+02  0.51100000000E-03 0. -1.
         23    2    1    2    0    0  0.00000000000E+00  0.88817841970E-15  0.00000000000E+00  0.91188000000E+02  0.91188000000E+02 0.  0.
    9900012    2    3    3    0    0 -0.16291428771E+02 -0.55979478955E+01  0.32542785751E+02  0.54367074204E+02  0.39999977262E+02 0.  0.
         12    1    3    3    0    0  0.16291428771E+02  0.55979478955E+01 -0.32542785751E+02  0.36820925796E+02  0.00000000000E+00 0. -1.
         11    1    4    4    0    0  0.46560247700E+01 -0.81071368245E+00  0.28808743737E+01  0.55349128947E+01  0.51100000000E-03 0. -1.
        -11    1    4    4    0    0 -0.22596096653E+02  0.85061822520E+01  0.12896392340E+02  0.27372534704E+02  0.51100000000E-03 0.  1.
        -12    1    4    4    0    0  0.16486431123E+01 -0.13293416465E+02  0.16765519038E+02  0.21459626605E+02  0.00000000000E+00 0.  1.
</event>
<event>
 8    1  0.1278459E-006  0.9118800E+02  0.7816164E-02  0.1184000E+00
        -11   -1    0    0    0    0  0.00000000000E+00  0.00000000000E+00  0.45593999997E+02  0.45594000000E+02  0.51100000000E-03 0. -1.
         11   -1    0    0    0    0 -0.00000000000E+00 -0.00000000000E+00 -0.45593999997E+02  0.45594000000E+02  0.51100000000E-03 0.  1.
         23    2    1    2    0    0  0.71054273576E-14  0.00000000000E+00  0.00000000000E+00  0.91188000000E+02  0.91188000000E+02 0.  0.
    9900012    2    3    3    0    0 -0.32771305518E+02  0.13614078067E+02 -0.98223084860E+01  0.54367091118E+02  0.40000015821E+02 0.  0.
        -12    1    3    3    0    0  0.32771305518E+02 -0.13614078067E+02  0.98223084860E+01  0.36820908882E+02  0.00000000000E+00 0.  1.
         11    1    4    4    0    0 -0.27480454423E+02  0.13091892135E+02 -0.71528325605E+01  0.31268770824E+02  0.51100000000E-03 0. -1.
        -11    1    4    4    0    0  0.29001077662E+01  0.90332735834E+01 -0.54799203390E+01  0.10956285131E+02  0.51100000000E-03 0.  1.
         12    1    4    4    0    0 -0.81909588610E+01 -0.85110876521E+01  0.28104444135E+01  0.12142035162E+02  0.00000000000E+00 0. -1.
</event>
<event>
 8    1  0.1278459E-006  0.9118800E+02  0.7816164E-02  0.1184000E+00
        -11   -1    0    0    0    0  0.00000000000E+00  0.00000000000E+00  0.45593999997E+02  0.45594000000E+02  0.51100000000E-03 0. -1.
         11   -1    0    0    0    0 -0.00000000000E+00 -0.00000000000E+00 -0.45593999997E+02  0.45594000000E+02  0.51100000000E-03 0.  1.
         23    2    1    2    0    0  0.00000000000E+00  0.00000000000E+00 -0.17763568394E-14  0.91188000000E+02  0.91188000000E+02 0.  0.
    9900012    2    3    3    0    0  0.20517638062E+02  0.30022666423E+02  0.57831804828E+01  0.54367093611E+02  0.40000021505E+02 0.  0.
         12    1    3    3    0    0 -0.20517638062E+02 -0.30022666423E+02 -0.57831804828E+01  0.36820906389E+02  0.00000000000E+00 0. -1.
         11    1    4    4    0    0  0.13735304009E+02  0.12483856891E+02 -0.10479098909E+02  0.21314707910E+02  0.51100000000E-03 0. -1.
        -11    1    4    4    0    0  0.88712643548E+01  0.11013472637E+02 -0.12993309215E+01  0.14201555263E+02  0.51100000000E-03 0.  1.
         12    1    4    4    0    0 -0.20889303023E+01  0.65253368954E+01  0.17561610313E+02  0.18850830438E+02  0.00000000000E+00 0. -1.
</event>
<event>
 8    1  0.1278459E-006  0.9118800E+02  0.7816164E-02  0.1184000E+00
        -11   -1    0    0    0    0  0.00000000000E+00  0.00000000000E+00  0.45593999997E+02  0.45594000000E+02  0.51100000000E-03 0. -1.
         11   -1    0    0    0    0 -0.00000000000E+00 -0.00000000000E+00 -0.45593999997E+02  0.45594000000E+02  0.51100000000E-03 0.  1.
         23    2    1    2    0    0  0.00000000000E+00 -0.71054273576E-14 -0.88817841970E-15  0.91188000000E+02  0.91188000000E+02 0.  0.
    9900012    2    3    3    0    0  0.18216969339E+02 -0.31356038847E+02 -0.63813193651E+01  0.54367076859E+02  0.39999983316E+02 0.  0.
        -12    1    3    3    0    0 -0.18216969339E+02  0.31356038847E+02  0.63813193651E+01  0.36820923141E+02  0.00000000000E+00 0.  1.
         11    1    4    4    0    0  0.56166613016E+01 -0.63816003601E+00 -0.50591598038E+01  0.75861209185E+01  0.51100000000E-03 0. -1.
        -11    1    4    4    0    0 -0.10204839821E+02 -0.30214814784E+01  0.16964439660E+01  0.10777106684E+02  0.51100000000E-03 0.  1.
         12    1    4    4    0    0  0.22805147858E+02 -0.27696397333E+02 -0.30186035273E+01  0.36003849257E+02  0.00000000000E+00 0. -1.
</event>
<event>
 8    1  0.1278459E-006  0.9118800E+02  0.7816164E-02  0.1184000E+00
        -11   -1    0    0    0    0  0.00000000000E+00  0.00000000000E+00  0.45593999997E+02  0.45594000000E+02  0.51100000000E-03 0.  1.
         11   -1    0    0    0    0 -0.00000000000E+00 -0.00000000000E+00 -0.45593999997E+02  0.45594000000E+02  0.51100000000E-03 0. -1.
         23    2    1    2    0    0  0.00000000000E+00  0.00000000000E+00 -0.88817841970E-15  0.91188000000E+02  0.91188000000E+02 0.  0.
    9900012    2    3    3    0    0 -0.30634278352E+02  0.19984746555E+02 -0.42344292055E+01  0.54367088880E+02  0.40000010719E+02 0.  0.
        -12    1    3    3    0    0  0.30634278352E+02 -0.19984746555E+02  0.42344292055E+01  0.36820911120E+02  0.00000000000E+00 0.  1.
         11    1    4    4    0    0  0.56525555736E+01 -0.32123131780E+01 -0.43685189375E+01  0.78328984696E+01  0.51100000000E-03 0. -1.
        -11    1    4    4    0    0 -0.32209568567E+02  0.11769640853E+02  0.14946425718E+01  0.34325132334E+02  0.51100000000E-03 0.  1.
        -12    1    4    4    0    0 -0.40772653582E+01  0.11427418880E+02 -0.13605528397E+01  0.12209058076E+02  0.00000000000E+00 0.  1.
</event>
<event>
 8    1  0.1278459E-006  0.9118800E+02  0.7816164E-02  0.1184000E+00
        -11   -1    0    0    0    0  0.00000000000E+00  0.00000000000E+00  0.45593999997E+02  0.45594000000E+02  0.51100000000E-03 0.  1.
         11   -1    0    0    0    0 -0.00000000000E+00 -0.00000000000E+00 -0.45593999997E+02  0.45594000000E+02  0.51100000000E-03 0. -1.
         23    2    1    2    0    0  0.00000000000E+00  0.00000000000E+00  0.00000000000E+00  0.91188000000E+02  0.91188000000E+02 0.  0.
    9900012    2    3    3    0    0  0.25706492906E+02 -0.10310106336E+02 -0.24262251657E+02  0.54367096621E+02  0.40000028368E+02 0.  0.
        -12    1    3    3    0    0 -0.25706492906E+02  0.10310106336E+02  0.24262251657E+02  0.36820903379E+02  0.00000000000E+00 0.  1.
         11    1    4    4    0    0  0.11925209454E+02 -0.15140123958E+02 -0.13825169655E+02  0.23718543173E+02  0.51100000000E-03 0. -1.
        -11    1    4    4    0    0  0.14988674068E+02  0.58047331032E+01  0.36447459424E+01  0.16481488099E+02  0.51100000000E-03 0.  1.
         12    1    4    4    0    0 -0.12073906162E+01 -0.97471548063E+00 -0.14081827944E+02  0.14167065349E+02  0.00000000000E+00 0. -1.
</event>
<event>
 8    1  0.1278459E-006  0.9118800E+02  0.7816164E-02  0.1184000E+00
        -11   -1    0    0    0    0  0.00000000000E+00  0.00000000000E+00  0.45593999997E+02  0.45594000000E+02  0.51100000000E-03 0. -1.
         11   -1    0    0    0    0 -0.00000000000E+00 -0.00000000000E+00 -0.45593999997E+02  0.45594000000E+02  0.51100000000E-03 0.  1.
         23    2    1    2    0    0  0.35527136788E-14 -0.35527136788E-14 -0.35527136788E-14  0.91188000000E+02  0.91188000000E+02 0.  0.
    9900012    2    3    3    0    0 -0.22890164747E+02  0.22637608468E+02  0.17870673260E+02  0.54367055932E+02  0.39999935607E+02 0.  0.
        -12    1    3    3    0    0  0.22890164747E+02 -0.22637608468E+02 -0.17870673260E+02  0.36820944068E+02  0.00000000000E+00 0.  1.
         11    1    4    4    0    0 -0.72131121077E+01 -0.28165179992E+00  0.16111898992E+02  0.17655073022E+02  0.51100000000E-03 0. -1.
        -11    1    4    4    0    0  0.52471670609E+01  0.78035287946E+01 -0.40740924912E+01  0.10248221978E+02  0.51100000000E-03 0.  1.
         12    1    4    4    0    0 -0.20924219700E+02  0.15115731474E+02  0.58328667593E+01  0.26463760932E+02  0.00000000000E+00 0. -1.
</event>
<event>
 8    1  0.1278459E-006  0.9118800E+02  0.7816164E-02  0.1184000E+00
        -11   -1    0    0    0    0  0.00000000000E+00  0.00000000000E+00  0.45593999997E+02  0.45594000000E+02  0.51100000000E-03 0. -1.
         11   -1    0    0    0    0 -0.00000000000E+00 -0.00000000000E+00 -0.45593999997E+02  0.45594000000E+02  0.51100000000E-03 0.  1.
         23    2    1    2    0    0  0.26645352591E-14  0.00000000000E+00  0.00000000000E+00  0.91188000000E+02  0.91188000000E+02 0.  0.
    9900012    2    3    3    0    0 -0.67684455622E+01  0.20324310558E+02 -0.29948122462E+02  0.54367088904E+02  0.40000010774E+02 0.  0.
         12    1    3    3    0    0  0.67684455622E+01 -0.20324310558E+02  0.29948122462E+02  0.36820911096E+02  0.00000000000E+00 0. -1.
         11    1    4    4    0    0  0.96814661382E+01 -0.11047636196E+00  0.58024436690E+00  0.96994677894E+01  0.51100000000E-03 0. -1.
        -11    1    4    4    0    0 -0.11436333177E+02  0.13414108405E+02 -0.31386725638E+02  0.35997980046E+02  0.51100000000E-03 0.  1.
         12    1    4    4    0    0 -0.50135785231E+01  0.70206785147E+01  0.85835880904E+00  0.86696410687E+01  0.00000000000E+00 0. -1.
</event>
<event>
 8    1  0.1278459E-006  0.9118800E+02  0.7816164E-02  0.1184000E+00
        -11   -1    0    0    0    0  0.00000000000E+00  0.00000000000E+00  0.45593999997E+02  0.45594000000E+02  0.51100000000E-03 0.  1.
         11   -1    0    0    0    0 -0.00000000000E+00 -0.00000000000E+00 -0.45593999997E+02  0.45594000000E+02  0.51100000000E-03 0. -1.
         23    2    1    2    0    0  0.35527136788E-14  0.00000000000E+00 -0.35527136788E-14  0.91188000000E+02  0.91188000000E+02 0.  0.
    9900012    2    3    3    0    0 -0.22978444653E+02 -0.16837086166E+02  0.23329871161E+02  0.54367091841E+02  0.40000017471E+02 0.  0.
         12    1    3    3    0    0  0.22978444653E+02  0.16837086166E+02 -0.23329871161E+02  0.36820908159E+02  0.00000000000E+00 0. -1.
         11    1    4    4    0    0 -0.16703191681E+02  0.53009533509E+01  0.69752242760E+01  0.18861348646E+02  0.51100000000E-03 0. -1.
        -11    1    4    4    0    0 -0.62008137663E+00  0.32314673576E+01  0.72557699973E+01  0.79669994798E+01  0.51100000000E-03 0.  1.
        -12    1    4    4    0    0 -0.56551715949E+01 -0.25369506875E+02  0.90988768876E+01  0.27538743716E+02  0.00000000000E+00 0.  1.
</event>
<event>
 8    1  0.1278459E-006  0.9118800E+02  0.7816164E-02  0.1184000E+00
        -11   -1    0    0    0    0  0.00000000000E+00  0.00000000000E+00  0.45593999997E+02  0.45594000000E+02  0.51100000000E-03 0. -1.
         11   -1    0    0    0    0 -0.00000000000E+00 -0.00000000000E+00 -0.45593999997E+02  0.45594000000E+02  0.51100000000E-03 0.  1.
         23    2    1    2    0    0  0.00000000000E+00  0.00000000000E+00  0.17763568394E-14  0.91188000000E+02  0.91188000000E+02 0.  0.
    9900012    2    3    3    0    0  0.21422246665E+02  0.28467021529E+02 -0.93003131879E+01  0.54367084853E+02  0.40000001539E+02 0.  0.
        -12    1    3    3    0    0 -0.21422246665E+02 -0.28467021529E+02  0.93003131879E+01  0.36820915147E+02  0.00000000000E+00 0.  1.
         11    1    4    4    0    0  0.11496587622E+02  0.88079945258E+01  0.15057458120E+02  0.20892087972E+02  0.51100000000E-03 0. -1.
        -11    1    4    4    0    0  0.75771307502E+01  0.15351049484E+02 -0.22399032596E+02  0.28191918916E+02  0.51100000000E-03 0.  1.
         12    1    4    4    0    0  0.23485282922E+01  0.43079775190E+01 -0.19587387118E+01  0.52830779651E+01  0.00000000000E+00 0. -1.
</event>
<event>
 8    1  0.1278459E-006  0.9118800E+02  0.7816164E-02  0.1184000E+00
        -11   -1    0    0    0    0  0.00000000000E+00  0.00000000000E+00  0.45593999997E+02  0.45594000000E+02  0.51100000000E-03 0.  1.
         11   -1    0    0    0    0 -0.00000000000E+00 -0.00000000000E+00 -0.45593999997E+02  0.45594000000E+02  0.51100000000E-03 0. -1.
         23    2    1    2    0    0  0.26645352591E-14 -0.35527136788E-14  0.00000000000E+00  0.91188000000E+02  0.91188000000E+02 0.  0.
    9900012    2    3    3    0    0 -0.18767819048E+01  0.28801735654E+02  0.22862990018E+02  0.54367101049E+02  0.40000038460E+02 0.  0.
         12    1    3    3    0    0  0.18767819048E+01 -0.28801735654E+02 -0.22862990018E+02  0.36820898951E+02  0.00000000000E+00 0. -1.
         11    1    4    4    0    0 -0.15172381766E+02  0.83951266086E+01  0.65350183610E+01  0.18530671452E+02  0.51100000000E-03 0. -1.
        -11    1    4    4    0    0  0.27168360465E+01  0.20128847918E+02  0.14828569859E+02  0.25148324019E+02  0.51100000000E-03 0.  1.
         12    1    4    4    0    0  0.10578763815E+02  0.27776112737E+00  0.14994017980E+01  0.10688105578E+02  0.00000000000E+00 0. -1.
</event>
<event>
 8    1  0.1278459E-006  0.9118800E+02  0.7816164E-02  0.1184000E+00
        -11   -1    0    0    0    0  0.00000000000E+00  0.00000000000E+00  0.45593999997E+02  0.45594000000E+02  0.51100000000E-03 0. -1.
         11   -1    0    0    0    0 -0.00000000000E+00 -0.00000000000E+00 -0.45593999997E+02  0.45594000000E+02  0.51100000000E-03 0.  1.
         23    2    1    2    0    0  0.22204460493E-15  0.00000000000E+00  0.00000000000E+00  0.91188000000E+02  0.91188000000E+02 0.  0.
    9900012    2    3    3    0    0  0.17668300080E+01 -0.32668584775E+02 -0.16894378435E+02  0.54367107260E+02  0.40000052620E+02 0.  0.
         12    1    3    3    0    0 -0.17668300080E+01  0.32668584775E+02  0.16894378435E+02  0.36820892740E+02  0.00000000000E+00 0. -1.
         11    1    4    4    0    0  0.45524804319E+01 -0.26806244004E+02 -0.19445052388E+02  0.33427681019E+02  0.51100000000E-03 0.  1.
        -11    1    4    4    0    0 -0.59913725312E+01  0.14195208961E+01 -0.64562943804E+01  0.89216210281E+01  0.51100000000E-03 0. -1.
        -12    1    4    4    0    0  0.32057221072E+01 -0.72818616675E+01  0.90069683333E+01  0.12017805213E+02  0.00000000000E+00 0.  1.
</event>
<event>
 8    1  0.1278459E-006  0.9118800E+02  0.7816164E-02  0.1184000E+00
        -11   -1    0    0    0    0  0.00000000000E+00  0.00000000000E+00  0.45593999997E+02  0.45594000000E+02  0.51100000000E-03 0. -1.
         11   -1    0    0    0    0 -0.00000000000E+00 -0.00000000000E+00 -0.45593999997E+02  0.45594000000E+02  0.51100000000E-03 0.  1.
         23    2    1    2    0    0  0.00000000000E+00  0.00000000000E+00  0.00000000000E+00  0.91188000000E+02  0.91188000000E+02 0.  0.
    9900012    2    3    3    0    0 -0.16134014075E+02  0.22403766058E+02  0.24362749164E+02  0.54367099812E+02  0.40000035642E+02 0.  0.
        -12    1    3    3    0    0  0.16134014075E+02 -0.22403766058E+02 -0.24362749164E+02  0.36820900188E+02  0.00000000000E+00 0.  1.
         11    1    4    4    0    0 -0.22347451084E+02  0.63134686844E+01  0.81499753649E+01  0.24610781285E+02  0.51100000000E-03 0. -1.
        -11    1    4    4    0    0  0.95672911483E+01  0.11844117735E+02  0.18432646266E+02  0.23907710754E+02  0.51100000000E-03 0.  1.
        -12    1    4    4    0    0 -0.33538541400E+01  0.42461796386E+01 -0.22198724670E+01  0.58486077732E+01  0.00000000000E+00 0.  1.
</event>
<event>
 8    1  0.1278459E-006  0.9118800E+02  0.7816164E-02  0.1184000E+00
        -11   -1    0    0    0    0  0.00000000000E+00  0.00000000000E+00  0.45593999997E+02  0.45594000000E+02  0.51100000000E-03 0.  1.
         11   -1    0    0    0    0 -0.00000000000E+00 -0.00000000000E+00 -0.45593999997E+02  0.45594000000E+02  0.51100000000E-03 0. -1.
         23    2    1    2    0    0 -0.88817841970E-15 -0.83266726847E-15  0.00000000000E+00  0.91188000000E+02  0.91188000000E+02 0.  0.
    9900012    2    3    3    0    0  0.73827647336E+01  0.49164825658E+00  0.36069851466E+02  0.54367066852E+02  0.39999960502E+02 0.  0.
         12    1    3    3    0    0 -0.73827647336E+01 -0.49164825658E+00 -0.36069851466E+02  0.36820933148E+02  0.00000000000E+00 0. -1.
         11    1    4    4    0    0  0.58269635217E+01  0.38380111471E+01  0.40681453876E+01  0.80767345261E+01  0.51100000000E-03 0. -1.
        -11    1    4    4    0    0 -0.13629132482E+02 -0.75670008553E+01  0.23990752490E+02  0.28610644164E+02  0.51100000000E-03 0.  1.
        -12    1    4    4    0    0  0.15184933694E+02  0.42206379647E+01  0.80109535882E+01  0.17679688162E+02  0.00000000000E+00 0.  1.
</event>
<event>
 8    1  0.1278459E-006  0.9118800E+02  0.7816164E-02  0.1184000E+00
        -11   -1    0    0    0    0  0.00000000000E+00  0.00000000000E+00  0.45593999997E+02  0.45594000000E+02  0.51100000000E-03 0. -1.
         11   -1    0    0    0    0 -0.00000000000E+00 -0.00000000000E+00 -0.45593999997E+02  0.45594000000E+02  0.51100000000E-03 0.  1.
         23    2    1    2    0    0 -0.35527136788E-14  0.00000000000E+00 -0.17763568394E-14  0.91188000000E+02  0.91188000000E+02 0.  0.
    9900012    2    3    3    0    0 -0.29840453572E+02  0.15146977963E+02  0.15358871376E+02  0.54367101848E+02  0.40000040282E+02 0.  0.
        -12    1    3    3    0    0  0.29840453572E+02 -0.15146977963E+02 -0.15358871376E+02  0.36820898152E+02  0.00000000000E+00 0.  1.
         11    1    4    4    0    0 -0.32089187264E+02  0.13186529120E+02  0.14875069483E+02  0.37747426162E+02  0.51100000000E-03 0. -1.
        -11    1    4    4    0    0  0.25131586050E+01  0.84301605243E+01  0.35113835282E+01  0.94717151130E+01  0.51100000000E-03 0.  1.
         12    1    4    4    0    0 -0.26442491366E+00 -0.64697116818E+01 -0.30275816356E+01  0.71479605722E+01  0.00000000000E+00 0. -1.
</event>
<event>
 8    1  0.1278459E-006  0.9118800E+02  0.7816164E-02  0.1184000E+00
        -11   -1    0    0    0    0  0.00000000000E+00  0.00000000000E+00  0.45593999997E+02  0.45594000000E+02  0.51100000000E-03 0. -1.
         11   -1    0    0    0    0 -0.00000000000E+00 -0.00000000000E+00 -0.45593999997E+02  0.45594000000E+02  0.51100000000E-03 0.  1.
         23    2    1    2    0    0  0.00000000000E+00  0.17763568394E-14  0.00000000000E+00  0.91188000000E+02  0.91188000000E+02 0.  0.
    9900012    2    3    3    0    0 -0.18948916140E+02  0.11799426144E+02 -0.29282952433E+02  0.54367093121E+02  0.40000020388E+02 0.  0.
         12    1    3    3    0    0  0.18948916140E+02 -0.11799426144E+02  0.29282952433E+02  0.36820906879E+02  0.00000000000E+00 0. -1.
         11    1    4    4    0    0  0.28326588173E+01 -0.62873067374E+01 -0.81716804515E+01  0.10692546172E+02  0.51100000000E-03 0. -1.
        -11    1    4    4    0    0 -0.19636240372E+02  0.23579769155E+02 -0.21936484263E+02  0.37719978678E+02  0.51100000000E-03 0.  1.
        -12    1    4    4    0    0 -0.21453345853E+01 -0.54930362734E+01  0.82521228214E+00  0.59545682710E+01  0.00000000000E+00 0.  1.
</event>
<event>
 8    1  0.1278459E-006  0.9118800E+02  0.7816164E-02  0.1184000E+00
        -11   -1    0    0    0    0  0.00000000000E+00  0.00000000000E+00  0.45593999997E+02  0.45594000000E+02  0.51100000000E-03 0.  1.
         11   -1    0    0    0    0 -0.00000000000E+00 -0.00000000000E+00 -0.45593999997E+02  0.45594000000E+02  0.51100000000E-03 0. -1.
         23    2    1    2    0    0  0.00000000000E+00  0.00000000000E+00 -0.17763568394E-14  0.91188000000E+02  0.91188000000E+02 0.  0.
    9900012    2    3    3    0    0  0.16268143823E+02 -0.29911941283E+02 -0.14014387336E+02  0.54367084922E+02  0.40000001697E+02 0.  0.
        -12    1    3    3    0    0 -0.16268143823E+02  0.29911941283E+02  0.14014387336E+02  0.36820915078E+02  0.00000000000E+00 0.  1.
         11    1    4    4    0    0  0.15713167506E+02  0.27911847235E+01 -0.19137129559E+01  0.16073476375E+02  0.51100000000E-03 0. -1.
        -11    1    4    4    0    0  0.33890123560E+00 -0.71172145228E+01  0.38929710914E+01  0.81194101258E+01  0.51100000000E-03 0.  1.
         12    1    4    4    0    0  0.21607508065E+00 -0.25585911484E+02 -0.15993645472E+02  0.30174198421E+02  0.00000000000E+00 0. -1.
</event>
<event>
 8    1  0.1278459E-006  0.9118800E+02  0.7816164E-02  0.1184000E+00
        -11   -1    0    0    0    0  0.00000000000E+00  0.00000000000E+00  0.45593999997E+02  0.45594000000E+02  0.51100000000E-03 0.  1.
         11   -1    0    0    0    0 -0.00000000000E+00 -0.00000000000E+00 -0.45593999997E+02  0.45594000000E+02  0.51100000000E-03 0. -1.
         23    2    1    2    0    0  0.00000000000E+00  0.00000000000E+00 -0.88817841970E-15  0.91188000000E+02  0.91188000000E+02 0.  0.
    9900012    2    3    3    0    0  0.29957868394E+02  0.20238456944E+02  0.69793517355E+01  0.54367077024E+02  0.39999983691E+02 0.  0.
         12    1    3    3    0    0 -0.29957868394E+02 -0.20238456944E+02 -0.69793517355E+01  0.36820922976E+02  0.00000000000E+00 0. -1.
         11    1    4    4    0    0  0.11975776557E+02  0.10424716555E+02  0.32045131581E+01  0.16197618475E+02  0.51100000000E-03 0. -1.
        -11    1    4    4    0    0 -0.16766500511E+01 -0.46753636479E+01  0.11523482162E+02  0.12548339413E+02  0.51100000000E-03 0.  1.
         12    1    4    4    0    0  0.19658741888E+02  0.14489104036E+02 -0.77486435842E+01  0.25621119136E+02  0.00000000000E+00 0. -1.
</event>
<event>
 8    1  0.1278459E-006  0.9118800E+02  0.7816164E-02  0.1184000E+00
        -11   -1    0    0    0    0  0.00000000000E+00  0.00000000000E+00  0.45593999997E+02  0.45594000000E+02  0.51100000000E-03 0.  1.
         11   -1    0    0    0    0 -0.00000000000E+00 -0.00000000000E+00 -0.45593999997E+02  0.45594000000E+02  0.51100000000E-03 0. -1.
         23    2    1    2    0    0  0.88817841970E-15  0.00000000000E+00  0.71054273576E-14  0.91188000000E+02  0.91188000000E+02 0.  0.
    9900012    2    3    3    0    0 -0.67522441309E+01 -0.62142088605E+01 -0.35659082642E+02  0.54367090622E+02  0.40000014690E+02 0.  0.
        -12    1    3    3    0    0  0.67522441309E+01  0.62142088605E+01  0.35659082642E+02  0.36820909378E+02  0.00000000000E+00 0.  1.
         11    1    4    4    0    0  0.60901384722E+01  0.10057954567E+02 -0.33754376472E+01  0.12232980678E+02  0.51100000000E-03 0.  1.
        -11    1    4    4    0    0 -0.60050811893E+01 -0.12420552747E+01 -0.29993150027E+00  0.61395163133E+01  0.51100000000E-03 0. -1.
         12    1    4    4    0    0 -0.68373014139E+01 -0.15030108153E+02 -0.31983713495E+02  0.35994593631E+02  0.00000000000E+00 0. -1.
</event>
<event>
 8    1  0.1278459E-006  0.9118800E+02  0.7816164E-02  0.1184000E+00
        -11   -1    0    0    0    0  0.00000000000E+00  0.00000000000E+00  0.45593999997E+02  0.45594000000E+02  0.51100000000E-03 0. -1.
         11   -1    0    0    0    0 -0.00000000000E+00 -0.00000000000E+00 -0.45593999997E+02  0.45594000000E+02  0.51100000000E-03 0.  1.
         23    2    1    2    0    0  0.88817841970E-15  0.17763568394E-14  0.00000000000E+00  0.91188000000E+02  0.91188000000E+02 0.  0.
    9900012    2    3    3    0    0 -0.56487034791E+01 -0.77364241060E+01 -0.35553071212E+02  0.54367068703E+02  0.39999964723E+02 0.  0.
         12    1    3    3    0    0  0.56487034791E+01  0.77364241060E+01  0.35553071212E+02  0.36820931297E+02  0.00000000000E+00 0. -1.
         11    1    4    4    0    0  0.75650197851E+01  0.35987982799E+01 -0.27654708910E+01  0.88220577485E+01  0.51100000000E-03 0. -1.
        -11    1    4    4    0    0 -0.94892707988E+01  0.37523902258E+01 -0.27165492294E+02  0.29018798468E+02  0.51100000000E-03 0.  1.
         12    1    4    4    0    0 -0.37244524654E+01 -0.15087612612E+02 -0.56221080271E+01  0.16526212487E+02  0.00000000000E+00 0. -1.
</event>
<event>
 8    1  0.1278459E-006  0.9118800E+02  0.7816164E-02  0.1184000E+00
        -11   -1    0    0    0    0  0.00000000000E+00  0.00000000000E+00  0.45593999997E+02  0.45594000000E+02  0.51100000000E-03 0. -1.
         11   -1    0    0    0    0 -0.00000000000E+00 -0.00000000000E+00 -0.45593999997E+02  0.45594000000E+02  0.51100000000E-03 0.  1.
         23    2    1    2    0    0  0.00000000000E+00  0.00000000000E+00 -0.88817841970E-15  0.91188000000E+02  0.91188000000E+02 0.  0.
    9900012    2    3    3    0    0  0.15248575114E+02 -0.33250156520E+02 -0.42057677278E+01  0.54367076142E+02  0.39999981680E+02 0.  0.
         12    1    3    3    0    0 -0.15248575114E+02  0.33250156520E+02  0.42057677278E+01  0.36820923858E+02  0.00000000000E+00 0. -1.
         11    1    4    4    0    0  0.15164389787E+01  0.31751429004E+01  0.42299543657E+01  0.55021481088E+01  0.51100000000E-03 0. -1.
        -11    1    4    4    0    0  0.10721691925E+02 -0.28467553124E+02  0.70226996238E+01  0.31219778489E+02  0.51100000000E-03 0.  1.
        -12    1    4    4    0    0  0.30104442100E+01 -0.79577462962E+01 -0.15458421717E+02  0.17645149544E+02  0.00000000000E+00 0.  1.
</event>
<event>
 8    1  0.1278459E-006  0.9118800E+02  0.7816164E-02  0.1184000E+00
        -11   -1    0    0    0    0  0.00000000000E+00  0.00000000000E+00  0.45593999997E+02  0.45594000000E+02  0.51100000000E-03 0.  1.
         11   -1    0    0    0    0 -0.00000000000E+00 -0.00000000000E+00 -0.45593999997E+02  0.45594000000E+02  0.51100000000E-03 0. -1.
         23    2    1    2    0    0  0.00000000000E+00 -0.35527136788E-14 -0.17763568394E-14  0.91188000000E+02  0.91188000000E+02 0.  0.
    9900012    2    3    3    0    0 -0.25746592066E+02  0.21016827582E+02  0.15848939540E+02  0.54367042256E+02  0.39999904430E+02 0.  0.
        -12    1    3    3    0    0  0.25746592066E+02 -0.21016827582E+02 -0.15848939540E+02  0.36820957744E+02  0.00000000000E+00 0.  1.
         11    1    4    4    0    0 -0.88967118446E+01 -0.21696614728E+01  0.51785212410E+01  0.10520265921E+02  0.51100000000E-03 0.  1.
        -11    1    4    4    0    0 -0.20750577228E+02  0.24154882623E+02  0.17190252380E+02  0.36187699388E+02  0.51100000000E-03 0. -1.
         12    1    4    4    0    0  0.39006970059E+01 -0.96839356797E+00 -0.65198340809E+01  0.76590769468E+01  0.00000000000E+00 0. -1.
</event>
<event>
 8    1  0.1278459E-006  0.9118800E+02  0.7816164E-02  0.1184000E+00
        -11   -1    0    0    0    0  0.00000000000E+00  0.00000000000E+00  0.45593999997E+02  0.45594000000E+02  0.51100000000E-03 0.  1.
         11   -1    0    0    0    0 -0.00000000000E+00 -0.00000000000E+00 -0.45593999997E+02  0.45594000000E+02  0.51100000000E-03 0. -1.
         23    2    1    2    0    0  0.00000000000E+00  0.00000000000E+00  0.17763568394E-14  0.91188000000E+02  0.91188000000E+02 0.  0.
    9900012    2    3    3    0    0 -0.34414520281E+02 -0.22465920355E+01 -0.12898642455E+02  0.54367063576E+02  0.39999953034E+02 0.  0.
        -12    1    3    3    0    0  0.34414520281E+02  0.22465920355E+01  0.12898642455E+02  0.36820936424E+02  0.00000000000E+00 0.  1.
         11    1    4    4    0    0 -0.12710902158E+02 -0.61118493197E+01 -0.24525227319E+02  0.28291491849E+02  0.51100000000E-03 0. -1.
        -11    1    4    4    0    0 -0.20173399018E+02  0.11350408694E+01  0.10248334473E+02  0.22655743322E+02  0.51100000000E-03 0.  1.
         12    1    4    4    0    0 -0.15302191052E+01  0.27302164148E+01  0.13782503901E+01  0.34198284050E+01  0.00000000000E+00 0. -1.
</event>
<event>
 8    1  0.1278459E-006  0.9118800E+02  0.7816164E-02  0.1184000E+00
        -11   -1    0    0    0    0  0.00000000000E+00  0.00000000000E+00  0.45593999997E+02  0.45594000000E+02  0.51100000000E-03 0. -1.
         11   -1    0    0    0    0 -0.00000000000E+00 -0.00000000000E+00 -0.45593999997E+02  0.45594000000E+02  0.51100000000E-03 0.  1.
         23    2    1    2    0    0  0.00000000000E+00  0.00000000000E+00  0.00000000000E+00  0.91188000000E+02  0.91188000000E+02 0.  0.
    9900012    2    3    3    0    0  0.18674234332E+02 -0.31603415140E+01 -0.31576293990E+02  0.54367121025E+02  0.40000084001E+02 0.  0.
         12    1    3    3    0    0 -0.18674234332E+02  0.31603415140E+01  0.31576293990E+02  0.36820878975E+02  0.00000000000E+00 0. -1.
         11    1    4    4    0    0  0.34013583449E+01  0.34211499727E+01  0.50730365011E+01  0.70006574926E+01  0.51100000000E-03 0. -1.
        -11    1    4    4    0    0  0.17122177173E+02 -0.24669721900E+01 -0.38715686811E+02  0.42404708565E+02  0.51100000000E-03 0.  1.
        -12    1    4    4    0    0 -0.18493011860E+01 -0.41145192967E+01  0.20663563204E+01  0.49617549680E+01  0.00000000000E+00 0.  1.
</event>
<event>
 8    1  0.1278459E-006  0.9118800E+02  0.7816164E-02  0.1184000E+00
        -11   -1    0    0    0    0  0.00000000000E+00  0.00000000000E+00  0.45593999997E+02  0.45594000000E+02  0.51100000000E-03 0.  1.
         11   -1    0    0    0    0 -0.00000000000E+00 -0.00000000000E+00 -0.45593999997E+02  0.45594000000E+02  0.51100000000E-03 0. -1.
         23    2    1    2    0    0  0.00000000000E+00  0.00000000000E+00  0.00000000000E+00  0.91188000000E+02  0.91188000000E+02 0.  0.
    9900012    2    3    3    0    0  0.49079502583E+01 -0.61127849029E+01 -0.35976738823E+02  0.54367084051E+02  0.39999999711E+02 0.  0.
        -12    1    3    3    0    0 -0.49079502583E+01  0.61127849029E+01  0.35976738823E+02  0.36820915949E+02  0.00000000000E+00 0.  1.
         11    1    4    4    0    0 -0.21416939622E+01 -0.13218027044E+02 -0.26987601497E+02  0.30126960132E+02  0.51100000000E-03 0. -1.
        -11    1    4    4    0    0  0.83217897332E+01 -0.54070365904E+01 -0.35916450173E+01  0.10554058141E+02  0.51100000000E-03 0.  1.
        -12    1    4    4    0    0 -0.12721455128E+01  0.12512278731E+02 -0.53974923082E+01  0.13686065778E+02  0.00000000000E+00 0.  1.
</event>
<event>
 8    1  0.1278459E-006  0.9118800E+02  0.7816164E-02  0.1184000E+00
        -11   -1    0    0    0    0  0.00000000000E+00  0.00000000000E+00  0.45593999997E+02  0.45594000000E+02  0.51100000000E-03 0.  1.
         11   -1    0    0    0    0 -0.00000000000E+00 -0.00000000000E+00 -0.45593999997E+02  0.45594000000E+02  0.51100000000E-03 0. -1.
         23    2    1    2    0    0  0.00000000000E+00  0.83266726847E-16 -0.35527136788E-14  0.91188000000E+02  0.91188000000E+02 0.  0.
    9900012    2    3    3    0    0  0.22185044750E+02  0.13748253089E+00 -0.29386800260E+02  0.54367093689E+02  0.40000021684E+02 0.  0.
        -12    1    3    3    0    0 -0.22185044750E+02 -0.13748253089E+00  0.29386800260E+02  0.36820906311E+02  0.00000000000E+00 0.  1.
         11    1    4    4    0    0  0.17442518986E+02  0.66480530581E+01 -0.87510714102E+01  0.20615996923E+02  0.51100000000E-03 0. -1.
        -11    1    4    4    0    0  0.12362909963E+02 -0.87310712240E+01 -0.20905544790E+02  0.25809202829E+02  0.51100000000E-03 0.  1.
        -12    1    4    4    0    0 -0.76203841982E+01  0.22205006968E+01  0.26981594004E+00  0.79418939374E+01  0.00000000000E+00 0.  1.
</event>
<event>
 8    1  0.1278459E-006  0.9118800E+02  0.7816164E-02  0.1184000E+00
        -11   -1    0    0    0    0  0.00000000000E+00  0.00000000000E+00  0.45593999997E+02  0.45594000000E+02  0.51100000000E-03 0.  1.
         11   -1    0    0    0    0 -0.00000000000E+00 -0.00000000000E+00 -0.45593999997E+02  0.45594000000E+02  0.51100000000E-03 0. -1.
         23    2    1    2    0    0  0.35527136788E-14  0.00000000000E+00  0.44408920985E-15  0.91188000000E+02  0.91188000000E+02 0.  0.
    9900012    2    3    3    0    0  0.30192864016E+02 -0.20865018503E+02 -0.29695207634E+01  0.54367135151E+02  0.40000116204E+02 0.  0.
        -12    1    3    3    0    0 -0.30192864016E+02  0.20865018503E+02  0.29695207634E+01  0.36820864849E+02  0.00000000000E+00 0.  1.
         11    1    4    4    0    0  0.19738146176E+00 -0.21540031327E+02 -0.36411531737E+00  0.21544012840E+02  0.51100000000E-03 0.  1.
        -11    1    4    4    0    0  0.21643776403E+02  0.42804455059E+01  0.28025993437E+01  0.22240275045E+02  0.51100000000E-03 0. -1.
         12    1    4    4    0    0  0.83517061511E+01 -0.36054326820E+01 -0.54080047898E+01  0.10582847266E+02  0.00000000000E+00 0. -1.
</event>
<event>
 8    1  0.1278459E-006  0.9118800E+02  0.7816164E-02  0.1184000E+00
        -11   -1    0    0    0    0  0.00000000000E+00  0.00000000000E+00  0.45593999997E+02  0.45594000000E+02  0.51100000000E-03 0.  1.
         11   -1    0    0    0    0 -0.00000000000E+00 -0.00000000000E+00 -0.45593999997E+02  0.45594000000E+02  0.51100000000E-03 0. -1.
         23    2    1    2    0    0 -0.44408920985E-15  0.00000000000E+00  0.00000000000E+00  0.91188000000E+02  0.91188000000E+02 0.  0.
    9900012    2    3    3    0    0 -0.27684297546E+01  0.84318558323E+01  0.35735359200E+02  0.54367132367E+02  0.40000109858E+02 0.  0.
         12    1    3    3    0    0  0.27684297546E+01 -0.84318558323E+01 -0.35735359200E+02  0.36820867633E+02  0.00000000000E+00 0. -1.
         11    1    4    4    0    0 -0.11618049449E+01  0.34937963588E+01 -0.41371461583E+01  0.55382652810E+01  0.51100000000E-03 0. -1.
        -11    1    4    4    0    0  0.54685124350E+01  0.12371261818E+02  0.88771970602E+01  0.16178917613E+02  0.51100000000E-03 0.  1.
         12    1    4    4    0    0 -0.70751372446E+01 -0.74332023446E+01  0.30995308298E+02  0.32649949473E+02  0.00000000000E+00 0. -1.
</event>
<event>
 8    1  0.1278459E-006  0.9118800E+02  0.7816164E-02  0.1184000E+00
        -11   -1    0    0    0    0  0.00000000000E+00  0.00000000000E+00  0.45593999997E+02  0.45594000000E+02  0.51100000000E-03 0. -1.
         11   -1    0    0    0    0 -0.00000000000E+00 -0.00000000000E+00 -0.45593999997E+02  0.45594000000E+02  0.51100000000E-03 0.  1.
         23    2    1    2    0    0  0.88817841970E-15  0.00000000000E+00  0.00000000000E+00  0.91188000000E+02  0.91188000000E+02 0.  0.
    9900012    2    3    3    0    0  0.79524613253E+01  0.71119092066E+01 -0.35241429430E+02  0.54367092326E+02  0.40000018576E+02 0.  0.
         12    1    3    3    0    0 -0.79524613253E+01 -0.71119092066E+01  0.35241429430E+02  0.36820907674E+02  0.00000000000E+00 0. -1.
         11    1    4    4    0    0  0.37257201577E+00 -0.56656366730E+01 -0.16874278401E+02  0.17803918688E+02  0.51100000000E-03 0. -1.
        -11    1    4    4    0    0  0.20950073347E+01  0.52764106640E+01  0.73104011843E+01  0.92558916893E+01  0.51100000000E-03 0.  1.
        -12    1    4    4    0    0  0.54848819749E+01  0.75011352156E+01 -0.25677552213E+02  0.27307281949E+02  0.00000000000E+00 0.  1.
</event>
<event>
 8    1  0.1278459E-006  0.9118800E+02  0.7816164E-02  0.1184000E+00
        -11   -1    0    0    0    0  0.00000000000E+00  0.00000000000E+00  0.45593999997E+02  0.45594000000E+02  0.51100000000E-03 0. -1.
         11   -1    0    0    0    0 -0.00000000000E+00 -0.00000000000E+00 -0.45593999997E+02  0.45594000000E+02  0.51100000000E-03 0.  1.
         23    2    1    2    0    0  0.35527136788E-14 -0.13322676296E-14 -0.35527136788E-14  0.91188000000E+02  0.91188000000E+02 0.  0.
    9900012    2    3    3    0    0 -0.29226151707E+02 -0.19295187423E+01  0.22313388822E+02  0.54367105023E+02  0.40000047521E+02 0.  0.
        -12    1    3    3    0    0  0.29226151707E+02  0.19295187423E+01 -0.22313388822E+02  0.36820894977E+02  0.00000000000E+00 0.  1.
         11    1    4    4    0    0  0.32651509291E+01 -0.88319747815E+01 -0.20027363816E+01  0.96268344956E+01  0.51100000000E-03 0. -1.
        -11    1    4    4    0    0  0.13064851143E+00  0.45315693947E+01  0.12042996397E+01  0.46906852480E+01  0.51100000000E-03 0.  1.
         12    1    4    4    0    0 -0.32621951148E+02  0.23708866445E+01  0.23111825564E+02  0.40049585279E+02  0.00000000000E+00 0. -1.
</event>
<event>
 8    1  0.1278459E-006  0.9118800E+02  0.7816164E-02  0.1184000E+00
        -11   -1    0    0    0    0  0.00000000000E+00  0.00000000000E+00  0.45593999997E+02  0.45594000000E+02  0.51100000000E-03 0. -1.
         11   -1    0    0    0    0 -0.00000000000E+00 -0.00000000000E+00 -0.45593999997E+02  0.45594000000E+02  0.51100000000E-03 0.  1.
         23    2    1    2    0    0  0.00000000000E+00 -0.88817841970E-15  0.00000000000E+00  0.91188000000E+02  0.91188000000E+02 0.  0.
    9900012    2    3    3    0    0  0.10090853477E+02 -0.49262163847E+01  0.35066890601E+02  0.54367085451E+02  0.40000002903E+02 0.  0.
        -12    1    3    3    0    0 -0.10090853477E+02  0.49262163847E+01 -0.35066890601E+02  0.36820914549E+02  0.00000000000E+00 0.  1.
         11    1    4    4    0    0 -0.76825843504E+01  0.39718238935E+01 -0.67688014433E+00  0.86750016907E+01  0.51100000000E-03 0.  1.
        -11    1    4    4    0    0  0.18345620417E+01 -0.85972281406E+01  0.30257671975E+01  0.92969466483E+01  0.51100000000E-03 0. -1.
         12    1    4    4    0    0  0.15938875786E+02 -0.30081213760E+00  0.32718003548E+02  0.36395137112E+02  0.00000000000E+00 0. -1.
</event>
<event>
 8    1  0.1278459E-006  0.9118800E+02  0.7816164E-02  0.1184000E+00
        -11   -1    0    0    0    0  0.00000000000E+00  0.00000000000E+00  0.45593999997E+02  0.45594000000E+02  0.51100000000E-03 0.  1.
         11   -1    0    0    0    0 -0.00000000000E+00 -0.00000000000E+00 -0.45593999997E+02  0.45594000000E+02  0.51100000000E-03 0. -1.
         23    2    1    2    0    0  0.00000000000E+00 -0.35527136788E-14 -0.17763568394E-14  0.91188000000E+02  0.91188000000E+02 0.  0.
    9900012    2    3    3    0    0 -0.22459435792E+02  0.27429489312E+02 -0.99487397192E+01  0.54367074400E+02  0.39999977711E+02 0.  0.
        -12    1    3    3    0    0  0.22459435792E+02 -0.27429489312E+02  0.99487397192E+01  0.36820925600E+02  0.00000000000E+00 0.  1.
         11    1    4    4    0    0 -0.93420373290E+01  0.16947027104E+02  0.56838914500E+01  0.20168837631E+02  0.51100000000E-03 0. -1.
        -11    1    4    4    0    0 -0.23224632877E+01 -0.35799850811E+01  0.52758924709E+01  0.67856591816E+01  0.51100000000E-03 0.  1.
         12    1    4    4    0    0 -0.10794935175E+02  0.14062447289E+02 -0.20908523640E+02  0.27412577588E+02  0.00000000000E+00 0. -1.
</event>
<event>
 8    1  0.1278459E-006  0.9118800E+02  0.7816164E-02  0.1184000E+00
        -11   -1    0    0    0    0  0.00000000000E+00  0.00000000000E+00  0.45593999997E+02  0.45594000000E+02  0.51100000000E-03 0. -1.
         11   -1    0    0    0    0 -0.00000000000E+00 -0.00000000000E+00 -0.45593999997E+02  0.45594000000E+02  0.51100000000E-03 0.  1.
         23    2    1    2    0    0  0.00000000000E+00 -0.35527136788E-14  0.35527136788E-14  0.91188000000E+02  0.91188000000E+02 0.  0.
    9900012    2    3    3    0    0 -0.16739075482E+02 -0.19498395308E+02  0.26370350170E+02  0.54367089696E+02  0.40000012579E+02 0.  0.
        -12    1    3    3    0    0  0.16739075482E+02  0.19498395308E+02 -0.26370350170E+02  0.36820910304E+02  0.00000000000E+00 0.  1.
         11    1    4    4    0    0  0.93988762246E+00  0.49989887225E+01  0.21411412873E+01  0.55188552494E+01  0.51100000000E-03 0. -1.
        -11    1    4    4    0    0 -0.10315246672E+02 -0.70854055705E+00 -0.41062971482E+01  0.11125107647E+02  0.51100000000E-03 0.  1.
         12    1    4    4    0    0 -0.73637164322E+01 -0.23788843474E+02  0.28335506031E+02  0.37723126799E+02  0.00000000000E+00 0. -1.
</event>
<event>
 8    1  0.1278459E-006  0.9118800E+02  0.7816164E-02  0.1184000E+00
        -11   -1    0    0    0    0  0.00000000000E+00  0.00000000000E+00  0.45593999997E+02  0.45594000000E+02  0.51100000000E-03 0. -1.
         11   -1    0    0    0    0 -0.00000000000E+00 -0.00000000000E+00 -0.45593999997E+02  0.45594000000E+02  0.51100000000E-03 0.  1.
         23    2    1    2    0    0  0.44408920985E-15  0.17763568394E-14  0.71054273576E-14  0.91188000000E+02  0.91188000000E+02 0.  0.
    9900012    2    3    3    0    0 -0.12852829132E+01 -0.11130775239E+02 -0.35074693140E+02  0.54367079202E+02  0.39999988656E+02 0.  0.
         12    1    3    3    0    0  0.12852829132E+01  0.11130775239E+02  0.35074693140E+02  0.36820920798E+02  0.00000000000E+00 0. -1.
         11    1    4    4    0    0  0.30446662503E+01 -0.65717498773E+01 -0.29601560908E+02  0.30474748522E+02  0.51100000000E-03 0. -1.
        -11    1    4    4    0    0 -0.61678003645E+00  0.88884537986E+01 -0.93488123795E-02  0.89098325576E+01  0.51100000000E-03 0.  1.
         12    1    4    4    0    0 -0.37131691271E+01 -0.13447479160E+02 -0.54637834196E+01  0.14982498123E+02  0.00000000000E+00 0. -1.
</event>
<event>
 8    1  0.1278459E-006  0.9118800E+02  0.7816164E-02  0.1184000E+00
        -11   -1    0    0    0    0  0.00000000000E+00  0.00000000000E+00  0.45593999997E+02  0.45594000000E+02  0.51100000000E-03 0.  1.
         11   -1    0    0    0    0 -0.00000000000E+00 -0.00000000000E+00 -0.45593999997E+02  0.45594000000E+02  0.51100000000E-03 0. -1.
         23    2    1    2    0    0  0.00000000000E+00  0.00000000000E+00  0.00000000000E+00  0.91188000000E+02  0.91188000000E+02 0.  0.
    9900012    2    3    3    0    0 -0.25270749258E+02  0.22026721510E+02 -0.15231304622E+02  0.54367083811E+02  0.39999999163E+02 0.  0.
        -12    1    3    3    0    0  0.25270749258E+02 -0.22026721510E+02  0.15231304622E+02  0.36820916189E+02  0.00000000000E+00 0.  1.
         11    1    4    4    0    0 -0.24247389265E+02  0.84915778303E+01 -0.45069112352E+01  0.26083616110E+02  0.51100000000E-03 0. -1.
        -11    1    4    4    0    0 -0.26955400307E+01  0.50787438239E+01  0.67087534567E+01  0.88355502427E+01  0.51100000000E-03 0.  1.
         12    1    4    4    0    0  0.16721800378E+01  0.84563998553E+01 -0.17433146843E+02  0.19447917458E+02  0.00000000000E+00 0. -1.
</event>
<event>
 8    1  0.1278459E-006  0.9118800E+02  0.7816164E-02  0.1184000E+00
        -11   -1    0    0    0    0  0.00000000000E+00  0.00000000000E+00  0.45593999997E+02  0.45594000000E+02  0.51100000000E-03 0.  1.
         11   -1    0    0    0    0 -0.00000000000E+00 -0.00000000000E+00 -0.45593999997E+02  0.45594000000E+02  0.51100000000E-03 0. -1.
         23    2    1    2    0    0  0.35527136788E-14  0.66613381478E-15  0.00000000000E+00  0.91188000000E+02  0.91188000000E+02 0.  0.
    9900012    2    3    3    0    0 -0.16153406663E+02 -0.16142188070E+01 -0.33049088863E+02  0.54367074919E+02  0.39999978892E+02 0.  0.
        -12    1    3    3    0    0  0.16153406663E+02  0.16142188070E+01  0.33049088863E+02  0.36820925081E+02  0.00000000000E+00 0.  1.
         11    1    4    4    0    0 -0.10059007146E+02 -0.56401769918E+01 -0.14655081431E+02  0.18648502172E+02  0.51100000000E-03 0. -1.
        -11    1    4    4    0    0  0.98487470373E+01  0.22569649048E+01 -0.16792348208E+02  0.19597823027E+02  0.51100000000E-03 0.  1.
        -12    1    4    4    0    0 -0.15943146554E+02  0.17689932800E+01 -0.16016592243E+01  0.16120749720E+02  0.00000000000E+00 0.  1.
</event>
<event>
 8    1  0.1278459E-006  0.9118800E+02  0.7816164E-02  0.1184000E+00
        -11   -1    0    0    0    0  0.00000000000E+00  0.00000000000E+00  0.45593999997E+02  0.45594000000E+02  0.51100000000E-03 0. -1.
         11   -1    0    0    0    0 -0.00000000000E+00 -0.00000000000E+00 -0.45593999997E+02  0.45594000000E+02  0.51100000000E-03 0.  1.
         23    2    1    2    0    0  0.00000000000E+00  0.26645352591E-14 -0.35527136788E-14  0.91188000000E+02  0.91188000000E+02 0.  0.
    9900012    2    3    3    0    0  0.20425991049E+02 -0.45075865765E+01  0.30302407121E+02  0.54367145523E+02  0.40000139849E+02 0.  0.
        -12    1    3    3    0    0 -0.20425991049E+02  0.45075865765E+01 -0.30302407121E+02  0.36820854477E+02  0.00000000000E+00 0.  1.
         11    1    4    4    0    0  0.14879214142E+02 -0.14735543692E+02  0.21209875265E+02  0.29805805984E+02  0.51100000000E-03 0. -1.
        -11    1    4    4    0    0 -0.40631491957E+01 -0.39213095298E+01  0.14662402248E+01  0.58340132390E+01  0.51100000000E-03 0.  1.
         12    1    4    4    0    0  0.96099261025E+01  0.14149266645E+02  0.76262916318E+01  0.18727326300E+02  0.00000000000E+00 0. -1.
</event>
<event>
 8    1  0.1278459E-006  0.9118800E+02  0.7816164E-02  0.1184000E+00
        -11   -1    0    0    0    0  0.00000000000E+00  0.00000000000E+00  0.45593999997E+02  0.45594000000E+02  0.51100000000E-03 0.  1.
         11   -1    0    0    0    0 -0.00000000000E+00 -0.00000000000E+00 -0.45593999997E+02  0.45594000000E+02  0.51100000000E-03 0. -1.
         23    2    1    2    0    0 -0.17763568394E-14  0.44408920985E-15 -0.71054273576E-14  0.91188000000E+02  0.91188000000E+02 0.  0.
    9900012    2    3    3    0    0  0.94602671540E+01  0.25590791468E+01  0.35492731076E+02  0.54367088822E+02  0.40000010589E+02 0.  0.
         12    1    3    3    0    0 -0.94602671540E+01 -0.25590791468E+01 -0.35492731076E+02  0.36820911178E+02  0.00000000000E+00 0. -1.
         11    1    4    4    0    0 -0.61294853203E+01 -0.16592150973E+01 -0.69013063637E+00  0.63874772475E+01  0.51100000000E-03 0. -1.
        -11    1    4    4    0    0 -0.16584975243E+01  0.11082356210E+02  0.64561105399E+01  0.12932540229E+02  0.51100000000E-03 0.  1.
        -12    1    4    4    0    0  0.17248249999E+02 -0.68640619657E+01  0.29726751173E+02  0.35047071346E+02  0.00000000000E+00 0.  1.
</event>
<event>
 8    1  0.1278459E-006  0.9118800E+02  0.7816164E-02  0.1184000E+00
        -11   -1    0    0    0    0  0.00000000000E+00  0.00000000000E+00  0.45593999997E+02  0.45594000000E+02  0.51100000000E-03 0.  1.
         11   -1    0    0    0    0 -0.00000000000E+00 -0.00000000000E+00 -0.45593999997E+02  0.45594000000E+02  0.51100000000E-03 0. -1.
         23    2    1    2    0    0  0.00000000000E+00  0.71054273576E-14  0.88817841970E-15  0.91188000000E+02  0.91188000000E+02 0.  0.
    9900012    2    3    3    0    0  0.16310669777E+02 -0.32276152736E+02 -0.69276413287E+01  0.54367079338E+02  0.39999988966E+02 0.  0.
        -12    1    3    3    0    0 -0.16310669777E+02  0.32276152736E+02  0.69276413287E+01  0.36820920662E+02  0.00000000000E+00 0.  1.
         11    1    4    4    0    0 -0.96053126291E+01 -0.13279670669E+02 -0.12511838144E+01  0.16437066191E+02  0.51100000000E-03 0. -1.
        -11    1    4    4    0    0  0.10782625341E+02 -0.31820064815E+01 -0.10647220832E+02  0.15483975142E+02  0.51100000000E-03 0.  1.
         12    1    4    4    0    0  0.15133357066E+02 -0.15814475586E+02  0.49707633178E+01  0.22446038005E+02  0.00000000000E+00 0. -1.
</event>
<event>
 8    1  0.1278459E-006  0.9118800E+02  0.7816164E-02  0.1184000E+00
        -11   -1    0    0    0    0  0.00000000000E+00  0.00000000000E+00  0.45593999997E+02  0.45594000000E+02  0.51100000000E-03 0.  1.
         11   -1    0    0    0    0 -0.00000000000E+00 -0.00000000000E+00 -0.45593999997E+02  0.45594000000E+02  0.51100000000E-03 0. -1.
         23    2    1    2    0    0  0.00000000000E+00  0.00000000000E+00 -0.17763568394E-14  0.91188000000E+02  0.91188000000E+02 0.  0.
    9900012    2    3    3    0    0  0.10725110085E+02  0.34980565254E+02  0.41366615328E+01  0.54367083384E+02  0.39999998190E+02 0.  0.
        -12    1    3    3    0    0 -0.10725110085E+02 -0.34980565254E+02 -0.41366615328E+01  0.36820916616E+02  0.00000000000E+00 0.  1.
         11    1    4    4    0    0  0.12192002453E+02  0.20231771371E+02  0.12033680818E+02  0.26509978704E+02  0.51100000000E-03 0. -1.
        -11    1    4    4    0    0 -0.82314582410E+01  0.15090245621E+02  0.34033542788E+00  0.17192680016E+02  0.51100000000E-03 0.  1.
         12    1    4    4    0    0  0.67645658731E+01 -0.34145173752E+00 -0.82373547127E+01  0.10664424663E+02  0.00000000000E+00 0. -1.
</event>
<event>
 8    1  0.1278459E-006  0.9118800E+02  0.7816164E-02  0.1184000E+00
        -11   -1    0    0    0    0  0.00000000000E+00  0.00000000000E+00  0.45593999997E+02  0.45594000000E+02  0.51100000000E-03 0.  1.
         11   -1    0    0    0    0 -0.00000000000E+00 -0.00000000000E+00 -0.45593999997E+02  0.45594000000E+02  0.51100000000E-03 0. -1.
         23    2    1    2    0    0  0.00000000000E+00 -0.71054273576E-14  0.17763568394E-14  0.91188000000E+02  0.91188000000E+02 0.  0.
    9900012    2    3    3    0    0 -0.75376325549E+01  0.35961786867E+02 -0.23903435528E+01  0.54367085271E+02  0.40000002491E+02 0.  0.
         12    1    3    3    0    0  0.75376325549E+01 -0.35961786867E+02  0.23903435528E+01  0.36820914729E+02  0.00000000000E+00 0. -1.
         11    1    4    4    0    0  0.21714752253E+01  0.60507521201E+00 -0.95368345731E+00  0.24476382625E+01  0.51100000000E-03 0. -1.
        -11    1    4    4    0    0  0.21827932541E+01  0.17125212936E+01 -0.13859794893E+02  0.14134752574E+02  0.51100000000E-03 0.  1.
        -12    1    4    4    0    0 -0.11891901034E+02  0.33644190362E+02  0.12423134798E+02  0.37784694434E+02  0.00000000000E+00 0.  1.
</event>
<event>
 8    1  0.1278459E-006  0.9118800E+02  0.7816164E-02  0.1184000E+00
        -11   -1    0    0    0    0  0.00000000000E+00  0.00000000000E+00  0.45593999997E+02  0.45594000000E+02  0.51100000000E-03 0. -1.
         11   -1    0    0    0    0 -0.00000000000E+00 -0.00000000000E+00 -0.45593999997E+02  0.45594000000E+02  0.51100000000E-03 0.  1.
         23    2    1    2    0    0 -0.88817841970E-15  0.35527136788E-14  0.35527136788E-14  0.91188000000E+02  0.91188000000E+02 0.  0.
    9900012    2    3    3    0    0  0.62215286641E+01 -0.30972346098E+02 -0.18915198008E+02  0.54367104337E+02  0.40000045957E+02 0.  0.
         12    1    3    3    0    0 -0.62215286641E+01  0.30972346098E+02  0.18915198008E+02  0.36820895663E+02  0.00000000000E+00 0. -1.
         11    1    4    4    0    0  0.67050790991E+01 -0.10741101325E+02 -0.10435106189E+02  0.16407948831E+02  0.51100000000E-03 0. -1.
        -11    1    4    4    0    0  0.13602909180E+02 -0.10682389579E+02 -0.11368721115E+02  0.20697835765E+02  0.51100000000E-03 0.  1.
         12    1    4    4    0    0 -0.14086459615E+02 -0.95488551940E+01  0.28886292967E+01  0.17261319741E+02  0.00000000000E+00 0. -1.
</event>
<event>
 8    1  0.1278459E-006  0.9118800E+02  0.7816164E-02  0.1184000E+00
        -11   -1    0    0    0    0  0.00000000000E+00  0.00000000000E+00  0.45593999997E+02  0.45594000000E+02  0.51100000000E-03 0.  1.
         11   -1    0    0    0    0 -0.00000000000E+00 -0.00000000000E+00 -0.45593999997E+02  0.45594000000E+02  0.51100000000E-03 0. -1.
         23    2    1    2    0    0 -0.17763568394E-14  0.00000000000E+00  0.00000000000E+00  0.91188000000E+02  0.91188000000E+02 0.  0.
    9900012    2    3    3    0    0  0.82259694981E+01  0.35504765578E+02 -0.52464123041E+01  0.54367084816E+02  0.40000001456E+02 0.  0.
        -12    1    3    3    0    0 -0.82259694981E+01 -0.35504765578E+02  0.52464123041E+01  0.36820915184E+02  0.00000000000E+00 0.  1.
         11    1    4    4    0    0  0.12794010199E+02 -0.19466451949E+00 -0.71758012087E+01  0.14670266340E+02  0.51100000000E-03 0. -1.
        -11    1    4    4    0    0  0.61317189698E+01  0.17217652678E+02  0.30351878275E+00  0.18279432846E+02  0.51100000000E-03 0.  1.
        -12    1    4    4    0    0 -0.10699759670E+02  0.18481777419E+02  0.16258701219E+01  0.21417385630E+02  0.00000000000E+00 0.  1.
</event>
<event>
 8    1  0.1278459E-006  0.9118800E+02  0.7816164E-02  0.1184000E+00
        -11   -1    0    0    0    0  0.00000000000E+00  0.00000000000E+00  0.45593999997E+02  0.45594000000E+02  0.51100000000E-03 0.  1.
         11   -1    0    0    0    0 -0.00000000000E+00 -0.00000000000E+00 -0.45593999997E+02  0.45594000000E+02  0.51100000000E-03 0. -1.
         23    2    1    2    0    0 -0.71054273576E-14 -0.17763568394E-14  0.00000000000E+00  0.91188000000E+02  0.91188000000E+02 0.  0.
    9900012    2    3    3    0    0 -0.30818564507E+02 -0.90630573403E+01  0.17996035204E+02  0.54367079185E+02  0.39999988618E+02 0.  0.
         12    1    3    3    0    0  0.30818564507E+02  0.90630573403E+01 -0.17996035204E+02  0.36820920815E+02  0.00000000000E+00 0. -1.
         11    1    4    4    0    0  0.16092265267E+01 -0.10908178172E+02  0.12444921398E+02  0.16626906805E+02  0.51100000000E-03 0. -1.
        -11    1    4    4    0    0 -0.20492716687E+02 -0.56714332913E+01  0.92047156696E+01  0.23169880958E+02  0.51100000000E-03 0.  1.
         12    1    4    4    0    0 -0.11935074346E+02  0.75165541231E+01 -0.36536018638E+01  0.14570291422E+02  0.00000000000E+00 0. -1.
</event>
<event>
 8    1  0.1278459E-006  0.9118800E+02  0.7816164E-02  0.1184000E+00
        -11   -1    0    0    0    0  0.00000000000E+00  0.00000000000E+00  0.45593999997E+02  0.45594000000E+02  0.51100000000E-03 0. -1.
         11   -1    0    0    0    0 -0.00000000000E+00 -0.00000000000E+00 -0.45593999997E+02  0.45594000000E+02  0.51100000000E-03 0.  1.
         23    2    1    2    0    0 -0.35527136788E-14  0.11102230246E-15  0.00000000000E+00  0.91188000000E+02  0.91188000000E+02 0.  0.
    9900012    2    3    3    0    0  0.14947076487E+02 -0.78887612721E+00 -0.33641379457E+02  0.54367084303E+02  0.40000000284E+02 0.  0.
         12    1    3    3    0    0 -0.14947076487E+02  0.78887612721E+00  0.33641379457E+02  0.36820915697E+02  0.00000000000E+00 0. -1.
         11    1    4    4    0    0 -0.17547104189E+01  0.52163000923E+01 -0.21057866378E+02  0.21765167860E+02  0.51100000000E-03 0.  1.
        -11    1    4    4    0    0 -0.46699988016E+01 -0.63698097014E+01 -0.20402931153E+00  0.79009488455E+01  0.51100000000E-03 0. -1.
        -12    1    4    4    0    0  0.21371785707E+02  0.36463348189E+00 -0.12379483767E+02  0.24700967597E+02  0.00000000000E+00 0.  1.
</event>
<event>
 8    1  0.1278459E-006  0.9118800E+02  0.7816164E-02  0.1184000E+00
        -11   -1    0    0    0    0  0.00000000000E+00  0.00000000000E+00  0.45593999997E+02  0.45594000000E+02  0.51100000000E-03 0. -1.
         11   -1    0    0    0    0 -0.00000000000E+00 -0.00000000000E+00 -0.45593999997E+02  0.45594000000E+02  0.51100000000E-03 0.  1.
         23    2    1    2    0    0 -0.35527136788E-14 -0.35527136788E-14  0.17763568394E-14  0.91188000000E+02  0.91188000000E+02 0.  0.
    9900012    2    3    3    0    0  0.28240532088E+02 -0.23428122478E+02 -0.30622188264E+01  0.54367058138E+02  0.39999940637E+02 0.  0.
        -12    1    3    3    0    0 -0.28240532088E+02  0.23428122478E+02  0.30622188264E+01  0.36820941862E+02  0.00000000000E+00 0.  1.
         11    1    4    4    0    0  0.20821706914E+02 -0.16388727068E+02  0.78339881071E+01  0.27631598282E+02  0.51100000000E-03 0. -1.
        -11    1    4    4    0    0  0.47933321960E+01 -0.62861573143E+00  0.64479437614E+01  0.80589807228E+01  0.51100000000E-03 0.  1.
        -12    1    4    4    0    0  0.26254929782E+01 -0.64107796787E+01 -0.17344150695E+02  0.18676479133E+02  0.00000000000E+00 0.  1.
</event>
<event>
 8    1  0.1278459E-006  0.9118800E+02  0.7816164E-02  0.1184000E+00
        -11   -1    0    0    0    0  0.00000000000E+00  0.00000000000E+00  0.45593999997E+02  0.45594000000E+02  0.51100000000E-03 0.  1.
         11   -1    0    0    0    0 -0.00000000000E+00 -0.00000000000E+00 -0.45593999997E+02  0.45594000000E+02  0.51100000000E-03 0. -1.
         23    2    1    2    0    0  0.17763568394E-14 -0.71054273576E-14 -0.35527136788E-14  0.91188000000E+02  0.91188000000E+02 0.  0.
    9900012    2    3    3    0    0 -0.14414356073E+02  0.21513149392E+02 -0.26176127466E+02  0.54367096876E+02  0.40000028949E+02 0.  0.
        -12    1    3    3    0    0  0.14414356073E+02 -0.21513149392E+02  0.26176127466E+02  0.36820903124E+02  0.00000000000E+00 0.  1.
         11    1    4    4    0    0 -0.54880431061E+01 -0.35887193209E+01 -0.19164888386E+02  0.20255628121E+02  0.51100000000E-03 0. -1.
        -11    1    4    4    0    0 -0.14435794934E+02  0.20314722324E+02 -0.90818876741E+01  0.26524720592E+02  0.51100000000E-03 0.  1.
         12    1    4    4    0    0  0.55094819672E+01  0.47871463885E+01  0.20706485937E+01  0.75867481631E+01  0.00000000000E+00 0. -1.
</event>
<event>
 8    1  0.1278459E-006  0.9118800E+02  0.7816164E-02  0.1184000E+00
        -11   -1    0    0    0    0  0.00000000000E+00  0.00000000000E+00  0.45593999997E+02  0.45594000000E+02  0.51100000000E-03 0. -1.
         11   -1    0    0    0    0 -0.00000000000E+00 -0.00000000000E+00 -0.45593999997E+02  0.45594000000E+02  0.51100000000E-03 0.  1.
         23    2    1    2    0    0  0.00000000000E+00  0.00000000000E+00 -0.35527136788E-14  0.91188000000E+02  0.91188000000E+02 0.  0.
    9900012    2    3    3    0    0  0.17203430938E+02  0.27876872847E+02 -0.16813773944E+02  0.54367067502E+02  0.39999961983E+02 0.  0.
         12    1    3    3    0    0 -0.17203430938E+02 -0.27876872847E+02  0.16813773944E+02  0.36820932498E+02  0.00000000000E+00 0. -1.
         11    1    4    4    0    0  0.84823408957E+01  0.14049217574E+01  0.79684676315E+00  0.86347482442E+01  0.51100000000E-03 0. -1.
        -11    1    4    4    0    0 -0.14415026119E+01  0.30716126817E+02 -0.15798642560E+02  0.34571020862E+02  0.51100000000E-03 0.  1.
         12    1    4    4    0    0  0.10162592655E+02 -0.42441757272E+01 -0.18119781472E+01  0.11161298395E+02  0.00000000000E+00 0. -1.
</event>
<event>
 8    1  0.1278459E-006  0.9118800E+02  0.7816164E-02  0.1184000E+00
        -11   -1    0    0    0    0  0.00000000000E+00  0.00000000000E+00  0.45593999997E+02  0.45594000000E+02  0.51100000000E-03 0.  1.
         11   -1    0    0    0    0 -0.00000000000E+00 -0.00000000000E+00 -0.45593999997E+02  0.45594000000E+02  0.51100000000E-03 0. -1.
         23    2    1    2    0    0 -0.17763568394E-14  0.00000000000E+00 -0.35527136788E-14  0.91188000000E+02  0.91188000000E+02 0.  0.
    9900012    2    3    3    0    0 -0.14407731508E+02 -0.20474557274E+02 -0.26999917263E+02  0.54367003884E+02  0.39999816954E+02 0.  0.
        -12    1    3    3    0    0  0.14407731508E+02  0.20474557274E+02  0.26999917263E+02  0.36820996116E+02  0.00000000000E+00 0.  1.
         11    1    4    4    0    0 -0.18066359614E+02 -0.18520714560E+02 -0.11081609805E+02  0.28146266070E+02  0.51100000000E-03 0. -1.
        -11    1    4    4    0    0  0.25492635975E+01 -0.88990950465E+01 -0.49592405883E+00  0.92703062770E+01  0.51100000000E-03 0.  1.
         12    1    4    4    0    0  0.11093645090E+01  0.69452523328E+01 -0.15422383400E+02  0.16950431537E+02  0.00000000000E+00 0. -1.
</event>
<event>
 8    1  0.1278459E-006  0.9118800E+02  0.7816164E-02  0.1184000E+00
        -11   -1    0    0    0    0  0.00000000000E+00  0.00000000000E+00  0.45593999997E+02  0.45594000000E+02  0.51100000000E-03 0.  1.
         11   -1    0    0    0    0 -0.00000000000E+00 -0.00000000000E+00 -0.45593999997E+02  0.45594000000E+02  0.51100000000E-03 0. -1.
         23    2    1    2    0    0 -0.88817841970E-15 -0.35527136788E-14  0.00000000000E+00  0.91188000000E+02  0.91188000000E+02 0.  0.
    9900012    2    3    3    0    0  0.76162675703E+01  0.27038874397E+02  0.23804920419E+02  0.54367048132E+02  0.39999917826E+02 0.  0.
         12    1    3    3    0    0 -0.76162675703E+01 -0.27038874397E+02 -0.23804920419E+02  0.36820951868E+02  0.00000000000E+00 0. -1.
         11    1    4    4    0    0 -0.12396963930E+02  0.32543737227E+01  0.78097446220E+01  0.15008923157E+02  0.51100000000E-03 0. -1.
        -11    1    4    4    0    0 -0.73936841460E+00  0.11603026476E+02  0.75155823675E+01  0.13844163667E+02  0.51100000000E-03 0.  1.
         12    1    4    4    0    0  0.20752599915E+02  0.12181474198E+02  0.84795934296E+01  0.25513961307E+02  0.00000000000E+00 0. -1.
</event>
<event>
 8    1  0.1278459E-006  0.9118800E+02  0.7816164E-02  0.1184000E+00
        -11   -1    0    0    0    0  0.00000000000E+00  0.00000000000E+00  0.45593999997E+02  0.45594000000E+02  0.51100000000E-03 0.  1.
         11   -1    0    0    0    0 -0.00000000000E+00 -0.00000000000E+00 -0.45593999997E+02  0.45594000000E+02  0.51100000000E-03 0. -1.
         23    2    1    2    0    0  0.35527136788E-14  0.35527136788E-14 -0.88817841970E-15  0.91188000000E+02  0.91188000000E+02 0.  0.
    9900012    2    3    3    0    0  0.23239774747E+02  0.28079411094E+02 -0.52192100447E+01  0.54367073733E+02  0.39999976190E+02 0.  0.
         12    1    3    3    0    0 -0.23239774747E+02 -0.28079411094E+02  0.52192100447E+01  0.36820926267E+02  0.00000000000E+00 0. -1.
         11    1    4    4    0    0  0.11559851293E+02  0.76737453728E+01  0.75538983639E+01  0.15798035027E+02  0.51100000000E-03 0. -1.
        -11    1    4    4    0    0  0.15953614192E+02  0.23901225629E+02 -0.52098530537E+01  0.29204947551E+02  0.51100000000E-03 0.  1.
         12    1    4    4    0    0 -0.42736907384E+01 -0.34955599080E+01 -0.75632553548E+01  0.93640911550E+01  0.00000000000E+00 0. -1.
</event>
<event>
 8    1  0.1278459E-006  0.9118800E+02  0.7816164E-02  0.1184000E+00
        -11   -1    0    0    0    0  0.00000000000E+00  0.00000000000E+00  0.45593999997E+02  0.45594000000E+02  0.51100000000E-03 0.  1.
         11   -1    0    0    0    0 -0.00000000000E+00 -0.00000000000E+00 -0.45593999997E+02  0.45594000000E+02  0.51100000000E-03 0. -1.
         23    2    1    2    0    0 -0.17763568394E-14  0.35527136788E-14  0.35527136788E-14  0.91188000000E+02  0.91188000000E+02 0.  0.
    9900012    2    3    3    0    0  0.73802393046E+01 -0.19147294606E+02  0.30572781315E+02  0.54367057857E+02  0.39999939997E+02 0.  0.
         12    1    3    3    0    0 -0.73802393046E+01  0.19147294606E+02 -0.30572781315E+02  0.36820942143E+02  0.00000000000E+00 0. -1.
         11    1    4    4    0    0 -0.18507367677E+01 -0.10420238514E+02  0.19357845977E+01  0.10758896762E+02  0.51100000000E-03 0. -1.
        -11    1    4    4    0    0  0.20150400727E+02 -0.63497625798E+01  0.22477209683E+02  0.30847740430E+02  0.51100000000E-03 0.  1.
         12    1    4    4    0    0 -0.10919424654E+02 -0.23772935127E+01  0.61597870348E+01  0.12760420665E+02  0.00000000000E+00 0. -1.
</event>
<event>
 8    1  0.1278459E-006  0.9118800E+02  0.7816164E-02  0.1184000E+00
        -11   -1    0    0    0    0  0.00000000000E+00  0.00000000000E+00  0.45593999997E+02  0.45594000000E+02  0.51100000000E-03 0.  1.
         11   -1    0    0    0    0 -0.00000000000E+00 -0.00000000000E+00 -0.45593999997E+02  0.45594000000E+02  0.51100000000E-03 0. -1.
         23    2    1    2    0    0  0.00000000000E+00 -0.88817841970E-15  0.00000000000E+00  0.91188000000E+02  0.91188000000E+02 0.  0.
    9900012    2    3    3    0    0  0.98286604999E+01  0.51276690387E+01 -0.35112447615E+02  0.54367088353E+02  0.40000009518E+02 0.  0.
        -12    1    3    3    0    0 -0.98286604999E+01 -0.51276690387E+01  0.35112447615E+02  0.36820911647E+02  0.00000000000E+00 0.  1.
         11    1    4    4    0    0  0.13209319426E+02  0.18758115647E+02 -0.32482539651E+02  0.39767680405E+02  0.51100000000E-03 0. -1.
        -11    1    4    4    0    0 -0.13317946492E+01 -0.47178606334E+01 -0.23836811678E+01  0.54510386272E+01  0.51100000000E-03 0.  1.
         12    1    4    4    0    0 -0.20488642768E+01 -0.89125859751E+01 -0.24622679632E+00  0.91483693205E+01  0.00000000000E+00 0. -1.
</event>
<event>
 8    1  0.1278459E-006  0.9118800E+02  0.7816164E-02  0.1184000E+00
        -11   -1    0    0    0    0  0.00000000000E+00  0.00000000000E+00  0.45593999997E+02  0.45594000000E+02  0.51100000000E-03 0. -1.
         11   -1    0    0    0    0 -0.00000000000E+00 -0.00000000000E+00 -0.45593999997E+02  0.45594000000E+02  0.51100000000E-03 0.  1.
         23    2    1    2    0    0  0.00000000000E+00  0.00000000000E+00  0.00000000000E+00  0.91188000000E+02  0.91188000000E+02 0.  0.
    9900012    2    3    3    0    0  0.33629789466E+02 -0.10134225635E+02  0.11050561664E+02  0.54367079563E+02  0.39999989479E+02 0.  0.
         12    1    3    3    0    0 -0.33629789466E+02  0.10134225635E+02 -0.11050561664E+02  0.36820920437E+02  0.00000000000E+00 0. -1.
         11    1    4    4    0    0  0.19535957918E+02  0.62872638136E+01 -0.94295684782E+01  0.22585395723E+02  0.51100000000E-03 0. -1.
        -11    1    4    4    0    0  0.43037336012E+01 -0.59577429040E+01  0.73702646596E+00  0.73864762704E+01  0.51100000000E-03 0.  1.
         12    1    4    4    0    0  0.97900979474E+01 -0.10463746545E+02  0.19743103676E+02  0.24395207569E+02  0.00000000000E+00 0. -1.
</event>
<event>
 8    1  0.1278459E-006  0.9118800E+02  0.7816164E-02  0.1184000E+00
        -11   -1    0    0    0    0  0.00000000000E+00  0.00000000000E+00  0.45593999997E+02  0.45594000000E+02  0.51100000000E-03 0.  1.
         11   -1    0    0    0    0 -0.00000000000E+00 -0.00000000000E+00 -0.45593999997E+02  0.45594000000E+02  0.51100000000E-03 0. -1.
         23    2    1    2    0    0  0.00000000000E+00 -0.35527136788E-14  0.00000000000E+00  0.91188000000E+02  0.91188000000E+02 0.  0.
    9900012    2    3    3    0    0 -0.20920087265E+02 -0.14985421346E+02  0.26335647103E+02  0.54367092727E+02  0.40000019489E+02 0.  0.
         12    1    3    3    0    0  0.20920087265E+02  0.14985421346E+02 -0.26335647103E+02  0.36820907273E+02  0.00000000000E+00 0. -1.
         11    1    4    4    0    0 -0.85537841427E+01  0.10005667184E+02  0.64347148508E+01  0.14652172345E+02  0.51100000000E-03 0. -1.
        -11    1    4    4    0    0 -0.13902790581E+02 -0.26838895641E+02  0.13935866245E+02  0.33283964208E+02  0.51100000000E-03 0.  1.
         12    1    4    4    0    0  0.15364874581E+01  0.18478071119E+01  0.59650660074E+01  0.64309561734E+01  0.00000000000E+00 0. -1.
</event>
<event>
 8    1  0.1278459E-006  0.9118800E+02  0.7816164E-02  0.1184000E+00
        -11   -1    0    0    0    0  0.00000000000E+00  0.00000000000E+00  0.45593999997E+02  0.45594000000E+02  0.51100000000E-03 0. -1.
         11   -1    0    0    0    0 -0.00000000000E+00 -0.00000000000E+00 -0.45593999997E+02  0.45594000000E+02  0.51100000000E-03 0.  1.
         23    2    1    2    0    0  0.00000000000E+00  0.00000000000E+00  0.00000000000E+00  0.91188000000E+02  0.91188000000E+02 0.  0.
    9900012    2    3    3    0    0 -0.32506343057E+02 -0.17468327221E+01 -0.17206559352E+02  0.54367089525E+02  0.40000012191E+02 0.  0.
         12    1    3    3    0    0  0.32506343057E+02  0.17468327221E+01  0.17206559352E+02  0.36820910475E+02  0.00000000000E+00 0. -1.
         11    1    4    4    0    0  0.22471628788E+01 -0.35581929510E+01  0.98077505024E+00  0.43211570257E+01  0.51100000000E-03 0. -1.
        -11    1    4    4    0    0 -0.19791203683E+02 -0.12927832837E+02 -0.16792976502E+02  0.28996976828E+02  0.51100000000E-03 0.  1.
         12    1    4    4    0    0 -0.14962302252E+02  0.14739193066E+02 -0.13943578996E+01  0.21048955672E+02  0.00000000000E+00 0. -1.
</event>
<event>
 8    1  0.1278459E-006  0.9118800E+02  0.7816164E-02  0.1184000E+00
        -11   -1    0    0    0    0  0.00000000000E+00  0.00000000000E+00  0.45593999997E+02  0.45594000000E+02  0.51100000000E-03 0. -1.
         11   -1    0    0    0    0 -0.00000000000E+00 -0.00000000000E+00 -0.45593999997E+02  0.45594000000E+02  0.51100000000E-03 0.  1.
         23    2    1    2    0    0  0.00000000000E+00  0.00000000000E+00 -0.35527136788E-14  0.91188000000E+02  0.91188000000E+02 0.  0.
    9900012    2    3    3    0    0  0.22428967003E+02  0.21853821287E+02 -0.19368364752E+02  0.54367060050E+02  0.39999944996E+02 0.  0.
         12    1    3    3    0    0 -0.22428967003E+02 -0.21853821287E+02  0.19368364752E+02  0.36820939950E+02  0.00000000000E+00 0. -1.
         11    1    4    4    0    0  0.44907196883E+01 -0.40048206279E+01 -0.92548345408E+01  0.11038890987E+02  0.51100000000E-03 0. -1.
        -11    1    4    4    0    0  0.82530666426E+01  0.17871076763E+02 -0.19457692008E+02  0.27678335792E+02  0.51100000000E-03 0.  1.
        -12    1    4    4    0    0  0.96851806723E+01  0.79875651515E+01  0.93441617974E+01  0.15649833271E+02  0.00000000000E+00 0.  1.
</event>
<event>
 8    1  0.1278459E-006  0.9118800E+02  0.7816164E-02  0.1184000E+00
        -11   -1    0    0    0    0  0.00000000000E+00  0.00000000000E+00  0.45593999997E+02  0.45594000000E+02  0.51100000000E-03 0. -1.
         11   -1    0    0    0    0 -0.00000000000E+00 -0.00000000000E+00 -0.45593999997E+02  0.45594000000E+02  0.51100000000E-03 0.  1.
         23    2    1    2    0    0  0.00000000000E+00  0.17763568394E-14  0.35527136788E-14  0.91188000000E+02  0.91188000000E+02 0.  0.
    9900012    2    3    3    0    0  0.21552984421E+02 -0.87841730220E+01 -0.28532193575E+02  0.54367096924E+02  0.40000029058E+02 0.  0.
         12    1    3    3    0    0 -0.21552984421E+02  0.87841730220E+01  0.28532193575E+02  0.36820903076E+02  0.00000000000E+00 0. -1.
         11    1    4    4    0    0  0.12326980039E+02 -0.15659212107E+01  0.48647554842E+01  0.13344376805E+02  0.51100000000E-03 0. -1.
        -11    1    4    4    0    0  0.14915462388E+01  0.72539099941E+01 -0.10863831280E+02  0.13147880085E+02  0.51100000000E-03 0.  1.
         12    1    4    4    0    0  0.77344581429E+01 -0.14472161805E+02 -0.22533117779E+02  0.27874840034E+02  0.00000000000E+00 0. -1.
</event>
<event>
 8    1  0.1278459E-006  0.9118800E+02  0.7816164E-02  0.1184000E+00
        -11   -1    0    0    0    0  0.00000000000E+00  0.00000000000E+00  0.45593999997E+02  0.45594000000E+02  0.51100000000E-03 0.  1.
         11   -1    0    0    0    0 -0.00000000000E+00 -0.00000000000E+00 -0.45593999997E+02  0.45594000000E+02  0.51100000000E-03 0. -1.
         23    2    1    2    0    0  0.00000000000E+00  0.00000000000E+00  0.00000000000E+00  0.91188000000E+02  0.91188000000E+02 0.  0.
    9900012    2    3    3    0    0  0.25149945097E+02  0.22871864450E+02  0.14146996233E+02  0.54367089851E+02  0.40000012932E+02 0.  0.
         12    1    3    3    0    0 -0.25149945097E+02 -0.22871864450E+02 -0.14146996233E+02  0.36820910149E+02  0.00000000000E+00 0. -1.
         11    1    4    4    0    0  0.59864434368E+01 -0.62608109891E+01  0.23624554811E+01  0.89786666841E+01  0.51100000000E-03 0. -1.
        -11    1    4    4    0    0  0.16155335990E+02  0.22654884922E+02  0.20175129717E+02  0.34369674877E+02  0.51100000000E-03 0.  1.
        -12    1    4    4    0    0  0.30081656698E+01  0.64777905178E+01 -0.83905889651E+01  0.11018748290E+02  0.00000000000E+00 0.  1.
</event>
<event>
 8    1  0.1278459E-006  0.9118800E+02  0.7816164E-02  0.1184000E+00
        -11   -1    0    0    0    0  0.00000000000E+00  0.00000000000E+00  0.45593999997E+02  0.45594000000E+02  0.51100000000E-03 0.  1.
         11   -1    0    0    0    0 -0.00000000000E+00 -0.00000000000E+00 -0.45593999997E+02  0.45594000000E+02  0.51100000000E-03 0. -1.
         23    2    1    2    0    0  0.00000000000E+00  0.00000000000E+00 -0.35527136788E-14  0.91188000000E+02  0.91188000000E+02 0.  0.
    9900012    2    3    3    0    0 -0.29078288113E+02 -0.73541294671E+01 -0.21357678999E+02  0.54367075079E+02  0.39999979257E+02 0.  0.
         12    1    3    3    0    0  0.29078288113E+02  0.73541294671E+01  0.21357678999E+02  0.36820924921E+02  0.00000000000E+00 0. -1.
         11    1    4    4    0    0  0.53866450873E+01  0.32602543299E+01 -0.88165973722E+01  0.10834094013E+02  0.51100000000E-03 0. -1.
        -11    1    4    4    0    0 -0.19640446256E+02 -0.12076605028E+02  0.14427467462E+01  0.23101364388E+02  0.51100000000E-03 0.  1.
         12    1    4    4    0    0 -0.14824486945E+02  0.14622212316E+01 -0.13983828373E+02  0.20431616678E+02  0.00000000000E+00 0. -1.
</event>
<event>
 8    1  0.1278459E-006  0.9118800E+02  0.7816164E-02  0.1184000E+00
        -11   -1    0    0    0    0  0.00000000000E+00  0.00000000000E+00  0.45593999997E+02  0.45594000000E+02  0.51100000000E-03 0.  1.
         11   -1    0    0    0    0 -0.00000000000E+00 -0.00000000000E+00 -0.45593999997E+02  0.45594000000E+02  0.51100000000E-03 0. -1.
         23    2    1    2    0    0  0.00000000000E+00  0.88817841970E-15  0.00000000000E+00  0.91188000000E+02  0.91188000000E+02 0.  0.
    9900012    2    3    3    0    0 -0.80825043318E+01 -0.70750650379E+01  0.35219264895E+02  0.54367081471E+02  0.39999993830E+02 0.  0.
         12    1    3    3    0    0  0.80825043318E+01  0.70750650379E+01 -0.35219264895E+02  0.36820918529E+02  0.00000000000E+00 0. -1.
         11    1    4    4    0    0 -0.49905069340E+01 -0.18423856420E+01 -0.12765646357E+01  0.54707551437E+01  0.51100000000E-03 0. -1.
        -11    1    4    4    0    0  0.11002264332E+02  0.46547102256E+01  0.26302864369E+02  0.28888697132E+02  0.51100000000E-03 0.  1.
        -12    1    4    4    0    0 -0.14094261730E+02 -0.98873896215E+01  0.10192965161E+02  0.20007629196E+02  0.00000000000E+00 0.  1.
</event>
<event>
 8    1  0.1278459E-006  0.9118800E+02  0.7816164E-02  0.1184000E+00
        -11   -1    0    0    0    0  0.00000000000E+00  0.00000000000E+00  0.45593999997E+02  0.45594000000E+02  0.51100000000E-03 0.  1.
         11   -1    0    0    0    0 -0.00000000000E+00 -0.00000000000E+00 -0.45593999997E+02  0.45594000000E+02  0.51100000000E-03 0. -1.
         23    2    1    2    0    0 -0.88817841970E-15  0.00000000000E+00  0.17763568394E-14  0.91188000000E+02  0.91188000000E+02 0.  0.
    9900012    2    3    3    0    0  0.42350883765E+01 -0.33051548328E+02 -0.15666494886E+02  0.54367083628E+02  0.39999998747E+02 0.  0.
        -12    1    3    3    0    0 -0.42350883765E+01  0.33051548328E+02  0.15666494886E+02  0.36820916372E+02  0.00000000000E+00 0.  1.
         11    1    4    4    0    0 -0.49058488264E+01 -0.26041616089E+02 -0.23334949619E+02  0.35309389618E+02  0.51100000000E-03 0. -1.
        -11    1    4    4    0    0 -0.21256507135E+01 -0.36581998917E+01  0.57635296792E+01  0.71497616763E+01  0.51100000000E-03 0.  1.
         12    1    4    4    0    0  0.11266587916E+02 -0.33517323477E+01  0.19049250534E+01  0.11907932334E+02  0.00000000000E+00 0. -1.
</event>
<event>
 8    1  0.1278459E-006  0.9118800E+02  0.7816164E-02  0.1184000E+00
        -11   -1    0    0    0    0  0.00000000000E+00  0.00000000000E+00  0.45593999997E+02  0.45594000000E+02  0.51100000000E-03 0.  1.
         11   -1    0    0    0    0 -0.00000000000E+00 -0.00000000000E+00 -0.45593999997E+02  0.45594000000E+02  0.51100000000E-03 0. -1.
         23    2    1    2    0    0 -0.66613381478E-15  0.00000000000E+00  0.00000000000E+00  0.91188000000E+02  0.91188000000E+02 0.  0.
    9900012    2    3    3    0    0 -0.90044707466E+00 -0.14729320006E+02 -0.33734488520E+02  0.54367090336E+02  0.40000014040E+02 0.  0.
        -12    1    3    3    0    0  0.90044707466E+00  0.14729320006E+02  0.33734488520E+02  0.36820909664E+02  0.00000000000E+00 0.  1.
         11    1    4    4    0    0  0.53790809330E+01 -0.49228803081E+01 -0.33335850232E+00  0.72993417761E+01  0.51100000000E-03 0. -1.
        -11    1    4    4    0    0  0.25973487851E+01 -0.14055731861E+01  0.55267691179E+01  0.62663413438E+01  0.51100000000E-03 0.  1.
         12    1    4    4    0    0 -0.88768767928E+01 -0.84008665114E+01 -0.38927899136E+02  0.40801407216E+02  0.00000000000E+00 0. -1.
</event>
<event>
 8    1  0.1278459E-006  0.9118800E+02  0.7816164E-02  0.1184000E+00
        -11   -1    0    0    0    0  0.00000000000E+00  0.00000000000E+00  0.45593999997E+02  0.45594000000E+02  0.51100000000E-03 0. -1.
         11   -1    0    0    0    0 -0.00000000000E+00 -0.00000000000E+00 -0.45593999997E+02  0.45594000000E+02  0.51100000000E-03 0.  1.
         23    2    1    2    0    0 -0.71054273576E-14  0.88817841970E-15  0.00000000000E+00  0.91188000000E+02  0.91188000000E+02 0.  0.
    9900012    2    3    3    0    0 -0.34672825188E+02  0.64244173426E+01  0.10597267514E+02  0.54367081714E+02  0.39999994383E+02 0.  0.
        -12    1    3    3    0    0  0.34672825188E+02 -0.64244173426E+01 -0.10597267514E+02  0.36820918286E+02  0.00000000000E+00 0.  1.
         11    1    4    4    0    0 -0.13583432773E+02  0.16820618931E+02 -0.12649104850E+01  0.21657397487E+02  0.51100000000E-03 0. -1.
        -11    1    4    4    0    0 -0.20341877875E+02 -0.14175327948E+01  0.12073479795E+02  0.23697474746E+02  0.51100000000E-03 0.  1.
        -12    1    4    4    0    0 -0.74751453979E+00 -0.89786687932E+01 -0.21130179563E+00  0.90122094812E+01  0.00000000000E+00 0.  1.
</event>
<event>
 8    1  0.1278459E-006  0.9118800E+02  0.7816164E-02  0.1184000E+00
        -11   -1    0    0    0    0  0.00000000000E+00  0.00000000000E+00  0.45593999997E+02  0.45594000000E+02  0.51100000000E-03 0.  1.
         11   -1    0    0    0    0 -0.00000000000E+00 -0.00000000000E+00 -0.45593999997E+02  0.45594000000E+02  0.51100000000E-03 0. -1.
         23    2    1    2    0    0  0.88817841970E-15 -0.35527136788E-14 -0.35527136788E-14  0.91188000000E+02  0.91188000000E+02 0.  0.
    9900012    2    3    3    0    0  0.51870440449E+01  0.30331935415E+02  0.20219970944E+02  0.54367096196E+02  0.40000027398E+02 0.  0.
         12    1    3    3    0    0 -0.51870440449E+01 -0.30331935415E+02 -0.20219970944E+02  0.36820903804E+02  0.00000000000E+00 0. -1.
         11    1    4    4    0    0  0.57575491802E+01 -0.36386950296E+01  0.14672332037E+01  0.69672266804E+01  0.51100000000E-03 0. -1.
        -11    1    4    4    0    0  0.77858338917E+01  0.18364346474E+02  0.21676466455E+02  0.29457386663E+02  0.51100000000E-03 0.  1.
         12    1    4    4    0    0 -0.83563390270E+01  0.15606283971E+02 -0.29237287139E+01  0.17942482852E+02  0.00000000000E+00 0. -1.
</event>
<event>
 8    1  0.1278459E-006  0.9118800E+02  0.7816164E-02  0.1184000E+00
        -11   -1    0    0    0    0  0.00000000000E+00  0.00000000000E+00  0.45593999997E+02  0.45594000000E+02  0.51100000000E-03 0.  1.
         11   -1    0    0    0    0 -0.00000000000E+00 -0.00000000000E+00 -0.45593999997E+02  0.45594000000E+02  0.51100000000E-03 0. -1.
         23    2    1    2    0    0  0.00000000000E+00  0.00000000000E+00  0.00000000000E+00  0.91188000000E+02  0.91188000000E+02 0.  0.
    9900012    2    3    3    0    0 -0.10424999455E+02 -0.12062690630E+02  0.33190223110E+02  0.54367081638E+02  0.39999994211E+02 0.  0.
         12    1    3    3    0    0  0.10424999455E+02  0.12062690630E+02 -0.33190223110E+02  0.36820918362E+02  0.00000000000E+00 0. -1.
         11    1    4    4    0    0 -0.48018600713E+01 -0.10987007072E+02  0.72365778380E+01  0.14005007805E+02  0.51100000000E-03 0. -1.
        -11    1    4    4    0    0  0.64800324470E+01 -0.59433843159E+01  0.25862542949E+02  0.27316401038E+02  0.51100000000E-03 0.  1.
         12    1    4    4    0    0 -0.12103171831E+02  0.48677007578E+01  0.91102323195E-01  0.13045672795E+02  0.00000000000E+00 0. -1.
</event>
<event>
 8    1  0.1278459E-006  0.9118800E+02  0.7816164E-02  0.1184000E+00
        -11   -1    0    0    0    0  0.00000000000E+00  0.00000000000E+00  0.45593999997E+02  0.45594000000E+02  0.51100000000E-03 0. -1.
         11   -1    0    0    0    0 -0.00000000000E+00 -0.00000000000E+00 -0.45593999997E+02  0.45594000000E+02  0.51100000000E-03 0.  1.
         23    2    1    2    0    0  0.26645352591E-14 -0.71054273576E-14 -0.17763568394E-14  0.91188000000E+02  0.91188000000E+02 0.  0.
    9900012    2    3    3    0    0  0.67095887373E+01  0.34089569942E+02 -0.12192722834E+02  0.54367084069E+02  0.39999999753E+02 0.  0.
         12    1    3    3    0    0 -0.67095887373E+01 -0.34089569942E+02  0.12192722834E+02  0.36820915931E+02  0.00000000000E+00 0. -1.
         11    1    4    4    0    0 -0.12464312345E+02  0.56744460497E+01  0.31556285051E+01  0.14054053213E+02  0.51100000000E-03 0. -1.
        -11    1    4    4    0    0  0.22423027169E+01  0.47960106143E+00  0.22462325217E+01  0.32099064558E+01  0.51100000000E-03 0.  1.
        -12    1    4    4    0    0  0.16931598365E+02  0.27935522831E+02 -0.17594583861E+02  0.37103124400E+02  0.00000000000E+00 0.  1.
</event>
<event>
 8    1  0.1278459E-006  0.9118800E+02  0.7816164E-02  0.1184000E+00
        -11   -1    0    0    0    0  0.00000000000E+00  0.00000000000E+00  0.45593999997E+02  0.45594000000E+02  0.51100000000E-03 0.  1.
         11   -1    0    0    0    0 -0.00000000000E+00 -0.00000000000E+00 -0.45593999997E+02  0.45594000000E+02  0.51100000000E-03 0. -1.
         23    2    1    2    0    0  0.71054273576E-14 -0.88817841970E-15  0.00000000000E+00  0.91188000000E+02  0.91188000000E+02 0.  0.
    9900012    2    3    3    0    0 -0.32157559288E+02 -0.56128492066E+01 -0.17034258590E+02  0.54367100211E+02  0.40000036551E+02 0.  0.
        -12    1    3    3    0    0  0.32157559288E+02  0.56128492066E+01  0.17034258590E+02  0.36820899789E+02  0.00000000000E+00 0.  1.
         11    1    4    4    0    0 -0.89712441048E+01  0.14920941027E+02 -0.30086386213E+01  0.17668322177E+02  0.51100000000E-03 0. -1.
        -11    1    4    4    0    0 -0.22014946294E+02 -0.14692156076E+02 -0.67871004913E+01  0.27323653559E+02  0.51100000000E-03 0.  1.
         12    1    4    4    0    0 -0.11713688894E+01 -0.58416341578E+01 -0.72385194773E+01  0.93751244756E+01  0.00000000000E+00 0. -1.
</event>
<event>
 8    1  0.1278459E-006  0.9118800E+02  0.7816164E-02  0.1184000E+00
        -11   -1    0    0    0    0  0.00000000000E+00  0.00000000000E+00  0.45593999997E+02  0.45594000000E+02  0.51100000000E-03 0. -1.
         11   -1    0    0    0    0 -0.00000000000E+00 -0.00000000000E+00 -0.45593999997E+02  0.45594000000E+02  0.51100000000E-03 0.  1.
         23    2    1    2    0    0  0.00000000000E+00 -0.17763568394E-14  0.00000000000E+00  0.91188000000E+02  0.91188000000E+02 0.  0.
    9900012    2    3    3    0    0  0.33251927143E+02 -0.14821438414E+02  0.55149047254E+01  0.54367083804E+02  0.39999999148E+02 0.  0.
        -12    1    3    3    0    0 -0.33251927143E+02  0.14821438414E+02 -0.55149047254E+01  0.36820916196E+02  0.00000000000E+00 0.  1.
         11    1    4    4    0    0  0.25933440934E+02 -0.26333406394E+02  0.57907525230E+01  0.37410218738E+02  0.51100000000E-03 0. -1.
        -11    1    4    4    0    0 -0.18475703445E+01  0.17805960847E+01  0.21772474072E+01  0.33651812920E+01  0.51100000000E-03 0.  1.
         12    1    4    4    0    0  0.91660565539E+01  0.97313718958E+01 -0.24530952047E+01  0.13591683774E+02  0.00000000000E+00 0. -1.
</event>
<event>
 8    1  0.1278459E-006  0.9118800E+02  0.7816164E-02  0.1184000E+00
        -11   -1    0    0    0    0  0.00000000000E+00  0.00000000000E+00  0.45593999997E+02  0.45594000000E+02  0.51100000000E-03 0.  1.
         11   -1    0    0    0    0 -0.00000000000E+00 -0.00000000000E+00 -0.45593999997E+02  0.45594000000E+02  0.51100000000E-03 0. -1.
         23    2    1    2    0    0  0.00000000000E+00 -0.13045120539E-14  0.71054273576E-14  0.91188000000E+02  0.91188000000E+02 0.  0.
    9900012    2    3    3    0    0 -0.81957127354E+01  0.17543596696E+00  0.35896806821E+02  0.54367065398E+02  0.39999957188E+02 0.  0.
         12    1    3    3    0    0  0.81957127354E+01 -0.17543596696E+00 -0.35896806821E+02  0.36820934602E+02  0.00000000000E+00 0. -1.
         11    1    4    4    0    0 -0.15807607192E+02  0.53160869700E+01  0.14044183258E+02  0.21803217869E+02  0.51100000000E-03 0. -1.
        -11    1    4    4    0    0  0.11271561662E+02  0.55803005997E+01  0.92132633735E+01  0.15590769042E+02  0.51100000000E-03 0.  1.
        -12    1    4    4    0    0 -0.36596672058E+01 -0.10720951603E+02  0.12639360189E+02  0.16973078487E+02  0.00000000000E+00 0.  1.
</event>
<event>
 8    1  0.1278459E-006  0.9118800E+02  0.7816164E-02  0.1184000E+00
        -11   -1    0    0    0    0  0.00000000000E+00  0.00000000000E+00  0.45593999997E+02  0.45594000000E+02  0.51100000000E-03 0. -1.
         11   -1    0    0    0    0 -0.00000000000E+00 -0.00000000000E+00 -0.45593999997E+02  0.45594000000E+02  0.51100000000E-03 0.  1.
         23    2    1    2    0    0  0.00000000000E+00  0.17763568394E-14  0.00000000000E+00  0.91188000000E+02  0.91188000000E+02 0.  0.
    9900012    2    3    3    0    0 -0.12314928074E+02 -0.59901323613E+01 -0.34179521671E+02  0.54367097773E+02  0.40000030992E+02 0.  0.
         12    1    3    3    0    0  0.12314928074E+02  0.59901323613E+01  0.34179521671E+02  0.36820902227E+02  0.00000000000E+00 0. -1.
         11    1    4    4    0    0  0.85702019300E+01  0.48927456653E+01 -0.30207420551E+01  0.10320474993E+02  0.51100000000E-03 0. -1.
        -11    1    4    4    0    0 -0.19775450090E+02  0.41295332523E+00 -0.19524539541E+02  0.27792923583E+02  0.51100000000E-03 0.  1.
         12    1    4    4    0    0 -0.11096799139E+01 -0.11295831352E+02 -0.11634240075E+02  0.16253699196E+02  0.00000000000E+00 0. -1.
</event>
<event>
 8    1  0.1278459E-006  0.9118800E+02  0.7816164E-02  0.1184000E+00
        -11   -1    0    0    0    0  0.00000000000E+00  0.00000000000E+00  0.45593999997E+02  0.45594000000E+02  0.51100000000E-03 0. -1.
         11   -1    0    0    0    0 -0.00000000000E+00 -0.00000000000E+00 -0.45593999997E+02  0.45594000000E+02  0.51100000000E-03 0.  1.
         23    2    1    2    0    0  0.00000000000E+00  0.00000000000E+00  0.00000000000E+00  0.91188000000E+02  0.91188000000E+02 0.  0.
    9900012    2    3    3    0    0  0.23101633882E+02  0.27478824022E+02 -0.81858746890E+01  0.54367084720E+02  0.40000001235E+02 0.  0.
         12    1    3    3    0    0 -0.23101633882E+02 -0.27478824022E+02  0.81858746890E+01  0.36820915280E+02  0.00000000000E+00 0. -1.
         11    1    4    4    0    0  0.86872042461E+01 -0.52477983619E+01  0.76708248726E+01  0.12721967605E+02  0.51100000000E-03 0. -1.
        -11    1    4    4    0    0  0.94391708072E+01  0.31984927927E+02 -0.14894460208E+02  0.36523670478E+02  0.51100000000E-03 0.  1.
        -12    1    4    4    0    0  0.49752588285E+01  0.74169445721E+00 -0.96223935340E+00  0.51214466366E+01  0.00000000000E+00 0.  1.
</event>
<event>
 8    1  0.1278459E-006  0.9118800E+02  0.7816164E-02  0.1184000E+00
        -11   -1    0    0    0    0  0.00000000000E+00  0.00000000000E+00  0.45593999997E+02  0.45594000000E+02  0.51100000000E-03 0.  1.
         11   -1    0    0    0    0 -0.00000000000E+00 -0.00000000000E+00 -0.45593999997E+02  0.45594000000E+02  0.51100000000E-03 0. -1.
         23    2    1    2    0    0  0.00000000000E+00  0.88817841970E-15 -0.35527136788E-14  0.91188000000E+02  0.91188000000E+02 0.  0.
    9900012    2    3    3    0    0 -0.18957424251E+02 -0.54611521096E+01 -0.31089759957E+02  0.54367064505E+02  0.39999955151E+02 0.  0.
        -12    1    3    3    0    0  0.18957424251E+02  0.54611521096E+01  0.31089759957E+02  0.36820935495E+02  0.00000000000E+00 0.  1.
         11    1    4    4    0    0 -0.85204299248E+01  0.11146042854E+01 -0.20701461107E+01  0.88388672350E+01  0.51100000000E-03 0. -1.
        -11    1    4    4    0    0  0.94915326377E+01 -0.19157436734E+01  0.39862646023E+00  0.96911386818E+01  0.51100000000E-03 0.  1.
         12    1    4    4    0    0 -0.19928526964E+02 -0.46600127216E+01 -0.29418240306E+02  0.35837058588E+02  0.00000000000E+00 0. -1.
</event>
<event>
 8    1  0.1278459E-006  0.9118800E+02  0.7816164E-02  0.1184000E+00
        -11   -1    0    0    0    0  0.00000000000E+00  0.00000000000E+00  0.45593999997E+02  0.45594000000E+02  0.51100000000E-03 0. -1.
         11   -1    0    0    0    0 -0.00000000000E+00 -0.00000000000E+00 -0.45593999997E+02  0.45594000000E+02  0.51100000000E-03 0.  1.
         23    2    1    2    0    0 -0.35527136788E-14  0.35527136788E-14  0.00000000000E+00  0.91188000000E+02  0.91188000000E+02 0.  0.
    9900012    2    3    3    0    0  0.24633013586E+02 -0.16392896446E+02 -0.21915002853E+02  0.54367085261E+02  0.40000002469E+02 0.  0.
         12    1    3    3    0    0 -0.24633013586E+02  0.16392896446E+02  0.21915002853E+02  0.36820914739E+02  0.00000000000E+00 0. -1.
         11    1    4    4    0    0  0.12425517308E+00  0.11627448641E+02 -0.14762756839E+01  0.11721450056E+02  0.51100000000E-03 0. -1.
        -11    1    4    4    0    0  0.13475755692E+02 -0.12769644760E+02 -0.91567370584E+01  0.20700378078E+02  0.51100000000E-03 0.  1.
         12    1    4    4    0    0  0.11033002720E+02 -0.15250700327E+02 -0.11281990111E+02  0.21945257127E+02  0.00000000000E+00 0. -1.
</event>
<event>
 8    1  0.1278459E-006  0.9118800E+02  0.7816164E-02  0.1184000E+00
        -11   -1    0    0    0    0  0.00000000000E+00  0.00000000000E+00  0.45593999997E+02  0.45594000000E+02  0.51100000000E-03 0. -1.
         11   -1    0    0    0    0 -0.00000000000E+00 -0.00000000000E+00 -0.45593999997E+02  0.45594000000E+02  0.51100000000E-03 0.  1.
         23    2    1    2    0    0 -0.17763568394E-14  0.00000000000E+00  0.00000000000E+00  0.91188000000E+02  0.91188000000E+02 0.  0.
    9900012    2    3    3    0    0  0.13187084247E+02  0.27633900583E+02  0.20451134194E+02  0.54367074670E+02  0.39999978324E+02 0.  0.
         12    1    3    3    0    0 -0.13187084247E+02 -0.27633900583E+02 -0.20451134194E+02  0.36820925330E+02  0.00000000000E+00 0. -1.
         11    1    4    4    0    0  0.18096020711E+02  0.96806743502E+01  0.50981425106E+01  0.21146453101E+02  0.51100000000E-03 0. -1.
        -11    1    4    4    0    0  0.49720092753E+01  0.18527033588E+02  0.75413789511E+01  0.20611750206E+02  0.51100000000E-03 0.  1.
        -12    1    4    4    0    0 -0.98809457387E+01 -0.57380735483E+00  0.78116127319E+01  0.12608871363E+02  0.00000000000E+00 0.  1.
</event>
<event>
 8    1  0.1278459E-006  0.9118800E+02  0.7816164E-02  0.1184000E+00
        -11   -1    0    0    0    0  0.00000000000E+00  0.00000000000E+00  0.45593999997E+02  0.45594000000E+02  0.51100000000E-03 0. -1.
         11   -1    0    0    0    0 -0.00000000000E+00 -0.00000000000E+00 -0.45593999997E+02  0.45594000000E+02  0.51100000000E-03 0.  1.
         23    2    1    2    0    0 -0.35527136788E-14 -0.17763568394E-14  0.35527136788E-14  0.91188000000E+02  0.91188000000E+02 0.  0.
    9900012    2    3    3    0    0 -0.27597133161E+02 -0.11318979014E+02  0.21588385009E+02  0.54367090018E+02  0.40000013314E+02 0.  0.
         12    1    3    3    0    0  0.27597133161E+02  0.11318979014E+02 -0.21588385009E+02  0.36820909982E+02  0.00000000000E+00 0. -1.
         11    1    4    4    0    0  0.48891457818E+01  0.11601408075E+01 -0.11474129403E+01  0.51542438714E+01  0.51100000000E-03 0. -1.
        -11    1    4    4    0    0 -0.24225492352E+02 -0.99849644793E+00  0.22930917370E+01  0.24354255169E+02  0.51100000000E-03 0.  1.
        -12    1    4    4    0    0 -0.82607865905E+01 -0.11480623374E+02  0.20442706212E+02  0.24858590978E+02  0.00000000000E+00 0.  1.
</event>
<event>
 8    1  0.1278459E-006  0.9118800E+02  0.7816164E-02  0.1184000E+00
        -11   -1    0    0    0    0  0.00000000000E+00  0.00000000000E+00  0.45593999997E+02  0.45594000000E+02  0.51100000000E-03 0. -1.
         11   -1    0    0    0    0 -0.00000000000E+00 -0.00000000000E+00 -0.45593999997E+02  0.45594000000E+02  0.51100000000E-03 0.  1.
         23    2    1    2    0    0  0.17763568394E-14  0.35527136788E-14  0.00000000000E+00  0.91188000000E+02  0.91188000000E+02 0.  0.
    9900012    2    3    3    0    0 -0.14770915926E+02 -0.30433394839E+02  0.14539973193E+02  0.54367050812E+02  0.39999923935E+02 0.  0.
         12    1    3    3    0    0  0.14770915926E+02  0.30433394839E+02 -0.14539973193E+02  0.36820949188E+02  0.00000000000E+00 0. -1.
         11    1    4    4    0    0 -0.13378827617E+02 -0.31644054074E+02  0.22631411690E+02  0.41140247714E+02  0.51100000000E-03 0. -1.
        -11    1    4    4    0    0 -0.44982435720E+01  0.22070916571E+01 -0.58795543772E+00  0.50449123554E+01  0.51100000000E-03 0.  1.
         12    1    4    4    0    0  0.31061552628E+01 -0.99643242206E+00 -0.75034830599E+01  0.81818907423E+01  0.00000000000E+00 0. -1.
</event>
<event>
 8    1  0.1278459E-006  0.9118800E+02  0.7816164E-02  0.1184000E+00
        -11   -1    0    0    0    0  0.00000000000E+00  0.00000000000E+00  0.45593999997E+02  0.45594000000E+02  0.51100000000E-03 0.  1.
         11   -1    0    0    0    0 -0.00000000000E+00 -0.00000000000E+00 -0.45593999997E+02  0.45594000000E+02  0.51100000000E-03 0. -1.
         23    2    1    2    0    0 -0.13322676296E-14  0.35527136788E-14 -0.35527136788E-14  0.91188000000E+02  0.91188000000E+02 0.  0.
    9900012    2    3    3    0    0 -0.39642776610E+01  0.27269525297E+02 -0.24422070522E+02  0.54367081545E+02  0.39999993998E+02 0.  0.
        -12    1    3    3    0    0  0.39642776610E+01 -0.27269525297E+02  0.24422070522E+02  0.36820918455E+02  0.00000000000E+00 0.  1.
         11    1    4    4    0    0 -0.85350564530E+01  0.14615144425E+02 -0.27608040596E+02  0.32382920514E+02  0.51100000000E-03 0. -1.
        -11    1    4    4    0    0 -0.44646804913E+01  0.11858998718E+02  0.21866962139E+01  0.12858882652E+02  0.51100000000E-03 0.  1.
        -12    1    4    4    0    0  0.90354592833E+01  0.79538215472E+00  0.99927386055E+00  0.91252783782E+01  0.00000000000E+00 0.  1.
</event>
<event>
 8    1  0.1278459E-006  0.9118800E+02  0.7816164E-02  0.1184000E+00
        -11   -1    0    0    0    0  0.00000000000E+00  0.00000000000E+00  0.45593999997E+02  0.45594000000E+02  0.51100000000E-03 0. -1.
         11   -1    0    0    0    0 -0.00000000000E+00 -0.00000000000E+00 -0.45593999997E+02  0.45594000000E+02  0.51100000000E-03 0.  1.
         23    2    1    2    0    0  0.00000000000E+00 -0.88817841970E-15  0.00000000000E+00  0.91188000000E+02  0.91188000000E+02 0.  0.
    9900012    2    3    3    0    0  0.35331451892E+02 -0.14138250455E+01 -0.10269810929E+02  0.54367090036E+02  0.40000013356E+02 0.  0.
         12    1    3    3    0    0 -0.35331451892E+02  0.14138250455E+01  0.10269810929E+02  0.36820909964E+02  0.00000000000E+00 0. -1.
         11    1    4    4    0    0  0.89545339897E+01  0.64413842406E+01  0.47253379925E+00  0.11040760769E+02  0.51100000000E-03 0. -1.
        -11    1    4    4    0    0  0.70377121958E+01 -0.18527097933E+02 -0.62975139168E+01  0.20795226197E+02  0.51100000000E-03 0.  1.
        -12    1    4    4    0    0  0.19339205706E+02  0.10671888647E+02 -0.44448308115E+01  0.22531103071E+02  0.00000000000E+00 0.  1.
</event>
<event>
 8    1  0.1278459E-006  0.9118800E+02  0.7816164E-02  0.1184000E+00
        -11   -1    0    0    0    0  0.00000000000E+00  0.00000000000E+00  0.45593999997E+02  0.45594000000E+02  0.51100000000E-03 0. -1.
         11   -1    0    0    0    0 -0.00000000000E+00 -0.00000000000E+00 -0.45593999997E+02  0.45594000000E+02  0.51100000000E-03 0.  1.
         23    2    1    2    0    0  0.22204460493E-15 -0.35527136788E-14  0.00000000000E+00  0.91188000000E+02  0.91188000000E+02 0.  0.
    9900012    2    3    3    0    0 -0.94855962795E+00 -0.30652427575E+02 -0.20379108012E+02  0.54367093915E+02  0.40000022198E+02 0.  0.
        -12    1    3    3    0    0  0.94855962795E+00  0.30652427575E+02  0.20379108012E+02  0.36820906085E+02  0.00000000000E+00 0.  1.
         11    1    4    4    0    0  0.22451471348E+01 -0.50181477290E+01 -0.15007022768E+02  0.15982278464E+02  0.51100000000E-03 0. -1.
        -11    1    4    4    0    0 -0.82751823204E+01  0.56433933475E+00 -0.80567699998E+01  0.11563246275E+02  0.51100000000E-03 0.  1.
         12    1    4    4    0    0  0.50814755577E+01 -0.26198619180E+02  0.26846847563E+01  0.26821569176E+02  0.00000000000E+00 0. -1.
</event>
<event>
 8    1  0.1278459E-006  0.9118800E+02  0.7816164E-02  0.1184000E+00
        -11   -1    0    0    0    0  0.00000000000E+00  0.00000000000E+00  0.45593999997E+02  0.45594000000E+02  0.51100000000E-03 0.  1.
         11   -1    0    0    0    0 -0.00000000000E+00 -0.00000000000E+00 -0.45593999997E+02  0.45594000000E+02  0.51100000000E-03 0. -1.
         23    2    1    2    0    0  0.00000000000E+00  0.00000000000E+00 -0.17763568394E-14  0.91188000000E+02  0.91188000000E+02 0.  0.
    9900012    2    3    3    0    0  0.36260641041E+02  0.22831724375E+01 -0.59776924486E+01  0.54367085127E+02  0.40000002164E+02 0.  0.
         12    1    3    3    0    0 -0.36260641041E+02 -0.22831724375E+01  0.59776924486E+01  0.36820914873E+02  0.00000000000E+00 0. -1.
         11    1    4    4    0    0  0.20048603693E+02 -0.77876388391E+01 -0.13937416845E+02  0.25628995636E+02  0.51100000000E-03 0. -1.
        -11    1    4    4    0    0  0.13410128247E+02 -0.84457541823E+00  0.10657819179E+02  0.17150334024E+02  0.51100000000E-03 0.  1.
         12    1    4    4    0    0  0.28019091012E+01  0.10915386695E+02 -0.26980947819E+01  0.11587755467E+02  0.00000000000E+00 0. -1.
</event>
<event>
 8    1  0.1278459E-006  0.9118800E+02  0.7816164E-02  0.1184000E+00
        -11   -1    0    0    0    0  0.00000000000E+00  0.00000000000E+00  0.45593999997E+02  0.45594000000E+02  0.51100000000E-03 0.  1.
         11   -1    0    0    0    0 -0.00000000000E+00 -0.00000000000E+00 -0.45593999997E+02  0.45594000000E+02  0.51100000000E-03 0. -1.
         23    2    1    2    0    0  0.00000000000E+00  0.17763568394E-14 -0.71054273576E-14  0.91188000000E+02  0.91188000000E+02 0.  0.
    9900012    2    3    3    0    0  0.21045253534E+02  0.13654556764E+02 -0.26952398023E+02  0.54367063348E+02  0.39999952515E+02 0.  0.
        -12    1    3    3    0    0 -0.21045253534E+02 -0.13654556764E+02  0.26952398023E+02  0.36820936652E+02  0.00000000000E+00 0.  1.
         11    1    4    4    0    0  0.26555033270E+02  0.15656102386E+02 -0.13334950417E+02  0.33587263014E+02  0.51100000000E-03 0.  1.
        -11    1    4    4    0    0  0.93746948289E+00  0.56121487319E+01 -0.55638418288E+01  0.79581026996E+01  0.51100000000E-03 0. -1.
        -12    1    4    4    0    0 -0.64472492192E+01 -0.76136943544E+01 -0.80536057778E+01  0.12821697635E+02  0.00000000000E+00 0.  1.
</event>
<event>
 8    1  0.1278459E-006  0.9118800E+02  0.7816164E-02  0.1184000E+00
        -11   -1    0    0    0    0  0.00000000000E+00  0.00000000000E+00  0.45593999997E+02  0.45594000000E+02  0.51100000000E-03 0.  1.
         11   -1    0    0    0    0 -0.00000000000E+00 -0.00000000000E+00 -0.45593999997E+02  0.45594000000E+02  0.51100000000E-03 0. -1.
         23    2    1    2    0    0  0.00000000000E+00 -0.17763568394E-14 -0.35527136788E-14  0.91188000000E+02  0.91188000000E+02 0.  0.
    9900012    2    3    3    0    0  0.26350547286E+02 -0.96267474038E+01 -0.23848566103E+02  0.54367085929E+02  0.40000003992E+02 0.  0.
        -12    1    3    3    0    0 -0.26350547286E+02  0.96267474038E+01  0.23848566103E+02  0.36820914071E+02  0.00000000000E+00 0.  1.
         11    1    4    4    0    0  0.72238415068E+01  0.48890492160E+01 -0.27238764023E+02  0.28601345320E+02  0.51100000000E-03 0. -1.
        -11    1    4    4    0    0  0.30729439308E+01 -0.41305424331E+01  0.41768350184E+01  0.66295034675E+01  0.51100000000E-03 0.  1.
        -12    1    4    4    0    0  0.16053761849E+02 -0.10385254187E+02 -0.78663709826E+00  0.19136237141E+02  0.00000000000E+00 0.  1.
</event>
<event>
 8    1  0.1278459E-006  0.9118800E+02  0.7816164E-02  0.1184000E+00
        -11   -1    0    0    0    0  0.00000000000E+00  0.00000000000E+00  0.45593999997E+02  0.45594000000E+02  0.51100000000E-03 0.  1.
         11   -1    0    0    0    0 -0.00000000000E+00 -0.00000000000E+00 -0.45593999997E+02  0.45594000000E+02  0.51100000000E-03 0. -1.
         23    2    1    2    0    0 -0.35527136788E-14  0.00000000000E+00  0.00000000000E+00  0.91188000000E+02  0.91188000000E+02 0.  0.
    9900012    2    3    3    0    0 -0.26047872226E+02 -0.11201035435E+02 -0.23490944908E+02  0.54367091063E+02  0.40000015696E+02 0.  0.
        -12    1    3    3    0    0  0.26047872226E+02  0.11201035435E+02  0.23490944908E+02  0.36820908937E+02  0.00000000000E+00 0.  1.
         11    1    4    4    0    0 -0.18223838663E+02 -0.24421564371E+02 -0.84063565893E+01  0.31609934092E+02  0.51100000000E-03 0. -1.
        -11    1    4    4    0    0 -0.82716387003E+01  0.82129762909E+01 -0.82853022992E+01  0.14301021670E+02  0.51100000000E-03 0.  1.
         12    1    4    4    0    0  0.44760513750E+00  0.50075526457E+01 -0.67992860193E+01  0.84561353012E+01  0.00000000000E+00 0. -1.
</event>
<event>
 8    1  0.1278459E-006  0.9118800E+02  0.7816164E-02  0.1184000E+00
        -11   -1    0    0    0    0  0.00000000000E+00  0.00000000000E+00  0.45593999997E+02  0.45594000000E+02  0.51100000000E-03 0.  1.
         11   -1    0    0    0    0 -0.00000000000E+00 -0.00000000000E+00 -0.45593999997E+02  0.45594000000E+02  0.51100000000E-03 0. -1.
         23    2    1    2    0    0 -0.17763568394E-14  0.35527136788E-14  0.35527136788E-14  0.91188000000E+02  0.91188000000E+02 0.  0.
    9900012    2    3    3    0    0  0.13502368447E+02 -0.19345236042E+02 -0.28270602481E+02  0.54367094582E+02  0.40000023719E+02 0.  0.
        -12    1    3    3    0    0 -0.13502368447E+02  0.19345236042E+02  0.28270602481E+02  0.36820905418E+02  0.00000000000E+00 0.  1.
         11    1    4    4    0    0  0.10340063594E+02 -0.14118485489E+02 -0.81994301431E+01  0.19325610018E+02  0.51100000000E-03 0. -1.
        -11    1    4    4    0    0  0.13502126617E+01  0.18476893403E+01  0.68109190250E+01  0.71850990499E+01  0.51100000000E-03 0.  1.
         12    1    4    4    0    0  0.18120921903E+01 -0.70744398933E+01 -0.26882091362E+02  0.27856385514E+02  0.00000000000E+00 0. -1.
</event>
<event>
 8    1  0.1278459E-006  0.9118800E+02  0.7816164E-02  0.1184000E+00
        -11   -1    0    0    0    0  0.00000000000E+00  0.00000000000E+00  0.45593999997E+02  0.45594000000E+02  0.51100000000E-03 0.  1.
         11   -1    0    0    0    0 -0.00000000000E+00 -0.00000000000E+00 -0.45593999997E+02  0.45594000000E+02  0.51100000000E-03 0. -1.
         23    2    1    2    0    0  0.71054273576E-14 -0.44408920985E-14  0.35527136788E-14  0.91188000000E+02  0.91188000000E+02 0.  0.
    9900012    2    3    3    0    0 -0.32035126554E+02  0.33590577680E+01  0.17839639391E+02  0.54367009573E+02  0.39999829922E+02 0.  0.
         12    1    3    3    0    0  0.32035126554E+02 -0.33590577680E+01 -0.17839639391E+02  0.36820990427E+02  0.00000000000E+00 0. -1.
         11    1    4    4    0    0 -0.18025265994E+02 -0.15797913612E+02  0.18051717650E+02  0.30005812754E+02  0.51100000000E-03 0. -1.
        -11    1    4    4    0    0 -0.90013526517E+01  0.89746434473E+01  0.17966536386E+01  0.12837310432E+02  0.51100000000E-03 0.  1.
         12    1    4    4    0    0 -0.50085079091E+01  0.10182327933E+02 -0.20087318977E+01  0.11523886387E+02  0.00000000000E+00 0. -1.
</event>
<event>
 8    1  0.1278459E-006  0.9118800E+02  0.7816164E-02  0.1184000E+00
        -11   -1    0    0    0    0  0.00000000000E+00  0.00000000000E+00  0.45593999997E+02  0.45594000000E+02  0.51100000000E-03 0. -1.
         11   -1    0    0    0    0 -0.00000000000E+00 -0.00000000000E+00 -0.45593999997E+02  0.45594000000E+02  0.51100000000E-03 0.  1.
         23    2    1    2    0    0 -0.22204460493E-15  0.35527136788E-14  0.00000000000E+00  0.91188000000E+02  0.91188000000E+02 0.  0.
    9900012    2    3    3    0    0 -0.19108465644E+01 -0.25642237776E+02 -0.26355301410E+02  0.54367114552E+02  0.40000069245E+02 0.  0.
         12    1    3    3    0    0  0.19108465644E+01  0.25642237776E+02  0.26355301410E+02  0.36820885448E+02  0.00000000000E+00 0. -1.
         11    1    4    4    0    0  0.20708746827E+01  0.41035375617E+01  0.11376881147E-01  0.45964847619E+01  0.51100000000E-03 0. -1.
        -11    1    4    4    0    0 -0.42198411268E+01 -0.28410101628E+02 -0.59785588206E+01  0.29337418078E+02  0.51100000000E-03 0.  1.
        -12    1    4    4    0    0  0.23811987965E+00 -0.13356737091E+01 -0.20388119470E+02  0.20433211712E+02  0.00000000000E+00 0.  1.
</event>
<event>
 8    1  0.1278459E-006  0.9118800E+02  0.7816164E-02  0.1184000E+00
        -11   -1    0    0    0    0  0.00000000000E+00  0.00000000000E+00  0.45593999997E+02  0.45594000000E+02  0.51100000000E-03 0.  1.
         11   -1    0    0    0    0 -0.00000000000E+00 -0.00000000000E+00 -0.45593999997E+02  0.45594000000E+02  0.51100000000E-03 0. -1.
         23    2    1    2    0    0  0.00000000000E+00  0.17763568394E-14  0.00000000000E+00  0.91188000000E+02  0.91188000000E+02 0.  0.
    9900012    2    3    3    0    0 -0.28439077526E+02 -0.82258240327E+01 -0.21893740659E+02  0.54367065851E+02  0.39999958221E+02 0.  0.
        -12    1    3    3    0    0  0.28439077526E+02  0.82258240327E+01  0.21893740659E+02  0.36820934149E+02  0.00000000000E+00 0.  1.
         11    1    4    4    0    0 -0.15109610508E+01 -0.92848530911E+00  0.58366923938E+01  0.61001693933E+01  0.51100000000E-03 0.  1.
        -11    1    4    4    0    0  0.17574488455E+01  0.51782652722E+01 -0.12142713639E+02  0.13317227657E+02  0.51100000000E-03 0. -1.
        -12    1    4    4    0    0 -0.28685565321E+02 -0.12475603996E+02 -0.15587719413E+02  0.34949668801E+02  0.00000000000E+00 0.  1.
</event>
<event>
 8    1  0.1278459E-006  0.9118800E+02  0.7816164E-02  0.1184000E+00
        -11   -1    0    0    0    0  0.00000000000E+00  0.00000000000E+00  0.45593999997E+02  0.45594000000E+02  0.51100000000E-03 0.  1.
         11   -1    0    0    0    0 -0.00000000000E+00 -0.00000000000E+00 -0.45593999997E+02  0.45594000000E+02  0.51100000000E-03 0. -1.
         23    2    1    2    0    0  0.00000000000E+00 -0.22204460493E-15  0.35527136788E-14  0.91188000000E+02  0.91188000000E+02 0.  0.
    9900012    2    3    3    0    0  0.31005708993E+02 -0.14101066091E+01 -0.19810047530E+02  0.54367076954E+02  0.39999983531E+02 0.  0.
        -12    1    3    3    0    0 -0.31005708993E+02  0.14101066091E+01  0.19810047530E+02  0.36820923046E+02  0.00000000000E+00 0.  1.
         11    1    4    4    0    0  0.18942988059E+02  0.66414774370E+01  0.59637026862E+01  0.20940672605E+02  0.51100000000E-03 0. -1.
        -11    1    4    4    0    0  0.68761501773E+01 -0.11275852263E+02 -0.23408676635E+02  0.26877359014E+02  0.51100000000E-03 0.  1.
        -12    1    4    4    0    0  0.51865707571E+01  0.32242682166E+01 -0.23650735816E+01  0.65490453348E+01  0.00000000000E+00 0.  1.
</event>
<event>
 8    1  0.1278459E-006  0.9118800E+02  0.7816164E-02  0.1184000E+00
        -11   -1    0    0    0    0  0.00000000000E+00  0.00000000000E+00  0.45593999997E+02  0.45594000000E+02  0.51100000000E-03 0.  1.
         11   -1    0    0    0    0 -0.00000000000E+00 -0.00000000000E+00 -0.45593999997E+02  0.45594000000E+02  0.51100000000E-03 0. -1.
         23    2    1    2    0    0  0.44408920985E-15  0.35527136788E-14 -0.71054273576E-14  0.91188000000E+02  0.91188000000E+02 0.  0.
    9900012    2    3    3    0    0  0.25844189198E+01  0.14773743752E+02 -0.33627932503E+02  0.54367074292E+02  0.39999977464E+02 0.  0.
        -12    1    3    3    0    0 -0.25844189198E+01 -0.14773743752E+02  0.33627932503E+02  0.36820925708E+02  0.00000000000E+00 0.  1.
         11    1    4    4    0    0 -0.61995571500E+00  0.31258591080E+01 -0.32353476902E+02  0.32510041651E+02  0.51100000000E-03 0. -1.
        -11    1    4    4    0    0  0.40118627271E+01  0.18470319703E+01 -0.85505630884E+01  0.96238609212E+01  0.51100000000E-03 0.  1.
        -12    1    4    4    0    0 -0.80748809232E+00  0.98008526733E+01  0.72761074880E+01  0.12233171720E+02  0.00000000000E+00 0.  1.
</event>
<event>
 8    1  0.1278459E-006  0.9118800E+02  0.7816164E-02  0.1184000E+00
        -11   -1    0    0    0    0  0.00000000000E+00  0.00000000000E+00  0.45593999997E+02  0.45594000000E+02  0.51100000000E-03 0. -1.
         11   -1    0    0    0    0 -0.00000000000E+00 -0.00000000000E+00 -0.45593999997E+02  0.45594000000E+02  0.51100000000E-03 0.  1.
         23    2    1    2    0    0  0.00000000000E+00  0.00000000000E+00  0.44408920985E-15  0.91188000000E+02  0.91188000000E+02 0.  0.
    9900012    2    3    3    0    0 -0.34515272722E+02 -0.12390353563E+02 -0.33096392382E+01  0.54367100712E+02  0.40000037693E+02 0.  0.
        -12    1    3    3    0    0  0.34515272722E+02  0.12390353563E+02  0.33096392382E+01  0.36820899288E+02  0.00000000000E+00 0.  1.
         11    1    4    4    0    0 -0.11695184779E+02 -0.93440235852E+01  0.29369558061E+01  0.15254960945E+02  0.51100000000E-03 0. -1.
        -11    1    4    4    0    0 -0.18141319364E+02 -0.12403230689E+02  0.62183773203E+01  0.22838910143E+02  0.51100000000E-03 0.  1.
        -12    1    4    4    0    0 -0.46787685798E+01  0.93569007110E+01 -0.12464972365E+02  0.16273229624E+02  0.00000000000E+00 0.  1.
</event>
<event>
 8    1  0.1278459E-006  0.9118800E+02  0.7816164E-02  0.1184000E+00
        -11   -1    0    0    0    0  0.00000000000E+00  0.00000000000E+00  0.45593999997E+02  0.45594000000E+02  0.51100000000E-03 0.  1.
         11   -1    0    0    0    0 -0.00000000000E+00 -0.00000000000E+00 -0.45593999997E+02  0.45594000000E+02  0.51100000000E-03 0. -1.
         23    2    1    2    0    0  0.00000000000E+00  0.35527136788E-14  0.35527136788E-14  0.91188000000E+02  0.91188000000E+02 0.  0.
    9900012    2    3    3    0    0  0.11874948842E+02 -0.21777943510E+02 -0.27211897652E+02  0.54367073784E+02  0.39999976306E+02 0.  0.
        -12    1    3    3    0    0 -0.11874948842E+02  0.21777943510E+02  0.27211897652E+02  0.36820926216E+02  0.00000000000E+00 0.  1.
         11    1    4    4    0    0  0.20408950347E+01  0.45927790657E+01 -0.41452961370E+00  0.50428867874E+01  0.51100000000E-03 0. -1.
        -11    1    4    4    0    0  0.88431139762E+01  0.22129164537E+01  0.13271669772E+01  0.92118964646E+01  0.51100000000E-03 0.  1.
         12    1    4    4    0    0  0.99093983134E+00 -0.28583639029E+02 -0.28124535016E+02  0.40112290532E+02  0.00000000000E+00 0. -1.
</event>
<event>
 8    1  0.1278459E-006  0.9118800E+02  0.7816164E-02  0.1184000E+00
        -11   -1    0    0    0    0  0.00000000000E+00  0.00000000000E+00  0.45593999997E+02  0.45594000000E+02  0.51100000000E-03 0.  1.
         11   -1    0    0    0    0 -0.00000000000E+00 -0.00000000000E+00 -0.45593999997E+02  0.45594000000E+02  0.51100000000E-03 0. -1.
         23    2    1    2    0    0  0.00000000000E+00 -0.44408920985E-15 -0.35527136788E-14  0.91188000000E+02  0.91188000000E+02 0.  0.
    9900012    2    3    3    0    0 -0.18861934383E+02 -0.25460284737E+01 -0.31520238242E+02  0.54367078658E+02  0.39999987416E+02 0.  0.
        -12    1    3    3    0    0  0.18861934383E+02  0.25460284737E+01  0.31520238242E+02  0.36820921342E+02  0.00000000000E+00 0.  1.
         11    1    4    4    0    0 -0.11955062540E+02 -0.18878616978E+01 -0.37607310354E+02  0.39506927677E+02  0.51100000000E-03 0. -1.
        -11    1    4    4    0    0 -0.10647700954E+01  0.25167345899E+01 -0.26995843285E+01  0.38412815778E+01  0.51100000000E-03 0.  1.
         12    1    4    4    0    0 -0.58421017476E+01 -0.31749013659E+01  0.87866564407E+01  0.11018869403E+02  0.00000000000E+00 0. -1.
</event>
<event>
 8    1  0.1278459E-006  0.9118800E+02  0.7816164E-02  0.1184000E+00
        -11   -1    0    0    0    0  0.00000000000E+00  0.00000000000E+00  0.45593999997E+02  0.45594000000E+02  0.51100000000E-03 0.  1.
         11   -1    0    0    0    0 -0.00000000000E+00 -0.00000000000E+00 -0.45593999997E+02  0.45594000000E+02  0.51100000000E-03 0. -1.
         23    2    1    2    0    0  0.00000000000E+00 -0.71054273576E-14  0.38857805862E-15  0.91188000000E+02  0.91188000000E+02 0.  0.
    9900012    2    3    3    0    0 -0.40256797786E+01  0.36597758461E+02  0.42163034248E+00  0.54367084827E+02  0.40000001481E+02 0.  0.
         12    1    3    3    0    0  0.40256797786E+01 -0.36597758461E+02 -0.42163034248E+00  0.36820915173E+02  0.00000000000E+00 0. -1.
         11    1    4    4    0    0  0.35625277954E+01  0.42513727587E+01  0.32891460361E+01  0.64485856228E+01  0.51100000000E-03 0. -1.
        -11    1    4    4    0    0  0.45400222732E+01  0.29148300383E+02  0.88038322472E+01  0.30785429669E+02  0.51100000000E-03 0.  1.
         12    1    4    4    0    0 -0.12128229847E+02  0.31980853192E+01 -0.11671347941E+02  0.17133069535E+02  0.00000000000E+00 0. -1.
</event>
<event>
 8    1  0.1278459E-006  0.9118800E+02  0.7816164E-02  0.1184000E+00
        -11   -1    0    0    0    0  0.00000000000E+00  0.00000000000E+00  0.45593999997E+02  0.45594000000E+02  0.51100000000E-03 0. -1.
         11   -1    0    0    0    0 -0.00000000000E+00 -0.00000000000E+00 -0.45593999997E+02  0.45594000000E+02  0.51100000000E-03 0.  1.
         23    2    1    2    0    0  0.00000000000E+00  0.66613381478E-15  0.35527136788E-14  0.91188000000E+02  0.91188000000E+02 0.  0.
    9900012    2    3    3    0    0 -0.27562317741E+02 -0.10957008821E+01  0.24390514693E+02  0.54367093891E+02  0.40000022143E+02 0.  0.
        -12    1    3    3    0    0  0.27562317741E+02  0.10957008821E+01 -0.24390514693E+02  0.36820906109E+02  0.00000000000E+00 0.  1.
         11    1    4    4    0    0 -0.10520961767E+02  0.29696702623E+01  0.65732457686E+01  0.12756062800E+02  0.51100000000E-03 0. -1.
        -11    1    4    4    0    0  0.96717105113E+00  0.55032253212E+01  0.20311735028E+02  0.21066264236E+02  0.51100000000E-03 0.  1.
        -12    1    4    4    0    0 -0.18008527026E+02 -0.95685964657E+01 -0.24944661028E+01  0.20544766854E+02  0.00000000000E+00 0.  1.
</event>
<event>
 8    1  0.1278459E-006  0.9118800E+02  0.7816164E-02  0.1184000E+00
        -11   -1    0    0    0    0  0.00000000000E+00  0.00000000000E+00  0.45593999997E+02  0.45594000000E+02  0.51100000000E-03 0. -1.
         11   -1    0    0    0    0 -0.00000000000E+00 -0.00000000000E+00 -0.45593999997E+02  0.45594000000E+02  0.51100000000E-03 0.  1.
         23    2    1    2    0    0  0.00000000000E+00 -0.35527136788E-14  0.00000000000E+00  0.91188000000E+02  0.91188000000E+02 0.  0.
    9900012    2    3    3    0    0 -0.22446089585E+02  0.17311721041E+02  0.23500145098E+02  0.54367089600E+02  0.40000012361E+02 0.  0.
        -12    1    3    3    0    0  0.22446089585E+02 -0.17311721041E+02 -0.23500145098E+02  0.36820910400E+02  0.00000000000E+00 0.  1.
         11    1    4    4    0    0 -0.49236564058E+01  0.83761001943E+01 -0.16941931202E+01  0.98626435329E+01  0.51100000000E-03 0. -1.
        -11    1    4    4    0    0 -0.22284088008E+02 -0.27865147932E+01  0.96012386741E+01  0.24423943731E+02  0.51100000000E-03 0.  1.
        -12    1    4    4    0    0  0.47616548291E+01  0.11722135640E+02  0.15593099545E+02  0.20080502336E+02  0.00000000000E+00 0.  1.
</event>
<event>
 8    1  0.1278459E-006  0.9118800E+02  0.7816164E-02  0.1184000E+00
        -11   -1    0    0    0    0  0.00000000000E+00  0.00000000000E+00  0.45593999997E+02  0.45594000000E+02  0.51100000000E-03 0. -1.
         11   -1    0    0    0    0 -0.00000000000E+00 -0.00000000000E+00 -0.45593999997E+02  0.45594000000E+02  0.51100000000E-03 0.  1.
         23    2    1    2    0    0 -0.35527136788E-14  0.35527136788E-14 -0.11102230246E-14  0.91188000000E+02  0.91188000000E+02 0.  0.
    9900012    2    3    3    0    0  0.28403960566E+02  0.23346449133E+02  0.19843508164E+01  0.54367091387E+02  0.40000016435E+02 0.  0.
        -12    1    3    3    0    0 -0.28403960566E+02 -0.23346449133E+02 -0.19843508164E+01  0.36820908613E+02  0.00000000000E+00 0.  1.
         11    1    4    4    0    0  0.27746465027E+00  0.19279434175E+01 -0.12358113047E+02  0.12510671877E+02  0.51100000000E-03 0. -1.
        -11    1    4    4    0    0 -0.43163458599E+00 -0.15672968245E+01 -0.12179588522E+01  0.20312931296E+01  0.51100000000E-03 0.  1.
         12    1    4    4    0    0  0.28558130501E+02  0.22985802540E+02  0.15560422716E+02  0.39825126381E+02  0.00000000000E+00 0. -1.
</event>
<event>
 8    1  0.1278459E-006  0.9118800E+02  0.7816164E-02  0.1184000E+00
        -11   -1    0    0    0    0  0.00000000000E+00  0.00000000000E+00  0.45593999997E+02  0.45594000000E+02  0.51100000000E-03 0. -1.
         11   -1    0    0    0    0 -0.00000000000E+00 -0.00000000000E+00 -0.45593999997E+02  0.45594000000E+02  0.51100000000E-03 0.  1.
         23    2    1    2    0    0  0.00000000000E+00 -0.17763568394E-14  0.71054273576E-14  0.91188000000E+02  0.91188000000E+02 0.  0.
    9900012    2    3    3    0    0  0.16392182558E+01  0.87229290351E+01 -0.35735181307E+02  0.54367085964E+02  0.40000004071E+02 0.  0.
         12    1    3    3    0    0 -0.16392182558E+01 -0.87229290351E+01  0.35735181307E+02  0.36820914036E+02  0.00000000000E+00 0. -1.
         11    1    4    4    0    0 -0.11529061318E+02 -0.59910129977E+01 -0.14222806178E+02  0.19263948387E+02  0.51100000000E-03 0. -1.
        -11    1    4    4    0    0  0.10954168913E+02  0.24312627683E+01 -0.12293767482E+01  0.11287879458E+02  0.51100000000E-03 0.  1.
        -12    1    4    4    0    0  0.22141106613E+01  0.12282679264E+02 -0.20282998381E+02  0.23815258118E+02  0.00000000000E+00 0.  1.
</event>
<event>
 8    1  0.1278459E-006  0.9118800E+02  0.7816164E-02  0.1184000E+00
        -11   -1    0    0    0    0  0.00000000000E+00  0.00000000000E+00  0.45593999997E+02  0.45594000000E+02  0.51100000000E-03 0.  1.
         11   -1    0    0    0    0 -0.00000000000E+00 -0.00000000000E+00 -0.45593999997E+02  0.45594000000E+02  0.51100000000E-03 0. -1.
         23    2    1    2    0    0  0.88817841970E-15  0.00000000000E+00  0.00000000000E+00  0.91188000000E+02  0.91188000000E+02 0.  0.
    9900012    2    3    3    0    0  0.59954714183E+01  0.34885510102E+02 -0.10140773084E+02  0.54367085137E+02  0.40000002187E+02 0.  0.
        -12    1    3    3    0    0 -0.59954714183E+01 -0.34885510102E+02  0.10140773084E+02  0.36820914863E+02  0.00000000000E+00 0.  1.
         11    1    4    4    0    0 -0.53896643608E+01  0.20760211072E+02 -0.84018802333E+01  0.23035330200E+02  0.51100000000E-03 0.  1.
        -11    1    4    4    0    0  0.59168876489E+00 -0.86222158900E+00 -0.10736384643E+02  0.10787190418E+02  0.51100000000E-03 0. -1.
        -12    1    4    4    0    0  0.10793447014E+02  0.14987520618E+02  0.89974917920E+01  0.20544564519E+02  0.00000000000E+00 0.  1.
</event>
<event>
 8    1  0.1278459E-006  0.9118800E+02  0.7816164E-02  0.1184000E+00
        -11   -1    0    0    0    0  0.00000000000E+00  0.00000000000E+00  0.45593999997E+02  0.45594000000E+02  0.51100000000E-03 0.  1.
         11   -1    0    0    0    0 -0.00000000000E+00 -0.00000000000E+00 -0.45593999997E+02  0.45594000000E+02  0.51100000000E-03 0. -1.
         23    2    1    2    0    0  0.00000000000E+00  0.00000000000E+00  0.71054273576E-14  0.91188000000E+02  0.91188000000E+02 0.  0.
    9900012    2    3    3    0    0  0.92316081399E+01 -0.73580311249E+01 -0.34877234325E+02  0.54367018413E+02  0.39999850076E+02 0.  0.
        -12    1    3    3    0    0 -0.92316081399E+01  0.73580311249E+01  0.34877234325E+02  0.36820981587E+02  0.00000000000E+00 0.  1.
         11    1    4    4    0    0  0.63723652578E+01 -0.98967303104E+00 -0.39396964523E+02  0.39921263828E+02  0.51100000000E-03 0. -1.
        -11    1    4    4    0    0 -0.44395293577E+01 -0.41712504781E+01  0.22288313620E+01  0.64866355664E+01  0.51100000000E-03 0.  1.
         12    1    4    4    0    0  0.72987722398E+01 -0.21971076157E+01  0.22908988365E+01  0.79591190192E+01  0.00000000000E+00 0. -1.
</event>
<event>
 8    1  0.1278459E-006  0.9118800E+02  0.7816164E-02  0.1184000E+00
        -11   -1    0    0    0    0  0.00000000000E+00  0.00000000000E+00  0.45593999997E+02  0.45594000000E+02  0.51100000000E-03 0. -1.
         11   -1    0    0    0    0 -0.00000000000E+00 -0.00000000000E+00 -0.45593999997E+02  0.45594000000E+02  0.51100000000E-03 0.  1.
         23    2    1    2    0    0  0.35527136788E-14  0.00000000000E+00  0.00000000000E+00  0.91188000000E+02  0.91188000000E+02 0.  0.
    9900012    2    3    3    0    0  0.22298299184E+02 -0.27801797533E+02  0.92533781834E+01  0.54367094248E+02  0.40000022957E+02 0.  0.
        -12    1    3    3    0    0 -0.22298299184E+02  0.27801797533E+02 -0.92533781834E+01  0.36820905752E+02  0.00000000000E+00 0.  1.
         11    1    4    4    0    0  0.44785929508E+01 -0.23263119457E+02  0.17540222398E+02  0.29476938846E+02  0.51100000000E-03 0. -1.
        -11    1    4    4    0    0 -0.23457493983E+01 -0.20533196572E+01 -0.15711711127E+01  0.34910228846E+01  0.51100000000E-03 0.  1.
        -12    1    4    4    0    0  0.20165455632E+02 -0.24853584195E+01 -0.67156731016E+01  0.21399132518E+02  0.00000000000E+00 0.  1.
</event>
<event>
 8    1  0.1278459E-006  0.9118800E+02  0.7816164E-02  0.1184000E+00
        -11   -1    0    0    0    0  0.00000000000E+00  0.00000000000E+00  0.45593999997E+02  0.45594000000E+02  0.51100000000E-03 0.  1.
         11   -1    0    0    0    0 -0.00000000000E+00 -0.00000000000E+00 -0.45593999997E+02  0.45594000000E+02  0.51100000000E-03 0. -1.
         23    2    1    2    0    0  0.00000000000E+00  0.00000000000E+00  0.00000000000E+00  0.91188000000E+02  0.91188000000E+02 0.  0.
    9900012    2    3    3    0    0  0.19810144974E+02 -0.29468235328E+02  0.97448136370E+01  0.54367080266E+02  0.39999991082E+02 0.  0.
         12    1    3    3    0    0 -0.19810144974E+02  0.29468235328E+02 -0.97448136370E+01  0.36820919734E+02  0.00000000000E+00 0. -1.
         11    1    4    4    0    0  0.38456968979E-01 -0.27802354758E+01  0.95816813270E+01  0.99769637442E+01  0.51100000000E-03 0. -1.
        -11    1    4    4    0    0  0.74341972161E+01 -0.19662244643E+02  0.13441394633E+02  0.24950796432E+02  0.51100000000E-03 0.  1.
        -12    1    4    4    0    0  0.12337490789E+02 -0.70257552090E+01 -0.13278262323E+02  0.19439320090E+02  0.00000000000E+00 0.  1.
</event>
<event>
 8    1  0.1278459E-006  0.9118800E+02  0.7816164E-02  0.1184000E+00
        -11   -1    0    0    0    0  0.00000000000E+00  0.00000000000E+00  0.45593999997E+02  0.45594000000E+02  0.51100000000E-03 0. -1.
         11   -1    0    0    0    0 -0.00000000000E+00 -0.00000000000E+00 -0.45593999997E+02  0.45594000000E+02  0.51100000000E-03 0.  1.
         23    2    1    2    0    0 -0.35527136788E-14  0.00000000000E+00 -0.88817841970E-15  0.91188000000E+02  0.91188000000E+02 0.  0.
    9900012    2    3    3    0    0  0.31267497173E+02  0.18321854306E+02 -0.65140523450E+01  0.54367087428E+02  0.40000007409E+02 0.  0.
         12    1    3    3    0    0 -0.31267497173E+02 -0.18321854306E+02  0.65140523450E+01  0.36820912572E+02  0.00000000000E+00 0. -1.
         11    1    4    4    0    0 -0.19276598200E+01  0.54993403881E+01 -0.80197614457E+01  0.99133844368E+01  0.51100000000E-03 0. -1.
        -11    1    4    4    0    0  0.35130116291E+02  0.44629167981E+01 -0.12702168802E+01  0.35435238790E+02  0.51100000000E-03 0.  1.
        -12    1    4    4    0    0 -0.19349592974E+01  0.83595971198E+01  0.27759259808E+01  0.90184642007E+01  0.00000000000E+00 0.  1.
</event>
<event>
 8    1  0.1278459E-006  0.9118800E+02  0.7816164E-02  0.1184000E+00
        -11   -1    0    0    0    0  0.00000000000E+00  0.00000000000E+00  0.45593999997E+02  0.45594000000E+02  0.51100000000E-03 0.  1.
         11   -1    0    0    0    0 -0.00000000000E+00 -0.00000000000E+00 -0.45593999997E+02  0.45594000000E+02  0.51100000000E-03 0. -1.
         23    2    1    2    0    0  0.00000000000E+00  0.00000000000E+00  0.00000000000E+00  0.91188000000E+02  0.91188000000E+02 0.  0.
    9900012    2    3    3    0    0  0.19404694777E+02  0.30814197036E+01  0.31140684457E+02  0.54367088071E+02  0.40000008876E+02 0.  0.
         12    1    3    3    0    0 -0.19404694777E+02 -0.30814197036E+01 -0.31140684457E+02  0.36820911929E+02  0.00000000000E+00 0. -1.
         11    1    4    4    0    0 -0.90208668309E+01  0.55083772410E+01  0.90588761776E+01  0.13920542233E+02  0.51100000000E-03 0. -1.
        -11    1    4    4    0    0  0.23236795477E+02 -0.23294071432E+01  0.68233367447E+01  0.24329667616E+02  0.51100000000E-03 0.  1.
        -12    1    4    4    0    0  0.51887661311E+01 -0.97550394200E-01  0.15258471535E+02  0.16116878222E+02  0.00000000000E+00 0.  1.
</event>
<event>
 8    1  0.1278459E-006  0.9118800E+02  0.7816164E-02  0.1184000E+00
        -11   -1    0    0    0    0  0.00000000000E+00  0.00000000000E+00  0.45593999997E+02  0.45594000000E+02  0.51100000000E-03 0.  1.
         11   -1    0    0    0    0 -0.00000000000E+00 -0.00000000000E+00 -0.45593999997E+02  0.45594000000E+02  0.51100000000E-03 0. -1.
         23    2    1    2    0    0  0.00000000000E+00  0.17763568394E-14 -0.44408920985E-15  0.91188000000E+02  0.91188000000E+02 0.  0.
    9900012    2    3    3    0    0  0.33888555798E+02 -0.14305609234E+02  0.16416151180E+01  0.54367087873E+02  0.40000008425E+02 0.  0.
         12    1    3    3    0    0 -0.33888555798E+02  0.14305609234E+02 -0.16416151180E+01  0.36820912127E+02  0.00000000000E+00 0. -1.
         11    1    4    4    0    0  0.17180694519E+02 -0.80040861543E+01  0.76703440824E+01  0.20446902894E+02  0.51100000000E-03 0.  1.
        -11    1    4    4    0    0  0.65395564538E+01 -0.15440208567E+02 -0.10199798161E+02  0.19626556550E+02  0.51100000000E-03 0. -1.
         12    1    4    4    0    0  0.10168304825E+02  0.91386854878E+01  0.41710691963E+01  0.14293628430E+02  0.00000000000E+00 0. -1.
</event>
<event>
 8    1  0.1278459E-006  0.9118800E+02  0.7816164E-02  0.1184000E+00
        -11   -1    0    0    0    0  0.00000000000E+00  0.00000000000E+00  0.45593999997E+02  0.45594000000E+02  0.51100000000E-03 0. -1.
         11   -1    0    0    0    0 -0.00000000000E+00 -0.00000000000E+00 -0.45593999997E+02  0.45594000000E+02  0.51100000000E-03 0.  1.
         23    2    1    2    0    0  0.88817841970E-15  0.00000000000E+00  0.00000000000E+00  0.91188000000E+02  0.91188000000E+02 0.  0.
    9900012    2    3    3    0    0 -0.38631141055E+01 -0.71901102937E+01 -0.35904882187E+02  0.54367056212E+02  0.39999936245E+02 0.  0.
         12    1    3    3    0    0  0.38631141055E+01  0.71901102937E+01  0.35904882187E+02  0.36820943788E+02  0.00000000000E+00 0. -1.
         11    1    4    4    0    0 -0.15273607536E+02 -0.29143416296E+01 -0.16202100104E+00  0.15550007246E+02  0.51100000000E-03 0. -1.
        -11    1    4    4    0    0  0.45796176166E+00 -0.38502666926E+01 -0.62701560031E+01  0.73721868631E+01  0.51100000000E-03 0.  1.
         12    1    4    4    0    0  0.10952531668E+02 -0.42550197154E+00 -0.29472705183E+02  0.31444862103E+02  0.00000000000E+00 0. -1.
</event>
<event>
 8    1  0.1278459E-006  0.9118800E+02  0.7816164E-02  0.1184000E+00
        -11   -1    0    0    0    0  0.00000000000E+00  0.00000000000E+00  0.45593999997E+02  0.45594000000E+02  0.51100000000E-03 0.  1.
         11   -1    0    0    0    0 -0.00000000000E+00 -0.00000000000E+00 -0.45593999997E+02  0.45594000000E+02  0.51100000000E-03 0. -1.
         23    2    1    2    0    0 -0.11102230246E-15  0.71054273576E-14 -0.17763568394E-14  0.91188000000E+02  0.91188000000E+02 0.  0.
    9900012    2    3    3    0    0 -0.39796433649E+00  0.35415125598E+02  0.10069164126E+02  0.54367115126E+02  0.40000070552E+02 0.  0.
         12    1    3    3    0    0  0.39796433649E+00 -0.35415125598E+02 -0.10069164126E+02  0.36820884874E+02  0.00000000000E+00 0. -1.
         11    1    4    4    0    0  0.18278681694E+00  0.17357451130E+00 -0.68939892938E+01  0.68985960728E+01  0.51100000000E-03 0. -1.
        -11    1    4    4    0    0 -0.15822396267E+01  0.25482349400E+02 -0.25193087493E+01  0.25655419116E+02  0.51100000000E-03 0.  1.
         12    1    4    4    0    0  0.10014884733E+01  0.97592016869E+01  0.19482462169E+02  0.21813099938E+02  0.00000000000E+00 0. -1.
</event>
<event>
 8    1  0.1278459E-006  0.9118800E+02  0.7816164E-02  0.1184000E+00
        -11   -1    0    0    0    0  0.00000000000E+00  0.00000000000E+00  0.45593999997E+02  0.45594000000E+02  0.51100000000E-03 0.  1.
         11   -1    0    0    0    0 -0.00000000000E+00 -0.00000000000E+00 -0.45593999997E+02  0.45594000000E+02  0.51100000000E-03 0. -1.
         23    2    1    2    0    0  0.00000000000E+00  0.88817841970E-15  0.00000000000E+00  0.91188000000E+02  0.91188000000E+02 0.  0.
    9900012    2    3    3    0    0 -0.30656153152E+02  0.77595224369E+01 -0.18861860092E+02  0.54367086368E+02  0.40000004994E+02 0.  0.
        -12    1    3    3    0    0  0.30656153152E+02 -0.77595224369E+01  0.18861860092E+02  0.36820913632E+02  0.00000000000E+00 0.  1.
         11    1    4    4    0    0 -0.41262160140E+01 -0.31487338086E+01 -0.10760092870E+02  0.11946538495E+02  0.51100000000E-03 0. -1.
        -11    1    4    4    0    0  0.97390125896E+00 -0.47235567162E+01 -0.96064213714E+01  0.10749130362E+02  0.51100000000E-03 0.  1.
        -12    1    4    4    0    0 -0.27503838397E+02  0.15631812962E+02  0.15046541490E+01  0.31671417511E+02  0.00000000000E+00 0.  1.
</event>
<event>
 8    1  0.1278459E-006  0.9118800E+02  0.7816164E-02  0.1184000E+00
        -11   -1    0    0    0    0  0.00000000000E+00  0.00000000000E+00  0.45593999997E+02  0.45594000000E+02  0.51100000000E-03 0.  1.
         11   -1    0    0    0    0 -0.00000000000E+00 -0.00000000000E+00 -0.45593999997E+02  0.45594000000E+02  0.51100000000E-03 0. -1.
         23    2    1    2    0    0  0.17763568394E-14  0.00000000000E+00  0.00000000000E+00  0.91188000000E+02  0.91188000000E+02 0.  0.
    9900012    2    3    3    0    0 -0.11984290978E+02  0.24622844246E+02  0.24614526240E+02  0.54367046848E+02  0.39999914899E+02 0.  0.
        -12    1    3    3    0    0  0.11984290978E+02 -0.24622844246E+02 -0.24614526240E+02  0.36820953152E+02  0.00000000000E+00 0.  1.
         11    1    4    4    0    0 -0.25187019944E+01  0.14935147947E+02  0.26971749472E+01  0.15384318538E+02  0.51100000000E-03 0. -1.
        -11    1    4    4    0    0  0.68754052143E+01 -0.49699940597E+01  0.79775623315E+00  0.85210593873E+01  0.51100000000E-03 0.  1.
        -12    1    4    4    0    0 -0.16340994198E+02  0.14657690359E+02  0.21119595059E+02  0.30461668922E+02  0.00000000000E+00 0.  1.
</event>
<event>
 8    1  0.1278459E-006  0.9118800E+02  0.7816164E-02  0.1184000E+00
        -11   -1    0    0    0    0  0.00000000000E+00  0.00000000000E+00  0.45593999997E+02  0.45594000000E+02  0.51100000000E-03 0.  1.
         11   -1    0    0    0    0 -0.00000000000E+00 -0.00000000000E+00 -0.45593999997E+02  0.45594000000E+02  0.51100000000E-03 0. -1.
         23    2    1    2    0    0  0.00000000000E+00  0.00000000000E+00  0.00000000000E+00  0.91188000000E+02  0.91188000000E+02 0.  0.
    9900012    2    3    3    0    0  0.24258920602E+02 -0.15726498841E+02 -0.22802648124E+02  0.54367098924E+02  0.40000033617E+02 0.  0.
        -12    1    3    3    0    0 -0.24258920602E+02  0.15726498841E+02  0.22802648124E+02  0.36820901076E+02  0.00000000000E+00 0.  1.
         11    1    4    4    0    0  0.84836231927E+01 -0.11447137707E+02 -0.31704900374E+02  0.34759308568E+02  0.51100000000E-03 0. -1.
        -11    1    4    4    0    0  0.52712288030E+01 -0.20153471835E+01  0.64799451739E+01  0.85928555837E+01  0.51100000000E-03 0.  1.
         12    1    4    4    0    0  0.10504068606E+02 -0.22640139512E+01  0.24223070765E+01  0.11014934772E+02  0.00000000000E+00 0. -1.
</event>
<event>
 8    1  0.1278459E-006  0.9118800E+02  0.7816164E-02  0.1184000E+00
        -11   -1    0    0    0    0  0.00000000000E+00  0.00000000000E+00  0.45593999997E+02  0.45594000000E+02  0.51100000000E-03 0. -1.
         11   -1    0    0    0    0 -0.00000000000E+00 -0.00000000000E+00 -0.45593999997E+02  0.45594000000E+02  0.51100000000E-03 0.  1.
         23    2    1    2    0    0  0.00000000000E+00  0.17763568394E-14 -0.35527136788E-14  0.91188000000E+02  0.91188000000E+02 0.  0.
    9900012    2    3    3    0    0 -0.33751901341E+02  0.11976646894E+02 -0.85527364411E+01  0.54367079105E+02  0.39999988435E+02 0.  0.
         12    1    3    3    0    0  0.33751901341E+02 -0.11976646894E+02  0.85527364411E+01  0.36820920895E+02  0.00000000000E+00 0. -1.
         11    1    4    4    0    0 -0.14632318369E+02 -0.64320603562E+01  0.81901662624E+01  0.17959815281E+02  0.51100000000E-03 0. -1.
        -11    1    4    4    0    0 -0.13122488011E+02  0.20156905901E+02 -0.17992052120E+02  0.30036885438E+02  0.51100000000E-03 0.  1.
        -12    1    4    4    0    0 -0.59970949615E+01 -0.17481986508E+01  0.12491494164E+01  0.63703783847E+01  0.00000000000E+00 0.  1.
</event>
<event>
 8    1  0.1278459E-006  0.9118800E+02  0.7816164E-02  0.1184000E+00
        -11   -1    0    0    0    0  0.00000000000E+00  0.00000000000E+00  0.45593999997E+02  0.45594000000E+02  0.51100000000E-03 0. -1.
         11   -1    0    0    0    0 -0.00000000000E+00 -0.00000000000E+00 -0.45593999997E+02  0.45594000000E+02  0.51100000000E-03 0.  1.
         23    2    1    2    0    0  0.88817841970E-15 -0.35527136788E-14  0.00000000000E+00  0.91188000000E+02  0.91188000000E+02 0.  0.
    9900012    2    3    3    0    0 -0.75265245790E+01 -0.27399503464E+02 -0.23417931564E+02  0.54367070068E+02  0.39999967834E+02 0.  0.
         12    1    3    3    0    0  0.75265245790E+01  0.27399503464E+02  0.23417931564E+02  0.36820929932E+02  0.00000000000E+00 0. -1.
         11    1    4    4    0    0 -0.96892441260E+01 -0.23933495058E+02 -0.94853154480E+01  0.27507541636E+02  0.51100000000E-03 0. -1.
        -11    1    4    4    0    0 -0.57363180197E+00 -0.11732101728E+02 -0.13838939571E+02  0.18151790906E+02  0.51100000000E-03 0.  1.
         12    1    4    4    0    0  0.27363513489E+01  0.82660933226E+01 -0.93676545440E-01  0.87077375257E+01  0.00000000000E+00 0. -1.
</event>
<event>
 8    1  0.1278459E-006  0.9118800E+02  0.7816164E-02  0.1184000E+00
        -11   -1    0    0    0    0  0.00000000000E+00  0.00000000000E+00  0.45593999997E+02  0.45594000000E+02  0.51100000000E-03 0. -1.
         11   -1    0    0    0    0 -0.00000000000E+00 -0.00000000000E+00 -0.45593999997E+02  0.45594000000E+02  0.51100000000E-03 0.  1.
         23    2    1    2    0    0 -0.44408920985E-15  0.00000000000E+00  0.00000000000E+00  0.91188000000E+02  0.91188000000E+02 0.  0.
    9900012    2    3    3    0    0  0.38757228399E+01 -0.14151220623E+02 -0.33771287300E+02  0.54367107581E+02  0.40000053351E+02 0.  0.
         12    1    3    3    0    0 -0.38757228399E+01  0.14151220623E+02  0.33771287300E+02  0.36820892419E+02  0.00000000000E+00 0. -1.
         11    1    4    4    0    0  0.82693815860E+01 -0.39200905749E+01 -0.83788571675E+01  0.12407861606E+02  0.51100000000E-03 0. -1.
        -11    1    4    4    0    0  0.12861467623E+02 -0.76055931539E+01 -0.16870679678E+02  0.22536242582E+02  0.51100000000E-03 0.  1.
         12    1    4    4    0    0 -0.17255126369E+02 -0.26255368938E+01 -0.85217504551E+01  0.19423003393E+02  0.00000000000E+00 0. -1.
</event>
<event>
 8    1  0.1278459E-006  0.9118800E+02  0.7816164E-02  0.1184000E+00
        -11   -1    0    0    0    0  0.00000000000E+00  0.00000000000E+00  0.45593999997E+02  0.45594000000E+02  0.51100000000E-03 0. -1.
         11   -1    0    0    0    0 -0.00000000000E+00 -0.00000000000E+00 -0.45593999997E+02  0.45594000000E+02  0.51100000000E-03 0.  1.
         23    2    1    2    0    0  0.00000000000E+00 -0.77715611724E-15  0.00000000000E+00  0.91188000000E+02  0.91188000000E+02 0.  0.
    9900012    2    3    3    0    0 -0.19773209056E+02 -0.85498497624E+00 -0.31049470055E+02  0.54367076785E+02  0.39999983147E+02 0.  0.
         12    1    3    3    0    0  0.19773209056E+02  0.85498497624E+00  0.31049470055E+02  0.36820923215E+02  0.00000000000E+00 0. -1.
         11    1    4    4    0    0 -0.91484747607E+01 -0.98123755849E+01 -0.20667121651E+02  0.24639545910E+02  0.51100000000E-03 0. -1.
        -11    1    4    4    0    0 -0.10744639229E+02 -0.16988384362E+01 -0.14650681231E+02  0.18247624091E+02  0.51100000000E-03 0.  1.
         12    1    4    4    0    0  0.11990493347E+00  0.10656229045E+02  0.42683328261E+01  0.11479906784E+02  0.00000000000E+00 0. -1.
</event>
<event>
 8    1  0.1278459E-006  0.9118800E+02  0.7816164E-02  0.1184000E+00
        -11   -1    0    0    0    0  0.00000000000E+00  0.00000000000E+00  0.45593999997E+02  0.45594000000E+02  0.51100000000E-03 0.  1.
         11   -1    0    0    0    0 -0.00000000000E+00 -0.00000000000E+00 -0.45593999997E+02  0.45594000000E+02  0.51100000000E-03 0. -1.
         23    2    1    2    0    0  0.00000000000E+00  0.00000000000E+00 -0.88817841970E-15  0.91188000000E+02  0.91188000000E+02 0.  0.
    9900012    2    3    3    0    0 -0.30838261441E+02 -0.19672913220E+02 -0.42141073957E+01  0.54367074096E+02  0.39999977017E+02 0.  0.
        -12    1    3    3    0    0  0.30838261441E+02  0.19672913220E+02  0.42141073957E+01  0.36820925904E+02  0.00000000000E+00 0.  1.
         11    1    4    4    0    0 -0.54775410509E+01  0.23785479051E+01  0.78677946378E+00  0.60232855060E+01  0.51100000000E-03 0. -1.
        -11    1    4    4    0    0 -0.28412930236E+02 -0.21053441767E+02  0.68890994770E+01  0.36027790755E+02  0.51100000000E-03 0.  1.
         12    1    4    4    0    0  0.30522098459E+01 -0.99801935858E+00 -0.11889986336E+02  0.12315997835E+02  0.00000000000E+00 0. -1.
</event>
<event>
 8    1  0.1278459E-006  0.9118800E+02  0.7816164E-02  0.1184000E+00
        -11   -1    0    0    0    0  0.00000000000E+00  0.00000000000E+00  0.45593999997E+02  0.45594000000E+02  0.51100000000E-03 0.  1.
         11   -1    0    0    0    0 -0.00000000000E+00 -0.00000000000E+00 -0.45593999997E+02  0.45594000000E+02  0.51100000000E-03 0. -1.
         23    2    1    2    0    0  0.88817841970E-15  0.17763568394E-14 -0.71054273576E-14  0.91188000000E+02  0.91188000000E+02 0.  0.
    9900012    2    3    3    0    0 -0.52793169872E+01 -0.11110683208E+02 -0.34705350305E+02  0.54367084626E+02  0.40000001022E+02 0.  0.
        -12    1    3    3    0    0  0.52793169872E+01  0.11110683208E+02  0.34705350305E+02  0.36820915374E+02  0.00000000000E+00 0.  1.
         11    1    4    4    0    0  0.43559615128E+01  0.73305280745E+01 -0.23563019026E+02  0.25058469795E+02  0.51100000000E-03 0. -1.
        -11    1    4    4    0    0 -0.10548959482E+02 -0.20729289004E+02 -0.66599988948E+01  0.24193791648E+02  0.51100000000E-03 0.  1.
        -12    1    4    4    0    0  0.91368098248E+00  0.22880777218E+01 -0.44823323836E+01  0.51148231833E+01  0.00000000000E+00 0.  1.
</event>
<event>
 8    1  0.1278459E-006  0.9118800E+02  0.7816164E-02  0.1184000E+00
        -11   -1    0    0    0    0  0.00000000000E+00  0.00000000000E+00  0.45593999997E+02  0.45594000000E+02  0.51100000000E-03 0. -1.
         11   -1    0    0    0    0 -0.00000000000E+00 -0.00000000000E+00 -0.45593999997E+02  0.45594000000E+02  0.51100000000E-03 0.  1.
         23    2    1    2    0    0  0.35527136788E-14 -0.71054273576E-14  0.35527136788E-14  0.91188000000E+02  0.91188000000E+02 0.  0.
    9900012    2    3    3    0    0 -0.21250799283E+02  0.25869094697E+02 -0.15328837033E+02  0.54367085082E+02  0.40000002062E+02 0.  0.
         12    1    3    3    0    0  0.21250799283E+02 -0.25869094697E+02  0.15328837033E+02  0.36820914918E+02  0.00000000000E+00 0. -1.
         11    1    4    4    0    0 -0.21454808335E+01  0.52587556587E+01 -0.20005906317E+00  0.56830997681E+01  0.51100000000E-03 0. -1.
        -11    1    4    4    0    0 -0.72200663913E+00  0.26849685262E+02 -0.86257917157E+01  0.28210479883E+02  0.51100000000E-03 0.  1.
         12    1    4    4    0    0 -0.18383311811E+02 -0.62393462237E+01 -0.65029862539E+01  0.20473505431E+02  0.00000000000E+00 0. -1.
</event>
<event>
 8    1  0.1278459E-006  0.9118800E+02  0.7816164E-02  0.1184000E+00
        -11   -1    0    0    0    0  0.00000000000E+00  0.00000000000E+00  0.45593999997E+02  0.45594000000E+02  0.51100000000E-03 0.  1.
         11   -1    0    0    0    0 -0.00000000000E+00 -0.00000000000E+00 -0.45593999997E+02  0.45594000000E+02  0.51100000000E-03 0. -1.
         23    2    1    2    0    0  0.00000000000E+00  0.00000000000E+00  0.35527136788E-14  0.91188000000E+02  0.91188000000E+02 0.  0.
    9900012    2    3    3    0    0  0.15116723495E+02 -0.14516834221E+02 -0.30273904839E+02  0.54367311261E+02  0.40000517678E+02 0.  0.
        -12    1    3    3    0    0 -0.15116723495E+02  0.14516834221E+02  0.30273904839E+02  0.36820688739E+02  0.00000000000E+00 0.  1.
         11    1    4    4    0    0  0.24664938162E+01 -0.16891112618E+01 -0.27739866475E+02  0.27900481733E+02  0.51100000000E-03 0. -1.
        -11    1    4    4    0    0  0.11679789539E+00  0.35450813899E+01  0.34996581967E+01  0.49828557640E+01  0.51100000000E-03 0.  1.
         12    1    4    4    0    0  0.12533431783E+02 -0.16372804349E+02 -0.60336965604E+01  0.21483973764E+02  0.00000000000E+00 0. -1.
</event>
<event>
 8    1  0.1278459E-006  0.9118800E+02  0.7816164E-02  0.1184000E+00
        -11   -1    0    0    0    0  0.00000000000E+00  0.00000000000E+00  0.45593999997E+02  0.45594000000E+02  0.51100000000E-03 0. -1.
         11   -1    0    0    0    0 -0.00000000000E+00 -0.00000000000E+00 -0.45593999997E+02  0.45594000000E+02  0.51100000000E-03 0.  1.
         23    2    1    2    0    0  0.35527136788E-14  0.22204460493E-15  0.00000000000E+00  0.91188000000E+02  0.91188000000E+02 0.  0.
    9900012    2    3    3    0    0  0.25200609144E+02  0.18619394507E+01 -0.26781338234E+02  0.54367114658E+02  0.40000069487E+02 0.  0.
         12    1    3    3    0    0 -0.25200609144E+02 -0.18619394507E+01  0.26781338234E+02  0.36820885342E+02  0.00000000000E+00 0. -1.
         11    1    4    4    0    0  0.28421624141E+01 -0.56620990332E+01 -0.53539774675E+01  0.82947168507E+01  0.51100000000E-03 0. -1.
        -11    1    4    4    0    0  0.32641285478E+01  0.16747306813E+01 -0.25439934854E+02  0.25703103775E+02  0.51100000000E-03 0.  1.
         12    1    4    4    0    0  0.19094318182E+02  0.58493078026E+01  0.40125740873E+01  0.20369294033E+02  0.00000000000E+00 0. -1.
</event>
<event>
 8    1  0.1278459E-006  0.9118800E+02  0.7816164E-02  0.1184000E+00
        -11   -1    0    0    0    0  0.00000000000E+00  0.00000000000E+00  0.45593999997E+02  0.45594000000E+02  0.51100000000E-03 0.  1.
         11   -1    0    0    0    0 -0.00000000000E+00 -0.00000000000E+00 -0.45593999997E+02  0.45594000000E+02  0.51100000000E-03 0. -1.
         23    2    1    2    0    0  0.00000000000E+00 -0.88817841970E-15  0.00000000000E+00  0.91188000000E+02  0.91188000000E+02 0.  0.
    9900012    2    3    3    0    0 -0.28940551456E+02 -0.74425861104E+01 -0.21513513836E+02  0.54367097185E+02  0.40000029652E+02 0.  0.
        -12    1    3    3    0    0  0.28940551456E+02  0.74425861104E+01  0.21513513836E+02  0.36820902815E+02  0.00000000000E+00 0.  1.
         11    1    4    4    0    0 -0.84580209657E+01 -0.96145656404E+00 -0.15401813809E+02  0.17597681274E+02  0.51100000000E-03 0. -1.
        -11    1    4    4    0    0 -0.19085939069E+01  0.31838660710E+01  0.97947486846E+01  0.10474580465E+02  0.51100000000E-03 0.  1.
         12    1    4    4    0    0 -0.18573936583E+02 -0.96649956174E+01 -0.15906448712E+02  0.26294835445E+02  0.00000000000E+00 0. -1.
</event>
<event>
 8    1  0.1278459E-006  0.9118800E+02  0.7816164E-02  0.1184000E+00
        -11   -1    0    0    0    0  0.00000000000E+00  0.00000000000E+00  0.45593999997E+02  0.45594000000E+02  0.51100000000E-03 0.  1.
         11   -1    0    0    0    0 -0.00000000000E+00 -0.00000000000E+00 -0.45593999997E+02  0.45594000000E+02  0.51100000000E-03 0. -1.
         23    2    1    2    0    0  0.71054273576E-14 -0.17763568394E-14  0.00000000000E+00  0.91188000000E+02  0.91188000000E+02 0.  0.
    9900012    2    3    3    0    0  0.32474776063E+02  0.16994929622E+01 -0.17270773018E+02  0.54367096191E+02  0.40000027386E+02 0.  0.
        -12    1    3    3    0    0 -0.32474776063E+02 -0.16994929622E+01  0.17270773018E+02  0.36820903809E+02  0.00000000000E+00 0.  1.
         11    1    4    4    0    0  0.22743977591E+02 -0.11145568551E+02  0.24836517465E+01  0.25449572516E+02  0.51100000000E-03 0. -1.
        -11    1    4    4    0    0  0.59230420791E+01  0.15240780673E+02 -0.13448474143E+02  0.21171331560E+02  0.51100000000E-03 0.  1.
         12    1    4    4    0    0  0.38077563933E+01 -0.23957191597E+01 -0.63059506212E+01  0.77461921148E+01  0.00000000000E+00 0. -1.
</event>
<event>
 8    1  0.1278459E-006  0.9118800E+02  0.7816164E-02  0.1184000E+00
        -11   -1    0    0    0    0  0.00000000000E+00  0.00000000000E+00  0.45593999997E+02  0.45594000000E+02  0.51100000000E-03 0. -1.
         11   -1    0    0    0    0 -0.00000000000E+00 -0.00000000000E+00 -0.45593999997E+02  0.45594000000E+02  0.51100000000E-03 0.  1.
         23    2    1    2    0    0 -0.71054273576E-14  0.00000000000E+00  0.00000000000E+00  0.91188000000E+02  0.91188000000E+02 0.  0.
    9900012    2    3    3    0    0  0.33100600324E+02 -0.14863458770E+02 -0.62615243541E+01  0.54367097843E+02  0.40000031152E+02 0.  0.
         12    1    3    3    0    0 -0.33100600324E+02  0.14863458770E+02  0.62615243541E+01  0.36820902157E+02  0.00000000000E+00 0. -1.
         11    1    4    4    0    0 -0.13704747335E+01  0.79597095755E+00 -0.83681769716E+01  0.85169335356E+01  0.51100000000E-03 0. -1.
        -11    1    4    4    0    0  0.27828967762E+02 -0.30515519504E+01  0.97927024166E+01  0.29659070061E+02  0.51100000000E-03 0.  1.
         12    1    4    4    0    0  0.66421072960E+01 -0.12607877777E+02 -0.76860497991E+01  0.16191094246E+02  0.00000000000E+00 0. -1.
</event>
<event>
 8    1  0.1278459E-006  0.9118800E+02  0.7816164E-02  0.1184000E+00
        -11   -1    0    0    0    0  0.00000000000E+00  0.00000000000E+00  0.45593999997E+02  0.45594000000E+02  0.51100000000E-03 0.  1.
         11   -1    0    0    0    0 -0.00000000000E+00 -0.00000000000E+00 -0.45593999997E+02  0.45594000000E+02  0.51100000000E-03 0. -1.
         23    2    1    2    0    0  0.00000000000E+00  0.00000000000E+00  0.00000000000E+00  0.91188000000E+02  0.91188000000E+02 0.  0.
    9900012    2    3    3    0    0  0.98050420555E+01 -0.21856418067E+02  0.27963158342E+02  0.54367080880E+02  0.39999992482E+02 0.  0.
         12    1    3    3    0    0 -0.98050420555E+01  0.21856418067E+02 -0.27963158342E+02  0.36820919120E+02  0.00000000000E+00 0. -1.
         11    1    4    4    0    0 -0.46693998204E+01  0.92912095752E+01  0.12418920138E+02  0.16197513628E+02  0.51100000000E-03 0. -1.
        -11    1    4    4    0    0  0.33608003003E+01 -0.10448691818E+02  0.23511933426E+01  0.11224894198E+02  0.51100000000E-03 0.  1.
         12    1    4    4    0    0  0.11113641576E+02 -0.20698935824E+02  0.13193044860E+02  0.26944673054E+02  0.00000000000E+00 0. -1.
</event>
<event>
 8    1  0.1278459E-006  0.9118800E+02  0.7816164E-02  0.1184000E+00
        -11   -1    0    0    0    0  0.00000000000E+00  0.00000000000E+00  0.45593999997E+02  0.45594000000E+02  0.51100000000E-03 0. -1.
         11   -1    0    0    0    0 -0.00000000000E+00 -0.00000000000E+00 -0.45593999997E+02  0.45594000000E+02  0.51100000000E-03 0.  1.
         23    2    1    2    0    0  0.00000000000E+00  0.00000000000E+00 -0.35527136788E-14  0.91188000000E+02  0.91188000000E+02 0.  0.
    9900012    2    3    3    0    0 -0.21355341226E+02 -0.13060425433E+02  0.27002903985E+02  0.54367053041E+02  0.39999929017E+02 0.  0.
         12    1    3    3    0    0  0.21355341226E+02  0.13060425433E+02 -0.27002903985E+02  0.36820946959E+02  0.00000000000E+00 0. -1.
         11    1    4    4    0    0  0.68913059889E+01 -0.77873800904E+01  0.83356107900E+01  0.13327257573E+02  0.51100000000E-03 0. -1.
        -11    1    4    4    0    0 -0.28669742075E+02 -0.82936930867E+01  0.94109404494E+01  0.31293853327E+02  0.51100000000E-03 0.  1.
        -12    1    4    4    0    0  0.42309486070E+00  0.30206477439E+01  0.92563527456E+01  0.97459421404E+01  0.00000000000E+00 0.  1.
</event>
<event>
 8    1  0.1278459E-006  0.9118800E+02  0.7816164E-02  0.1184000E+00
        -11   -1    0    0    0    0  0.00000000000E+00  0.00000000000E+00  0.45593999997E+02  0.45594000000E+02  0.51100000000E-03 0.  1.
         11   -1    0    0    0    0 -0.00000000000E+00 -0.00000000000E+00 -0.45593999997E+02  0.45594000000E+02  0.51100000000E-03 0. -1.
         23    2    1    2    0    0 -0.35527136788E-14 -0.17763568394E-14  0.35527136788E-14  0.91188000000E+02  0.91188000000E+02 0.  0.
    9900012    2    3    3    0    0 -0.25451232071E+02 -0.12553351450E+02  0.23461219761E+02  0.54367072809E+02  0.39999974083E+02 0.  0.
         12    1    3    3    0    0  0.25451232071E+02  0.12553351450E+02 -0.23461219761E+02  0.36820927191E+02  0.00000000000E+00 0. -1.
         11    1    4    4    0    0 -0.21604323222E+02 -0.25893533634E+02  0.11494021601E+02  0.35627719528E+02  0.51100000000E-03 0. -1.
        -11    1    4    4    0    0 -0.33045563523E+01  0.13053819763E+02  0.10270866728E+02  0.16935554514E+02  0.51100000000E-03 0.  1.
         12    1    4    4    0    0 -0.54235249640E+00  0.28636242125E+00  0.16963314316E+01  0.18037987672E+01  0.00000000000E+00 0. -1.
</event>
<event>
 8    1  0.1278459E-006  0.9118800E+02  0.7816164E-02  0.1184000E+00
        -11   -1    0    0    0    0  0.00000000000E+00  0.00000000000E+00  0.45593999997E+02  0.45594000000E+02  0.51100000000E-03 0.  1.
         11   -1    0    0    0    0 -0.00000000000E+00 -0.00000000000E+00 -0.45593999997E+02  0.45594000000E+02  0.51100000000E-03 0. -1.
         23    2    1    2    0    0  0.00000000000E+00  0.00000000000E+00  0.00000000000E+00  0.91188000000E+02  0.91188000000E+02 0.  0.
    9900012    2    3    3    0    0  0.34725176976E+02  0.34407562491E+01 -0.11751718591E+02  0.54367087335E+02  0.40000007199E+02 0.  0.
        -12    1    3    3    0    0 -0.34725176976E+02 -0.34407562491E+01  0.11751718591E+02  0.36820912665E+02  0.00000000000E+00 0.  1.
         11    1    4    4    0    0  0.17101328729E+02 -0.38490681795E+01  0.95943249940E+01  0.19983038871E+02  0.51100000000E-03 0. -1.
        -11    1    4    4    0    0  0.21607366663E+02  0.69600271774E+01 -0.19716133186E+02  0.30067360717E+02  0.51100000000E-03 0.  1.
         12    1    4    4    0    0 -0.39835184163E+01  0.32979725111E+00 -0.16299103991E+01  0.43166877474E+01  0.00000000000E+00 0. -1.
</event>
<event>
 8    1  0.1278459E-006  0.9118800E+02  0.7816164E-02  0.1184000E+00
        -11   -1    0    0    0    0  0.00000000000E+00  0.00000000000E+00  0.45593999997E+02  0.45594000000E+02  0.51100000000E-03 0. -1.
         11   -1    0    0    0    0 -0.00000000000E+00 -0.00000000000E+00 -0.45593999997E+02  0.45594000000E+02  0.51100000000E-03 0.  1.
         23    2    1    2    0    0 -0.17763568394E-14  0.00000000000E+00 -0.35527136788E-14  0.91188000000E+02  0.91188000000E+02 0.  0.
    9900012    2    3    3    0    0  0.11191488791E+02  0.26702041086E+02  0.22748980416E+02  0.54367292110E+02  0.40000474021E+02 0.  0.
        -12    1    3    3    0    0 -0.11191488791E+02 -0.26702041086E+02 -0.22748980416E+02  0.36820707890E+02  0.00000000000E+00 0.  1.
         11    1    4    4    0    0  0.43607673534E+01  0.63724903302E+01  0.27370552603E+02  0.28438918316E+02  0.51100000000E-03 0. -1.
        -11    1    4    4    0    0  0.36605821769E+01  0.20338566982E+02 -0.42594939481E+00  0.20669750892E+02  0.51100000000E-03 0.  1.
        -12    1    4    4    0    0  0.31701392607E+01 -0.90162265809E-02 -0.41956227918E+01  0.52586229030E+01  0.00000000000E+00 0.  1.
</event>
<event>
 8    1  0.1278459E-006  0.9118800E+02  0.7816164E-02  0.1184000E+00
        -11   -1    0    0    0    0  0.00000000000E+00  0.00000000000E+00  0.45593999997E+02  0.45594000000E+02  0.51100000000E-03 0.  1.
         11   -1    0    0    0    0 -0.00000000000E+00 -0.00000000000E+00 -0.45593999997E+02  0.45594000000E+02  0.51100000000E-03 0. -1.
         23    2    1    2    0    0  0.17763568394E-14  0.00000000000E+00  0.00000000000E+00  0.91188000000E+02  0.91188000000E+02 0.  0.
    9900012    2    3    3    0    0  0.13943863038E+02  0.24304548058E+02 -0.23888035737E+02  0.54367073557E+02  0.39999975788E+02 0.  0.
        -12    1    3    3    0    0 -0.13943863038E+02 -0.24304548058E+02  0.23888035737E+02  0.36820926443E+02  0.00000000000E+00 0.  1.
         11    1    4    4    0    0  0.12065333323E+02  0.94728128385E+01 -0.16251578207E+02  0.22347712316E+02  0.51100000000E-03 0. -1.
        -11    1    4    4    0    0 -0.74882952448E+01 -0.50981271810E+01 -0.17735762725E+01  0.92309825849E+01  0.51100000000E-03 0.  1.
        -12    1    4    4    0    0  0.93668249604E+01  0.19929862401E+02 -0.58628812573E+01  0.22788378657E+02  0.00000000000E+00 0.  1.
</event>
<event>
 8    1  0.1278459E-006  0.9118800E+02  0.7816164E-02  0.1184000E+00
        -11   -1    0    0    0    0  0.00000000000E+00  0.00000000000E+00  0.45593999997E+02  0.45594000000E+02  0.51100000000E-03 0. -1.
         11   -1    0    0    0    0 -0.00000000000E+00 -0.00000000000E+00 -0.45593999997E+02  0.45594000000E+02  0.51100000000E-03 0.  1.
         23    2    1    2    0    0  0.00000000000E+00 -0.44408920985E-15  0.00000000000E+00  0.91188000000E+02  0.91188000000E+02 0.  0.
    9900012    2    3    3    0    0 -0.26162686061E+02  0.25512863783E+01  0.25783419124E+02  0.54367083311E+02  0.39999998024E+02 0.  0.
        -12    1    3    3    0    0  0.26162686061E+02 -0.25512863783E+01 -0.25783419124E+02  0.36820916689E+02  0.00000000000E+00 0.  1.
         11    1    4    4    0    0 -0.31042415013E+02 -0.30600056551E+01  0.31637449784E+02  0.44428857667E+02  0.51100000000E-03 0. -1.
        -11    1    4    4    0    0  0.25144881545E+01  0.13649910544E+01 -0.90336346061E+00  0.30003194932E+01  0.51100000000E-03 0.  1.
         12    1    4    4    0    0  0.23652407979E+01  0.42463009790E+01 -0.49506671996E+01  0.69379061508E+01  0.00000000000E+00 0. -1.
</event>
<event>
 8    1  0.1278459E-006  0.9118800E+02  0.7816164E-02  0.1184000E+00
        -11   -1    0    0    0    0  0.00000000000E+00  0.00000000000E+00  0.45593999997E+02  0.45594000000E+02  0.51100000000E-03 0. -1.
         11   -1    0    0    0    0 -0.00000000000E+00 -0.00000000000E+00 -0.45593999997E+02  0.45594000000E+02  0.51100000000E-03 0.  1.
         23    2    1    2    0    0  0.35527136788E-14  0.00000000000E+00  0.00000000000E+00  0.91188000000E+02  0.91188000000E+02 0.  0.
    9900012    2    3    3    0    0 -0.27893678986E+02  0.16090149008E+02  0.17855800688E+02  0.54367084196E+02  0.40000000041E+02 0.  0.
        -12    1    3    3    0    0  0.27893678986E+02 -0.16090149008E+02 -0.17855800688E+02  0.36820915804E+02  0.00000000000E+00 0.  1.
         11    1    4    4    0    0  0.10491938867E+01 -0.47340451267E+01  0.17223361367E+02  0.17892908319E+02  0.51100000000E-03 0. -1.
        -11    1    4    4    0    0 -0.86076225911E+01  0.56316276424E+01  0.36434584511E+01  0.10912432649E+02  0.51100000000E-03 0.  1.
        -12    1    4    4    0    0 -0.20335250281E+02  0.15192566492E+02 -0.30110191302E+01  0.25561743228E+02  0.00000000000E+00 0.  1.
</event>
<event>
 8    1  0.1278459E-006  0.9118800E+02  0.7816164E-02  0.1184000E+00
        -11   -1    0    0    0    0  0.00000000000E+00  0.00000000000E+00  0.45593999997E+02  0.45594000000E+02  0.51100000000E-03 0.  1.
         11   -1    0    0    0    0 -0.00000000000E+00 -0.00000000000E+00 -0.45593999997E+02  0.45594000000E+02  0.51100000000E-03 0. -1.
         23    2    1    2    0    0  0.00000000000E+00  0.00000000000E+00 -0.35527136788E-14  0.91188000000E+02  0.91188000000E+02 0.  0.
    9900012    2    3    3    0    0  0.31146096058E+02  0.10248185904E+02  0.16753411336E+02  0.54367062948E+02  0.39999951603E+02 0.  0.
        -12    1    3    3    0    0 -0.31146096058E+02 -0.10248185904E+02 -0.16753411336E+02  0.36820937052E+02  0.00000000000E+00 0.  1.
         11    1    4    4    0    0  0.18929694471E+02  0.22068479518E+01  0.65274604329E+01  0.20144757398E+02  0.51100000000E-03 0. -1.
        -11    1    4    4    0    0  0.12468408323E+01  0.17697128793E+02  0.79161854972E+01  0.19427016566E+02  0.51100000000E-03 0.  1.
         12    1    4    4    0    0  0.10969560754E+02 -0.96557908401E+01  0.23097654063E+01  0.14795288984E+02  0.00000000000E+00 0. -1.
</event>
<event>
 8    1  0.1278459E-006  0.9118800E+02  0.7816164E-02  0.1184000E+00
        -11   -1    0    0    0    0  0.00000000000E+00  0.00000000000E+00  0.45593999997E+02  0.45594000000E+02  0.51100000000E-03 0.  1.
         11   -1    0    0    0    0 -0.00000000000E+00 -0.00000000000E+00 -0.45593999997E+02  0.45594000000E+02  0.51100000000E-03 0. -1.
         23    2    1    2    0    0  0.00000000000E+00  0.00000000000E+00 -0.35527136788E-14  0.91188000000E+02  0.91188000000E+02 0.  0.
    9900012    2    3    3    0    0 -0.25085484748E+02  0.14711107181E+02  0.22585011726E+02  0.54367068803E+02  0.39999964950E+02 0.  0.
         12    1    3    3    0    0  0.25085484748E+02 -0.14711107181E+02 -0.22585011726E+02  0.36820931197E+02  0.00000000000E+00 0. -1.
         11    1    4    4    0    0  0.75712131497E+00  0.29913159263E+01  0.22501592001E+02  0.22712173971E+02  0.51100000000E-03 0. -1.
        -11    1    4    4    0    0 -0.16639988453E+02  0.14159676455E+02 -0.18941598782E+01  0.21931107927E+02  0.51100000000E-03 0.  1.
        -12    1    4    4    0    0 -0.92026176101E+01 -0.24398852001E+01  0.19775796032E+01  0.97237869040E+01  0.00000000000E+00 0.  1.
</event>
<event>
 8    1  0.1278459E-006  0.9118800E+02  0.7816164E-02  0.1184000E+00
        -11   -1    0    0    0    0  0.00000000000E+00  0.00000000000E+00  0.45593999997E+02  0.45594000000E+02  0.51100000000E-03 0.  1.
         11   -1    0    0    0    0 -0.00000000000E+00 -0.00000000000E+00 -0.45593999997E+02  0.45594000000E+02  0.51100000000E-03 0. -1.
         23    2    1    2    0    0 -0.71054273576E-14 -0.17763568394E-14 -0.13045120539E-14  0.91188000000E+02  0.91188000000E+02 0.  0.
    9900012    2    3    3    0    0 -0.34411769875E+02 -0.13098165555E+02  0.22238307020E+00  0.54367064365E+02  0.39999954832E+02 0.  0.
         12    1    3    3    0    0  0.34411769875E+02  0.13098165555E+02 -0.22238307020E+00  0.36820935635E+02  0.00000000000E+00 0. -1.
         11    1    4    4    0    0  0.12336503244E+01 -0.35523364916E+01 -0.38954563154E+01  0.54143852688E+01  0.51100000000E-03 0. -1.
        -11    1    4    4    0    0 -0.53789435730E+01 -0.73043892898E+01 -0.11639221755E+02  0.14756646644E+02  0.51100000000E-03 0.  1.
        -12    1    4    4    0    0 -0.30266476626E+02 -0.22414397735E+01  0.15757061141E+02  0.34196032452E+02  0.00000000000E+00 0.  1.
</event>
<event>
 8    1  0.1278459E-006  0.9118800E+02  0.7816164E-02  0.1184000E+00
        -11   -1    0    0    0    0  0.00000000000E+00  0.00000000000E+00  0.45593999997E+02  0.45594000000E+02  0.51100000000E-03 0.  1.
         11   -1    0    0    0    0 -0.00000000000E+00 -0.00000000000E+00 -0.45593999997E+02  0.45594000000E+02  0.51100000000E-03 0. -1.
         23    2    1    2    0    0  0.00000000000E+00  0.35527136788E-14  0.00000000000E+00  0.91188000000E+02  0.91188000000E+02 0.  0.
    9900012    2    3    3    0    0 -0.22339200875E+02 -0.27901845959E+02 -0.88446171060E+01  0.54367079922E+02  0.39999990297E+02 0.  0.
         12    1    3    3    0    0  0.22339200875E+02  0.27901845959E+02  0.88446171060E+01  0.36820920078E+02  0.00000000000E+00 0. -1.
         11    1    4    4    0    0  0.30803197271E+01 -0.20408674990E+02 -0.92502868746E+01  0.22617917499E+02  0.51100000000E-03 0. -1.
        -11    1    4    4    0    0 -0.19040724529E+02 -0.49936539973E+00 -0.63966372327E+01  0.20092673404E+02  0.51100000000E-03 0.  1.
        -12    1    4    4    0    0 -0.63787960732E+01 -0.69938055692E+01  0.68023070012E+01  0.11656489018E+02  0.00000000000E+00 0.  1.
</event>
<event>
 8    1  0.1278459E-006  0.9118800E+02  0.7816164E-02  0.1184000E+00
        -11   -1    0    0    0    0  0.00000000000E+00  0.00000000000E+00  0.45593999997E+02  0.45594000000E+02  0.51100000000E-03 0. -1.
         11   -1    0    0    0    0 -0.00000000000E+00 -0.00000000000E+00 -0.45593999997E+02  0.45594000000E+02  0.51100000000E-03 0.  1.
         23    2    1    2    0    0  0.00000000000E+00  0.22204460493E-14  0.88817841970E-15  0.91188000000E+02  0.91188000000E+02 0.  0.
    9900012    2    3    3    0    0 -0.36399555606E+02 -0.26571374970E+01  0.48776895344E+01  0.54367083618E+02  0.39999998724E+02 0.  0.
        -12    1    3    3    0    0  0.36399555606E+02  0.26571374970E+01 -0.48776895344E+01  0.36820916382E+02  0.00000000000E+00 0.  1.
         11    1    4    4    0    0 -0.35084927267E+01  0.10241258104E+02 -0.16593287770E+01  0.10951998038E+02  0.51100000000E-03 0. -1.
        -11    1    4    4    0    0 -0.16364080186E+02 -0.19129745586E+02  0.25074783212E+01  0.25298571784E+02  0.51100000000E-03 0.  1.
         12    1    4    4    0    0 -0.16526982694E+02  0.62313499852E+01  0.40295399902E+01  0.18116513796E+02  0.00000000000E+00 0. -1.
</event>
<event>
 8    1  0.1278459E-006  0.9118800E+02  0.7816164E-02  0.1184000E+00
        -11   -1    0    0    0    0  0.00000000000E+00  0.00000000000E+00  0.45593999997E+02  0.45594000000E+02  0.51100000000E-03 0.  1.
         11   -1    0    0    0    0 -0.00000000000E+00 -0.00000000000E+00 -0.45593999997E+02  0.45594000000E+02  0.51100000000E-03 0. -1.
         23    2    1    2    0    0  0.35527136788E-14 -0.35527136788E-14 -0.11102230246E-14  0.91188000000E+02  0.91188000000E+02 0.  0.
    9900012    2    3    3    0    0 -0.31149617357E+02 -0.19599238301E+02 -0.11624416895E+01  0.54367081025E+02  0.39999992813E+02 0.  0.
        -12    1    3    3    0    0  0.31149617357E+02  0.19599238301E+02  0.11624416895E+01  0.36820918975E+02  0.00000000000E+00 0.  1.
         11    1    4    4    0    0 -0.14804213361E+02 -0.12905594516E+02 -0.51301776300E+01  0.20298714881E+02  0.51100000000E-03 0. -1.
        -11    1    4    4    0    0 -0.10701246744E+02 -0.77148846745E+01  0.16000944746E+02  0.20738041384E+02  0.51100000000E-03 0.  1.
        -12    1    4    4    0    0 -0.56441572521E+01  0.10212408894E+01 -0.12033208806E+02  0.13330324760E+02  0.00000000000E+00 0.  1.
</event>
<event>
 8    1  0.1278459E-006  0.9118800E+02  0.7816164E-02  0.1184000E+00
        -11   -1    0    0    0    0  0.00000000000E+00  0.00000000000E+00  0.45593999997E+02  0.45594000000E+02  0.51100000000E-03 0.  1.
         11   -1    0    0    0    0 -0.00000000000E+00 -0.00000000000E+00 -0.45593999997E+02  0.45594000000E+02  0.51100000000E-03 0. -1.
         23    2    1    2    0    0  0.00000000000E+00 -0.35527136788E-14 -0.35527136788E-14  0.91188000000E+02  0.91188000000E+02 0.  0.
    9900012    2    3    3    0    0 -0.53480669879E+01  0.30582010423E+02 -0.19796931502E+02  0.54367086392E+02  0.40000005049E+02 0.  0.
         12    1    3    3    0    0  0.53480669879E+01 -0.30582010423E+02  0.19796931502E+02  0.36820913608E+02  0.00000000000E+00 0. -1.
         11    1    4    4    0    0 -0.78869659821E+01  0.69177554728E+01  0.90233805717E+01  0.13837664918E+02  0.51100000000E-03 0. -1.
        -11    1    4    4    0    0 -0.53412410220E+01  0.13723805999E+02 -0.98801759347E+01  0.17733854164E+02  0.51100000000E-03 0.  1.
        -12    1    4    4    0    0  0.78801400162E+01  0.99404489509E+01 -0.18940136139E+02  0.22795567310E+02  0.00000000000E+00 0.  1.
</event>
<event>
 8    1  0.1278459E-006  0.9118800E+02  0.7816164E-02  0.1184000E+00
        -11   -1    0    0    0    0  0.00000000000E+00  0.00000000000E+00  0.45593999997E+02  0.45594000000E+02  0.51100000000E-03 0.  1.
         11   -1    0    0    0    0 -0.00000000000E+00 -0.00000000000E+00 -0.45593999997E+02  0.45594000000E+02  0.51100000000E-03 0. -1.
         23    2    1    2    0    0  0.00000000000E+00  0.00000000000E+00  0.00000000000E+00  0.91188000000E+02  0.91188000000E+02 0.  0.
    9900012    2    3    3    0    0 -0.66172578271E+01 -0.52151490285E+01 -0.35844017340E+02  0.54367089370E+02  0.40000011837E+02 0.  0.
        -12    1    3    3    0    0  0.66172578271E+01  0.52151490285E+01  0.35844017340E+02  0.36820910630E+02  0.00000000000E+00 0.  1.
         11    1    4    4    0    0 -0.53369211643E+01  0.11385819923E+01  0.46806120341E+01  0.71893828485E+01  0.51100000000E-03 0. -1.
        -11    1    4    4    0    0  0.34946779422E+01 -0.56563878462E+01 -0.29049878706E+00  0.66552150373E+01  0.51100000000E-03 0.  1.
         12    1    4    4    0    0 -0.47750146050E+01 -0.69734317459E+00 -0.40234130587E+02  0.40522491484E+02  0.00000000000E+00 0. -1.
</event>
<event>
 8    1  0.1278459E-006  0.9118800E+02  0.7816164E-02  0.1184000E+00
        -11   -1    0    0    0    0  0.00000000000E+00  0.00000000000E+00  0.45593999997E+02  0.45594000000E+02  0.51100000000E-03 0.  1.
         11   -1    0    0    0    0 -0.00000000000E+00 -0.00000000000E+00 -0.45593999997E+02  0.45594000000E+02  0.51100000000E-03 0. -1.
         23    2    1    2    0    0  0.35527136788E-14  0.00000000000E+00  0.35527136788E-14  0.91188000000E+02  0.91188000000E+02 0.  0.
    9900012    2    3    3    0    0  0.21337648557E+02  0.17798664721E+01  0.29955229624E+02  0.54367096257E+02  0.40000027537E+02 0.  0.
         12    1    3    3    0    0 -0.21337648557E+02 -0.17798664721E+01 -0.29955229624E+02  0.36820903743E+02  0.00000000000E+00 0. -1.
         11    1    4    4    0    0 -0.65095302395E+01  0.34472854608E+01  0.55529780696E+01  0.92246044192E+01  0.51100000000E-03 0. -1.
        -11    1    4    4    0    0  0.20313358853E+02  0.17714017661E+01  0.11086998630E+01  0.20420568743E+02  0.51100000000E-03 0.  1.
        -12    1    4    4    0    0  0.75338199433E+01 -0.34388207548E+01  0.23293551692E+02  0.24721923095E+02  0.00000000000E+00 0.  1.
</event>
<event>
 8    1  0.1278459E-006  0.9118800E+02  0.7816164E-02  0.1184000E+00
        -11   -1    0    0    0    0  0.00000000000E+00  0.00000000000E+00  0.45593999997E+02  0.45594000000E+02  0.51100000000E-03 0.  1.
         11   -1    0    0    0    0 -0.00000000000E+00 -0.00000000000E+00 -0.45593999997E+02  0.45594000000E+02  0.51100000000E-03 0. -1.
         23    2    1    2    0    0  0.00000000000E+00  0.00000000000E+00 -0.35527136788E-14  0.91188000000E+02  0.91188000000E+02 0.  0.
    9900012    2    3    3    0    0 -0.10028512458E+02  0.20346880682E+02 -0.29003675477E+02  0.54367084655E+02  0.40000001089E+02 0.  0.
        -12    1    3    3    0    0  0.10028512458E+02 -0.20346880682E+02  0.29003675477E+02  0.36820915345E+02  0.00000000000E+00 0.  1.
         11    1    4    4    0    0 -0.12298959370E+02  0.23610694718E+02 -0.65355883325E+01  0.27412464715E+02  0.51100000000E-03 0. -1.
        -11    1    4    4    0    0 -0.36314666873E+00  0.32651152854E+00  0.20132597003E+01  0.20716419003E+01  0.51100000000E-03 0.  1.
        -12    1    4    4    0    0  0.26335935801E+01 -0.35903255640E+01 -0.24481346845E+02  0.24882978040E+02  0.00000000000E+00 0.  1.
</event>
<event>
 8    1  0.1278459E-006  0.9118800E+02  0.7816164E-02  0.1184000E+00
        -11   -1    0    0    0    0  0.00000000000E+00  0.00000000000E+00  0.45593999997E+02  0.45594000000E+02  0.51100000000E-03 0. -1.
         11   -1    0    0    0    0 -0.00000000000E+00 -0.00000000000E+00 -0.45593999997E+02  0.45594000000E+02  0.51100000000E-03 0.  1.
         23    2    1    2    0    0  0.35527136788E-14  0.00000000000E+00  0.88817841970E-15  0.91188000000E+02  0.91188000000E+02 0.  0.
    9900012    2    3    3    0    0  0.31223658060E+02 -0.18160524288E+02 -0.71455641388E+01  0.54367074537E+02  0.39999978022E+02 0.  0.
        -12    1    3    3    0    0 -0.31223658060E+02  0.18160524288E+02  0.71455641388E+01  0.36820925463E+02  0.00000000000E+00 0.  1.
         11    1    4    4    0    0  0.14596613402E+02  0.20520895900E+01  0.54494657036E+01  0.15715243275E+02  0.51100000000E-03 0. -1.
        -11    1    4    4    0    0 -0.65102026992E+01 -0.24508473297E+01 -0.48255125130E+01  0.84661067258E+01  0.51100000000E-03 0.  1.
         12    1    4    4    0    0  0.23137247358E+02 -0.17761766549E+02 -0.77695173294E+01  0.30185724536E+02  0.00000000000E+00 0. -1.
</event>
<event>
 8    1  0.1278459E-006  0.9118800E+02  0.7816164E-02  0.1184000E+00
        -11   -1    0    0    0    0  0.00000000000E+00  0.00000000000E+00  0.45593999997E+02  0.45594000000E+02  0.51100000000E-03 0.  1.
         11   -1    0    0    0    0 -0.00000000000E+00 -0.00000000000E+00 -0.45593999997E+02  0.45594000000E+02  0.51100000000E-03 0. -1.
         23    2    1    2    0    0  0.00000000000E+00  0.00000000000E+00  0.00000000000E+00  0.91188000000E+02  0.91188000000E+02 0.  0.
    9900012    2    3    3    0    0  0.22359871956E+02 -0.24479049675E+02  0.16018525501E+02  0.54367069728E+02  0.39999967059E+02 0.  0.
         12    1    3    3    0    0 -0.22359871956E+02  0.24479049675E+02 -0.16018525501E+02  0.36820930272E+02  0.00000000000E+00 0. -1.
         11    1    4    4    0    0  0.20284313927E+02 -0.14625074273E+02  0.10751242212E+02  0.27220128551E+02  0.51100000000E-03 0. -1.
        -11    1    4    4    0    0  0.26811871639E+01 -0.14715120416E+02  0.11750568863E+02  0.19021025270E+02  0.51100000000E-03 0.  1.
         12    1    4    4    0    0 -0.60562913473E+00  0.48611450137E+01 -0.64832855739E+01  0.81259159069E+01  0.00000000000E+00 0. -1.
</event>
<event>
 8    1  0.1278459E-006  0.9118800E+02  0.7816164E-02  0.1184000E+00
        -11   -1    0    0    0    0  0.00000000000E+00  0.00000000000E+00  0.45593999997E+02  0.45594000000E+02  0.51100000000E-03 0. -1.
         11   -1    0    0    0    0 -0.00000000000E+00 -0.00000000000E+00 -0.45593999997E+02  0.45594000000E+02  0.51100000000E-03 0.  1.
         23    2    1    2    0    0  0.35527136788E-14  0.00000000000E+00  0.00000000000E+00  0.91188000000E+02  0.91188000000E+02 0.  0.
    9900012    2    3    3    0    0  0.18752246716E+02 -0.27181281655E+02  0.16288381166E+02  0.54367079448E+02  0.39999989217E+02 0.  0.
        -12    1    3    3    0    0 -0.18752246716E+02  0.27181281655E+02 -0.16288381166E+02  0.36820920552E+02  0.00000000000E+00 0.  1.
         11    1    4    4    0    0  0.26614476649E+02 -0.13993694552E+02  0.14829455320E+02  0.33527102467E+02  0.51100000000E-03 0. -1.
        -11    1    4    4    0    0 -0.58846604645E+01  0.12668329666E+01  0.16789778662E+01  0.62492448731E+01  0.51100000000E-03 0.  1.
         12    1    4    4    0    0 -0.19775694679E+01 -0.14454420069E+02 -0.22005202011E+00  0.14590732107E+02  0.00000000000E+00 0. -1.
</event>
<event>
 8    1  0.1278459E-006  0.9118800E+02  0.7816164E-02  0.1184000E+00
        -11   -1    0    0    0    0  0.00000000000E+00  0.00000000000E+00  0.45593999997E+02  0.45594000000E+02  0.51100000000E-03 0.  1.
         11   -1    0    0    0    0 -0.00000000000E+00 -0.00000000000E+00 -0.45593999997E+02  0.45594000000E+02  0.51100000000E-03 0. -1.
         23    2    1    2    0    0 -0.35527136788E-14  0.00000000000E+00  0.53290705182E-14  0.91188000000E+02  0.91188000000E+02 0.  0.
    9900012    2    3    3    0    0 -0.26489642707E+02  0.20133670158E+02 -0.15770668593E+02  0.54367084305E+02  0.40000000289E+02 0.  0.
        -12    1    3    3    0    0  0.26489642707E+02 -0.20133670158E+02  0.15770668593E+02  0.36820915695E+02  0.00000000000E+00 0.  1.
         11    1    4    4    0    0 -0.43159512695E+01  0.35285231817E+01 -0.10489784989E+02  0.11879120363E+02  0.51100000000E-03 0. -1.
        -11    1    4    4    0    0  0.14104703624E+01 -0.46278254704E+01  0.69587764801E+01  0.84753032742E+01  0.51100000000E-03 0.  1.
        -12    1    4    4    0    0 -0.23584161799E+02  0.21232972447E+02 -0.12239660084E+02  0.34012660668E+02  0.00000000000E+00 0.  1.
</event>
<event>
 8    1  0.1278459E-006  0.9118800E+02  0.7816164E-02  0.1184000E+00
        -11   -1    0    0    0    0  0.00000000000E+00  0.00000000000E+00  0.45593999997E+02  0.45594000000E+02  0.51100000000E-03 0. -1.
         11   -1    0    0    0    0 -0.00000000000E+00 -0.00000000000E+00 -0.45593999997E+02  0.45594000000E+02  0.51100000000E-03 0.  1.
         23    2    1    2    0    0 -0.17763568394E-14 -0.17763568394E-14  0.00000000000E+00  0.91188000000E+02  0.91188000000E+02 0.  0.
    9900012    2    3    3    0    0 -0.17353417244E+01 -0.13946861570E+02  0.34033114905E+02  0.54367091963E+02  0.40000017748E+02 0.  0.
        -12    1    3    3    0    0  0.17353417244E+01  0.13946861570E+02 -0.34033114905E+02  0.36820908037E+02  0.00000000000E+00 0.  1.
         11    1    4    4    0    0  0.35647894697E+01  0.17326416075E+01  0.79865608436E+01  0.89159926690E+01  0.51100000000E-03 0. -1.
        -11    1    4    4    0    0  0.14103559329E+02 -0.85956010203E+01  0.10149163975E+02  0.19385568660E+02  0.51100000000E-03 0.  1.
         12    1    4    4    0    0 -0.19403690523E+02 -0.70839021569E+01  0.15897390086E+02  0.26065530634E+02  0.00000000000E+00 0. -1.
</event>
<event>
 8    1  0.1278459E-006  0.9118800E+02  0.7816164E-02  0.1184000E+00
        -11   -1    0    0    0    0  0.00000000000E+00  0.00000000000E+00  0.45593999997E+02  0.45594000000E+02  0.51100000000E-03 0.  1.
         11   -1    0    0    0    0 -0.00000000000E+00 -0.00000000000E+00 -0.45593999997E+02  0.45594000000E+02  0.51100000000E-03 0. -1.
         23    2    1    2    0    0  0.17763568394E-14  0.00000000000E+00  0.00000000000E+00  0.91188000000E+02  0.91188000000E+02 0.  0.
    9900012    2    3    3    0    0  0.92578902999E+01 -0.25746579496E+02  0.24641148390E+02  0.54367067332E+02  0.39999961597E+02 0.  0.
         12    1    3    3    0    0 -0.92578902999E+01  0.25746579496E+02 -0.24641148390E+02  0.36820932668E+02  0.00000000000E+00 0. -1.
         11    1    4    4    0    0 -0.95796138303E+01 -0.16408386353E+02 -0.12286189677E+01  0.19039791193E+02  0.51100000000E-03 0.  1.
        -11    1    4    4    0    0  0.95336440085E+01 -0.40001030761E-01  0.52900702509E+01  0.10903064325E+02  0.51100000000E-03 0. -1.
        -12    1    4    4    0    0  0.93038601218E+01 -0.92981921127E+01  0.20579697107E+02  0.24424211814E+02  0.00000000000E+00 0.  1.
</event>
<event>
 8    1  0.1278459E-006  0.9118800E+02  0.7816164E-02  0.1184000E+00
        -11   -1    0    0    0    0  0.00000000000E+00  0.00000000000E+00  0.45593999997E+02  0.45594000000E+02  0.51100000000E-03 0.  1.
         11   -1    0    0    0    0 -0.00000000000E+00 -0.00000000000E+00 -0.45593999997E+02  0.45594000000E+02  0.51100000000E-03 0. -1.
         23    2    1    2    0    0  0.00000000000E+00  0.00000000000E+00 -0.71054273576E-14  0.91188000000E+02  0.91188000000E+02 0.  0.
    9900012    2    3    3    0    0  0.29243356659E+02  0.10957340419E+02  0.19507500841E+02  0.54367084655E+02  0.40000001089E+02 0.  0.
         12    1    3    3    0    0 -0.29243356659E+02 -0.10957340419E+02 -0.19507500841E+02  0.36820915345E+02  0.00000000000E+00 0. -1.
         11    1    4    4    0    0  0.13468312374E+02  0.16281693358E+02 -0.30201850998E+01  0.21345034437E+02  0.51100000000E-03 0. -1.
        -11    1    4    4    0    0  0.19008866087E+02 -0.35967103809E+01  0.22035192766E+02  0.29322739230E+02  0.51100000000E-03 0.  1.
         12    1    4    4    0    0 -0.32338218025E+01 -0.17276425584E+01  0.49249317499E+00  0.36993109882E+01  0.00000000000E+00 0. -1.
</event>
<event>
 8    1  0.1278459E-006  0.9118800E+02  0.7816164E-02  0.1184000E+00
        -11   -1    0    0    0    0  0.00000000000E+00  0.00000000000E+00  0.45593999997E+02  0.45594000000E+02  0.51100000000E-03 0.  1.
         11   -1    0    0    0    0 -0.00000000000E+00 -0.00000000000E+00 -0.45593999997E+02  0.45594000000E+02  0.51100000000E-03 0. -1.
         23    2    1    2    0    0  0.35527136788E-14  0.35527136788E-14 -0.35527136788E-14  0.91188000000E+02  0.91188000000E+02 0.  0.
    9900012    2    3    3    0    0  0.21927773202E+02  0.28296311563E+02 -0.86182767839E+01  0.54367038845E+02  0.39999896654E+02 0.  0.
        -12    1    3    3    0    0 -0.21927773202E+02 -0.28296311563E+02  0.86182767839E+01  0.36820961155E+02  0.00000000000E+00 0.  1.
         11    1    4    4    0    0  0.91464383788E+01  0.25530158311E+02 -0.10038512302E+02  0.28917435016E+02  0.51100000000E-03 0. -1.
        -11    1    4    4    0    0  0.17402371050E+02  0.72707313276E+01  0.20222389310E+01  0.18968276220E+02  0.51100000000E-03 0.  1.
        -12    1    4    4    0    0 -0.46210362273E+01 -0.45045780758E+01 -0.60200341331E+00  0.64813276082E+01  0.00000000000E+00 0.  1.
</event>
<event>
 8    1  0.1278459E-006  0.9118800E+02  0.7816164E-02  0.1184000E+00
        -11   -1    0    0    0    0  0.00000000000E+00  0.00000000000E+00  0.45593999997E+02  0.45594000000E+02  0.51100000000E-03 0.  1.
         11   -1    0    0    0    0 -0.00000000000E+00 -0.00000000000E+00 -0.45593999997E+02  0.45594000000E+02  0.51100000000E-03 0. -1.
         23    2    1    2    0    0 -0.13322676296E-14  0.71054273576E-14 -0.17763568394E-14  0.91188000000E+02  0.91188000000E+02 0.  0.
    9900012    2    3    3    0    0  0.24063698427E+01 -0.36518154120E+02  0.40514133381E+01  0.54367080047E+02  0.39999990582E+02 0.  0.
        -12    1    3    3    0    0 -0.24063698427E+01  0.36518154120E+02 -0.40514133381E+01  0.36820919953E+02  0.00000000000E+00 0.  1.
         11    1    4    4    0    0 -0.82123317709E+01 -0.17366448984E+02 -0.47815275323E+01  0.19796437791E+02  0.51100000000E-03 0. -1.
        -11    1    4    4    0    0 -0.51638748847E+01 -0.22136786969E+01 -0.50680905804E+01  0.75664733919E+01  0.51100000000E-03 0.  1.
        -12    1    4    4    0    0  0.15782576498E+02 -0.16938026440E+02  0.13901031451E+02  0.27004168863E+02  0.00000000000E+00 0.  1.
</event>
<event>
 8    1  0.1278459E-006  0.9118800E+02  0.7816164E-02  0.1184000E+00
        -11   -1    0    0    0    0  0.00000000000E+00  0.00000000000E+00  0.45593999997E+02  0.45594000000E+02  0.51100000000E-03 0.  1.
         11   -1    0    0    0    0 -0.00000000000E+00 -0.00000000000E+00 -0.45593999997E+02  0.45594000000E+02  0.51100000000E-03 0. -1.
         23    2    1    2    0    0  0.00000000000E+00  0.00000000000E+00  0.00000000000E+00  0.91188000000E+02  0.91188000000E+02 0.  0.
    9900012    2    3    3    0    0 -0.41916555572E+01 -0.36341113267E+02  0.41872209377E+01  0.54367091415E+02  0.40000016500E+02 0.  0.
        -12    1    3    3    0    0  0.41916555572E+01  0.36341113267E+02 -0.41872209377E+01  0.36820908585E+02  0.00000000000E+00 0.  1.
         11    1    4    4    0    0 -0.59083352460E+01 -0.14203825922E+02  0.11287174927E+01  0.15425015385E+02  0.51100000000E-03 0. -1.
        -11    1    4    4    0    0 -0.12836911606E+02 -0.26029911035E+01  0.59970143566E+01  0.14405764253E+02  0.51100000000E-03 0.  1.
        -12    1    4    4    0    0  0.14553591295E+02 -0.19534296242E+02 -0.29385109115E+01  0.24536311777E+02  0.00000000000E+00 0.  1.
</event>
<event>
 8    1  0.1278459E-006  0.9118800E+02  0.7816164E-02  0.1184000E+00
        -11   -1    0    0    0    0  0.00000000000E+00  0.00000000000E+00  0.45593999997E+02  0.45594000000E+02  0.51100000000E-03 0. -1.
         11   -1    0    0    0    0 -0.00000000000E+00 -0.00000000000E+00 -0.45593999997E+02  0.45594000000E+02  0.51100000000E-03 0.  1.
         23    2    1    2    0    0 -0.35527136788E-14  0.71054273576E-14  0.00000000000E+00  0.91188000000E+02  0.91188000000E+02 0.  0.
    9900012    2    3    3    0    0  0.21942866973E+02 -0.15474824380E+02 -0.25195641716E+02  0.54367082547E+02  0.39999996282E+02 0.  0.
         12    1    3    3    0    0 -0.21942866973E+02  0.15474824380E+02  0.25195641716E+02  0.36820917453E+02  0.00000000000E+00 0. -1.
         11    1    4    4    0    0 -0.14748319908E+01  0.90624461731E+01 -0.79033745652E+00  0.92156222577E+01  0.51100000000E-03 0. -1.
        -11    1    4    4    0    0  0.37031608492E+01 -0.12244751146E+02 -0.21365038065E+01  0.12969656112E+02  0.51100000000E-03 0.  1.
         12    1    4    4    0    0  0.19714538115E+02 -0.12292519407E+02 -0.22268800453E+02  0.32181804177E+02  0.00000000000E+00 0. -1.
</event>
<event>
 8    1  0.1278459E-006  0.9118800E+02  0.7816164E-02  0.1184000E+00
        -11   -1    0    0    0    0  0.00000000000E+00  0.00000000000E+00  0.45593999997E+02  0.45594000000E+02  0.51100000000E-03 0. -1.
         11   -1    0    0    0    0 -0.00000000000E+00 -0.00000000000E+00 -0.45593999997E+02  0.45594000000E+02  0.51100000000E-03 0.  1.
         23    2    1    2    0    0  0.00000000000E+00  0.26645352591E-14  0.17763568394E-14  0.91188000000E+02  0.91188000000E+02 0.  0.
    9900012    2    3    3    0    0 -0.32571688984E+02 -0.74697810163E+01  0.15461797976E+02  0.54367085449E+02  0.40000002898E+02 0.  0.
        -12    1    3    3    0    0  0.32571688984E+02  0.74697810163E+01 -0.15461797976E+02  0.36820914551E+02  0.00000000000E+00 0.  1.
         11    1    4    4    0    0 -0.12738564233E+02  0.15729713706E+02  0.65127890778E+01  0.21262909815E+02  0.51100000000E-03 0. -1.
        -11    1    4    4    0    0 -0.36378557312E+01 -0.10259322644E+02  0.11106703761E+01  0.10941722185E+02  0.51100000000E-03 0.  1.
         12    1    4    4    0    0 -0.16195269020E+02 -0.12940172078E+02  0.78383385221E+01  0.22162453448E+02  0.00000000000E+00 0. -1.
</event>
<event>
 8    1  0.1278459E-006  0.9118800E+02  0.7816164E-02  0.1184000E+00
        -11   -1    0    0    0    0  0.00000000000E+00  0.00000000000E+00  0.45593999997E+02  0.45594000000E+02  0.51100000000E-03 0.  1.
         11   -1    0    0    0    0 -0.00000000000E+00 -0.00000000000E+00 -0.45593999997E+02  0.45594000000E+02  0.51100000000E-03 0. -1.
         23    2    1    2    0    0  0.00000000000E+00  0.00000000000E+00  0.00000000000E+00  0.91188000000E+02  0.91188000000E+02 0.  0.
    9900012    2    3    3    0    0 -0.27329915228E+02 -0.17092630478E+02 -0.17796000050E+02  0.54367083380E+02  0.39999998181E+02 0.  0.
         12    1    3    3    0    0  0.27329915228E+02  0.17092630478E+02  0.17796000050E+02  0.36820916620E+02  0.00000000000E+00 0. -1.
         11    1    4    4    0    0 -0.15995931058E+02 -0.24399699908E+02 -0.11510929307E+02  0.31364257679E+02  0.51100000000E-03 0. -1.
        -11    1    4    4    0    0 -0.11945553356E+02  0.48237097323E+01 -0.11452387809E+02  0.17237215765E+02  0.51100000000E-03 0.  1.
         12    1    4    4    0    0  0.61156918637E+00  0.24833596977E+01  0.51673170661E+01  0.57656099348E+01  0.00000000000E+00 0. -1.
</event>
<event>
 8    1  0.1278459E-006  0.9118800E+02  0.7816164E-02  0.1184000E+00
        -11   -1    0    0    0    0  0.00000000000E+00  0.00000000000E+00  0.45593999997E+02  0.45594000000E+02  0.51100000000E-03 0. -1.
         11   -1    0    0    0    0 -0.00000000000E+00 -0.00000000000E+00 -0.45593999997E+02  0.45594000000E+02  0.51100000000E-03 0.  1.
         23    2    1    2    0    0  0.71054273576E-14 -0.33306690739E-15  0.00000000000E+00  0.91188000000E+02  0.91188000000E+02 0.  0.
    9900012    2    3    3    0    0 -0.32894999133E+02 -0.66838092727E+00 -0.16530331245E+02  0.54367088114E+02  0.40000008974E+02 0.  0.
         12    1    3    3    0    0  0.32894999133E+02  0.66838092727E+00  0.16530331245E+02  0.36820911886E+02  0.00000000000E+00 0. -1.
         11    1    4    4    0    0 -0.14859799749E+02 -0.14084851106E+02 -0.28928399383E+01  0.20677649828E+02  0.51100000000E-03 0. -1.
        -11    1    4    4    0    0 -0.16578158327E+02  0.56061233194E+00 -0.28216480020E+01  0.16825912083E+02  0.51100000000E-03 0.  1.
        -12    1    4    4    0    0 -0.14570410568E+01  0.12855857847E+02 -0.10815843305E+02  0.16863526203E+02  0.00000000000E+00 0.  1.
</event>
<event>
 8    1  0.1278459E-006  0.9118800E+02  0.7816164E-02  0.1184000E+00
        -11   -1    0    0    0    0  0.00000000000E+00  0.00000000000E+00  0.45593999997E+02  0.45594000000E+02  0.51100000000E-03 0.  1.
         11   -1    0    0    0    0 -0.00000000000E+00 -0.00000000000E+00 -0.45593999997E+02  0.45594000000E+02  0.51100000000E-03 0. -1.
         23    2    1    2    0    0  0.00000000000E+00  0.00000000000E+00  0.00000000000E+00  0.91188000000E+02  0.91188000000E+02 0.  0.
    9900012    2    3    3    0    0  0.20815481893E+02 -0.27580918766E+02  0.12719609815E+02  0.54367084202E+02  0.40000000055E+02 0.  0.
         12    1    3    3    0    0 -0.20815481893E+02  0.27580918766E+02 -0.12719609815E+02  0.36820915798E+02  0.00000000000E+00 0. -1.
         11    1    4    4    0    0 -0.38388427412E+01  0.55189239364E+01 -0.48071932573E+00  0.67399055141E+01  0.51100000000E-03 0. -1.
        -11    1    4    4    0    0  0.65994740652E+01 -0.25203013018E+02  0.77527369250E+01  0.27181792679E+02  0.51100000000E-03 0.  1.
        -12    1    4    4    0    0  0.18054850569E+02 -0.78968296839E+01  0.54475922154E+01  0.20445386009E+02  0.00000000000E+00 0.  1.
</event>
<event>
 8    1  0.1278459E-006  0.9118800E+02  0.7816164E-02  0.1184000E+00
        -11   -1    0    0    0    0  0.00000000000E+00  0.00000000000E+00  0.45593999997E+02  0.45594000000E+02  0.51100000000E-03 0.  1.
         11   -1    0    0    0    0 -0.00000000000E+00 -0.00000000000E+00 -0.45593999997E+02  0.45594000000E+02  0.51100000000E-03 0. -1.
         23    2    1    2    0    0  0.00000000000E+00  0.35527136788E-14  0.35527136788E-14  0.91188000000E+02  0.91188000000E+02 0.  0.
    9900012    2    3    3    0    0 -0.22608859537E+02 -0.92520910581E+01  0.27550304442E+02  0.54367068543E+02  0.39999964358E+02 0.  0.
         12    1    3    3    0    0  0.22608859537E+02  0.92520910581E+01 -0.27550304442E+02  0.36820931457E+02  0.00000000000E+00 0. -1.
         11    1    4    4    0    0 -0.13462400155E+02 -0.18418577638E+02  0.11823163378E+02  0.25695669142E+02  0.51100000000E-03 0. -1.
        -11    1    4    4    0    0 -0.15105327288E+02  0.64689014714E+01  0.14704621961E+02  0.22050929821E+02  0.51100000000E-03 0.  1.
         12    1    4    4    0    0  0.59588679060E+01  0.26975851084E+01  0.10225191032E+01  0.66204695796E+01  0.00000000000E+00 0. -1.
</event>
<event>
 8    1  0.1278459E-006  0.9118800E+02  0.7816164E-02  0.1184000E+00
        -11   -1    0    0    0    0  0.00000000000E+00  0.00000000000E+00  0.45593999997E+02  0.45594000000E+02  0.51100000000E-03 0.  1.
         11   -1    0    0    0    0 -0.00000000000E+00 -0.00000000000E+00 -0.45593999997E+02  0.45594000000E+02  0.51100000000E-03 0. -1.
         23    2    1    2    0    0  0.00000000000E+00  0.00000000000E+00  0.35527136788E-14  0.91188000000E+02  0.91188000000E+02 0.  0.
    9900012    2    3    3    0    0  0.27840123790E+02  0.17470510642E+02  0.16597913234E+02  0.54367055437E+02  0.39999934480E+02 0.  0.
         12    1    3    3    0    0 -0.27840123790E+02 -0.17470510642E+02 -0.16597913234E+02  0.36820944563E+02  0.00000000000E+00 0. -1.
         11    1    4    4    0    0 -0.58408580893E+00 -0.37393755017E+01 -0.56312845082E+01  0.67849429510E+01  0.51100000000E-03 0. -1.
        -11    1    4    4    0    0  0.99468191855E+01  0.20571983053E+02  0.78535124266E+01  0.24162436888E+02  0.51100000000E-03 0.  1.
         12    1    4    4    0    0  0.18477390413E+02  0.63790309085E+00  0.14375685316E+02  0.23419675599E+02  0.00000000000E+00 0. -1.
</event>
<event>
 8    1  0.1278459E-006  0.9118800E+02  0.7816164E-02  0.1184000E+00
        -11   -1    0    0    0    0  0.00000000000E+00  0.00000000000E+00  0.45593999997E+02  0.45594000000E+02  0.51100000000E-03 0. -1.
         11   -1    0    0    0    0 -0.00000000000E+00 -0.00000000000E+00 -0.45593999997E+02  0.45594000000E+02  0.51100000000E-03 0.  1.
         23    2    1    2    0    0  0.00000000000E+00 -0.22204460493E-14  0.00000000000E+00  0.91188000000E+02  0.91188000000E+02 0.  0.
    9900012    2    3    3    0    0 -0.28441517011E+02 -0.31168703210E+01  0.23176382824E+02  0.54367088940E+02  0.40000010856E+02 0.  0.
        -12    1    3    3    0    0  0.28441517011E+02  0.31168703210E+01 -0.23176382824E+02  0.36820911060E+02  0.00000000000E+00 0.  1.
         11    1    4    4    0    0  0.12932053957E+01  0.10689053950E+02  0.62636617695E+01  0.12456392478E+02  0.51100000000E-03 0. -1.
        -11    1    4    4    0    0 -0.18126611317E+01 -0.89735069448E+01  0.81302244123E+01  0.12243778686E+02  0.51100000000E-03 0.  1.
         12    1    4    4    0    0 -0.27922061275E+02 -0.48324173257E+01  0.87824966422E+01  0.29666917776E+02  0.00000000000E+00 0. -1.
</event>
<event>
 8    1  0.1278459E-006  0.9118800E+02  0.7816164E-02  0.1184000E+00
        -11   -1    0    0    0    0  0.00000000000E+00  0.00000000000E+00  0.45593999997E+02  0.45594000000E+02  0.51100000000E-03 0.  1.
         11   -1    0    0    0    0 -0.00000000000E+00 -0.00000000000E+00 -0.45593999997E+02  0.45594000000E+02  0.51100000000E-03 0. -1.
         23    2    1    2    0    0  0.00000000000E+00  0.13322676296E-14 -0.35527136788E-14  0.91188000000E+02  0.91188000000E+02 0.  0.
    9900012    2    3    3    0    0  0.21206577538E+02 -0.29349237958E+01  0.29957378819E+02  0.54367119317E+02  0.40000080107E+02 0.  0.
         12    1    3    3    0    0 -0.21206577538E+02  0.29349237958E+01 -0.29957378819E+02  0.36820880683E+02  0.00000000000E+00 0. -1.
         11    1    4    4    0    0  0.11516305068E+02 -0.20185031217E+02  0.21480333786E+02  0.31645939826E+02  0.51100000000E-03 0.  1.
        -11    1    4    4    0    0 -0.72997621054E+00  0.42016673170E+01  0.27192381404E+01  0.50577791406E+01  0.51100000000E-03 0. -1.
        -12    1    4    4    0    0  0.10420248681E+02  0.13048440104E+02  0.57578068922E+01  0.17663400350E+02  0.00000000000E+00 0.  1.
</event>
<event>
 8    1  0.1278459E-006  0.9118800E+02  0.7816164E-02  0.1184000E+00
        -11   -1    0    0    0    0  0.00000000000E+00  0.00000000000E+00  0.45593999997E+02  0.45594000000E+02  0.51100000000E-03 0. -1.
         11   -1    0    0    0    0 -0.00000000000E+00 -0.00000000000E+00 -0.45593999997E+02  0.45594000000E+02  0.51100000000E-03 0.  1.
         23    2    1    2    0    0  0.00000000000E+00  0.71054273576E-14 -0.88817841970E-15  0.91188000000E+02  0.91188000000E+02 0.  0.
    9900012    2    3    3    0    0  0.15067692354E+02  0.33277095453E+02 -0.46236735127E+01  0.54367098444E+02  0.40000032522E+02 0.  0.
         12    1    3    3    0    0 -0.15067692354E+02 -0.33277095453E+02  0.46236735127E+01  0.36820901556E+02  0.00000000000E+00 0. -1.
         11    1    4    4    0    0  0.14116244040E+02  0.73259570310E+01  0.14671530008E+02  0.21637739837E+02  0.51100000000E-03 0. -1.
        -11    1    4    4    0    0  0.23048287320E+01  0.14277578726E+02 -0.85201778602E+01  0.16785556911E+02  0.51100000000E-03 0.  1.
         12    1    4    4    0    0 -0.13533804182E+01  0.11673559696E+02 -0.10775025661E+02  0.15943801696E+02  0.00000000000E+00 0. -1.
</event>
<event>
 8    1  0.1278459E-006  0.9118800E+02  0.7816164E-02  0.1184000E+00
        -11   -1    0    0    0    0  0.00000000000E+00  0.00000000000E+00  0.45593999997E+02  0.45594000000E+02  0.51100000000E-03 0.  1.
         11   -1    0    0    0    0 -0.00000000000E+00 -0.00000000000E+00 -0.45593999997E+02  0.45594000000E+02  0.51100000000E-03 0. -1.
         23    2    1    2    0    0  0.00000000000E+00 -0.35527136788E-14  0.00000000000E+00  0.91188000000E+02  0.91188000000E+02 0.  0.
    9900012    2    3    3    0    0  0.28517087790E+02  0.18559097557E+02  0.14075395672E+02  0.54367066260E+02  0.39999959152E+02 0.  0.
         12    1    3    3    0    0 -0.28517087790E+02 -0.18559097557E+02 -0.14075395672E+02  0.36820933740E+02  0.00000000000E+00 0. -1.
         11    1    4    4    0    0  0.78805328914E+01 -0.70543850009E+01 -0.23266364721E+01  0.10829606822E+02  0.51100000000E-03 0. -1.
        -11    1    4    4    0    0  0.21342076928E+02  0.16813483165E+02  0.27887148973E+01  0.27312165692E+02  0.51100000000E-03 0.  1.
        -12    1    4    4    0    0 -0.70552202911E+00  0.87999993933E+01  0.13613317247E+02  0.16225293746E+02  0.00000000000E+00 0.  1.
</event>
<event>
 8    1  0.1278459E-006  0.9118800E+02  0.7816164E-02  0.1184000E+00
        -11   -1    0    0    0    0  0.00000000000E+00  0.00000000000E+00  0.45593999997E+02  0.45594000000E+02  0.51100000000E-03 0.  1.
         11   -1    0    0    0    0 -0.00000000000E+00 -0.00000000000E+00 -0.45593999997E+02  0.45594000000E+02  0.51100000000E-03 0. -1.
         23    2    1    2    0    0  0.00000000000E+00  0.00000000000E+00  0.00000000000E+00  0.91188000000E+02  0.91188000000E+02 0.  0.
    9900012    2    3    3    0    0 -0.11896255459E+02  0.24602242395E+02 -0.24677697300E+02  0.54367082455E+02  0.39999996073E+02 0.  0.
        -12    1    3    3    0    0  0.11896255459E+02 -0.24602242395E+02  0.24677697300E+02  0.36820917545E+02  0.00000000000E+00 0.  1.
         11    1    4    4    0    0  0.29811573677E+01 -0.39121168784E+01 -0.11640770090E+02  0.12637226209E+02  0.51100000000E-03 0. -1.
        -11    1    4    4    0    0 -0.11464171384E+02  0.27554790512E+02 -0.18575859627E+02  0.35153325117E+02  0.51100000000E-03 0.  1.
        -12    1    4    4    0    0 -0.34132414432E+01  0.95956876192E+00  0.55389324174E+01  0.65765311284E+01  0.00000000000E+00 0.  1.
</event>
<event>
 8    1  0.1278459E-006  0.9118800E+02  0.7816164E-02  0.1184000E+00
        -11   -1    0    0    0    0  0.00000000000E+00  0.00000000000E+00  0.45593999997E+02  0.45594000000E+02  0.51100000000E-03 0.  1.
         11   -1    0    0    0    0 -0.00000000000E+00 -0.00000000000E+00 -0.45593999997E+02  0.45594000000E+02  0.51100000000E-03 0. -1.
         23    2    1    2    0    0  0.35527136788E-14  0.00000000000E+00  0.35527136788E-14  0.91188000000E+02  0.91188000000E+02 0.  0.
    9900012    2    3    3    0    0 -0.18888276343E+02  0.25513863132E+02 -0.18656357405E+02  0.54367029524E+02  0.39999875407E+02 0.  0.
        -12    1    3    3    0    0  0.18888276343E+02 -0.25513863132E+02  0.18656357405E+02  0.36820970476E+02  0.00000000000E+00 0.  1.
         11    1    4    4    0    0 -0.15747190376E+02  0.26798723954E+01 -0.99267265099E+00  0.16004409394E+02  0.51100000000E-03 0. -1.
        -11    1    4    4    0    0  0.93285906697E+01  0.40647711662E+01 -0.78050835040E+00  0.10205594645E+02  0.51100000000E-03 0.  1.
         12    1    4    4    0    0 -0.12469676637E+02  0.18769219571E+02 -0.16883176404E+02  0.28157025486E+02  0.00000000000E+00 0. -1.
</event>
<event>
 8    1  0.1278459E-006  0.9118800E+02  0.7816164E-02  0.1184000E+00
        -11   -1    0    0    0    0  0.00000000000E+00  0.00000000000E+00  0.45593999997E+02  0.45594000000E+02  0.51100000000E-03 0.  1.
         11   -1    0    0    0    0 -0.00000000000E+00 -0.00000000000E+00 -0.45593999997E+02  0.45594000000E+02  0.51100000000E-03 0. -1.
         23    2    1    2    0    0  0.00000000000E+00 -0.17763568394E-14  0.00000000000E+00  0.91188000000E+02  0.91188000000E+02 0.  0.
    9900012    2    3    3    0    0 -0.47231120695E+01  0.14910014272E+02 -0.33334105338E+02  0.54367097079E+02  0.40000029412E+02 0.  0.
        -12    1    3    3    0    0  0.47231120695E+01 -0.14910014272E+02  0.33334105338E+02  0.36820902921E+02  0.00000000000E+00 0.  1.
         11    1    4    4    0    0  0.23160597332E+01  0.16719395426E+02 -0.26550310003E+02  0.31461425232E+02  0.51100000000E-03 0. -1.
        -11    1    4    4    0    0 -0.43210306194E+01 -0.11109714925E+02 -0.19550077944E+01  0.12079698964E+02  0.51100000000E-03 0.  1.
         12    1    4    4    0    0 -0.27181411834E+01  0.93003337710E+01 -0.48287875405E+01  0.10825972883E+02  0.00000000000E+00 0. -1.
</event>
<event>
 8    1  0.1278459E-006  0.9118800E+02  0.7816164E-02  0.1184000E+00
        -11   -1    0    0    0    0  0.00000000000E+00  0.00000000000E+00  0.45593999997E+02  0.45594000000E+02  0.51100000000E-03 0.  1.
         11   -1    0    0    0    0 -0.00000000000E+00 -0.00000000000E+00 -0.45593999997E+02  0.45594000000E+02  0.51100000000E-03 0. -1.
         23    2    1    2    0    0  0.00000000000E+00 -0.17763568394E-14  0.88817841970E-15  0.91188000000E+02  0.91188000000E+02 0.  0.
    9900012    2    3    3    0    0  0.34114057576E+02 -0.12629389190E+02 -0.57018759197E+01  0.54367057798E+02  0.39999939862E+02 0.  0.
        -12    1    3    3    0    0 -0.34114057576E+02  0.12629389190E+02  0.57018759197E+01  0.36820942202E+02  0.00000000000E+00 0.  1.
         11    1    4    4    0    0  0.19790011876E+01  0.24958753641E+01  0.94634694373E+01  0.99851436437E+01  0.51100000000E-03 0. -1.
        -11    1    4    4    0    0  0.44602187599E+01 -0.59316176049E+01 -0.13213131334E+02  0.15154685042E+02  0.51100000000E-03 0.  1.
         12    1    4    4    0    0  0.27674837629E+02 -0.91936469494E+01 -0.19522140226E+01  0.29227229112E+02  0.00000000000E+00 0. -1.
</event>
<event>
 8    1  0.1278459E-006  0.9118800E+02  0.7816164E-02  0.1184000E+00
        -11   -1    0    0    0    0  0.00000000000E+00  0.00000000000E+00  0.45593999997E+02  0.45594000000E+02  0.51100000000E-03 0. -1.
         11   -1    0    0    0    0 -0.00000000000E+00 -0.00000000000E+00 -0.45593999997E+02  0.45594000000E+02  0.51100000000E-03 0.  1.
         23    2    1    2    0    0 -0.35527136788E-14  0.35527136788E-14  0.00000000000E+00  0.91188000000E+02  0.91188000000E+02 0.  0.
    9900012    2    3    3    0    0  0.21512655250E+02  0.19131596991E+02  0.22955775675E+02  0.54367082355E+02  0.39999995846E+02 0.  0.
        -12    1    3    3    0    0 -0.21512655250E+02 -0.19131596991E+02 -0.22955775675E+02  0.36820917645E+02  0.00000000000E+00 0.  1.
         11    1    4    4    0    0  0.89261745788E-01  0.82647542688E+01 -0.80628354651E+01  0.11546577276E+02  0.51100000000E-03 0. -1.
        -11    1    4    4    0    0 -0.29011133064E+01  0.23105918686E+01  0.33256675531E+01  0.49815015944E+01  0.51100000000E-03 0.  1.
         12    1    4    4    0    0  0.24324506811E+02  0.85562508540E+01  0.27692943587E+02  0.37839003485E+02  0.00000000000E+00 0. -1.
</event>
<event>
 8    1  0.1278459E-006  0.9118800E+02  0.7816164E-02  0.1184000E+00
        -11   -1    0    0    0    0  0.00000000000E+00  0.00000000000E+00  0.45593999997E+02  0.45594000000E+02  0.51100000000E-03 0.  1.
         11   -1    0    0    0    0 -0.00000000000E+00 -0.00000000000E+00 -0.45593999997E+02  0.45594000000E+02  0.51100000000E-03 0. -1.
         23    2    1    2    0    0 -0.35527136788E-14  0.00000000000E+00  0.00000000000E+00  0.91188000000E+02  0.91188000000E+02 0.  0.
    9900012    2    3    3    0    0  0.17990945494E+02  0.30713970167E+02 -0.94211542357E+01  0.54367078905E+02  0.39999987979E+02 0.  0.
        -12    1    3    3    0    0 -0.17990945494E+02 -0.30713970167E+02  0.94211542357E+01  0.36820921095E+02  0.00000000000E+00 0.  1.
         11    1    4    4    0    0  0.13330873075E+02  0.88071788857E+01 -0.23190543688E+01  0.16144862659E+02  0.51100000000E-03 0. -1.
        -11    1    4    4    0    0  0.14515090934E+02  0.21137580530E+02  0.66606894919E+00  0.25650123267E+02  0.51100000000E-03 0.  1.
        -12    1    4    4    0    0 -0.98550185148E+01  0.76921075113E+00 -0.77681688161E+01  0.12572092979E+02  0.00000000000E+00 0.  1.
</event>
<event>
 8    1  0.1278459E-006  0.9118800E+02  0.7816164E-02  0.1184000E+00
        -11   -1    0    0    0    0  0.00000000000E+00  0.00000000000E+00  0.45593999997E+02  0.45594000000E+02  0.51100000000E-03 0. -1.
         11   -1    0    0    0    0 -0.00000000000E+00 -0.00000000000E+00 -0.45593999997E+02  0.45594000000E+02  0.51100000000E-03 0.  1.
         23    2    1    2    0    0  0.35527136788E-14  0.00000000000E+00  0.71054273576E-14  0.91188000000E+02  0.91188000000E+02 0.  0.
    9900012    2    3    3    0    0  0.29973582615E+02  0.42790856498E+01  0.20953599433E+02  0.54367088035E+02  0.40000008793E+02 0.  0.
        -12    1    3    3    0    0 -0.29973582615E+02 -0.42790856498E+01 -0.20953599433E+02  0.36820911965E+02  0.00000000000E+00 0.  1.
         11    1    4    4    0    0  0.11765485253E+02  0.39841158129E+01 -0.75425363087E+01  0.14532366506E+02  0.51100000000E-03 0. -1.
        -11    1    4    4    0    0 -0.47225810637E+01  0.57632142714E+00  0.65296804546E+01  0.80790869156E+01  0.51100000000E-03 0.  1.
         12    1    4    4    0    0  0.22930678426E+02 -0.28135159019E+00  0.21966455287E+02  0.31755634613E+02  0.00000000000E+00 0. -1.
</event>
<event>
 8    1  0.1278459E-006  0.9118800E+02  0.7816164E-02  0.1184000E+00
        -11   -1    0    0    0    0  0.00000000000E+00  0.00000000000E+00  0.45593999997E+02  0.45594000000E+02  0.51100000000E-03 0.  1.
         11   -1    0    0    0    0 -0.00000000000E+00 -0.00000000000E+00 -0.45593999997E+02  0.45594000000E+02  0.51100000000E-03 0. -1.
         23    2    1    2    0    0  0.00000000000E+00  0.00000000000E+00  0.00000000000E+00  0.91188000000E+02  0.91188000000E+02 0.  0.
    9900012    2    3    3    0    0  0.24823810053E+02  0.37682179448E+01  0.26932487311E+02  0.54367083597E+02  0.39999998676E+02 0.  0.
         12    1    3    3    0    0 -0.24823810053E+02 -0.37682179448E+01 -0.26932487311E+02  0.36820916403E+02  0.00000000000E+00 0. -1.
         11    1    4    4    0    0  0.30552208631E+02  0.23148113185E+01  0.25096199004E+02  0.39605744639E+02  0.51100000000E-03 0. -1.
        -11    1    4    4    0    0  0.31853220883E+01  0.11038510935E+01  0.43405527159E+01  0.54959223233E+01  0.51100000000E-03 0.  1.
         12    1    4    4    0    0 -0.89137206665E+01  0.34955553279E+00 -0.25042644091E+01  0.92654166351E+01  0.00000000000E+00 0. -1.
</event>
<event>
 8    1  0.1278459E-006  0.9118800E+02  0.7816164E-02  0.1184000E+00
        -11   -1    0    0    0    0  0.00000000000E+00  0.00000000000E+00  0.45593999997E+02  0.45594000000E+02  0.51100000000E-03 0.  1.
         11   -1    0    0    0    0 -0.00000000000E+00 -0.00000000000E+00 -0.45593999997E+02  0.45594000000E+02  0.51100000000E-03 0. -1.
         23    2    1    2    0    0  0.66613381478E-15  0.17763568394E-14 -0.71054273576E-14  0.91188000000E+02  0.91188000000E+02 0.  0.
    9900012    2    3    3    0    0  0.56543387247E+00  0.15290254675E+02  0.33491286639E+02  0.54367110763E+02  0.40000060605E+02 0.  0.
         12    1    3    3    0    0 -0.56543387247E+00 -0.15290254675E+02 -0.33491286639E+02  0.36820889237E+02  0.00000000000E+00 0. -1.
         11    1    4    4    0    0  0.30425317979E+01 -0.20856732069E+01  0.13181074663E+02  0.13687503863E+02  0.51100000000E-03 0.  1.
        -11    1    4    4    0    0  0.42404271397E+01  0.24823569712E+02  0.13711494222E+02  0.28673958736E+02  0.51100000000E-03 0. -1.
         12    1    4    4    0    0 -0.67175250651E+01 -0.74476418296E+01  0.65987177550E+01  0.12005648164E+02  0.00000000000E+00 0. -1.
</event>
<event>
 8    1  0.1278459E-006  0.9118800E+02  0.7816164E-02  0.1184000E+00
        -11   -1    0    0    0    0  0.00000000000E+00  0.00000000000E+00  0.45593999997E+02  0.45594000000E+02  0.51100000000E-03 0.  1.
         11   -1    0    0    0    0 -0.00000000000E+00 -0.00000000000E+00 -0.45593999997E+02  0.45594000000E+02  0.51100000000E-03 0. -1.
         23    2    1    2    0    0  0.17763568394E-14 -0.11102230246E-14  0.00000000000E+00  0.91188000000E+02  0.91188000000E+02 0.  0.
    9900012    2    3    3    0    0 -0.13368654703E+02  0.12591819738E+01 -0.34285180706E+02  0.54367080894E+02  0.39999992514E+02 0.  0.
        -12    1    3    3    0    0  0.13368654703E+02 -0.12591819738E+01  0.34285180706E+02  0.36820919106E+02  0.00000000000E+00 0.  1.
         11    1    4    4    0    0  0.76288359598E+01  0.51106590778E+01 -0.25712182600E+01  0.95356771082E+01  0.51100000000E-03 0. -1.
        -11    1    4    4    0    0 -0.12438811523E+02 -0.18398838009E+01 -0.33568317088E+02  0.35846075335E+02  0.51100000000E-03 0.  1.
        -12    1    4    4    0    0 -0.85586791392E+01 -0.20115933030E+01  0.18543546428E+01  0.89853284506E+01  0.00000000000E+00 0.  1.
</event>
<event>
 8    1  0.1278459E-006  0.9118800E+02  0.7816164E-02  0.1184000E+00
        -11   -1    0    0    0    0  0.00000000000E+00  0.00000000000E+00  0.45593999997E+02  0.45594000000E+02  0.51100000000E-03 0.  1.
         11   -1    0    0    0    0 -0.00000000000E+00 -0.00000000000E+00 -0.45593999997E+02  0.45594000000E+02  0.51100000000E-03 0. -1.
         23    2    1    2    0    0 -0.17763568394E-14  0.00000000000E+00  0.00000000000E+00  0.91188000000E+02  0.91188000000E+02 0.  0.
    9900012    2    3    3    0    0  0.11390202764E+02 -0.44903521139E+01  0.34725778301E+02  0.54367086652E+02  0.40000005642E+02 0.  0.
         12    1    3    3    0    0 -0.11390202764E+02  0.44903521139E+01 -0.34725778301E+02  0.36820913348E+02  0.00000000000E+00 0. -1.
         11    1    4    4    0    0  0.17198474839E+02  0.48919455457E+01  0.52884247326E+01  0.18646342924E+02  0.51100000000E-03 0. -1.
        -11    1    4    4    0    0 -0.99792943975E+01 -0.12626624240E+00  0.12807611745E+02  0.16236907917E+02  0.51100000000E-03 0.  1.
         12    1    4    4    0    0  0.41710223225E+01 -0.92560314172E+01  0.16629741823E+02  0.19483835811E+02  0.00000000000E+00 0. -1.
</event>
<event>
 8    1  0.1278459E-006  0.9118800E+02  0.7816164E-02  0.1184000E+00
        -11   -1    0    0    0    0  0.00000000000E+00  0.00000000000E+00  0.45593999997E+02  0.45594000000E+02  0.51100000000E-03 0. -1.
         11   -1    0    0    0    0 -0.00000000000E+00 -0.00000000000E+00 -0.45593999997E+02  0.45594000000E+02  0.51100000000E-03 0.  1.
         23    2    1    2    0    0 -0.88817841970E-15  0.00000000000E+00  0.88817841970E-15  0.91188000000E+02  0.91188000000E+02 0.  0.
    9900012    2    3    3    0    0  0.53581498627E+01  0.35808608048E+02  0.66943931690E+01  0.54367067364E+02  0.39999961669E+02 0.  0.
         12    1    3    3    0    0 -0.53581498627E+01 -0.35808608048E+02 -0.66943931690E+01  0.36820932636E+02  0.00000000000E+00 0. -1.
         11    1    4    4    0    0  0.80235904388E+01  0.27775893264E+01 -0.36298543722E+01  0.92341133315E+01  0.51100000000E-03 0. -1.
        -11    1    4    4    0    0  0.11387548645E+02  0.16075625387E+02  0.11966165677E+02  0.23049753079E+02  0.51100000000E-03 0.  1.
         12    1    4    4    0    0 -0.14052989221E+02  0.16955393335E+02 -0.16419181356E+01  0.22083200953E+02  0.00000000000E+00 0. -1.
</event>
<event>
 8    1  0.1278459E-006  0.9118800E+02  0.7816164E-02  0.1184000E+00
        -11   -1    0    0    0    0  0.00000000000E+00  0.00000000000E+00  0.45593999997E+02  0.45594000000E+02  0.51100000000E-03 0. -1.
         11   -1    0    0    0    0 -0.00000000000E+00 -0.00000000000E+00 -0.45593999997E+02  0.45594000000E+02  0.51100000000E-03 0.  1.
         23    2    1    2    0    0  0.35527136788E-14  0.00000000000E+00  0.35527136788E-14  0.91188000000E+02  0.91188000000E+02 0.  0.
    9900012    2    3    3    0    0  0.28780907757E+02  0.37794510349E+01 -0.22652957025E+02  0.54367063518E+02  0.39999952901E+02 0.  0.
         12    1    3    3    0    0 -0.28780907757E+02 -0.37794510349E+01  0.22652957025E+02  0.36820936482E+02  0.00000000000E+00 0. -1.
         11    1    4    4    0    0  0.26516828682E+01  0.11542602166E+02  0.12835792128E+01  0.11912626186E+02  0.51100000000E-03 0. -1.
        -11    1    4    4    0    0  0.15272912785E+02  0.20848625929E+01 -0.23102895882E+02  0.27773230193E+02  0.51100000000E-03 0.  1.
         12    1    4    4    0    0  0.10856312104E+02 -0.98480137237E+01 -0.83364035569E+00  0.14681207138E+02  0.00000000000E+00 0. -1.
</event>
<event>
 8    1  0.1278459E-006  0.9118800E+02  0.7816164E-02  0.1184000E+00
        -11   -1    0    0    0    0  0.00000000000E+00  0.00000000000E+00  0.45593999997E+02  0.45594000000E+02  0.51100000000E-03 0. -1.
         11   -1    0    0    0    0 -0.00000000000E+00 -0.00000000000E+00 -0.45593999997E+02  0.45594000000E+02  0.51100000000E-03 0.  1.
         23    2    1    2    0    0  0.00000000000E+00 -0.17763568394E-14  0.00000000000E+00  0.91188000000E+02  0.91188000000E+02 0.  0.
    9900012    2    3    3    0    0 -0.89508076957E+01 -0.98681636001E+01 -0.34326112258E+02  0.54367087545E+02  0.40000007677E+02 0.  0.
         12    1    3    3    0    0  0.89508076957E+01  0.98681636001E+01  0.34326112258E+02  0.36820912455E+02  0.00000000000E+00 0. -1.
         11    1    4    4    0    0 -0.60114568101E+01 -0.71256800911E+01  0.16442157631E+00  0.93241602547E+01  0.51100000000E-03 0. -1.
        -11    1    4    4    0    0  0.10532432654E+02  0.30637157103E+01 -0.25695301101E+02  0.27938629002E+02  0.51100000000E-03 0.  1.
        -12    1    4    4    0    0 -0.13471783539E+02 -0.58061992194E+01 -0.87952327331E+01  0.17104298288E+02  0.00000000000E+00 0.  1.
</event>
<event>
 8    1  0.1278459E-006  0.9118800E+02  0.7816164E-02  0.1184000E+00
        -11   -1    0    0    0    0  0.00000000000E+00  0.00000000000E+00  0.45593999997E+02  0.45594000000E+02  0.51100000000E-03 0.  1.
         11   -1    0    0    0    0 -0.00000000000E+00 -0.00000000000E+00 -0.45593999997E+02  0.45594000000E+02  0.51100000000E-03 0. -1.
         23    2    1    2    0    0  0.00000000000E+00  0.00000000000E+00  0.00000000000E+00  0.91188000000E+02  0.91188000000E+02 0.  0.
    9900012    2    3    3    0    0  0.10764030865E+02  0.88036213433E+01  0.34094142669E+02  0.54367100045E+02  0.40000036172E+02 0.  0.
         12    1    3    3    0    0 -0.10764030865E+02 -0.88036213433E+01 -0.34094142669E+02  0.36820899955E+02  0.00000000000E+00 0. -1.
         11    1    4    4    0    0  0.24621641349E+02  0.74587013801E+01  0.16633735321E+02  0.30635577357E+02  0.51100000000E-03 0. -1.
        -11    1    4    4    0    0 -0.46797970602E+01  0.23685973772E+01  0.11766317006E+02  0.12882428739E+02  0.51100000000E-03 0.  1.
         12    1    4    4    0    0 -0.91778134240E+01 -0.10236774140E+01  0.56940903420E+01  0.10849093949E+02  0.00000000000E+00 0. -1.
</event>
<event>
 8    1  0.1278459E-006  0.9118800E+02  0.7816164E-02  0.1184000E+00
        -11   -1    0    0    0    0  0.00000000000E+00  0.00000000000E+00  0.45593999997E+02  0.45594000000E+02  0.51100000000E-03 0.  1.
         11   -1    0    0    0    0 -0.00000000000E+00 -0.00000000000E+00 -0.45593999997E+02  0.45594000000E+02  0.51100000000E-03 0. -1.
         23    2    1    2    0    0  0.00000000000E+00  0.00000000000E+00  0.00000000000E+00  0.91188000000E+02  0.91188000000E+02 0.  0.
    9900012    2    3    3    0    0 -0.24084038592E+02  0.23854852281E+02  0.14376552897E+02  0.54367079786E+02  0.39999989987E+02 0.  0.
         12    1    3    3    0    0  0.24084038592E+02 -0.23854852281E+02 -0.14376552897E+02  0.36820920214E+02  0.00000000000E+00 0. -1.
         11    1    4    4    0    0 -0.63982502447E+01  0.29826206110E+01 -0.69543153590E+01  0.99093962620E+01  0.51100000000E-03 0. -1.
        -11    1    4    4    0    0 -0.13281809995E+02  0.75875326447E+01 -0.37381597881E+01  0.15746458879E+02  0.51100000000E-03 0.  1.
        -12    1    4    4    0    0 -0.44039783527E+01  0.13284699025E+02  0.25069028044E+02  0.28711224645E+02  0.00000000000E+00 0.  1.
</event>
<event>
 8    1  0.1278459E-006  0.9118800E+02  0.7816164E-02  0.1184000E+00
        -11   -1    0    0    0    0  0.00000000000E+00  0.00000000000E+00  0.45593999997E+02  0.45594000000E+02  0.51100000000E-03 0.  1.
         11   -1    0    0    0    0 -0.00000000000E+00 -0.00000000000E+00 -0.45593999997E+02  0.45594000000E+02  0.51100000000E-03 0. -1.
         23    2    1    2    0    0  0.00000000000E+00  0.14432899320E-14 -0.17763568394E-14  0.91188000000E+02  0.91188000000E+02 0.  0.
    9900012    2    3    3    0    0 -0.33848186701E+02  0.69924028033E+00 -0.14477283815E+02  0.54367076239E+02  0.39999981903E+02 0.  0.
         12    1    3    3    0    0  0.33848186701E+02 -0.69924028033E+00  0.14477283815E+02  0.36820923761E+02  0.00000000000E+00 0. -1.
         11    1    4    4    0    0 -0.12957463262E+02 -0.17967259518E+02 -0.48558386338E+01  0.22678126859E+02  0.51100000000E-03 0. -1.
        -11    1    4    4    0    0  0.41299121544E+00 -0.96513762984E-01 -0.23447787782E+01  0.23828269829E+01  0.51100000000E-03 0.  1.
        -12    1    4    4    0    0 -0.21303714655E+02  0.18763013561E+02 -0.72766664026E+01  0.29306122397E+02  0.00000000000E+00 0.  1.
</event>
<event>
 8    1  0.1278459E-006  0.9118800E+02  0.7816164E-02  0.1184000E+00
        -11   -1    0    0    0    0  0.00000000000E+00  0.00000000000E+00  0.45593999997E+02  0.45594000000E+02  0.51100000000E-03 0. -1.
         11   -1    0    0    0    0 -0.00000000000E+00 -0.00000000000E+00 -0.45593999997E+02  0.45594000000E+02  0.51100000000E-03 0.  1.
         23    2    1    2    0    0  0.88817841970E-15  0.00000000000E+00 -0.35527136788E-14  0.91188000000E+02  0.91188000000E+02 0.  0.
    9900012    2    3    3    0    0 -0.62615727393E+01 -0.19291307407E+02  0.30731394115E+02  0.54367076344E+02  0.39999982142E+02 0.  0.
        -12    1    3    3    0    0  0.62615727393E+01  0.19291307407E+02 -0.30731394115E+02  0.36820923656E+02  0.00000000000E+00 0.  1.
         11    1    4    4    0    0 -0.75769633976E+01 -0.13219681098E+02  0.14400370935E+02  0.20965233746E+02  0.51100000000E-03 0. -1.
        -11    1    4    4    0    0  0.65943907352E+01 -0.16300104789E+02  0.89741062681E+01  0.19741174962E+02  0.51100000000E-03 0.  1.
        -12    1    4    4    0    0 -0.52790000769E+01  0.10228478481E+02  0.73569169116E+01  0.13660667637E+02  0.00000000000E+00 0.  1.
</event>
<event>
 8    1  0.1278459E-006  0.9118800E+02  0.7816164E-02  0.1184000E+00
        -11   -1    0    0    0    0  0.00000000000E+00  0.00000000000E+00  0.45593999997E+02  0.45594000000E+02  0.51100000000E-03 0. -1.
         11   -1    0    0    0    0 -0.00000000000E+00 -0.00000000000E+00 -0.45593999997E+02  0.45594000000E+02  0.51100000000E-03 0.  1.
         23    2    1    2    0    0  0.00000000000E+00 -0.71054273576E-14 -0.35527136788E-14  0.91188000000E+02  0.91188000000E+02 0.  0.
    9900012    2    3    3    0    0 -0.20424534056E+02  0.25925185482E+02  0.16324824008E+02  0.54367126673E+02  0.40000096876E+02 0.  0.
        -12    1    3    3    0    0  0.20424534056E+02 -0.25925185482E+02 -0.16324824008E+02  0.36820873327E+02  0.00000000000E+00 0.  1.
         11    1    4    4    0    0 -0.85683751106E+01  0.11514808615E+02 -0.11169984111E+01  0.14396372988E+02  0.51100000000E-03 0. -1.
        -11    1    4    4    0    0  0.63909579833E+01 -0.56169013005E+01  0.18359805463E+01  0.87042948589E+01  0.51100000000E-03 0.  1.
        -12    1    4    4    0    0 -0.18247116929E+02  0.20027278167E+02  0.15605841873E+02  0.31266458826E+02  0.00000000000E+00 0.  1.
</event>
<event>
 8    1  0.1278459E-006  0.9118800E+02  0.7816164E-02  0.1184000E+00
        -11   -1    0    0    0    0  0.00000000000E+00  0.00000000000E+00  0.45593999997E+02  0.45594000000E+02  0.51100000000E-03 0. -1.
         11   -1    0    0    0    0 -0.00000000000E+00 -0.00000000000E+00 -0.45593999997E+02  0.45594000000E+02  0.51100000000E-03 0.  1.
         23    2    1    2    0    0  0.00000000000E+00 -0.88817841970E-15  0.00000000000E+00  0.91188000000E+02  0.91188000000E+02 0.  0.
    9900012    2    3    3    0    0  0.68358966291E+01 -0.65692694598E+01  0.35579419575E+02  0.54367083644E+02  0.39999998784E+02 0.  0.
        -12    1    3    3    0    0 -0.68358966291E+01  0.65692694598E+01 -0.35579419575E+02  0.36820916356E+02  0.00000000000E+00 0.  1.
         11    1    4    4    0    0  0.12632030349E+02 -0.29573957655E+01  0.31455840286E+02  0.34026229130E+02  0.51100000000E-03 0. -1.
        -11    1    4    4    0    0  0.61480502614E+01 -0.41511855219E+01 -0.69344915651E+00  0.74506197895E+01  0.51100000000E-03 0.  1.
        -12    1    4    4    0    0 -0.11944183981E+02  0.53931182754E+00  0.48170284454E+01  0.12890234725E+02  0.00000000000E+00 0.  1.
</event>
<event>
 8    1  0.1278459E-006  0.9118800E+02  0.7816164E-02  0.1184000E+00
        -11   -1    0    0    0    0  0.00000000000E+00  0.00000000000E+00  0.45593999997E+02  0.45594000000E+02  0.51100000000E-03 0.  1.
         11   -1    0    0    0    0 -0.00000000000E+00 -0.00000000000E+00 -0.45593999997E+02  0.45594000000E+02  0.51100000000E-03 0. -1.
         23    2    1    2    0    0  0.00000000000E+00  0.00000000000E+00  0.00000000000E+00  0.91188000000E+02  0.91188000000E+02 0.  0.
    9900012    2    3    3    0    0  0.16577457780E+02 -0.17073392027E+02  0.28097641530E+02  0.54366942420E+02  0.39999676833E+02 0.  0.
         12    1    3    3    0    0 -0.16577457780E+02  0.17073392027E+02 -0.28097641530E+02  0.36821057580E+02  0.00000000000E+00 0. -1.
         11    1    4    4    0    0  0.41868069444E+01  0.85829976002E+01  0.14540710711E+02  0.17396248689E+02  0.51100000000E-03 0. -1.
        -11    1    4    4    0    0  0.10202662702E+02 -0.24036202881E+02  0.18031622938E+02  0.31732834749E+02  0.51100000000E-03 0.  1.
        -12    1    4    4    0    0  0.21879881337E+01 -0.16201867462E+01 -0.44746921186E+01  0.52378589827E+01  0.00000000000E+00 0.  1.
</event>
<event>
 8    1  0.1278459E-006  0.9118800E+02  0.7816164E-02  0.1184000E+00
        -11   -1    0    0    0    0  0.00000000000E+00  0.00000000000E+00  0.45593999997E+02  0.45594000000E+02  0.51100000000E-03 0.  1.
         11   -1    0    0    0    0 -0.00000000000E+00 -0.00000000000E+00 -0.45593999997E+02  0.45594000000E+02  0.51100000000E-03 0. -1.
         23    2    1    2    0    0  0.15543122345E-14  0.35527136788E-14 -0.35527136788E-14  0.91188000000E+02  0.91188000000E+02 0.  0.
    9900012    2    3    3    0    0 -0.12364345090E+01  0.22045886270E+02  0.29465717987E+02  0.54367103648E+02  0.40000044386E+02 0.  0.
         12    1    3    3    0    0  0.12364345090E+01 -0.22045886270E+02 -0.29465717987E+02  0.36820896352E+02  0.00000000000E+00 0. -1.
         11    1    4    4    0    0 -0.55819078695E+01  0.97143925160E+01  0.10020681178E+02  0.15031339559E+02  0.51100000000E-03 0. -1.
        -11    1    4    4    0    0 -0.61190387532E+01 -0.74131570212E+01  0.12829023093E+02  0.16030638355E+02  0.51100000000E-03 0.  1.
         12    1    4    4    0    0  0.10464512114E+02  0.19744650775E+02  0.66160137163E+01  0.23305125734E+02  0.00000000000E+00 0. -1.
</event>
<event>
 8    1  0.1278459E-006  0.9118800E+02  0.7816164E-02  0.1184000E+00
        -11   -1    0    0    0    0  0.00000000000E+00  0.00000000000E+00  0.45593999997E+02  0.45594000000E+02  0.51100000000E-03 0. -1.
         11   -1    0    0    0    0 -0.00000000000E+00 -0.00000000000E+00 -0.45593999997E+02  0.45594000000E+02  0.51100000000E-03 0.  1.
         23    2    1    2    0    0  0.00000000000E+00 -0.35527136788E-14  0.00000000000E+00  0.91188000000E+02  0.91188000000E+02 0.  0.
    9900012    2    3    3    0    0 -0.23434829233E+02  0.27035420463E+02 -0.86991327598E+01  0.54367080788E+02  0.39999992273E+02 0.  0.
         12    1    3    3    0    0  0.23434829233E+02 -0.27035420463E+02  0.86991327598E+01  0.36820919212E+02  0.00000000000E+00 0. -1.
         11    1    4    4    0    0  0.22454116881E+01  0.12594078272E+01 -0.40065799315E+01  0.47624221498E+01  0.51100000000E-03 0. -1.
        -11    1    4    4    0    0 -0.30381141101E+02  0.88662205450E+01 -0.50564864985E+01  0.32049830847E+02  0.51100000000E-03 0.  1.
        -12    1    4    4    0    0  0.47009001799E+01  0.16909792091E+02  0.36393367021E+00  0.17554827791E+02  0.00000000000E+00 0.  1.
</event>
<event>
 8    1  0.1278459E-006  0.9118800E+02  0.7816164E-02  0.1184000E+00
        -11   -1    0    0    0    0  0.00000000000E+00  0.00000000000E+00  0.45593999997E+02  0.45594000000E+02  0.51100000000E-03 0.  1.
         11   -1    0    0    0    0 -0.00000000000E+00 -0.00000000000E+00 -0.45593999997E+02  0.45594000000E+02  0.51100000000E-03 0. -1.
         23    2    1    2    0    0 -0.35527136788E-14  0.00000000000E+00 -0.88817841970E-15  0.91188000000E+02  0.91188000000E+02 0.  0.
    9900012    2    3    3    0    0  0.23048407111E+02 -0.28318609485E+02  0.47547405208E+01  0.54367078353E+02  0.39999986722E+02 0.  0.
         12    1    3    3    0    0 -0.23048407111E+02  0.28318609485E+02 -0.47547405208E+01  0.36820921647E+02  0.00000000000E+00 0. -1.
         11    1    4    4    0    0  0.26990332603E+01 -0.11389245485E+02  0.12178951323E+02  0.16891611789E+02  0.51100000000E-03 0. -1.
        -11    1    4    4    0    0 -0.15750533635E+01 -0.73782793955E+01  0.63645350555E+01  0.98705170417E+01  0.51100000000E-03 0.  1.
         12    1    4    4    0    0  0.21924427214E+02 -0.95510846045E+01 -0.13788745858E+02  0.27604949522E+02  0.00000000000E+00 0. -1.
</event>
<event>
 8    1  0.1278459E-006  0.9118800E+02  0.7816164E-02  0.1184000E+00
        -11   -1    0    0    0    0  0.00000000000E+00  0.00000000000E+00  0.45593999997E+02  0.45594000000E+02  0.51100000000E-03 0.  1.
         11   -1    0    0    0    0 -0.00000000000E+00 -0.00000000000E+00 -0.45593999997E+02  0.45594000000E+02  0.51100000000E-03 0. -1.
         23    2    1    2    0    0  0.00000000000E+00  0.35527136788E-14 -0.44408920985E-15  0.91188000000E+02  0.91188000000E+02 0.  0.
    9900012    2    3    3    0    0  0.33091880976E+02 -0.16030761063E+02  0.19299467999E+01  0.54367046978E+02  0.39999915195E+02 0.  0.
         12    1    3    3    0    0 -0.33091880976E+02  0.16030761063E+02 -0.19299467999E+01  0.36820953022E+02  0.00000000000E+00 0. -1.
         11    1    4    4    0    0 -0.44412125140E+01  0.68895616762E+00  0.76762352567E-01  0.44949885334E+01  0.51100000000E-03 0. -1.
        -11    1    4    4    0    0  0.23011624504E+02 -0.21477646263E+02  0.93698761285E+01  0.32842331376E+02  0.51100000000E-03 0.  1.
        -12    1    4    4    0    0  0.14521468986E+02  0.47579290321E+01 -0.75166916812E+01  0.17029727068E+02  0.00000000000E+00 0.  1.
</event>
<event>
 8    1  0.1278459E-006  0.9118800E+02  0.7816164E-02  0.1184000E+00
        -11   -1    0    0    0    0  0.00000000000E+00  0.00000000000E+00  0.45593999997E+02  0.45594000000E+02  0.51100000000E-03 0.  1.
         11   -1    0    0    0    0 -0.00000000000E+00 -0.00000000000E+00 -0.45593999997E+02  0.45594000000E+02  0.51100000000E-03 0. -1.
         23    2    1    2    0    0  0.00000000000E+00  0.17763568394E-14  0.00000000000E+00  0.91188000000E+02  0.91188000000E+02 0.  0.
    9900012    2    3    3    0    0  0.74232502703E+01 -0.23258316180E+01  0.35989806899E+02  0.54367077444E+02  0.39999984649E+02 0.  0.
         12    1    3    3    0    0 -0.74232502703E+01  0.23258316180E+01 -0.35989806899E+02  0.36820922556E+02  0.00000000000E+00 0. -1.
         11    1    4    4    0    0  0.46313918417E+01  0.21178430343E+01 -0.28894154773E+01  0.58552345445E+01  0.51100000000E-03 0. -1.
        -11    1    4    4    0    0  0.62431814703E+01 -0.15881879593E+02  0.22633676378E+02  0.28345982448E+02  0.51100000000E-03 0.  1.
        -12    1    4    4    0    0 -0.34513230417E+01  0.11438204940E+02  0.16245545998E+02  0.20165860452E+02  0.00000000000E+00 0.  1.
</event>
<event>
 8    1  0.1278459E-006  0.9118800E+02  0.7816164E-02  0.1184000E+00
        -11   -1    0    0    0    0  0.00000000000E+00  0.00000000000E+00  0.45593999997E+02  0.45594000000E+02  0.51100000000E-03 0.  1.
         11   -1    0    0    0    0 -0.00000000000E+00 -0.00000000000E+00 -0.45593999997E+02  0.45594000000E+02  0.51100000000E-03 0. -1.
         23    2    1    2    0    0 -0.88817841970E-15  0.00000000000E+00  0.66613381478E-15  0.91188000000E+02  0.91188000000E+02 0.  0.
    9900012    2    3    3    0    0  0.20325304783E+01  0.36747538395E+02 -0.11254924121E+01  0.54367088938E+02  0.40000010852E+02 0.  0.
        -12    1    3    3    0    0 -0.20325304783E+01 -0.36747538395E+02  0.11254924121E+01  0.36820911062E+02  0.00000000000E+00 0.  1.
         11    1    4    4    0    0  0.10030756482E+02  0.23107685865E+02  0.47148684411E+01  0.25628328200E+02  0.51100000000E-03 0. -1.
        -11    1    4    4    0    0  0.46076940166E+01  0.13096625172E+02  0.17821170293E+01  0.13997441781E+02  0.51100000000E-03 0.  1.
        -12    1    4    4    0    0 -0.12605920020E+02  0.54322735789E+00 -0.76224778825E+01  0.14741318957E+02  0.00000000000E+00 0.  1.
</event>
<event>
 8    1  0.1278459E-006  0.9118800E+02  0.7816164E-02  0.1184000E+00
        -11   -1    0    0    0    0  0.00000000000E+00  0.00000000000E+00  0.45593999997E+02  0.45594000000E+02  0.51100000000E-03 0. -1.
         11   -1    0    0    0    0 -0.00000000000E+00 -0.00000000000E+00 -0.45593999997E+02  0.45594000000E+02  0.51100000000E-03 0.  1.
         23    2    1    2    0    0 -0.13877787808E-14 -0.44408920985E-14  0.00000000000E+00  0.91188000000E+02  0.91188000000E+02 0.  0.
    9900012    2    3    3    0    0 -0.39082334313E+00 -0.68002405098E+01 -0.36185409751E+02  0.54367083489E+02  0.39999998430E+02 0.  0.
         12    1    3    3    0    0  0.39082334313E+00  0.68002405098E+01  0.36185409751E+02  0.36820916511E+02  0.00000000000E+00 0. -1.
         11    1    4    4    0    0  0.61885059845E+01  0.12347117414E+02 -0.25728321162E+02  0.29200949040E+02  0.51100000000E-03 0. -1.
        -11    1    4    4    0    0  0.25203165323E+01 -0.28923528088E+01 -0.37557626868E+01  0.53687478814E+01  0.51100000000E-03 0.  1.
         12    1    4    4    0    0 -0.90996458599E+01 -0.16255005115E+02 -0.67013259022E+01  0.19797386568E+02  0.00000000000E+00 0. -1.
</event>
<event>
 8    1  0.1278459E-006  0.9118800E+02  0.7816164E-02  0.1184000E+00
        -11   -1    0    0    0    0  0.00000000000E+00  0.00000000000E+00  0.45593999997E+02  0.45594000000E+02  0.51100000000E-03 0. -1.
         11   -1    0    0    0    0 -0.00000000000E+00 -0.00000000000E+00 -0.45593999997E+02  0.45594000000E+02  0.51100000000E-03 0.  1.
         23    2    1    2    0    0  0.35527136788E-14  0.00000000000E+00  0.17763568394E-14  0.91188000000E+02  0.91188000000E+02 0.  0.
    9900012    2    3    3    0    0  0.17436707536E+02  0.32029877444E+02  0.50821364095E+01  0.54367082993E+02  0.39999997299E+02 0.  0.
         12    1    3    3    0    0 -0.17436707536E+02 -0.32029877444E+02 -0.50821364095E+01  0.36820917007E+02  0.00000000000E+00 0. -1.
         11    1    4    4    0    0  0.23656022010E+02  0.10983367226E+02 -0.60966105204E+01  0.26784517787E+02  0.51100000000E-03 0.  1.
        -11    1    4    4    0    0 -0.46778733525E+01  0.20759796905E+02  0.13186854677E+02  0.25034871743E+02  0.51100000000E-03 0. -1.
         12    1    4    4    0    0 -0.15414411220E+01  0.28671331276E+00 -0.20081077473E+01  0.25476934629E+01  0.00000000000E+00 0. -1.
</event>
<event>
 8    1  0.1278459E-006  0.9118800E+02  0.7816164E-02  0.1184000E+00
        -11   -1    0    0    0    0  0.00000000000E+00  0.00000000000E+00  0.45593999997E+02  0.45594000000E+02  0.51100000000E-03 0.  1.
         11   -1    0    0    0    0 -0.00000000000E+00 -0.00000000000E+00 -0.45593999997E+02  0.45594000000E+02  0.51100000000E-03 0. -1.
         23    2    1    2    0    0  0.35527136788E-14  0.00000000000E+00 -0.35527136788E-14  0.91188000000E+02  0.91188000000E+02 0.  0.
    9900012    2    3    3    0    0  0.23987800311E+02 -0.98967407396E+01 -0.26123161823E+02  0.54367087129E+02  0.40000006727E+02 0.  0.
        -12    1    3    3    0    0 -0.23987800311E+02  0.98967407396E+01  0.26123161823E+02  0.36820912871E+02  0.00000000000E+00 0.  1.
         11    1    4    4    0    0  0.51281038240E+01 -0.20495034178E+01 -0.14323574811E+02  0.15351309674E+02  0.51100000000E-03 0. -1.
        -11    1    4    4    0    0  0.93113273524E+01 -0.17635419364E+02 -0.15021746667E+02  0.24967212628E+02  0.51100000000E-03 0.  1.
        -12    1    4    4    0    0  0.95483691349E+01  0.97881820424E+01  0.32221596552E+01  0.14048564826E+02  0.00000000000E+00 0.  1.
</event>
<event>
 8    1  0.1278459E-006  0.9118800E+02  0.7816164E-02  0.1184000E+00
        -11   -1    0    0    0    0  0.00000000000E+00  0.00000000000E+00  0.45593999997E+02  0.45594000000E+02  0.51100000000E-03 0.  1.
         11   -1    0    0    0    0 -0.00000000000E+00 -0.00000000000E+00 -0.45593999997E+02  0.45594000000E+02  0.51100000000E-03 0. -1.
         23    2    1    2    0    0  0.00000000000E+00 -0.17763568394E-14 -0.44408920985E-15  0.91188000000E+02  0.91188000000E+02 0.  0.
    9900012    2    3    3    0    0  0.35732738829E+02  0.85527084830E+01  0.24088647150E+01  0.54367081002E+02  0.39999992761E+02 0.  0.
        -12    1    3    3    0    0 -0.35732738829E+02 -0.85527084830E+01 -0.24088647150E+01  0.36820918998E+02  0.00000000000E+00 0.  1.
         11    1    4    4    0    0  0.29625523615E+01  0.58498268413E+01 -0.62150791633E+01  0.90346222851E+01  0.51100000000E-03 0. -1.
        -11    1    4    4    0    0  0.37249491926E+02  0.74093516570E+01  0.67916175458E+01  0.38581721188E+02  0.51100000000E-03 0.  1.
        -12    1    4    4    0    0 -0.44793054583E+01 -0.47064700153E+01  0.18323263324E+01  0.67507375287E+01  0.00000000000E+00 0.  1.
</event>
<event>
 8    1  0.1278459E-006  0.9118800E+02  0.7816164E-02  0.1184000E+00
        -11   -1    0    0    0    0  0.00000000000E+00  0.00000000000E+00  0.45593999997E+02  0.45594000000E+02  0.51100000000E-03 0. -1.
         11   -1    0    0    0    0 -0.00000000000E+00 -0.00000000000E+00 -0.45593999997E+02  0.45594000000E+02  0.51100000000E-03 0.  1.
         23    2    1    2    0    0  0.00000000000E+00  0.00000000000E+00  0.00000000000E+00  0.91188000000E+02  0.91188000000E+02 0.  0.
    9900012    2    3    3    0    0  0.13811346966E+02  0.22993612555E+02  0.25225396840E+02  0.54367079736E+02  0.39999989875E+02 0.  0.
        -12    1    3    3    0    0 -0.13811346966E+02 -0.22993612555E+02 -0.25225396840E+02  0.36820920264E+02  0.00000000000E+00 0.  1.
         11    1    4    4    0    0  0.11255851573E+01  0.58889546787E+01  0.19756455098E+01  0.63126780843E+01  0.51100000000E-03 0. -1.
        -11    1    4    4    0    0  0.89069861892E+01  0.28213023231E+02  0.12419516642E+02  0.32086655742E+02  0.51100000000E-03 0.  1.
        -12    1    4    4    0    0  0.37787756191E+01 -0.11108365355E+02  0.10830234688E+02  0.15967745910E+02  0.00000000000E+00 0.  1.
</event>
<event>
 8    1  0.1278459E-006  0.9118800E+02  0.7816164E-02  0.1184000E+00
        -11   -1    0    0    0    0  0.00000000000E+00  0.00000000000E+00  0.45593999997E+02  0.45594000000E+02  0.51100000000E-03 0. -1.
         11   -1    0    0    0    0 -0.00000000000E+00 -0.00000000000E+00 -0.45593999997E+02  0.45594000000E+02  0.51100000000E-03 0.  1.
         23    2    1    2    0    0  0.17763568394E-14 -0.71054273576E-14 -0.35527136788E-14  0.91188000000E+02  0.91188000000E+02 0.  0.
    9900012    2    3    3    0    0  0.84156165739E+01 -0.20377960295E+02 -0.29490620334E+02  0.54367074485E+02  0.39999977904E+02 0.  0.
         12    1    3    3    0    0 -0.84156165739E+01  0.20377960295E+02  0.29490620334E+02  0.36820925515E+02  0.00000000000E+00 0. -1.
         11    1    4    4    0    0 -0.34081854400E+01 -0.25343845353E+01  0.48797443658E+01  0.64692146589E+01  0.51100000000E-03 0. -1.
        -11    1    4    4    0    0  0.46287548270E+01  0.57496194497E+01 -0.29419484077E+01  0.79459773319E+01  0.51100000000E-03 0.  1.
         12    1    4    4    0    0  0.71950471869E+01 -0.23593195210E+02 -0.31428416292E+02  0.39951882494E+02  0.00000000000E+00 0. -1.
</event>
<event>
 8    1  0.1278459E-006  0.9118800E+02  0.7816164E-02  0.1184000E+00
        -11   -1    0    0    0    0  0.00000000000E+00  0.00000000000E+00  0.45593999997E+02  0.45594000000E+02  0.51100000000E-03 0.  1.
         11   -1    0    0    0    0 -0.00000000000E+00 -0.00000000000E+00 -0.45593999997E+02  0.45594000000E+02  0.51100000000E-03 0. -1.
         23    2    1    2    0    0  0.35527136788E-14  0.00000000000E+00  0.71054273576E-14  0.91188000000E+02  0.91188000000E+02 0.  0.
    9900012    2    3    3    0    0  0.22979506746E+02  0.15450472554E+02  0.24269414686E+02  0.54367091244E+02  0.40000016109E+02 0.  0.
         12    1    3    3    0    0 -0.22979506746E+02 -0.15450472554E+02 -0.24269414686E+02  0.36820908756E+02  0.00000000000E+00 0. -1.
         11    1    4    4    0    0 -0.20689044809E+01 -0.23971731237E+01 -0.70121379446E+01  0.76939511014E+01  0.51100000000E-03 0. -1.
        -11    1    4    4    0    0  0.40615327951E+01 -0.13188608735E+01  0.10877169893E+02  0.11685386934E+02  0.51100000000E-03 0.  1.
         12    1    4    4    0    0  0.20986878432E+02  0.19166506551E+02  0.20404382738E+02  0.34987753208E+02  0.00000000000E+00 0. -1.
</event>
<event>
 8    1  0.1278459E-006  0.9118800E+02  0.7816164E-02  0.1184000E+00
        -11   -1    0    0    0    0  0.00000000000E+00  0.00000000000E+00  0.45593999997E+02  0.45594000000E+02  0.51100000000E-03 0. -1.
         11   -1    0    0    0    0 -0.00000000000E+00 -0.00000000000E+00 -0.45593999997E+02  0.45594000000E+02  0.51100000000E-03 0.  1.
         23    2    1    2    0    0  0.00000000000E+00 -0.44408920985E-15 -0.35527136788E-14  0.91188000000E+02  0.91188000000E+02 0.  0.
    9900012    2    3    3    0    0  0.25760069811E+02 -0.83807305069E+00  0.26296296845E+02  0.54367098451E+02  0.40000032540E+02 0.  0.
        -12    1    3    3    0    0 -0.25760069811E+02  0.83807305069E+00 -0.26296296845E+02  0.36820901549E+02  0.00000000000E+00 0.  1.
         11    1    4    4    0    0 -0.16251983616E+01  0.44099341879E+01  0.93680060582E+01  0.10480855262E+02  0.51100000000E-03 0. -1.
        -11    1    4    4    0    0  0.23019151745E+02 -0.16457119406E+02  0.13655277684E+02  0.31419496099E+02  0.51100000000E-03 0.  1.
        -12    1    4    4    0    0  0.43661164280E+01  0.11209112168E+02  0.32730131023E+01  0.12466747091E+02  0.00000000000E+00 0.  1.
</event>
<event>
 8    1  0.1278459E-006  0.9118800E+02  0.7816164E-02  0.1184000E+00
        -11   -1    0    0    0    0  0.00000000000E+00  0.00000000000E+00  0.45593999997E+02  0.45594000000E+02  0.51100000000E-03 0. -1.
         11   -1    0    0    0    0 -0.00000000000E+00 -0.00000000000E+00 -0.45593999997E+02  0.45594000000E+02  0.51100000000E-03 0.  1.
         23    2    1    2    0    0  0.17763568394E-14  0.00000000000E+00  0.00000000000E+00  0.91188000000E+02  0.91188000000E+02 0.  0.
    9900012    2    3    3    0    0 -0.13794056782E+02  0.30736894987E+02 -0.14857569739E+02  0.54367080749E+02  0.39999992183E+02 0.  0.
         12    1    3    3    0    0  0.13794056782E+02 -0.30736894987E+02  0.14857569739E+02  0.36820919251E+02  0.00000000000E+00 0. -1.
         11    1    4    4    0    0  0.82937570137E+01  0.12890360384E+02  0.47847161076E+01  0.16057437676E+02  0.51100000000E-03 0. -1.
        -11    1    4    4    0    0 -0.87466739656E+01  0.33052617640E+01 -0.15566747278E+02  0.18159093641E+02  0.51100000000E-03 0.  1.
        -12    1    4    4    0    0 -0.13341139830E+02  0.14541272839E+02 -0.40755385679E+01  0.20150549431E+02  0.00000000000E+00 0.  1.
</event>
<event>
 8    1  0.1278459E-006  0.9118800E+02  0.7816164E-02  0.1184000E+00
        -11   -1    0    0    0    0  0.00000000000E+00  0.00000000000E+00  0.45593999997E+02  0.45594000000E+02  0.51100000000E-03 0.  1.
         11   -1    0    0    0    0 -0.00000000000E+00 -0.00000000000E+00 -0.45593999997E+02  0.45594000000E+02  0.51100000000E-03 0. -1.
         23    2    1    2    0    0  0.00000000000E+00  0.00000000000E+00 -0.17763568394E-14  0.91188000000E+02  0.91188000000E+02 0.  0.
    9900012    2    3    3    0    0  0.30446264176E+02  0.13783500403E+02  0.15453574913E+02  0.54367178944E+02  0.40000216039E+02 0.  0.
         12    1    3    3    0    0 -0.30446264176E+02 -0.13783500403E+02 -0.15453574913E+02  0.36820821056E+02  0.00000000000E+00 0. -1.
         11    1    4    4    0    0  0.13013404137E+01  0.11242979740E+02 -0.67197723931E+01  0.13162576556E+02  0.51100000000E-03 0. -1.
        -11    1    4    4    0    0  0.22946046109E+02  0.93598207368E+01  0.12188165204E+02  0.27616637152E+02  0.51100000000E-03 0.  1.
        -12    1    4    4    0    0  0.61988776524E+01 -0.68193000743E+01  0.99851821024E+01  0.13587965237E+02  0.00000000000E+00 0.  1.
</event>
<event>
 8    1  0.1278459E-006  0.9118800E+02  0.7816164E-02  0.1184000E+00
        -11   -1    0    0    0    0  0.00000000000E+00  0.00000000000E+00  0.45593999997E+02  0.45594000000E+02  0.51100000000E-03 0.  1.
         11   -1    0    0    0    0 -0.00000000000E+00 -0.00000000000E+00 -0.45593999997E+02  0.45594000000E+02  0.51100000000E-03 0. -1.
         23    2    1    2    0    0  0.17763568394E-14  0.00000000000E+00  0.00000000000E+00  0.91188000000E+02  0.91188000000E+02 0.  0.
    9900012    2    3    3    0    0 -0.88217974557E+01  0.16799142084E+02  0.31555420495E+02  0.54367084100E+02  0.39999999823E+02 0.  0.
         12    1    3    3    0    0  0.88217974557E+01 -0.16799142084E+02 -0.31555420495E+02  0.36820915900E+02  0.00000000000E+00 0. -1.
         11    1    4    4    0    0 -0.10030591101E+02  0.23810087467E+01  0.34801671905E+01  0.10880878845E+02  0.51100000000E-03 0. -1.
        -11    1    4    4    0    0  0.15461614960E+01 -0.41436663151E+01  0.24097471886E+02  0.24499974234E+02  0.51100000000E-03 0.  1.
         12    1    4    4    0    0 -0.33736785028E+00  0.18561799652E+02  0.39777814181E+01  0.18986231022E+02  0.00000000000E+00 0. -1.
</event>
<event>
 8    1  0.1278459E-006  0.9118800E+02  0.7816164E-02  0.1184000E+00
        -11   -1    0    0    0    0  0.00000000000E+00  0.00000000000E+00  0.45593999997E+02  0.45594000000E+02  0.51100000000E-03 0. -1.
         11   -1    0    0    0    0 -0.00000000000E+00 -0.00000000000E+00 -0.45593999997E+02  0.45594000000E+02  0.51100000000E-03 0.  1.
         23    2    1    2    0    0 -0.17763568394E-14  0.00000000000E+00  0.00000000000E+00  0.91188000000E+02  0.91188000000E+02 0.  0.
    9900012    2    3    3    0    0 -0.13648752578E+02  0.30601647327E+02 -0.15265232575E+02  0.54367128315E+02  0.40000100621E+02 0.  0.
         12    1    3    3    0    0  0.13648752578E+02 -0.30601647327E+02  0.15265232575E+02  0.36820871685E+02  0.00000000000E+00 0. -1.
         11    1    4    4    0    0 -0.23754351134E+01  0.16231648551E+02  0.78362448947E+00  0.16423251026E+02  0.51100000000E-03 0. -1.
        -11    1    4    4    0    0 -0.18264161604E+02  0.15077208793E+02 -0.18960344495E+02  0.30338036978E+02  0.51100000000E-03 0.  1.
        -12    1    4    4    0    0  0.69908441395E+01 -0.70721001692E+00  0.29114874299E+01  0.76058403116E+01  0.00000000000E+00 0.  1.
</event>
<event>
 8    1  0.1278459E-006  0.9118800E+02  0.7816164E-02  0.1184000E+00
        -11   -1    0    0    0    0  0.00000000000E+00  0.00000000000E+00  0.45593999997E+02  0.45594000000E+02  0.51100000000E-03 0.  1.
         11   -1    0    0    0    0 -0.00000000000E+00 -0.00000000000E+00 -0.45593999997E+02  0.45594000000E+02  0.51100000000E-03 0. -1.
         23    2    1    2    0    0  0.00000000000E+00  0.35527136788E-14  0.00000000000E+00  0.91188000000E+02  0.91188000000E+02 0.  0.
    9900012    2    3    3    0    0  0.16136429339E+02 -0.24474632224E+02 -0.22279764511E+02  0.54367083648E+02  0.39999998792E+02 0.  0.
        -12    1    3    3    0    0 -0.16136429339E+02  0.24474632224E+02  0.22279764511E+02  0.36820916352E+02  0.00000000000E+00 0.  1.
         11    1    4    4    0    0  0.60193293142E+01 -0.21419235605E+02 -0.45190161874E+01  0.22703248377E+02  0.51100000000E-03 0. -1.
        -11    1    4    4    0    0 -0.13075163468E+01 -0.65994982419E+00  0.54713648919E+01  0.56640062508E+01  0.51100000000E-03 0.  1.
         12    1    4    4    0    0  0.11424616372E+02 -0.23954467944E+01 -0.23232113216E+02  0.25999829020E+02  0.00000000000E+00 0. -1.
</event>
<event>
 8    1  0.1278459E-006  0.9118800E+02  0.7816164E-02  0.1184000E+00
        -11   -1    0    0    0    0  0.00000000000E+00  0.00000000000E+00  0.45593999997E+02  0.45594000000E+02  0.51100000000E-03 0. -1.
         11   -1    0    0    0    0 -0.00000000000E+00 -0.00000000000E+00 -0.45593999997E+02  0.45594000000E+02  0.51100000000E-03 0.  1.
         23    2    1    2    0    0  0.00000000000E+00  0.00000000000E+00 -0.35527136788E-14  0.91188000000E+02  0.91188000000E+02 0.  0.
    9900012    2    3    3    0    0  0.22220192502E+02  0.14059115681E+02  0.25775642921E+02  0.54367089412E+02  0.40000011933E+02 0.  0.
        -12    1    3    3    0    0 -0.22220192502E+02 -0.14059115681E+02 -0.25775642921E+02  0.36820910588E+02  0.00000000000E+00 0.  1.
         11    1    4    4    0    0  0.69386768547E+01  0.18317701445E+02  0.26023159876E+02  0.32571279878E+02  0.51100000000E-03 0.  1.
        -11    1    4    4    0    0  0.10269005120E+02 -0.88140041604E+01  0.36033296078E+01  0.14004396453E+02  0.51100000000E-03 0. -1.
        -12    1    4    4    0    0  0.50125105273E+01  0.45554183959E+01 -0.38508465627E+01  0.77914130809E+01  0.00000000000E+00 0.  1.
</event>
<event>
 8    1  0.1278459E-006  0.9118800E+02  0.7816164E-02  0.1184000E+00
        -11   -1    0    0    0    0  0.00000000000E+00  0.00000000000E+00  0.45593999997E+02  0.45594000000E+02  0.51100000000E-03 0. -1.
         11   -1    0    0    0    0 -0.00000000000E+00 -0.00000000000E+00 -0.45593999997E+02  0.45594000000E+02  0.51100000000E-03 0.  1.
         23    2    1    2    0    0 -0.26645352591E-14 -0.71054273576E-14  0.35527136788E-14  0.91188000000E+02  0.91188000000E+02 0.  0.
    9900012    2    3    3    0    0 -0.65884002624E+01  0.31550912331E+02 -0.17802058774E+02  0.54367076824E+02  0.39999983236E+02 0.  0.
         12    1    3    3    0    0  0.65884002624E+01 -0.31550912331E+02  0.17802058774E+02  0.36820923176E+02  0.00000000000E+00 0. -1.
         11    1    4    4    0    0 -0.14584446116E+02  0.78610036841E+01 -0.67591491453E+01  0.17893785090E+02  0.51100000000E-03 0.  1.
        -11    1    4    4    0    0 -0.14940850830E+01  0.11433536680E+02  0.63595445596E+01  0.13168213945E+02  0.51100000000E-03 0. -1.
         12    1    4    4    0    0  0.94901309361E+01  0.12256371967E+02 -0.17402454188E+02  0.23305077789E+02  0.00000000000E+00 0. -1.
</event>
<event>
 8    1  0.1278459E-006  0.9118800E+02  0.7816164E-02  0.1184000E+00
        -11   -1    0    0    0    0  0.00000000000E+00  0.00000000000E+00  0.45593999997E+02  0.45594000000E+02  0.51100000000E-03 0.  1.
         11   -1    0    0    0    0 -0.00000000000E+00 -0.00000000000E+00 -0.45593999997E+02  0.45594000000E+02  0.51100000000E-03 0. -1.
         23    2    1    2    0    0 -0.17763568394E-14  0.17763568394E-14 -0.71054273576E-14  0.91188000000E+02  0.91188000000E+02 0.  0.
    9900012    2    3    3    0    0  0.11246439094E+02  0.46668509212E+01 -0.34749329705E+02  0.54367111842E+02  0.40000063067E+02 0.  0.
        -12    1    3    3    0    0 -0.11246439094E+02 -0.46668509212E+01  0.34749329705E+02  0.36820888158E+02  0.00000000000E+00 0.  1.
         11    1    4    4    0    0 -0.34129977268E+01 -0.71233055928E+01 -0.30914326010E+01  0.84821572633E+01  0.51100000000E-03 0. -1.
        -11    1    4    4    0    0  0.13140356943E+02  0.20464305796E+02 -0.24682541237E+02  0.34650896590E+02  0.51100000000E-03 0.  1.
        -12    1    4    4    0    0  0.15190798773E+01 -0.86741492818E+01 -0.69753558665E+01  0.11234057989E+02  0.00000000000E+00 0.  1.
</event>
<event>
 8    1  0.1278459E-006  0.9118800E+02  0.7816164E-02  0.1184000E+00
        -11   -1    0    0    0    0  0.00000000000E+00  0.00000000000E+00  0.45593999997E+02  0.45594000000E+02  0.51100000000E-03 0. -1.
         11   -1    0    0    0    0 -0.00000000000E+00 -0.00000000000E+00 -0.45593999997E+02  0.45594000000E+02  0.51100000000E-03 0.  1.
         23    2    1    2    0    0  0.00000000000E+00  0.00000000000E+00  0.00000000000E+00  0.91188000000E+02  0.91188000000E+02 0.  0.
    9900012    2    3    3    0    0  0.24343377453E+02  0.10853797129E+02  0.25404268728E+02  0.54367057487E+02  0.39999939154E+02 0.  0.
         12    1    3    3    0    0 -0.24343377453E+02 -0.10853797129E+02 -0.25404268728E+02  0.36820942513E+02  0.00000000000E+00 0. -1.
         11    1    4    4    0    0  0.35208416697E+01 -0.47161075198E+01 -0.80895702947E+01  0.10003956418E+02  0.51100000000E-03 0.  1.
        -11    1    4    4    0    0  0.14271852924E+02  0.65107603969E+01  0.27547050214E+02  0.31700406347E+02  0.51100000000E-03 0. -1.
        -12    1    4    4    0    0  0.65506828589E+01  0.90591442518E+01  0.59467888088E+01  0.12662694722E+02  0.00000000000E+00 0.  1.
</event>
<event>
 8    1  0.1278459E-006  0.9118800E+02  0.7816164E-02  0.1184000E+00
        -11   -1    0    0    0    0  0.00000000000E+00  0.00000000000E+00  0.45593999997E+02  0.45594000000E+02  0.51100000000E-03 0. -1.
         11   -1    0    0    0    0 -0.00000000000E+00 -0.00000000000E+00 -0.45593999997E+02  0.45594000000E+02  0.51100000000E-03 0.  1.
         23    2    1    2    0    0  0.00000000000E+00 -0.35527136788E-14  0.71054273576E-14  0.91188000000E+02  0.91188000000E+02 0.  0.
    9900012    2    3    3    0    0 -0.44394010853E+01 -0.10528760443E+02  0.35003100093E+02  0.54367080748E+02  0.39999992181E+02 0.  0.
        -12    1    3    3    0    0  0.44394010853E+01  0.10528760443E+02 -0.35003100093E+02  0.36820919252E+02  0.00000000000E+00 0.  1.
         11    1    4    4    0    0  0.10045724762E+02  0.54901732222E+01  0.10410265694E+02  0.15473597516E+02  0.51100000000E-03 0.  1.
        -11    1    4    4    0    0  0.12649904108E+01  0.21346366467E+01  0.11012010890E+02  0.11288102518E+02  0.51100000000E-03 0. -1.
        -12    1    4    4    0    0 -0.15750116258E+02 -0.18153570312E+02  0.13580823509E+02  0.27605380714E+02  0.00000000000E+00 0.  1.
</event>
<event>
 8    1  0.1278459E-006  0.9118800E+02  0.7816164E-02  0.1184000E+00
        -11   -1    0    0    0    0  0.00000000000E+00  0.00000000000E+00  0.45593999997E+02  0.45594000000E+02  0.51100000000E-03 0. -1.
         11   -1    0    0    0    0 -0.00000000000E+00 -0.00000000000E+00 -0.45593999997E+02  0.45594000000E+02  0.51100000000E-03 0.  1.
         23    2    1    2    0    0  0.00000000000E+00 -0.24980018054E-15  0.35527136788E-14  0.91188000000E+02  0.91188000000E+02 0.  0.
    9900012    2    3    3    0    0  0.32100653227E+02 -0.19710099386E+00  0.18035775804E+02  0.54367082097E+02  0.39999995256E+02 0.  0.
        -12    1    3    3    0    0 -0.32100653227E+02  0.19710099386E+00 -0.18035775804E+02  0.36820917903E+02  0.00000000000E+00 0.  1.
         11    1    4    4    0    0 -0.13974802472E+01 -0.83044120736E+01 -0.40777442183E+01  0.93565062444E+01  0.51100000000E-03 0. -1.
        -11    1    4    4    0    0 -0.15367974744E+01  0.19972172585E+01 -0.87056776263E+00  0.26661792411E+01  0.51100000000E-03 0.  1.
         12    1    4    4    0    0  0.35034930948E+02  0.61100938213E+01  0.22984087785E+02  0.42344396611E+02  0.00000000000E+00 0. -1.
</event>
<event>
 8    1  0.1278459E-006  0.9118800E+02  0.7816164E-02  0.1184000E+00
        -11   -1    0    0    0    0  0.00000000000E+00  0.00000000000E+00  0.45593999997E+02  0.45594000000E+02  0.51100000000E-03 0.  1.
         11   -1    0    0    0    0 -0.00000000000E+00 -0.00000000000E+00 -0.45593999997E+02  0.45594000000E+02  0.51100000000E-03 0. -1.
         23    2    1    2    0    0  0.00000000000E+00  0.17763568394E-14  0.00000000000E+00  0.91188000000E+02  0.91188000000E+02 0.  0.
    9900012    2    3    3    0    0 -0.17989628453E+02  0.12375959599E+02  0.29647744375E+02  0.54367084009E+02  0.39999999615E+02 0.  0.
         12    1    3    3    0    0  0.17989628453E+02 -0.12375959599E+02 -0.29647744375E+02  0.36820915991E+02  0.00000000000E+00 0. -1.
         11    1    4    4    0    0 -0.46580861531E-02 -0.38848062488E+01  0.20153999522E+02  0.20524995452E+02  0.51100000000E-03 0. -1.
        -11    1    4    4    0    0  0.75005208525E+00  0.66629611521E+01 -0.49315332032E+01  0.83233196166E+01  0.51100000000E-03 0.  1.
        -12    1    4    4    0    0 -0.18735022452E+02  0.95978046960E+01  0.14425278056E+02  0.25518768941E+02  0.00000000000E+00 0.  1.
</event>
<event>
 8    1  0.1278459E-006  0.9118800E+02  0.7816164E-02  0.1184000E+00
        -11   -1    0    0    0    0  0.00000000000E+00  0.00000000000E+00  0.45593999997E+02  0.45594000000E+02  0.51100000000E-03 0.  1.
         11   -1    0    0    0    0 -0.00000000000E+00 -0.00000000000E+00 -0.45593999997E+02  0.45594000000E+02  0.51100000000E-03 0. -1.
         23    2    1    2    0    0 -0.35527136788E-14  0.00000000000E+00  0.00000000000E+00  0.91188000000E+02  0.91188000000E+02 0.  0.
    9900012    2    3    3    0    0  0.16880976409E+02  0.18372802667E+02  0.27078653616E+02  0.54367072201E+02  0.39999972696E+02 0.  0.
         12    1    3    3    0    0 -0.16880976409E+02 -0.18372802667E+02 -0.27078653616E+02  0.36820927799E+02  0.00000000000E+00 0. -1.
         11    1    4    4    0    0 -0.74630822699E+01  0.87067321442E+01  0.18109481061E+02  0.21434973435E+02  0.51100000000E-03 0. -1.
        -11    1    4    4    0    0  0.73331156524E+01  0.10030670543E+02  0.99069876551E+01  0.15891423516E+02  0.51100000000E-03 0.  1.
         12    1    4    4    0    0  0.17010943026E+02 -0.36460002095E+00 -0.93781509962E+00  0.17040675250E+02  0.00000000000E+00 0. -1.
</event>
<event>
 8    1  0.1278459E-006  0.9118800E+02  0.7816164E-02  0.1184000E+00
        -11   -1    0    0    0    0  0.00000000000E+00  0.00000000000E+00  0.45593999997E+02  0.45594000000E+02  0.51100000000E-03 0.  1.
         11   -1    0    0    0    0 -0.00000000000E+00 -0.00000000000E+00 -0.45593999997E+02  0.45594000000E+02  0.51100000000E-03 0. -1.
         23    2    1    2    0    0 -0.17763568394E-14  0.00000000000E+00  0.35527136788E-14  0.91188000000E+02  0.91188000000E+02 0.  0.
    9900012    2    3    3    0    0 -0.10229866314E+02  0.22153828439E+02  0.27574245260E+02  0.54367064637E+02  0.39999955454E+02 0.  0.
        -12    1    3    3    0    0  0.10229866314E+02 -0.22153828439E+02 -0.27574245260E+02  0.36820935363E+02  0.00000000000E+00 0.  1.
         11    1    4    4    0    0 -0.24497742060E+01  0.27647180839E+02  0.10531665819E+02  0.29686427659E+02  0.51100000000E-03 0. -1.
        -11    1    4    4    0    0 -0.11454510615E+02 -0.58441720342E+01  0.86098437390E+01  0.15475450548E+02  0.51100000000E-03 0.  1.
         12    1    4    4    0    0  0.36744185072E+01  0.35081963437E+00  0.84327357022E+01  0.92051864297E+01  0.00000000000E+00 0. -1.
</event>
<event>
 8    1  0.1278459E-006  0.9118800E+02  0.7816164E-02  0.1184000E+00
        -11   -1    0    0    0    0  0.00000000000E+00  0.00000000000E+00  0.45593999997E+02  0.45594000000E+02  0.51100000000E-03 0. -1.
         11   -1    0    0    0    0 -0.00000000000E+00 -0.00000000000E+00 -0.45593999997E+02  0.45594000000E+02  0.51100000000E-03 0.  1.
         23    2    1    2    0    0  0.00000000000E+00  0.17763568394E-14  0.00000000000E+00  0.91188000000E+02  0.91188000000E+02 0.  0.
    9900012    2    3    3    0    0 -0.12175204060E+02  0.97164895189E+01  0.33363665600E+02  0.54367082782E+02  0.39999996819E+02 0.  0.
        -12    1    3    3    0    0  0.12175204060E+02 -0.97164895189E+01 -0.33363665600E+02  0.36820917218E+02  0.00000000000E+00 0.  1.
         11    1    4    4    0    0  0.71015914656E+01  0.73711247382E+01  0.87244140232E+01  0.13449218623E+02  0.51100000000E-03 0. -1.
        -11    1    4    4    0    0 -0.24235325443E+02 -0.40057836690E+01  0.17599145588E+02  0.30217995100E+02  0.51100000000E-03 0.  1.
        -12    1    4    4    0    0  0.49585299173E+01  0.63511484497E+01  0.70401059886E+01  0.10699869060E+02  0.00000000000E+00 0.  1.
</event>
<event>
 8    1  0.1278459E-006  0.9118800E+02  0.7816164E-02  0.1184000E+00
        -11   -1    0    0    0    0  0.00000000000E+00  0.00000000000E+00  0.45593999997E+02  0.45594000000E+02  0.51100000000E-03 0.  1.
         11   -1    0    0    0    0 -0.00000000000E+00 -0.00000000000E+00 -0.45593999997E+02  0.45594000000E+02  0.51100000000E-03 0. -1.
         23    2    1    2    0    0  0.00000000000E+00  0.00000000000E+00  0.35527136788E-14  0.91188000000E+02  0.91188000000E+02 0.  0.
    9900012    2    3    3    0    0  0.11886022683E+02 -0.24575849148E+02 -0.24708923317E+02  0.54367071331E+02  0.39999970713E+02 0.  0.
         12    1    3    3    0    0 -0.11886022683E+02  0.24575849148E+02  0.24708923317E+02  0.36820928669E+02  0.00000000000E+00 0. -1.
         11    1    4    4    0    0 -0.15103234306E+01  0.17202393412E+00 -0.19836178830E+02  0.19894337384E+02  0.51100000000E-03 0. -1.
        -11    1    4    4    0    0  0.10908428950E+02 -0.18142909146E+01 -0.15236384574E+01  0.11162748232E+02  0.51100000000E-03 0.  1.
         12    1    4    4    0    0  0.24879171642E+01 -0.22933582168E+02 -0.33491060295E+01  0.23309985715E+02  0.00000000000E+00 0. -1.
</event>
<event>
 8    1  0.1278459E-006  0.9118800E+02  0.7816164E-02  0.1184000E+00
        -11   -1    0    0    0    0  0.00000000000E+00  0.00000000000E+00  0.45593999997E+02  0.45594000000E+02  0.51100000000E-03 0.  1.
         11   -1    0    0    0    0 -0.00000000000E+00 -0.00000000000E+00 -0.45593999997E+02  0.45594000000E+02  0.51100000000E-03 0. -1.
         23    2    1    2    0    0  0.00000000000E+00  0.00000000000E+00  0.17763568394E-14  0.91188000000E+02  0.91188000000E+02 0.  0.
    9900012    2    3    3    0    0  0.32211549165E+02 -0.17707261430E+02 -0.21564835268E+01  0.54367062639E+02  0.39999950898E+02 0.  0.
        -12    1    3    3    0    0 -0.32211549165E+02  0.17707261430E+02  0.21564835268E+01  0.36820937361E+02  0.00000000000E+00 0.  1.
         11    1    4    4    0    0  0.17862811637E+02 -0.23293605540E+01 -0.19659482062E+01  0.18121007499E+02  0.51100000000E-03 0. -1.
        -11    1    4    4    0    0  0.15477383693E+02 -0.15114595683E+02  0.11498774287E+02  0.24499433034E+02  0.51100000000E-03 0.  1.
        -12    1    4    4    0    0 -0.11286461644E+01 -0.26330519291E+00 -0.11689309608E+02  0.11746622106E+02  0.00000000000E+00 0.  1.
</event>
<event>
 8    1  0.1278459E-006  0.9118800E+02  0.7816164E-02  0.1184000E+00
        -11   -1    0    0    0    0  0.00000000000E+00  0.00000000000E+00  0.45593999997E+02  0.45594000000E+02  0.51100000000E-03 0.  1.
         11   -1    0    0    0    0 -0.00000000000E+00 -0.00000000000E+00 -0.45593999997E+02  0.45594000000E+02  0.51100000000E-03 0. -1.
         23    2    1    2    0    0  0.00000000000E+00  0.35527136788E-14  0.00000000000E+00  0.91188000000E+02  0.91188000000E+02 0.  0.
    9900012    2    3    3    0    0  0.29317505547E+02 -0.11413355863E+02  0.19131108876E+02  0.54367079990E+02  0.39999990454E+02 0.  0.
         12    1    3    3    0    0 -0.29317505547E+02  0.11413355863E+02 -0.19131108876E+02  0.36820920010E+02  0.00000000000E+00 0. -1.
         11    1    4    4    0    0  0.37181738001E+01  0.99513315102E+01 -0.41590530775E+00  0.10631405962E+02  0.51100000000E-03 0. -1.
        -11    1    4    4    0    0  0.89219029865E+01  0.72159151309E+00  0.12145249459E+02  0.15087350062E+02  0.51100000000E-03 0.  1.
        -12    1    4    4    0    0  0.16677428760E+02 -0.22086278886E+02  0.74017647248E+01  0.28648323967E+02  0.00000000000E+00 0.  1.
</event>
<event>
 8    1  0.1278459E-006  0.9118800E+02  0.7816164E-02  0.1184000E+00
        -11   -1    0    0    0    0  0.00000000000E+00  0.00000000000E+00  0.45593999997E+02  0.45594000000E+02  0.51100000000E-03 0.  1.
         11   -1    0    0    0    0 -0.00000000000E+00 -0.00000000000E+00 -0.45593999997E+02  0.45594000000E+02  0.51100000000E-03 0. -1.
         23    2    1    2    0    0  0.35527136788E-14  0.00000000000E+00 -0.17763568394E-14  0.91188000000E+02  0.91188000000E+02 0.  0.
    9900012    2    3    3    0    0 -0.24377523554E+02 -0.23921101882E+02  0.13758522807E+02  0.54367085838E+02  0.40000003785E+02 0.  0.
        -12    1    3    3    0    0  0.24377523554E+02  0.23921101882E+02 -0.13758522807E+02  0.36820914162E+02  0.00000000000E+00 0.  1.
         11    1    4    4    0    0 -0.66710214878E+01 -0.72348282074E+01 -0.75756217851E+01  0.12419151041E+02  0.51100000000E-03 0. -1.
        -11    1    4    4    0    0  0.70660753183E+01 -0.54017512041E+01  0.54269956206E+01  0.10419242689E+02  0.51100000000E-03 0.  1.
        -12    1    4    4    0    0 -0.24772577385E+02 -0.11284522471E+02  0.15907148971E+02  0.31528692109E+02  0.00000000000E+00 0.  1.
</event>
<event>
 8    1  0.1278459E-006  0.9118800E+02  0.7816164E-02  0.1184000E+00
        -11   -1    0    0    0    0  0.00000000000E+00  0.00000000000E+00  0.45593999997E+02  0.45594000000E+02  0.51100000000E-03 0. -1.
         11   -1    0    0    0    0 -0.00000000000E+00 -0.00000000000E+00 -0.45593999997E+02  0.45594000000E+02  0.51100000000E-03 0.  1.
         23    2    1    2    0    0  0.00000000000E+00  0.00000000000E+00  0.00000000000E+00  0.91188000000E+02  0.91188000000E+02 0.  0.
    9900012    2    3    3    0    0 -0.25041158030E+02  0.22563266755E+02 -0.14819373280E+02  0.54367157716E+02  0.40000167644E+02 0.  0.
         12    1    3    3    0    0  0.25041158030E+02 -0.22563266755E+02  0.14819373280E+02  0.36820842284E+02  0.00000000000E+00 0. -1.
         11    1    4    4    0    0 -0.66534833455E+01  0.33649711483E+01  0.34512324284E+01  0.82160134490E+01  0.51100000000E-03 0. -1.
        -11    1    4    4    0    0  0.14830299901E+01  0.21031451955E+02 -0.15129399646E+02  0.25950338788E+02  0.51100000000E-03 0.  1.
        -12    1    4    4    0    0 -0.19870704675E+02 -0.18331563490E+01 -0.31412060622E+01  0.20200805479E+02  0.00000000000E+00 0.  1.
</event>
<event>
 8    1  0.1278459E-006  0.9118800E+02  0.7816164E-02  0.1184000E+00
        -11   -1    0    0    0    0  0.00000000000E+00  0.00000000000E+00  0.45593999997E+02  0.45594000000E+02  0.51100000000E-03 0. -1.
         11   -1    0    0    0    0 -0.00000000000E+00 -0.00000000000E+00 -0.45593999997E+02  0.45594000000E+02  0.51100000000E-03 0.  1.
         23    2    1    2    0    0 -0.35527136788E-14  0.00000000000E+00  0.00000000000E+00  0.91188000000E+02  0.91188000000E+02 0.  0.
    9900012    2    3    3    0    0  0.70544710821E+01  0.25117564738E+02  0.25983115670E+02  0.54367083111E+02  0.39999997568E+02 0.  0.
        -12    1    3    3    0    0 -0.70544710821E+01 -0.25117564738E+02 -0.25983115670E+02  0.36820916889E+02  0.00000000000E+00 0.  1.
         11    1    4    4    0    0 -0.12136236302E+02  0.68806103354E+01  0.14642946609E+02  0.20224908302E+02  0.51100000000E-03 0. -1.
        -11    1    4    4    0    0 -0.12052652791E+01  0.54411528075E+00 -0.32092686926E+01  0.34710418658E+01  0.51100000000E-03 0.  1.
         12    1    4    4    0    0  0.20395972663E+02  0.17692839122E+02  0.14549437754E+02  0.30671132943E+02  0.00000000000E+00 0. -1.
</event>
<event>
 8    1  0.1278459E-006  0.9118800E+02  0.7816164E-02  0.1184000E+00
        -11   -1    0    0    0    0  0.00000000000E+00  0.00000000000E+00  0.45593999997E+02  0.45594000000E+02  0.51100000000E-03 0.  1.
         11   -1    0    0    0    0 -0.00000000000E+00 -0.00000000000E+00 -0.45593999997E+02  0.45594000000E+02  0.51100000000E-03 0. -1.
         23    2    1    2    0    0 -0.35527136788E-14 -0.71054273576E-14  0.00000000000E+00  0.91188000000E+02  0.91188000000E+02 0.  0.
    9900012    2    3    3    0    0  0.25963055184E+02  0.25381422068E+02 -0.61223754967E+01  0.54367077926E+02  0.39999985747E+02 0.  0.
        -12    1    3    3    0    0 -0.25963055184E+02 -0.25381422068E+02  0.61223754967E+01  0.36820922074E+02  0.00000000000E+00 0.  1.
         11    1    4    4    0    0  0.73721040564E+01  0.27346566871E+02  0.36300150727E+00  0.28325155043E+02  0.51100000000E-03 0.  1.
        -11    1    4    4    0    0  0.44920251202E+01 -0.65860919639E+01 -0.77919638415E+01  0.11147627452E+02  0.51100000000E-03 0. -1.
        -12    1    4    4    0    0  0.14098926007E+02  0.46209471608E+01  0.13065868375E+01  0.14894295431E+02  0.00000000000E+00 0.  1.
</event>
<event>
 8    1  0.1278459E-006  0.9118800E+02  0.7816164E-02  0.1184000E+00
        -11   -1    0    0    0    0  0.00000000000E+00  0.00000000000E+00  0.45593999997E+02  0.45594000000E+02  0.51100000000E-03 0. -1.
         11   -1    0    0    0    0 -0.00000000000E+00 -0.00000000000E+00 -0.45593999997E+02  0.45594000000E+02  0.51100000000E-03 0.  1.
         23    2    1    2    0    0 -0.88817841970E-15 -0.88817841970E-15  0.00000000000E+00  0.91188000000E+02  0.91188000000E+02 0.  0.
    9900012    2    3    3    0    0 -0.70454140928E+01  0.26035537314E+01  0.36046688802E+02  0.54367080329E+02  0.39999991227E+02 0.  0.
        -12    1    3    3    0    0  0.70454140928E+01 -0.26035537314E+01 -0.36046688802E+02  0.36820919671E+02  0.00000000000E+00 0.  1.
         11    1    4    4    0    0 -0.62383759726E+01 -0.92364107602E+01  0.50814483037E+01  0.12249478994E+02  0.51100000000E-03 0. -1.
        -11    1    4    4    0    0 -0.10513681078E+01  0.66600226446E+01 -0.32687602102E+01  0.74930681364E+01  0.51100000000E-03 0.  1.
        -12    1    4    4    0    0  0.24432998764E+00  0.51799418470E+01  0.34234000709E+02  0.34624533199E+02  0.00000000000E+00 0.  1.
</event>
<event>
 8    1  0.1278459E-006  0.9118800E+02  0.7816164E-02  0.1184000E+00
        -11   -1    0    0    0    0  0.00000000000E+00  0.00000000000E+00  0.45593999997E+02  0.45594000000E+02  0.51100000000E-03 0.  1.
         11   -1    0    0    0    0 -0.00000000000E+00 -0.00000000000E+00 -0.45593999997E+02  0.45594000000E+02  0.51100000000E-03 0. -1.
         23    2    1    2    0    0 -0.44408920985E-15 -0.71054273576E-14  0.00000000000E+00  0.91188000000E+02  0.91188000000E+02 0.  0.
    9900012    2    3    3    0    0  0.26495337924E+01  0.31018926263E+02 -0.19661391096E+02  0.54367297730E+02  0.40000486833E+02 0.  0.
        -12    1    3    3    0    0 -0.26495337924E+01 -0.31018926263E+02  0.19661391096E+02  0.36820702270E+02  0.00000000000E+00 0.  1.
         11    1    4    4    0    0  0.77201433023E+01  0.57819155392E+01 -0.11605758801E+02  0.15090553254E+02  0.51100000000E-03 0. -1.
        -11    1    4    4    0    0  0.82560063881E+01  0.23496991521E+02 -0.38966467178E+01  0.25208215088E+02  0.51100000000E-03 0.  1.
         12    1    4    4    0    0 -0.13326615898E+02  0.17400192028E+01 -0.41589855776E+01  0.14068529389E+02  0.00000000000E+00 0. -1.
</event>
<event>
 8    1  0.1278459E-006  0.9118800E+02  0.7816164E-02  0.1184000E+00
        -11   -1    0    0    0    0  0.00000000000E+00  0.00000000000E+00  0.45593999997E+02  0.45594000000E+02  0.51100000000E-03 0. -1.
         11   -1    0    0    0    0 -0.00000000000E+00 -0.00000000000E+00 -0.45593999997E+02  0.45594000000E+02  0.51100000000E-03 0.  1.
         23    2    1    2    0    0 -0.35527136788E-14  0.00000000000E+00  0.71054273576E-14  0.91188000000E+02  0.91188000000E+02 0.  0.
    9900012    2    3    3    0    0  0.11300595786E+02  0.54830040200E+01 -0.34612317787E+02  0.54367090983E+02  0.40000015514E+02 0.  0.
         12    1    3    3    0    0 -0.11300595786E+02 -0.54830040200E+01  0.34612317787E+02  0.36820909017E+02  0.00000000000E+00 0. -1.
         11    1    4    4    0    0 -0.47314972394E+00  0.10966877874E+02 -0.11201338872E+02  0.15683311951E+02  0.51100000000E-03 0.  1.
        -11    1    4    4    0    0 -0.90462338973E+01  0.35950182313E-02 -0.90948333580E+01  0.12827718220E+02  0.51100000000E-03 0. -1.
         12    1    4    4    0    0  0.20819979407E+02 -0.54874688718E+01 -0.14316145557E+02  0.25856060813E+02  0.00000000000E+00 0. -1.
</event>
<event>
 8    1  0.1278459E-006  0.9118800E+02  0.7816164E-02  0.1184000E+00
        -11   -1    0    0    0    0  0.00000000000E+00  0.00000000000E+00  0.45593999997E+02  0.45594000000E+02  0.51100000000E-03 0. -1.
         11   -1    0    0    0    0 -0.00000000000E+00 -0.00000000000E+00 -0.45593999997E+02  0.45594000000E+02  0.51100000000E-03 0.  1.
         23    2    1    2    0    0  0.55511151231E-15 -0.35527136788E-14  0.00000000000E+00  0.91188000000E+02  0.91188000000E+02 0.  0.
    9900012    2    3    3    0    0 -0.77268734855E+00  0.22021070980E+02  0.29500319059E+02  0.54366899563E+02  0.39999579131E+02 0.  0.
        -12    1    3    3    0    0  0.77268734855E+00 -0.22021070980E+02 -0.29500319059E+02  0.36821100437E+02  0.00000000000E+00 0.  1.
         11    1    4    4    0    0  0.10853054090E+01  0.11682346798E+02  0.93470361909E+01  0.15000739994E+02  0.51100000000E-03 0. -1.
        -11    1    4    4    0    0 -0.82457635419E+01  0.14295559221E+02  0.25336901853E+02  0.30237629298E+02  0.51100000000E-03 0.  1.
        -12    1    4    4    0    0  0.63877707844E+01 -0.39568350399E+01 -0.51836189846E+01  0.91285302707E+01  0.00000000000E+00 0.  1.
</event>
<event>
 8    1  0.1278459E-006  0.9118800E+02  0.7816164E-02  0.1184000E+00
        -11   -1    0    0    0    0  0.00000000000E+00  0.00000000000E+00  0.45593999997E+02  0.45594000000E+02  0.51100000000E-03 0. -1.
         11   -1    0    0    0    0 -0.00000000000E+00 -0.00000000000E+00 -0.45593999997E+02  0.45594000000E+02  0.51100000000E-03 0.  1.
         23    2    1    2    0    0  0.00000000000E+00 -0.88817841970E-15  0.00000000000E+00  0.91188000000E+02  0.91188000000E+02 0.  0.
    9900012    2    3    3    0    0 -0.32004663476E+02 -0.77719820077E+01  0.16464446790E+02  0.54367079362E+02  0.39999989021E+02 0.  0.
        -12    1    3    3    0    0  0.32004663476E+02  0.77719820077E+01 -0.16464446790E+02  0.36820920638E+02  0.00000000000E+00 0.  1.
         11    1    4    4    0    0 -0.63425712652E+01 -0.94156800713E+01  0.72913431859E+01  0.13492476688E+02  0.51100000000E-03 0. -1.
        -11    1    4    4    0    0  0.98501017506E+00  0.92546269312E+01  0.93063749397E+01  0.13161572074E+02  0.51100000000E-03 0.  1.
         12    1    4    4    0    0 -0.26647102386E+02 -0.76109288676E+01 -0.13327133517E+00  0.27713030600E+02  0.00000000000E+00 0. -1.
</event>
<event>
 8    1  0.1278459E-006  0.9118800E+02  0.7816164E-02  0.1184000E+00
        -11   -1    0    0    0    0  0.00000000000E+00  0.00000000000E+00  0.45593999997E+02  0.45594000000E+02  0.51100000000E-03 0.  1.
         11   -1    0    0    0    0 -0.00000000000E+00 -0.00000000000E+00 -0.45593999997E+02  0.45594000000E+02  0.51100000000E-03 0. -1.
         23    2    1    2    0    0  0.00000000000E+00 -0.35527136788E-14  0.00000000000E+00  0.91188000000E+02  0.91188000000E+02 0.  0.
    9900012    2    3    3    0    0  0.24429309928E+02 -0.26738724537E+02 -0.66355484712E+01  0.54367067408E+02  0.39999961770E+02 0.  0.
         12    1    3    3    0    0 -0.24429309928E+02  0.26738724537E+02  0.66355484712E+01  0.36820932592E+02  0.00000000000E+00 0. -1.
         11    1    4    4    0    0 -0.22348380477E+01 -0.92580001203E+00  0.69017332622E+01  0.73133801382E+01  0.51100000000E-03 0. -1.
        -11    1    4    4    0    0  0.17761049276E+01  0.40649099285E+01 -0.59713485321E+01  0.74387529193E+01  0.51100000000E-03 0.  1.
        -12    1    4    4    0    0  0.24888043048E+02 -0.29877834454E+02 -0.75659332013E+01  0.39614934351E+02  0.00000000000E+00 0.  1.
</event>
<event>
 8    1  0.1278459E-006  0.9118800E+02  0.7816164E-02  0.1184000E+00
        -11   -1    0    0    0    0  0.00000000000E+00  0.00000000000E+00  0.45593999997E+02  0.45594000000E+02  0.51100000000E-03 0.  1.
         11   -1    0    0    0    0 -0.00000000000E+00 -0.00000000000E+00 -0.45593999997E+02  0.45594000000E+02  0.51100000000E-03 0. -1.
         23    2    1    2    0    0 -0.35527136788E-14 -0.35527136788E-14  0.35527136788E-14  0.91188000000E+02  0.91188000000E+02 0.  0.
    9900012    2    3    3    0    0  0.25189912272E+02 -0.19702779827E+02  0.18249609427E+02  0.54367089400E+02  0.40000011905E+02 0.  0.
         12    1    3    3    0    0 -0.25189912272E+02  0.19702779827E+02 -0.18249609427E+02  0.36820910600E+02  0.00000000000E+00 0. -1.
         11    1    4    4    0    0  0.16704769805E+02 -0.48583501630E+01  0.34620731757E+00  0.17400366672E+02  0.51100000000E-03 0. -1.
        -11    1    4    4    0    0  0.93796511889E+01 -0.62869348974E+01  0.23931089739E+02  0.26461301238E+02  0.51100000000E-03 0.  1.
         12    1    4    4    0    0 -0.89450872239E+00 -0.85574947662E+01 -0.60276876293E+01  0.10505421490E+02  0.00000000000E+00 0. -1.
</event>
<event>
 8    1  0.1278459E-006  0.9118800E+02  0.7816164E-02  0.1184000E+00
        -11   -1    0    0    0    0  0.00000000000E+00  0.00000000000E+00  0.45593999997E+02  0.45594000000E+02  0.51100000000E-03 0.  1.
         11   -1    0    0    0    0 -0.00000000000E+00 -0.00000000000E+00 -0.45593999997E+02  0.45594000000E+02  0.51100000000E-03 0. -1.
         23    2    1    2    0    0 -0.17763568394E-14  0.00000000000E+00  0.00000000000E+00  0.91188000000E+02  0.91188000000E+02 0.  0.
    9900012    2    3    3    0    0 -0.11943567850E+02 -0.17539357569E+02  0.30091570798E+02  0.54367075107E+02  0.39999979321E+02 0.  0.
         12    1    3    3    0    0  0.11943567850E+02  0.17539357569E+02 -0.30091570798E+02  0.36820924893E+02  0.00000000000E+00 0. -1.
         11    1    4    4    0    0 -0.26289980873E+00 -0.13425401865E+02  0.30741469403E+01  0.13775373361E+02  0.51100000000E-03 0. -1.
        -11    1    4    4    0    0 -0.78054221722E+01 -0.11081990759E+02  0.29312460032E+02  0.32294820759E+02  0.51100000000E-03 0.  1.
         12    1    4    4    0    0 -0.38752458689E+01  0.69680350553E+01 -0.22950361743E+01  0.82968809873E+01  0.00000000000E+00 0. -1.
</event>
<event>
 8    1  0.1278459E-006  0.9118800E+02  0.7816164E-02  0.1184000E+00
        -11   -1    0    0    0    0  0.00000000000E+00  0.00000000000E+00  0.45593999997E+02  0.45594000000E+02  0.51100000000E-03 0. -1.
         11   -1    0    0    0    0 -0.00000000000E+00 -0.00000000000E+00 -0.45593999997E+02  0.45594000000E+02  0.51100000000E-03 0.  1.
         23    2    1    2    0    0 -0.88817841970E-15  0.00000000000E+00  0.00000000000E+00  0.91188000000E+02  0.91188000000E+02 0.  0.
    9900012    2    3    3    0    0  0.48263924996E+01 -0.39861809841E+01 -0.36284930506E+02  0.54367083590E+02  0.39999998661E+02 0.  0.
         12    1    3    3    0    0 -0.48263924996E+01  0.39861809841E+01  0.36284930506E+02  0.36820916410E+02  0.00000000000E+00 0. -1.
         11    1    4    4    0    0 -0.47991405386E+01 -0.13781424858E+02 -0.82140428889E+01  0.16746041977E+02  0.51100000000E-03 0. -1.
        -11    1    4    4    0    0  0.10020861110E+02 -0.19917913318E+01 -0.22218822358E+02  0.24455284855E+02  0.51100000000E-03 0.  1.
        -12    1    4    4    0    0 -0.39532807140E+00  0.11787035206E+02 -0.58520652592E+01  0.13165756759E+02  0.00000000000E+00 0.  1.
</event>
<event>
 8    1  0.1278459E-006  0.9118800E+02  0.7816164E-02  0.1184000E+00
        -11   -1    0    0    0    0  0.00000000000E+00  0.00000000000E+00  0.45593999997E+02  0.45594000000E+02  0.51100000000E-03 0. -1.
         11   -1    0    0    0    0 -0.00000000000E+00 -0.00000000000E+00 -0.45593999997E+02  0.45594000000E+02  0.51100000000E-03 0.  1.
         23    2    1    2    0    0  0.00000000000E+00  0.00000000000E+00 -0.35527136788E-14  0.91188000000E+02  0.91188000000E+02 0.  0.
    9900012    2    3    3    0    0 -0.24039211486E+02  0.83663423560E+01  0.26606402883E+02  0.54367081384E+02  0.39999993632E+02 0.  0.
        -12    1    3    3    0    0  0.24039211486E+02 -0.83663423560E+01 -0.26606402883E+02  0.36820918616E+02  0.00000000000E+00 0.  1.
         11    1    4    4    0    0 -0.10190882644E+01 -0.22737332160E+01  0.20789896449E+02  0.20938677090E+02  0.51100000000E-03 0. -1.
        -11    1    4    4    0    0 -0.73648255987E+01  0.14770860670E+02  0.99689143077E+00  0.16535198028E+02  0.51100000000E-03 0.  1.
         12    1    4    4    0    0 -0.15655297623E+02 -0.41307850980E+01  0.48196150031E+01  0.16893206267E+02  0.00000000000E+00 0. -1.
</event>
<event>
 8    1  0.1278459E-006  0.9118800E+02  0.7816164E-02  0.1184000E+00
        -11   -1    0    0    0    0  0.00000000000E+00  0.00000000000E+00  0.45593999997E+02  0.45594000000E+02  0.51100000000E-03 0.  1.
         11   -1    0    0    0    0 -0.00000000000E+00 -0.00000000000E+00 -0.45593999997E+02  0.45594000000E+02  0.51100000000E-03 0. -1.
         23    2    1    2    0    0  0.00000000000E+00  0.00000000000E+00  0.00000000000E+00  0.91188000000E+02  0.91188000000E+02 0.  0.
    9900012    2    3    3    0    0 -0.70313420886E+01 -0.24830012449E+02  0.26264192538E+02  0.54367121419E+02  0.40000084899E+02 0.  0.
         12    1    3    3    0    0  0.70313420886E+01  0.24830012449E+02 -0.26264192538E+02  0.36820878581E+02  0.00000000000E+00 0. -1.
         11    1    4    4    0    0  0.45898571746E+01 -0.92519387961E+01  0.38979338748E+01  0.11038978627E+02  0.51100000000E-03 0. -1.
        -11    1    4    4    0    0 -0.64207765162E+01 -0.25288998974E+02  0.15526003612E+02  0.30361433244E+02  0.51100000000E-03 0.  1.
        -12    1    4    4    0    0 -0.52004227469E+01  0.97109253215E+01  0.68402550517E+01  0.12966709549E+02  0.00000000000E+00 0.  1.
</event>
<event>
 8    1  0.1278459E-006  0.9118800E+02  0.7816164E-02  0.1184000E+00
        -11   -1    0    0    0    0  0.00000000000E+00  0.00000000000E+00  0.45593999997E+02  0.45594000000E+02  0.51100000000E-03 0.  1.
         11   -1    0    0    0    0 -0.00000000000E+00 -0.00000000000E+00 -0.45593999997E+02  0.45594000000E+02  0.51100000000E-03 0. -1.
         23    2    1    2    0    0  0.00000000000E+00  0.88817841970E-15 -0.71054273576E-14  0.91188000000E+02  0.91188000000E+02 0.  0.
    9900012    2    3    3    0    0  0.15065993081E+02  0.57841465851E+01  0.33095916294E+02  0.54367079662E+02  0.39999989705E+02 0.  0.
         12    1    3    3    0    0 -0.15065993081E+02 -0.57841465851E+01 -0.33095916294E+02  0.36820920338E+02  0.00000000000E+00 0. -1.
         11    1    4    4    0    0  0.17995808452E+02 -0.73090135884E+01  0.17694055223E+02  0.26274519824E+02  0.51100000000E-03 0.  1.
        -11    1    4    4    0    0  0.65473943903E+01  0.12016165563E+02  0.11140984258E+02  0.17645909969E+02  0.51100000000E-03 0. -1.
         12    1    4    4    0    0 -0.94772097619E+01  0.10769946107E+01  0.42608768127E+01  0.10446649868E+02  0.00000000000E+00 0. -1.
</event>
<event>
 8    1  0.1278459E-006  0.9118800E+02  0.7816164E-02  0.1184000E+00
        -11   -1    0    0    0    0  0.00000000000E+00  0.00000000000E+00  0.45593999997E+02  0.45594000000E+02  0.51100000000E-03 0. -1.
         11   -1    0    0    0    0 -0.00000000000E+00 -0.00000000000E+00 -0.45593999997E+02  0.45594000000E+02  0.51100000000E-03 0.  1.
         23    2    1    2    0    0  0.35527136788E-14 -0.17763568394E-14  0.35527136788E-14  0.91188000000E+02  0.91188000000E+02 0.  0.
    9900012    2    3    3    0    0 -0.17806656612E+02 -0.95554748861E+01  0.30779808175E+02  0.54367072374E+02  0.39999973090E+02 0.  0.
        -12    1    3    3    0    0  0.17806656612E+02  0.95554748861E+01 -0.30779808175E+02  0.36820927626E+02  0.00000000000E+00 0.  1.
         11    1    4    4    0    0 -0.53558979166E+01 -0.39082593213E+00  0.30293128873E+02  0.30765435875E+02  0.51100000000E-03 0. -1.
        -11    1    4    4    0    0  0.15307177227E+01 -0.89262601789E+01 -0.22979947952E+01  0.93435538136E+01  0.51100000000E-03 0.  1.
         12    1    4    4    0    0 -0.13981476418E+02 -0.23838877507E+00  0.27846740973E+01  0.14258082685E+02  0.00000000000E+00 0. -1.
</event>
<event>
 8    1  0.1278459E-006  0.9118800E+02  0.7816164E-02  0.1184000E+00
        -11   -1    0    0    0    0  0.00000000000E+00  0.00000000000E+00  0.45593999997E+02  0.45594000000E+02  0.51100000000E-03 0. -1.
         11   -1    0    0    0    0 -0.00000000000E+00 -0.00000000000E+00 -0.45593999997E+02  0.45594000000E+02  0.51100000000E-03 0.  1.
         23    2    1    2    0    0  0.00000000000E+00 -0.71054273576E-14 -0.17763568394E-14  0.91188000000E+02  0.91188000000E+02 0.  0.
    9900012    2    3    3    0    0 -0.10179760309E+02  0.34015850967E+02 -0.97505917330E+01  0.54367086431E+02  0.40000005136E+02 0.  0.
         12    1    3    3    0    0  0.10179760309E+02 -0.34015850967E+02  0.97505917330E+01  0.36820913569E+02  0.00000000000E+00 0. -1.
         11    1    4    4    0    0 -0.16933732133E+01 -0.40337164917E+01  0.50189218490E+01  0.66579244786E+01  0.51100000000E-03 0. -1.
        -11    1    4    4    0    0 -0.78277919244E+01  0.26132449523E+02  0.17424579693E+01  0.27335241073E+02  0.51100000000E-03 0.  1.
        -12    1    4    4    0    0 -0.65859517139E+00  0.11917117936E+02 -0.16511971551E+02  0.20373920880E+02  0.00000000000E+00 0.  1.
</event>
<event>
 8    1  0.1278459E-006  0.9118800E+02  0.7816164E-02  0.1184000E+00
        -11   -1    0    0    0    0  0.00000000000E+00  0.00000000000E+00  0.45593999997E+02  0.45594000000E+02  0.51100000000E-03 0.  1.
         11   -1    0    0    0    0 -0.00000000000E+00 -0.00000000000E+00 -0.45593999997E+02  0.45594000000E+02  0.51100000000E-03 0. -1.
         23    2    1    2    0    0  0.00000000000E+00  0.17763568394E-14  0.00000000000E+00  0.91188000000E+02  0.91188000000E+02 0.  0.
    9900012    2    3    3    0    0 -0.17096485957E+02 -0.14553403643E+01 -0.32578657926E+02  0.54367125487E+02  0.40000094174E+02 0.  0.
        -12    1    3    3    0    0  0.17096485957E+02  0.14553403643E+01  0.32578657926E+02  0.36820874513E+02  0.00000000000E+00 0.  1.
         11    1    4    4    0    0  0.70957316347E+01 -0.10999611588E+02 -0.11577526457E+02  0.17475124653E+02  0.51100000000E-03 0. -1.
        -11    1    4    4    0    0 -0.43439115487E+01  0.79516016462E+01 -0.12008819134E+02  0.15043579146E+02  0.51100000000E-03 0.  1.
         12    1    4    4    0    0 -0.19848306043E+02  0.15926695771E+01 -0.89923123348E+01  0.21848421688E+02  0.00000000000E+00 0. -1.
</event>
<event>
 8    1  0.1278459E-006  0.9118800E+02  0.7816164E-02  0.1184000E+00
        -11   -1    0    0    0    0  0.00000000000E+00  0.00000000000E+00  0.45593999997E+02  0.45594000000E+02  0.51100000000E-03 0.  1.
         11   -1    0    0    0    0 -0.00000000000E+00 -0.00000000000E+00 -0.45593999997E+02  0.45594000000E+02  0.51100000000E-03 0. -1.
         23    2    1    2    0    0 -0.17763568394E-14  0.00000000000E+00  0.00000000000E+00  0.91188000000E+02  0.91188000000E+02 0.  0.
    9900012    2    3    3    0    0  0.15453561406E+02 -0.27203037965E+02  0.19415526655E+02  0.54367075108E+02  0.39999979323E+02 0.  0.
         12    1    3    3    0    0 -0.15453561406E+02  0.27203037965E+02 -0.19415526655E+02  0.36820924892E+02  0.00000000000E+00 0. -1.
         11    1    4    4    0    0  0.48492643465E+01 -0.13264890448E+02 -0.36460242592E+01  0.14586506658E+02  0.51100000000E-03 0. -1.
        -11    1    4    4    0    0  0.19164982569E+02 -0.13618707082E+02  0.14256153742E+02  0.27495520712E+02  0.51100000000E-03 0.  1.
         12    1    4    4    0    0 -0.85606855091E+01 -0.31944043491E+00  0.88053971714E+01  0.12285047738E+02  0.00000000000E+00 0. -1.
</event>
<event>
 8    1  0.1278459E-006  0.9118800E+02  0.7816164E-02  0.1184000E+00
        -11   -1    0    0    0    0  0.00000000000E+00  0.00000000000E+00  0.45593999997E+02  0.45594000000E+02  0.51100000000E-03 0.  1.
         11   -1    0    0    0    0 -0.00000000000E+00 -0.00000000000E+00 -0.45593999997E+02  0.45594000000E+02  0.51100000000E-03 0. -1.
         23    2    1    2    0    0 -0.13322676296E-14 -0.35527136788E-14  0.00000000000E+00  0.91188000000E+02  0.91188000000E+02 0.  0.
    9900012    2    3    3    0    0  0.33653991197E+01  0.31893596049E+02 -0.18090105201E+02  0.54367091723E+02  0.40000017200E+02 0.  0.
        -12    1    3    3    0    0 -0.33653991197E+01 -0.31893596049E+02  0.18090105201E+02  0.36820908277E+02  0.00000000000E+00 0.  1.
         11    1    4    4    0    0 -0.38524021395E+01 -0.42930458434E+01  0.44800466822E+01  0.73035651153E+01  0.51100000000E-03 0. -1.
        -11    1    4    4    0    0 -0.16538899603E+01 -0.65846298944E+00 -0.49676294629E+01  0.52769563435E+01  0.51100000000E-03 0.  1.
         12    1    4    4    0    0  0.88716912195E+01  0.36845104882E+02 -0.17602522420E+02  0.41786570264E+02  0.00000000000E+00 0. -1.
</event>
<event>
 8    1  0.1278459E-006  0.9118800E+02  0.7816164E-02  0.1184000E+00
        -11   -1    0    0    0    0  0.00000000000E+00  0.00000000000E+00  0.45593999997E+02  0.45594000000E+02  0.51100000000E-03 0. -1.
         11   -1    0    0    0    0 -0.00000000000E+00 -0.00000000000E+00 -0.45593999997E+02  0.45594000000E+02  0.51100000000E-03 0.  1.
         23    2    1    2    0    0  0.00000000000E+00  0.00000000000E+00  0.00000000000E+00  0.91188000000E+02  0.91188000000E+02 0.  0.
    9900012    2    3    3    0    0  0.71570670035E+01 -0.34825729908E+02 -0.95773420405E+01  0.54367074533E+02  0.39999978013E+02 0.  0.
         12    1    3    3    0    0 -0.71570670035E+01  0.34825729908E+02  0.95773420405E+01  0.36820925467E+02  0.00000000000E+00 0. -1.
         11    1    4    4    0    0  0.14674221030E-01 -0.23558691147E+02 -0.52682243043E+01  0.24140553669E+02  0.51100000000E-03 0. -1.
        -11    1    4    4    0    0 -0.49070772984E+00 -0.15814601613E+02 -0.10857314402E+02  0.19189155649E+02  0.51100000000E-03 0.  1.
         12    1    4    4    0    0  0.76331005123E+01  0.45475628515E+01  0.65481966653E+01  0.11037365215E+02  0.00000000000E+00 0. -1.
</event>
<event>
 8    1  0.1278459E-006  0.9118800E+02  0.7816164E-02  0.1184000E+00
        -11   -1    0    0    0    0  0.00000000000E+00  0.00000000000E+00  0.45593999997E+02  0.45594000000E+02  0.51100000000E-03 0.  1.
         11   -1    0    0    0    0 -0.00000000000E+00 -0.00000000000E+00 -0.45593999997E+02  0.45594000000E+02  0.51100000000E-03 0. -1.
         23    2    1    2    0    0  0.00000000000E+00 -0.88817841970E-15  0.00000000000E+00  0.91188000000E+02  0.91188000000E+02 0.  0.
    9900012    2    3    3    0    0 -0.28858742795E+02  0.54691123348E+01 -0.22204485513E+02  0.54367117306E+02  0.40000075523E+02 0.  0.
        -12    1    3    3    0    0  0.28858742795E+02 -0.54691123348E+01  0.22204485513E+02  0.36820882694E+02  0.00000000000E+00 0.  1.
         11    1    4    4    0    0 -0.64241109962E+01 -0.50519646748E+01 -0.51396604648E+01  0.96544113814E+01  0.51100000000E-03 0. -1.
        -11    1    4    4    0    0 -0.19740919138E+02  0.21875542793E+02 -0.10243789128E+02  0.31195808643E+02  0.51100000000E-03 0.  1.
        -12    1    4    4    0    0 -0.26937126601E+01 -0.11354465783E+02 -0.68210359206E+01  0.13516897283E+02  0.00000000000E+00 0.  1.
</event>
<event>
 8    1  0.1278459E-006  0.9118800E+02  0.7816164E-02  0.1184000E+00
        -11   -1    0    0    0    0  0.00000000000E+00  0.00000000000E+00  0.45593999997E+02  0.45594000000E+02  0.51100000000E-03 0.  1.
         11   -1    0    0    0    0 -0.00000000000E+00 -0.00000000000E+00 -0.45593999997E+02  0.45594000000E+02  0.51100000000E-03 0. -1.
         23    2    1    2    0    0 -0.66613381478E-15  0.00000000000E+00  0.35527136788E-14  0.91188000000E+02  0.91188000000E+02 0.  0.
    9900012    2    3    3    0    0 -0.15505456799E+01  0.27539311786E+02 -0.24391903721E+02  0.54367043295E+02  0.39999906800E+02 0.  0.
        -12    1    3    3    0    0  0.15505456799E+01 -0.27539311786E+02  0.24391903721E+02  0.36820956705E+02  0.00000000000E+00 0.  1.
         11    1    4    4    0    0  0.39025699250E+01  0.11414994147E+02 -0.90080431347E+01  0.15055795720E+02  0.51100000000E-03 0. -1.
        -11    1    4    4    0    0  0.82924067237E+01  0.15364680469E+02  0.15028505102E+01  0.17524154048E+02  0.51100000000E-03 0.  1.
         12    1    4    4    0    0 -0.13745522329E+02  0.75963716988E+00 -0.16886711096E+02  0.21787093527E+02  0.00000000000E+00 0. -1.
</event>
<event>
 8    1  0.1278459E-006  0.9118800E+02  0.7816164E-02  0.1184000E+00
        -11   -1    0    0    0    0  0.00000000000E+00  0.00000000000E+00  0.45593999997E+02  0.45594000000E+02  0.51100000000E-03 0.  1.
         11   -1    0    0    0    0 -0.00000000000E+00 -0.00000000000E+00 -0.45593999997E+02  0.45594000000E+02  0.51100000000E-03 0. -1.
         23    2    1    2    0    0  0.00000000000E+00  0.10658141036E-13  0.00000000000E+00  0.91188000000E+02  0.91188000000E+02 0.  0.
    9900012    2    3    3    0    0 -0.20941508600E+02  0.29974951011E+02  0.43286907610E+01  0.54367054408E+02  0.39999932134E+02 0.  0.
        -12    1    3    3    0    0  0.20941508600E+02 -0.29974951011E+02 -0.43286907610E+01  0.36820945592E+02  0.00000000000E+00 0.  1.
         11    1    4    4    0    0 -0.16117444207E+02  0.34553704203E+02  0.91874637396E+01  0.39219127631E+02  0.51100000000E-03 0. -1.
        -11    1    4    4    0    0 -0.66119468816E+01 -0.52394371312E+01  0.14478669936E+01  0.85595480084E+01  0.51100000000E-03 0.  1.
        -12    1    4    4    0    0  0.17878824883E+01  0.66068393883E+00 -0.63066399721E+01  0.65883787685E+01  0.00000000000E+00 0.  1.
</event>
<event>
 8    1  0.1278459E-006  0.9118800E+02  0.7816164E-02  0.1184000E+00
        -11   -1    0    0    0    0  0.00000000000E+00  0.00000000000E+00  0.45593999997E+02  0.45594000000E+02  0.51100000000E-03 0. -1.
         11   -1    0    0    0    0 -0.00000000000E+00 -0.00000000000E+00 -0.45593999997E+02  0.45594000000E+02  0.51100000000E-03 0.  1.
         23    2    1    2    0    0 -0.88817841970E-15  0.00000000000E+00  0.00000000000E+00  0.91188000000E+02  0.91188000000E+02 0.  0.
    9900012    2    3    3    0    0 -0.69795799280E+01  0.12179329803E+02 -0.34040106372E+02  0.54367089470E+02  0.40000012065E+02 0.  0.
         12    1    3    3    0    0  0.69795799280E+01 -0.12179329803E+02  0.34040106372E+02  0.36820910530E+02  0.00000000000E+00 0. -1.
         11    1    4    4    0    0  0.10337578858E+01  0.10494890516E+02 -0.72640826369E+01  0.12805400389E+02  0.51100000000E-03 0. -1.
        -11    1    4    4    0    0  0.44580694628E+01  0.77075807781E+01 -0.26231272061E+02  0.27701278291E+02  0.51100000000E-03 0.  1.
         12    1    4    4    0    0 -0.12471407277E+02 -0.60231414907E+01 -0.54475167491E+00  0.13860410790E+02  0.00000000000E+00 0. -1.
</event>
<event>
 8    1  0.1278459E-006  0.9118800E+02  0.7816164E-02  0.1184000E+00
        -11   -1    0    0    0    0  0.00000000000E+00  0.00000000000E+00  0.45593999997E+02  0.45594000000E+02  0.51100000000E-03 0. -1.
         11   -1    0    0    0    0 -0.00000000000E+00 -0.00000000000E+00 -0.45593999997E+02  0.45594000000E+02  0.51100000000E-03 0.  1.
         23    2    1    2    0    0  0.00000000000E+00  0.00000000000E+00  0.00000000000E+00  0.91188000000E+02  0.91188000000E+02 0.  0.
    9900012    2    3    3    0    0 -0.13385524113E+02 -0.18918266709E+02 -0.28613054960E+02  0.54367082233E+02  0.39999995566E+02 0.  0.
         12    1    3    3    0    0  0.13385524113E+02  0.18918266709E+02  0.28613054960E+02  0.36820917767E+02  0.00000000000E+00 0. -1.
         11    1    4    4    0    0  0.60440309716E+01 -0.41178677326E+00  0.15286145477E+00  0.60599707604E+01  0.51100000000E-03 0. -1.
        -11    1    4    4    0    0 -0.16909185461E+02 -0.23026709891E+02 -0.12401792901E+02  0.31144090752E+02  0.51100000000E-03 0.  1.
        -12    1    4    4    0    0 -0.25203696232E+01  0.45202299546E+01 -0.16364123514E+02  0.17163020720E+02  0.00000000000E+00 0.  1.
</event>
<event>
 8    1  0.1278459E-006  0.9118800E+02  0.7816164E-02  0.1184000E+00
        -11   -1    0    0    0    0  0.00000000000E+00  0.00000000000E+00  0.45593999997E+02  0.45594000000E+02  0.51100000000E-03 0.  1.
         11   -1    0    0    0    0 -0.00000000000E+00 -0.00000000000E+00 -0.45593999997E+02  0.45594000000E+02  0.51100000000E-03 0. -1.
         23    2    1    2    0    0  0.88817841970E-15  0.00000000000E+00  0.17763568394E-14  0.91188000000E+02  0.91188000000E+02 0.  0.
    9900012    2    3    3    0    0 -0.70843727493E+01 -0.32547527381E+02 -0.15692374872E+02  0.54367075175E+02  0.39999979475E+02 0.  0.
        -12    1    3    3    0    0  0.70843727493E+01  0.32547527381E+02  0.15692374872E+02  0.36820924825E+02  0.00000000000E+00 0.  1.
         11    1    4    4    0    0 -0.48010149113E+01 -0.51572621453E+01 -0.10935566339E+02  0.13008985681E+02  0.51100000000E-03 0. -1.
        -11    1    4    4    0    0  0.45211880403E+01 -0.21912586676E+02 -0.15716915186E+02  0.27342714191E+02  0.51100000000E-03 0.  1.
        -12    1    4    4    0    0 -0.68045458783E+01 -0.54776785601E+01  0.10960106653E+02  0.14015375303E+02  0.00000000000E+00 0.  1.
</event>
<event>
 8    1  0.1278459E-006  0.9118800E+02  0.7816164E-02  0.1184000E+00
        -11   -1    0    0    0    0  0.00000000000E+00  0.00000000000E+00  0.45593999997E+02  0.45594000000E+02  0.51100000000E-03 0. -1.
         11   -1    0    0    0    0 -0.00000000000E+00 -0.00000000000E+00 -0.45593999997E+02  0.45594000000E+02  0.51100000000E-03 0.  1.
         23    2    1    2    0    0  0.00000000000E+00  0.35527136788E-14  0.00000000000E+00  0.91188000000E+02  0.91188000000E+02 0.  0.
    9900012    2    3    3    0    0 -0.30327727007E+02  0.20455694612E+02 -0.41921990061E+01  0.54367068453E+02  0.39999964153E+02 0.  0.
         12    1    3    3    0    0  0.30327727007E+02 -0.20455694612E+02  0.41921990061E+01  0.36820931547E+02  0.00000000000E+00 0. -1.
         11    1    4    4    0    0  0.11715681962E+01  0.13181297250E+02  0.40432313340E+01  0.13837156106E+02  0.51100000000E-03 0. -1.
        -11    1    4    4    0    0 -0.11878733823E+01 -0.15951772509E+01 -0.87197969374E+01  0.89437404102E+01  0.51100000000E-03 0.  1.
        -12    1    4    4    0    0 -0.30311421821E+02  0.88695746133E+01  0.48436659734E+00  0.31586171937E+02  0.00000000000E+00 0.  1.
</event>
<event>
 8    1  0.1278459E-006  0.9118800E+02  0.7816164E-02  0.1184000E+00
        -11   -1    0    0    0    0  0.00000000000E+00  0.00000000000E+00  0.45593999997E+02  0.45594000000E+02  0.51100000000E-03 0. -1.
         11   -1    0    0    0    0 -0.00000000000E+00 -0.00000000000E+00 -0.45593999997E+02  0.45594000000E+02  0.51100000000E-03 0.  1.
         23    2    1    2    0    0  0.00000000000E+00  0.00000000000E+00  0.00000000000E+00  0.91188000000E+02  0.91188000000E+02 0.  0.
    9900012    2    3    3    0    0 -0.32194238816E+02  0.17488367882E+02  0.36698775076E+01  0.54367081692E+02  0.39999994334E+02 0.  0.
        -12    1    3    3    0    0  0.32194238816E+02 -0.17488367882E+02 -0.36698775076E+01  0.36820918308E+02  0.00000000000E+00 0.  1.
         11    1    4    4    0    0 -0.82515685994E+01  0.81316656566E+01 -0.61415749798E+00  0.11601274085E+02  0.51100000000E-03 0. -1.
        -11    1    4    4    0    0 -0.20643072160E+02  0.21086846478E+02 -0.90150272977E+00  0.29522944128E+02  0.51100000000E-03 0.  1.
        -12    1    4    4    0    0 -0.32995980565E+01 -0.11730144252E+02  0.51855377354E+01  0.13242863479E+02  0.00000000000E+00 0.  1.
</event>
<event>
 8    1  0.1278459E-006  0.9118800E+02  0.7816164E-02  0.1184000E+00
        -11   -1    0    0    0    0  0.00000000000E+00  0.00000000000E+00  0.45593999997E+02  0.45594000000E+02  0.51100000000E-03 0.  1.
         11   -1    0    0    0    0 -0.00000000000E+00 -0.00000000000E+00 -0.45593999997E+02  0.45594000000E+02  0.51100000000E-03 0. -1.
         23    2    1    2    0    0 -0.35527136788E-14 -0.35527136788E-14  0.00000000000E+00  0.91188000000E+02  0.91188000000E+02 0.  0.
    9900012    2    3    3    0    0 -0.24647511437E+02 -0.16719679113E+02  0.21650214616E+02  0.54367091773E+02  0.40000017316E+02 0.  0.
         12    1    3    3    0    0  0.24647511437E+02  0.16719679113E+02 -0.21650214616E+02  0.36820908227E+02  0.00000000000E+00 0. -1.
         11    1    4    4    0    0 -0.13120211556E+02 -0.65031678283E+01  0.19889190777E+02  0.24698401833E+02  0.51100000000E-03 0. -1.
        -11    1    4    4    0    0 -0.41582971378E+01 -0.17186412393E+02  0.60041415246E+01  0.18673883413E+02  0.51100000000E-03 0.  1.
        -12    1    4    4    0    0 -0.73690027436E+01  0.69699011078E+01 -0.42431176853E+01  0.10994806528E+02  0.00000000000E+00 0.  1.
</event>
<event>
 8    1  0.1278459E-006  0.9118800E+02  0.7816164E-02  0.1184000E+00
        -11   -1    0    0    0    0  0.00000000000E+00  0.00000000000E+00  0.45593999997E+02  0.45594000000E+02  0.51100000000E-03 0.  1.
         11   -1    0    0    0    0 -0.00000000000E+00 -0.00000000000E+00 -0.45593999997E+02  0.45594000000E+02  0.51100000000E-03 0. -1.
         23    2    1    2    0    0  0.17763568394E-14  0.35527136788E-14  0.00000000000E+00  0.91188000000E+02  0.91188000000E+02 0.  0.
    9900012    2    3    3    0    0  0.95628925637E+01  0.18058757554E+02  0.30630199328E+02  0.54367126172E+02  0.40000095733E+02 0.  0.
         12    1    3    3    0    0 -0.95628925637E+01 -0.18058757554E+02 -0.30630199328E+02  0.36820873828E+02  0.00000000000E+00 0. -1.
         11    1    4    4    0    0  0.20081442842E+01  0.16702020915E+02  0.39337736317E+01  0.17276131551E+02  0.51100000000E-03 0. -1.
        -11    1    4    4    0    0  0.10532314045E+02  0.10876620995E+02  0.19968701973E+02  0.25059520789E+02  0.51100000000E-03 0.  1.
         12    1    4    4    0    0 -0.29775657657E+01 -0.95198843568E+01  0.67277237242E+01  0.12031473832E+02  0.00000000000E+00 0. -1.
</event>
<event>
 8    1  0.1278459E-006  0.9118800E+02  0.7816164E-02  0.1184000E+00
        -11   -1    0    0    0    0  0.00000000000E+00  0.00000000000E+00  0.45593999997E+02  0.45594000000E+02  0.51100000000E-03 0.  1.
         11   -1    0    0    0    0 -0.00000000000E+00 -0.00000000000E+00 -0.45593999997E+02  0.45594000000E+02  0.51100000000E-03 0. -1.
         23    2    1    2    0    0  0.00000000000E+00 -0.35527136788E-14  0.00000000000E+00  0.91188000000E+02  0.91188000000E+02 0.  0.
    9900012    2    3    3    0    0  0.16391762828E+02 -0.26421157434E+02 -0.19723387385E+02  0.54367089383E+02  0.40000011865E+02 0.  0.
         12    1    3    3    0    0 -0.16391762828E+02  0.26421157434E+02  0.19723387385E+02  0.36820910617E+02  0.00000000000E+00 0. -1.
         11    1    4    4    0    0  0.34803723442E+01 -0.86628357038E+01  0.53338386246E+00  0.93510540952E+01  0.51100000000E-03 0. -1.
        -11    1    4    4    0    0  0.11245977293E+02 -0.27617761069E+02 -0.12381315685E+02  0.32287918950E+02  0.51100000000E-03 0.  1.
         12    1    4    4    0    0  0.16654131916E+01  0.98594393395E+01 -0.78754555625E+01  0.12728116338E+02  0.00000000000E+00 0. -1.
</event>
<event>
 8    1  0.1278459E-006  0.9118800E+02  0.7816164E-02  0.1184000E+00
        -11   -1    0    0    0    0  0.00000000000E+00  0.00000000000E+00  0.45593999997E+02  0.45594000000E+02  0.51100000000E-03 0. -1.
         11   -1    0    0    0    0 -0.00000000000E+00 -0.00000000000E+00 -0.45593999997E+02  0.45594000000E+02  0.51100000000E-03 0.  1.
         23    2    1    2    0    0  0.17763568394E-14  0.00000000000E+00  0.00000000000E+00  0.91188000000E+02  0.91188000000E+02 0.  0.
    9900012    2    3    3    0    0  0.12156094087E+02  0.33012264443E+02  0.10871967257E+02  0.54367083402E+02  0.39999998231E+02 0.  0.
         12    1    3    3    0    0 -0.12156094087E+02 -0.33012264443E+02 -0.10871967257E+02  0.36820916598E+02  0.00000000000E+00 0. -1.
         11    1    4    4    0    0  0.58707478057E+01  0.18149834167E+02  0.83790351831E+00  0.19094089207E+02  0.51100000000E-03 0. -1.
        -11    1    4    4    0    0  0.10377818216E+02  0.13359749152E+02 -0.65385418377E+01  0.18136552537E+02  0.51100000000E-03 0.  1.
         12    1    4    4    0    0 -0.40924719338E+01  0.15026811245E+01  0.16572605576E+02  0.17136441657E+02  0.00000000000E+00 0. -1.
</event>
<event>
 8    1  0.1278459E-006  0.9118800E+02  0.7816164E-02  0.1184000E+00
        -11   -1    0    0    0    0  0.00000000000E+00  0.00000000000E+00  0.45593999997E+02  0.45594000000E+02  0.51100000000E-03 0.  1.
         11   -1    0    0    0    0 -0.00000000000E+00 -0.00000000000E+00 -0.45593999997E+02  0.45594000000E+02  0.51100000000E-03 0. -1.
         23    2    1    2    0    0 -0.88817841970E-15  0.00000000000E+00 -0.71054273576E-14  0.91188000000E+02  0.91188000000E+02 0.  0.
    9900012    2    3    3    0    0  0.24904086072E+01 -0.31889691146E+02  0.18238017125E+02  0.54367084679E+02  0.40000001142E+02 0.  0.
        -12    1    3    3    0    0 -0.24904086072E+01  0.31889691146E+02 -0.18238017125E+02  0.36820915321E+02  0.00000000000E+00 0.  1.
         11    1    4    4    0    0  0.86420932051E+00 -0.14848293985E+02  0.21594232862E+02  0.26220785365E+02  0.51100000000E-03 0. -1.
        -11    1    4    4    0    0  0.11301501497E+02 -0.13036902800E+02 -0.36985687711E+00  0.17257507498E+02  0.51100000000E-03 0.  1.
        -12    1    4    4    0    0 -0.96753022101E+01 -0.40044943620E+01 -0.29863588598E+01  0.10888791815E+02  0.00000000000E+00 0.  1.
</event>
<event>
 8    1  0.1278459E-006  0.9118800E+02  0.7816164E-02  0.1184000E+00
        -11   -1    0    0    0    0  0.00000000000E+00  0.00000000000E+00  0.45593999997E+02  0.45594000000E+02  0.51100000000E-03 0.  1.
         11   -1    0    0    0    0 -0.00000000000E+00 -0.00000000000E+00 -0.45593999997E+02  0.45594000000E+02  0.51100000000E-03 0. -1.
         23    2    1    2    0    0  0.17763568394E-14  0.35527136788E-14  0.00000000000E+00  0.91188000000E+02  0.91188000000E+02 0.  0.
    9900012    2    3    3    0    0 -0.94404614789E+01 -0.28953557394E+02 -0.20696649735E+02  0.54367053394E+02  0.39999929822E+02 0.  0.
        -12    1    3    3    0    0  0.94404614789E+01  0.28953557394E+02  0.20696649735E+02  0.36820946606E+02  0.00000000000E+00 0.  1.
         11    1    4    4    0    0 -0.20119949716E+02 -0.28045897815E+02 -0.86919827064E+01  0.35594034956E+02  0.51100000000E-03 0. -1.
        -11    1    4    4    0    0  0.67944375508E+01 -0.52300190279E+01 -0.64036401667E+01  0.10701592793E+02  0.51100000000E-03 0.  1.
         12    1    4    4    0    0  0.38850506862E+01  0.43223594486E+01 -0.56010268621E+01  0.80714256453E+01  0.00000000000E+00 0. -1.
</event>
<event>
 8    1  0.1278459E-006  0.9118800E+02  0.7816164E-02  0.1184000E+00
        -11   -1    0    0    0    0  0.00000000000E+00  0.00000000000E+00  0.45593999997E+02  0.45594000000E+02  0.51100000000E-03 0.  1.
         11   -1    0    0    0    0 -0.00000000000E+00 -0.00000000000E+00 -0.45593999997E+02  0.45594000000E+02  0.51100000000E-03 0. -1.
         23    2    1    2    0    0  0.35527136788E-14  0.00000000000E+00 -0.35527136788E-14  0.91188000000E+02  0.91188000000E+02 0.  0.
    9900012    2    3    3    0    0  0.23253276114E+02 -0.18422152115E+02 -0.21810354229E+02  0.54367053649E+02  0.39999930404E+02 0.  0.
         12    1    3    3    0    0 -0.23253276114E+02  0.18422152115E+02  0.21810354229E+02  0.36820946351E+02  0.00000000000E+00 0. -1.
         11    1    4    4    0    0  0.44211842327E+01  0.80403523200E+01 -0.80727531847E+01  0.12221435255E+02  0.51100000000E-03 0. -1.
        -11    1    4    4    0    0 -0.37830770232E+01 -0.65952479745E+00  0.20765604147E+01  0.43656326161E+01  0.51100000000E-03 0.  1.
         12    1    4    4    0    0  0.22615168905E+02 -0.25802979637E+02 -0.15814161459E+02  0.37779985778E+02  0.00000000000E+00 0. -1.
</event>
<event>
 8    1  0.1278459E-006  0.9118800E+02  0.7816164E-02  0.1184000E+00
        -11   -1    0    0    0    0  0.00000000000E+00  0.00000000000E+00  0.45593999997E+02  0.45594000000E+02  0.51100000000E-03 0.  1.
         11   -1    0    0    0    0 -0.00000000000E+00 -0.00000000000E+00 -0.45593999997E+02  0.45594000000E+02  0.51100000000E-03 0. -1.
         23    2    1    2    0    0  0.00000000000E+00  0.00000000000E+00  0.00000000000E+00  0.91188000000E+02  0.91188000000E+02 0.  0.
    9900012    2    3    3    0    0 -0.16203166788E+02  0.11730288839E+02  0.30913427006E+02  0.54367051350E+02  0.39999925163E+02 0.  0.
         12    1    3    3    0    0  0.16203166788E+02 -0.11730288839E+02 -0.30913427006E+02  0.36820948650E+02  0.00000000000E+00 0. -1.
         11    1    4    4    0    0  0.21655919370E+01 -0.91734088913E+01  0.28226739020E+01  0.98391415958E+01  0.51100000000E-03 0. -1.
        -11    1    4    4    0    0 -0.35195117444E+01  0.15273334230E+02  0.49017641471E+01  0.16422210370E+02  0.51100000000E-03 0.  1.
        -12    1    4    4    0    0 -0.14849246980E+02  0.56303635006E+01  0.23188988957E+02  0.28105699384E+02  0.00000000000E+00 0.  1.
</event>
<event>
 8    1  0.1278459E-006  0.9118800E+02  0.7816164E-02  0.1184000E+00
        -11   -1    0    0    0    0  0.00000000000E+00  0.00000000000E+00  0.45593999997E+02  0.45594000000E+02  0.51100000000E-03 0.  1.
         11   -1    0    0    0    0 -0.00000000000E+00 -0.00000000000E+00 -0.45593999997E+02  0.45594000000E+02  0.51100000000E-03 0. -1.
         23    2    1    2    0    0  0.00000000000E+00 -0.35527136788E-14  0.35527136788E-14  0.91188000000E+02  0.91188000000E+02 0.  0.
    9900012    2    3    3    0    0 -0.21117659257E+01 -0.20567069988E+02  0.30468293447E+02  0.54367070778E+02  0.39999969452E+02 0.  0.
         12    1    3    3    0    0  0.21117659257E+01  0.20567069988E+02 -0.30468293447E+02  0.36820929222E+02  0.00000000000E+00 0. -1.
         11    1    4    4    0    0 -0.96159308044E+01 -0.39359254622E+01  0.21752513614E+01  0.10615524162E+02  0.51100000000E-03 0. -1.
        -11    1    4    4    0    0  0.12582266237E+01 -0.23802090009E+02  0.19417355495E+02  0.30743394701E+02  0.51100000000E-03 0.  1.
        -12    1    4    4    0    0  0.62459382550E+01  0.71709454832E+01  0.88756865898E+01  0.13008151915E+02  0.00000000000E+00 0.  1.
</event>
<event>
 8    1  0.1278459E-006  0.9118800E+02  0.7816164E-02  0.1184000E+00
        -11   -1    0    0    0    0  0.00000000000E+00  0.00000000000E+00  0.45593999997E+02  0.45594000000E+02  0.51100000000E-03 0.  1.
         11   -1    0    0    0    0 -0.00000000000E+00 -0.00000000000E+00 -0.45593999997E+02  0.45594000000E+02  0.51100000000E-03 0. -1.
         23    2    1    2    0    0  0.00000000000E+00  0.00000000000E+00  0.00000000000E+00  0.91188000000E+02  0.91188000000E+02 0.  0.
    9900012    2    3    3    0    0  0.29940744935E+02  0.11244758035E+02 -0.18245198591E+02  0.54367081188E+02  0.39999993184E+02 0.  0.
        -12    1    3    3    0    0 -0.29940744935E+02 -0.11244758035E+02  0.18245198591E+02  0.36820918812E+02  0.00000000000E+00 0.  1.
         11    1    4    4    0    0  0.25934847505E+02 -0.13146220405E+01 -0.11796102339E+02  0.28521791263E+02  0.51100000000E-03 0. -1.
        -11    1    4    4    0    0 -0.41433630998E+00  0.17645983748E+02 -0.19853373288E+01  0.17762150252E+02  0.51100000000E-03 0.  1.
        -12    1    4    4    0    0  0.44202337399E+01 -0.50866036724E+01 -0.44637589239E+01  0.80831396726E+01  0.00000000000E+00 0.  1.
</event>
<event>
 8    1  0.1278459E-006  0.9118800E+02  0.7816164E-02  0.1184000E+00
        -11   -1    0    0    0    0  0.00000000000E+00  0.00000000000E+00  0.45593999997E+02  0.45594000000E+02  0.51100000000E-03 0.  1.
         11   -1    0    0    0    0 -0.00000000000E+00 -0.00000000000E+00 -0.45593999997E+02  0.45594000000E+02  0.51100000000E-03 0. -1.
         23    2    1    2    0    0  0.00000000000E+00  0.00000000000E+00 -0.35527136788E-14  0.91188000000E+02  0.91188000000E+02 0.  0.
    9900012    2    3    3    0    0  0.20762437057E+02 -0.25793138375E+02  0.16106386512E+02  0.54367075701E+02  0.39999980675E+02 0.  0.
         12    1    3    3    0    0 -0.20762437057E+02  0.25793138375E+02 -0.16106386512E+02  0.36820924299E+02  0.00000000000E+00 0. -1.
         11    1    4    4    0    0  0.84380805437E+01 -0.12919645700E+02  0.68808522101E+01  0.16895696957E+02  0.51100000000E-03 0. -1.
        -11    1    4    4    0    0  0.39354201101E+01 -0.12900057802E+02 -0.98046215939E+01  0.16674220449E+02  0.51100000000E-03 0.  1.
         12    1    4    4    0    0  0.83889364029E+01  0.26565126322E-01  0.19030155896E+02  0.20797158294E+02  0.00000000000E+00 0. -1.
</event>
<event>
 8    1  0.1278459E-006  0.9118800E+02  0.7816164E-02  0.1184000E+00
        -11   -1    0    0    0    0  0.00000000000E+00  0.00000000000E+00  0.45593999997E+02  0.45594000000E+02  0.51100000000E-03 0. -1.
         11   -1    0    0    0    0 -0.00000000000E+00 -0.00000000000E+00 -0.45593999997E+02  0.45594000000E+02  0.51100000000E-03 0.  1.
         23    2    1    2    0    0 -0.17763568394E-14  0.00000000000E+00 -0.11102230246E-14  0.91188000000E+02  0.91188000000E+02 0.  0.
    9900012    2    3    3    0    0 -0.55681789453E+01  0.36369154288E+02  0.14321210905E+01  0.54367204636E+02  0.40000274608E+02 0.  0.
         12    1    3    3    0    0  0.55681789453E+01 -0.36369154288E+02 -0.14321210905E+01  0.36820795364E+02  0.00000000000E+00 0. -1.
         11    1    4    4    0    0  0.22188227164E+00  0.34418250925E+01  0.13145291395E+02  0.13590219933E+02  0.51100000000E-03 0. -1.
        -11    1    4    4    0    0  0.56157367899E+01  0.17863777804E+01 -0.18934295741E+01  0.61897270603E+01  0.51100000000E-03 0.  1.
        -12    1    4    4    0    0 -0.11405798007E+02  0.31140951415E+02 -0.98197407302E+01  0.34587257643E+02  0.00000000000E+00 0.  1.
</event>
<event>
 8    1  0.1278459E-006  0.9118800E+02  0.7816164E-02  0.1184000E+00
        -11   -1    0    0    0    0  0.00000000000E+00  0.00000000000E+00  0.45593999997E+02  0.45594000000E+02  0.51100000000E-03 0.  1.
         11   -1    0    0    0    0 -0.00000000000E+00 -0.00000000000E+00 -0.45593999997E+02  0.45594000000E+02  0.51100000000E-03 0. -1.
         23    2    1    2    0    0  0.35527136788E-14  0.35527136788E-14  0.88817841970E-15  0.91188000000E+02  0.91188000000E+02 0.  0.
    9900012    2    3    3    0    0  0.20430282230E+02  0.30342056985E+02  0.42123979822E+01  0.54367066404E+02  0.39999959482E+02 0.  0.
         12    1    3    3    0    0 -0.20430282230E+02 -0.30342056985E+02 -0.42123979822E+01  0.36820933596E+02  0.00000000000E+00 0. -1.
         11    1    4    4    0    0  0.70337272047E+01 -0.68306086791E+01  0.10151137252E+02  0.14112977046E+02  0.51100000000E-03 0. -1.
        -11    1    4    4    0    0  0.27416426449E+01  0.10828304820E+02  0.24038668707E+00  0.11172581425E+02  0.51100000000E-03 0.  1.
         12    1    4    4    0    0  0.10654912381E+02  0.26344360844E+02 -0.61791259572E+01  0.29081507934E+02  0.00000000000E+00 0. -1.
</event>
<event>
 8    1  0.1278459E-006  0.9118800E+02  0.7816164E-02  0.1184000E+00
        -11   -1    0    0    0    0  0.00000000000E+00  0.00000000000E+00  0.45593999997E+02  0.45594000000E+02  0.51100000000E-03 0.  1.
         11   -1    0    0    0    0 -0.00000000000E+00 -0.00000000000E+00 -0.45593999997E+02  0.45594000000E+02  0.51100000000E-03 0. -1.
         23    2    1    2    0    0  0.00000000000E+00  0.00000000000E+00  0.35527136788E-14  0.91188000000E+02  0.91188000000E+02 0.  0.
    9900012    2    3    3    0    0  0.10575522258E+02  0.20914358696E+02 -0.28399438472E+02  0.54367079639E+02  0.39999989653E+02 0.  0.
        -12    1    3    3    0    0 -0.10575522258E+02 -0.20914358696E+02  0.28399438472E+02  0.36820920361E+02  0.00000000000E+00 0.  1.
         11    1    4    4    0    0  0.90612925554E+01  0.13994245485E+02 -0.18483304064E+02  0.24891333007E+02  0.51100000000E-03 0. -1.
        -11    1    4    4    0    0 -0.61061323604E+01  0.15200507641E+02 -0.45057472775E+01  0.16989468612E+02  0.51100000000E-03 0.  1.
         12    1    4    4    0    0  0.76203620631E+01 -0.82803944298E+01 -0.54103871302E+01  0.12486278020E+02  0.00000000000E+00 0. -1.
</event>
<event>
 8    1  0.1278459E-006  0.9118800E+02  0.7816164E-02  0.1184000E+00
        -11   -1    0    0    0    0  0.00000000000E+00  0.00000000000E+00  0.45593999997E+02  0.45594000000E+02  0.51100000000E-03 0. -1.
         11   -1    0    0    0    0 -0.00000000000E+00 -0.00000000000E+00 -0.45593999997E+02  0.45594000000E+02  0.51100000000E-03 0.  1.
         23    2    1    2    0    0 -0.17763568394E-14  0.00000000000E+00  0.00000000000E+00  0.91188000000E+02  0.91188000000E+02 0.  0.
    9900012    2    3    3    0    0 -0.88821667408E+01  0.24217556742E+01  0.35651330079E+02  0.54367148259E+02  0.40000146085E+02 0.  0.
        -12    1    3    3    0    0  0.88821667408E+01 -0.24217556742E+01 -0.35651330079E+02  0.36820851741E+02  0.00000000000E+00 0.  1.
         11    1    4    4    0    0 -0.15633062245E+02 -0.53223908519E+01  0.30971646229E+02  0.35099335463E+02  0.51100000000E-03 0. -1.
        -11    1    4    4    0    0  0.36175495207E+01 -0.43008969807E+01 -0.78587697022E+00  0.56746790435E+01  0.51100000000E-03 0.  1.
         12    1    4    4    0    0  0.31333459834E+01  0.12045043507E+02  0.54655608205E+01  0.13593133753E+02  0.00000000000E+00 0. -1.
</event>
<event>
 8    1  0.1278459E-006  0.9118800E+02  0.7816164E-02  0.1184000E+00
        -11   -1    0    0    0    0  0.00000000000E+00  0.00000000000E+00  0.45593999997E+02  0.45594000000E+02  0.51100000000E-03 0.  1.
         11   -1    0    0    0    0 -0.00000000000E+00 -0.00000000000E+00 -0.45593999997E+02  0.45594000000E+02  0.51100000000E-03 0. -1.
         23    2    1    2    0    0  0.00000000000E+00 -0.55511151231E-15  0.00000000000E+00  0.91188000000E+02  0.91188000000E+02 0.  0.
    9900012    2    3    3    0    0  0.31518902711E+02  0.70651018224E+00 -0.19022044769E+02  0.54367101424E+02  0.40000039316E+02 0.  0.
        -12    1    3    3    0    0 -0.31518902711E+02 -0.70651018224E+00  0.19022044769E+02  0.36820898576E+02  0.00000000000E+00 0.  1.
         11    1    4    4    0    0  0.18141697451E+01  0.12768243876E+02 -0.28094448355E-01  0.12896513215E+02  0.51100000000E-03 0. -1.
        -11    1    4    4    0    0  0.24673250607E+01 -0.87965522273E+01 -0.71007738475E+01  0.11570998813E+02  0.51100000000E-03 0.  1.
        -12    1    4    4    0    0  0.27237407906E+02 -0.32651814665E+01 -0.11893176473E+02  0.29899589396E+02  0.00000000000E+00 0.  1.
</event>
<event>
 8    1  0.1278459E-006  0.9118800E+02  0.7816164E-02  0.1184000E+00
        -11   -1    0    0    0    0  0.00000000000E+00  0.00000000000E+00  0.45593999997E+02  0.45594000000E+02  0.51100000000E-03 0.  1.
         11   -1    0    0    0    0 -0.00000000000E+00 -0.00000000000E+00 -0.45593999997E+02  0.45594000000E+02  0.51100000000E-03 0. -1.
         23    2    1    2    0    0 -0.35527136788E-14  0.35527136788E-14  0.00000000000E+00  0.91188000000E+02  0.91188000000E+02 0.  0.
    9900012    2    3    3    0    0 -0.25388671807E+02  0.26279809330E+02  0.45349965288E+01  0.54367092514E+02  0.40000019005E+02 0.  0.
        -12    1    3    3    0    0  0.25388671807E+02 -0.26279809330E+02 -0.45349965288E+01  0.36820907486E+02  0.00000000000E+00 0.  1.
         11    1    4    4    0    0 -0.14741496440E+02  0.83737276823E+01  0.16187591756E+02  0.23440758514E+02  0.51100000000E-03 0. -1.
        -11    1    4    4    0    0 -0.33733174155E+01 -0.34755029076E+01 -0.58750007792E+01  0.76140675899E+01  0.51100000000E-03 0.  1.
         12    1    4    4    0    0 -0.72738579521E+01  0.21381584555E+02 -0.57775944484E+01  0.23312266410E+02  0.00000000000E+00 0. -1.
</event>
<event>
 8    1  0.1278459E-006  0.9118800E+02  0.7816164E-02  0.1184000E+00
        -11   -1    0    0    0    0  0.00000000000E+00  0.00000000000E+00  0.45593999997E+02  0.45594000000E+02  0.51100000000E-03 0.  1.
         11   -1    0    0    0    0 -0.00000000000E+00 -0.00000000000E+00 -0.45593999997E+02  0.45594000000E+02  0.51100000000E-03 0. -1.
         23    2    1    2    0    0 -0.35527136788E-14  0.00000000000E+00  0.00000000000E+00  0.91188000000E+02  0.91188000000E+02 0.  0.
    9900012    2    3    3    0    0 -0.30987105309E+02  0.19873190036E+02  0.79825944376E+00  0.54367060363E+02  0.39999945710E+02 0.  0.
         12    1    3    3    0    0  0.30987105309E+02 -0.19873190036E+02 -0.79825944376E+00  0.36820939637E+02  0.00000000000E+00 0. -1.
         11    1    4    4    0    0 -0.21014106664E+02 -0.13889231908E+01  0.27462278679E+01  0.21238256856E+02  0.51100000000E-03 0. -1.
        -11    1    4    4    0    0 -0.11493118019E+02 -0.86422174107E-01 -0.23094077072E+01  0.11723164880E+02  0.51100000000E-03 0.  1.
        -12    1    4    4    0    0  0.15201193744E+01  0.21348535401E+02  0.36143928309E+00  0.21405638627E+02  0.00000000000E+00 0.  1.
</event>
<event>
 8    1  0.1278459E-006  0.9118800E+02  0.7816164E-02  0.1184000E+00
        -11   -1    0    0    0    0  0.00000000000E+00  0.00000000000E+00  0.45593999997E+02  0.45594000000E+02  0.51100000000E-03 0.  1.
         11   -1    0    0    0    0 -0.00000000000E+00 -0.00000000000E+00 -0.45593999997E+02  0.45594000000E+02  0.51100000000E-03 0. -1.
         23    2    1    2    0    0  0.00000000000E+00  0.00000000000E+00  0.00000000000E+00  0.91188000000E+02  0.91188000000E+02 0.  0.
    9900012    2    3    3    0    0 -0.18310570399E+02  0.20901222223E+02  0.24158646494E+02  0.54367105399E+02  0.40000048379E+02 0.  0.
         12    1    3    3    0    0  0.18310570399E+02 -0.20901222223E+02 -0.24158646494E+02  0.36820894601E+02  0.00000000000E+00 0. -1.
         11    1    4    4    0    0 -0.11182701588E+01  0.12468562188E+02  0.44766013104E+01  0.13294943804E+02  0.51100000000E-03 0. -1.
        -11    1    4    4    0    0  0.67010706547E+00 -0.24726250560E+00 -0.74301802394E+01  0.74644330580E+01  0.51100000000E-03 0.  1.
        -12    1    4    4    0    0 -0.17862407306E+02  0.86799225407E+01  0.27112225423E+02  0.33607728538E+02  0.00000000000E+00 0.  1.
</event>
<event>
 8    1  0.1278459E-006  0.9118800E+02  0.7816164E-02  0.1184000E+00
        -11   -1    0    0    0    0  0.00000000000E+00  0.00000000000E+00  0.45593999997E+02  0.45594000000E+02  0.51100000000E-03 0.  1.
         11   -1    0    0    0    0 -0.00000000000E+00 -0.00000000000E+00 -0.45593999997E+02  0.45594000000E+02  0.51100000000E-03 0. -1.
         23    2    1    2    0    0  0.13322676296E-14  0.71054273576E-14  0.66613381478E-15  0.91188000000E+02  0.91188000000E+02 0.  0.
    9900012    2    3    3    0    0  0.59312442531E+00 -0.36783510045E+02 -0.15493197326E+01  0.54367098335E+02  0.40000032274E+02 0.  0.
         12    1    3    3    0    0 -0.59312442531E+00  0.36783510045E+02  0.15493197326E+01  0.36820901665E+02  0.00000000000E+00 0. -1.
         11    1    4    4    0    0 -0.89846328886E+01 -0.82675837297E+01  0.82589086127E+01  0.14740628908E+02  0.51100000000E-03 0. -1.
        -11    1    4    4    0    0 -0.69629902749E+01 -0.15027047303E+02 -0.11765293283E+01  0.16603602192E+02  0.51100000000E-03 0.  1.
        -12    1    4    4    0    0  0.16540747589E+02 -0.13488879012E+02 -0.86316990171E+01  0.23022867235E+02  0.00000000000E+00 0.  1.
</event>
<event>
 8    1  0.1278459E-006  0.9118800E+02  0.7816164E-02  0.1184000E+00
        -11   -1    0    0    0    0  0.00000000000E+00  0.00000000000E+00  0.45593999997E+02  0.45594000000E+02  0.51100000000E-03 0.  1.
         11   -1    0    0    0    0 -0.00000000000E+00 -0.00000000000E+00 -0.45593999997E+02  0.45594000000E+02  0.51100000000E-03 0. -1.
         23    2    1    2    0    0  0.00000000000E+00  0.00000000000E+00  0.00000000000E+00  0.91188000000E+02  0.91188000000E+02 0.  0.
    9900012    2    3    3    0    0 -0.17550451636E+02  0.42589216994E+01  0.32087699145E+02  0.54367120012E+02  0.40000081692E+02 0.  0.
         12    1    3    3    0    0  0.17550451636E+02 -0.42589216994E+01 -0.32087699145E+02  0.36820879988E+02  0.00000000000E+00 0. -1.
         11    1    4    4    0    0 -0.60992642566E+01 -0.61427259867E+01  0.28130091641E+01  0.91020397625E+01  0.51100000000E-03 0. -1.
        -11    1    4    4    0    0 -0.13640540385E+02  0.18332843636E+02  0.29146643658E+02  0.37036257027E+02  0.51100000000E-03 0.  1.
        -12    1    4    4    0    0  0.21893530053E+01 -0.79311959499E+01  0.12804632272E+00  0.82288232232E+01  0.00000000000E+00 0.  1.
</event>
<event>
 8    1  0.1278459E-006  0.9118800E+02  0.7816164E-02  0.1184000E+00
        -11   -1    0    0    0    0  0.00000000000E+00  0.00000000000E+00  0.45593999997E+02  0.45594000000E+02  0.51100000000E-03 0.  1.
         11   -1    0    0    0    0 -0.00000000000E+00 -0.00000000000E+00 -0.45593999997E+02  0.45594000000E+02  0.51100000000E-03 0. -1.
         23    2    1    2    0    0  0.00000000000E+00 -0.22204460493E-14 -0.35527136788E-14  0.91188000000E+02  0.91188000000E+02 0.  0.
    9900012    2    3    3    0    0 -0.24256887937E+02  0.20463988554E+01 -0.27626002711E+02  0.54367076784E+02  0.39999983144E+02 0.  0.
        -12    1    3    3    0    0  0.24256887937E+02 -0.20463988554E+01  0.27626002711E+02  0.36820923216E+02  0.00000000000E+00 0.  1.
         11    1    4    4    0    0 -0.86599104133E+01 -0.83291921139E+01 -0.12455865731E+02  0.17306590681E+02  0.51100000000E-03 0.  1.
        -11    1    4    4    0    0 -0.21637028905E+02  0.14676065429E+02 -0.13642712795E+02  0.29490193776E+02  0.51100000000E-03 0. -1.
        -12    1    4    4    0    0  0.60400513807E+01 -0.43004744600E+01 -0.15274241852E+01  0.75702923262E+01  0.00000000000E+00 0.  1.
</event>
<event>
 8    1  0.1278459E-006  0.9118800E+02  0.7816164E-02  0.1184000E+00
        -11   -1    0    0    0    0  0.00000000000E+00  0.00000000000E+00  0.45593999997E+02  0.45594000000E+02  0.51100000000E-03 0.  1.
         11   -1    0    0    0    0 -0.00000000000E+00 -0.00000000000E+00 -0.45593999997E+02  0.45594000000E+02  0.51100000000E-03 0. -1.
         23    2    1    2    0    0  0.17763568394E-14  0.00000000000E+00  0.00000000000E+00  0.91188000000E+02  0.91188000000E+02 0.  0.
    9900012    2    3    3    0    0  0.87190968682E+01 -0.34647510640E+02  0.89054340964E+01  0.54367090177E+02  0.40000013677E+02 0.  0.
        -12    1    3    3    0    0 -0.87190968682E+01  0.34647510640E+02 -0.89054340964E+01  0.36820909823E+02  0.00000000000E+00 0.  1.
         11    1    4    4    0    0  0.71635443263E+01 -0.23285874329E+02  0.18097024362E+02  0.30348815489E+02  0.51100000000E-03 0. -1.
        -11    1    4    4    0    0 -0.55977162916E+01  0.28427735104E+01 -0.23160718328E+01  0.66917843591E+01  0.51100000000E-03 0.  1.
         12    1    4    4    0    0  0.71532688336E+01 -0.14204409822E+02 -0.68755184333E+01  0.17326490329E+02  0.00000000000E+00 0. -1.
</event>
<event>
 8    1  0.1278459E-006  0.9118800E+02  0.7816164E-02  0.1184000E+00
        -11   -1    0    0    0    0  0.00000000000E+00  0.00000000000E+00  0.45593999997E+02  0.45594000000E+02  0.51100000000E-03 0.  1.
         11   -1    0    0    0    0 -0.00000000000E+00 -0.00000000000E+00 -0.45593999997E+02  0.45594000000E+02  0.51100000000E-03 0. -1.
         23    2    1    2    0    0  0.35527136788E-14  0.35527136788E-14  0.35527136788E-14  0.91188000000E+02  0.91188000000E+02 0.  0.
    9900012    2    3    3    0    0  0.20780650144E+02  0.22884574844E+02  0.20005983633E+02  0.54367101487E+02  0.40000039460E+02 0.  0.
         12    1    3    3    0    0 -0.20780650144E+02 -0.22884574844E+02 -0.20005983633E+02  0.36820898513E+02  0.00000000000E+00 0. -1.
         11    1    4    4    0    0  0.92294734462E+01  0.13075183706E+02 -0.74597393081E+01  0.17657613651E+02  0.51100000000E-03 0. -1.
        -11    1    4    4    0    0  0.26847914502E+00 -0.42445223774E+01  0.12755127972E+02  0.13445495197E+02  0.51100000000E-03 0.  1.
        -12    1    4    4    0    0  0.11282697553E+02  0.14053913515E+02  0.14710594969E+02  0.23263992639E+02  0.00000000000E+00 0.  1.
</event>
<event>
 8    1  0.1278459E-006  0.9118800E+02  0.7816164E-02  0.1184000E+00
        -11   -1    0    0    0    0  0.00000000000E+00  0.00000000000E+00  0.45593999997E+02  0.45594000000E+02  0.51100000000E-03 0. -1.
         11   -1    0    0    0    0 -0.00000000000E+00 -0.00000000000E+00 -0.45593999997E+02  0.45594000000E+02  0.51100000000E-03 0.  1.
         23    2    1    2    0    0 -0.88817841970E-15  0.00000000000E+00  0.00000000000E+00  0.91188000000E+02  0.91188000000E+02 0.  0.
    9900012    2    3    3    0    0 -0.66612027922E+01 -0.36114232470E+02  0.26776712653E+01  0.54367091090E+02  0.40000015758E+02 0.  0.
        -12    1    3    3    0    0  0.66612027922E+01  0.36114232470E+02 -0.26776712653E+01  0.36820908910E+02  0.00000000000E+00 0.  1.
         11    1    4    4    0    0 -0.56424187578E+01 -0.12573829861E+02  0.15472277090E+02  0.20720266538E+02  0.51100000000E-03 0. -1.
        -11    1    4    4    0    0 -0.22884379404E+01  0.16064670909E+01 -0.73805652877E+01  0.78924285837E+01  0.51100000000E-03 0.  1.
         12    1    4    4    0    0  0.12696539060E+01 -0.25146869700E+02 -0.54140405367E+01  0.25754395968E+02  0.00000000000E+00 0. -1.
</event>
<event>
 8    1  0.1278459E-006  0.9118800E+02  0.7816164E-02  0.1184000E+00
        -11   -1    0    0    0    0  0.00000000000E+00  0.00000000000E+00  0.45593999997E+02  0.45594000000E+02  0.51100000000E-03 0.  1.
         11   -1    0    0    0    0 -0.00000000000E+00 -0.00000000000E+00 -0.45593999997E+02  0.45594000000E+02  0.51100000000E-03 0. -1.
         23    2    1    2    0    0  0.35527136788E-14 -0.88817841970E-15  0.00000000000E+00  0.91188000000E+02  0.91188000000E+02 0.  0.
    9900012    2    3    3    0    0 -0.26285934130E+02  0.43897036671E+01  0.25407883993E+02  0.54367076595E+02  0.39999982714E+02 0.  0.
         12    1    3    3    0    0  0.26285934130E+02 -0.43897036671E+01 -0.25407883993E+02  0.36820923405E+02  0.00000000000E+00 0. -1.
         11    1    4    4    0    0  0.53240068179E+01 -0.55266236276E+00  0.19886426750E+01  0.57100949409E+01  0.51100000000E-03 0. -1.
        -11    1    4    4    0    0 -0.24789563887E+02  0.15143741588E+02  0.10630881228E+02  0.30933331908E+02  0.51100000000E-03 0.  1.
        -12    1    4    4    0    0 -0.68203770611E+01 -0.10201375558E+02  0.12788360090E+02  0.17723649746E+02  0.00000000000E+00 0.  1.
</event>
<event>
 8    1  0.1278459E-006  0.9118800E+02  0.7816164E-02  0.1184000E+00
        -11   -1    0    0    0    0  0.00000000000E+00  0.00000000000E+00  0.45593999997E+02  0.45594000000E+02  0.51100000000E-03 0.  1.
         11   -1    0    0    0    0 -0.00000000000E+00 -0.00000000000E+00 -0.45593999997E+02  0.45594000000E+02  0.51100000000E-03 0. -1.
         23    2    1    2    0    0  0.00000000000E+00  0.35527136788E-14 -0.17763568394E-14  0.91188000000E+02  0.91188000000E+02 0.  0.
    9900012    2    3    3    0    0 -0.25790596257E+02 -0.23258096402E+02  0.12234589425E+02  0.54367094499E+02  0.40000023528E+02 0.  0.
         12    1    3    3    0    0  0.25790596257E+02  0.23258096402E+02 -0.12234589425E+02  0.36820905501E+02  0.00000000000E+00 0. -1.
         11    1    4    4    0    0  0.37675430541E+01 -0.70715421253E+01 -0.96041550423E+00  0.80699124466E+01  0.51100000000E-03 0. -1.
        -11    1    4    4    0    0 -0.32012028757E+02 -0.49465286022E+01  0.12666022009E+02  0.34780256528E+02  0.51100000000E-03 0.  1.
        -12    1    4    4    0    0  0.24538894463E+01 -0.11240025675E+02  0.52898291969E+00  0.11516925524E+02  0.00000000000E+00 0.  1.
</event>
<event>
 8    1  0.1278459E-006  0.9118800E+02  0.7816164E-02  0.1184000E+00
        -11   -1    0    0    0    0  0.00000000000E+00  0.00000000000E+00  0.45593999997E+02  0.45594000000E+02  0.51100000000E-03 0. -1.
         11   -1    0    0    0    0 -0.00000000000E+00 -0.00000000000E+00 -0.45593999997E+02  0.45594000000E+02  0.51100000000E-03 0.  1.
         23    2    1    2    0    0 -0.71054273576E-14  0.44408920985E-15  0.17763568394E-14  0.91188000000E+02  0.91188000000E+02 0.  0.
    9900012    2    3    3    0    0  0.34649988927E+02 -0.23086152558E+01 -0.12240510055E+02  0.54367061345E+02  0.39999947948E+02 0.  0.
         12    1    3    3    0    0 -0.34649988927E+02  0.23086152558E+01  0.12240510055E+02  0.36820938655E+02  0.00000000000E+00 0. -1.
         11    1    4    4    0    0  0.48228764832E+01 -0.37893058597E+00  0.87858128182E+01  0.10029667646E+02  0.51100000000E-03 0. -1.
        -11    1    4    4    0    0 -0.20746408872E+01 -0.27820953862E+01  0.28421557455E+01  0.44857595891E+01  0.51100000000E-03 0.  1.
        -12    1    4    4    0    0  0.31901753331E+02  0.85241071634E+00 -0.23868478618E+02  0.39851634109E+02  0.00000000000E+00 0.  1.
</event>
<event>
 8    1  0.1278459E-006  0.9118800E+02  0.7816164E-02  0.1184000E+00
        -11   -1    0    0    0    0  0.00000000000E+00  0.00000000000E+00  0.45593999997E+02  0.45594000000E+02  0.51100000000E-03 0.  1.
         11   -1    0    0    0    0 -0.00000000000E+00 -0.00000000000E+00 -0.45593999997E+02  0.45594000000E+02  0.51100000000E-03 0. -1.
         23    2    1    2    0    0 -0.17763568394E-14  0.00000000000E+00  0.00000000000E+00  0.91188000000E+02  0.91188000000E+02 0.  0.
    9900012    2    3    3    0    0 -0.10410840989E+02 -0.94356243131E+01  0.34034737235E+02  0.54367082644E+02  0.39999996504E+02 0.  0.
         12    1    3    3    0    0  0.10410840989E+02  0.94356243131E+01 -0.34034737235E+02  0.36820917356E+02  0.00000000000E+00 0. -1.
         11    1    4    4    0    0  0.38447061931E+01  0.61388101899E+01 -0.35405613272E+01  0.80624023115E+01  0.51100000000E-03 0. -1.
        -11    1    4    4    0    0  0.24662088707E+01 -0.49372012173E+01  0.16391723506E+02  0.17295859094E+02  0.51100000000E-03 0.  1.
         12    1    4    4    0    0 -0.16721756053E+02 -0.10637233286E+02  0.21183575057E+02  0.29008821238E+02  0.00000000000E+00 0. -1.
</event>
<event>
 8    1  0.1278459E-006  0.9118800E+02  0.7816164E-02  0.1184000E+00
        -11   -1    0    0    0    0  0.00000000000E+00  0.00000000000E+00  0.45593999997E+02  0.45594000000E+02  0.51100000000E-03 0.  1.
         11   -1    0    0    0    0 -0.00000000000E+00 -0.00000000000E+00 -0.45593999997E+02  0.45594000000E+02  0.51100000000E-03 0. -1.
         23    2    1    2    0    0 -0.35527136788E-14  0.00000000000E+00  0.00000000000E+00  0.91188000000E+02  0.91188000000E+02 0.  0.
    9900012    2    3    3    0    0 -0.18194522377E+02  0.23073385004E+02 -0.22189169543E+02  0.54367068655E+02  0.39999964613E+02 0.  0.
        -12    1    3    3    0    0  0.18194522377E+02 -0.23073385004E+02  0.22189169543E+02  0.36820931345E+02  0.00000000000E+00 0.  1.
         11    1    4    4    0    0 -0.36116118057E+01  0.24242575137E+02 -0.15940804833E+02  0.29237911145E+02  0.51100000000E-03 0. -1.
        -11    1    4    4    0    0  0.42693679395E+01 -0.31657208679E+01 -0.60506952054E+00  0.53493364637E+01  0.51100000000E-03 0.  1.
         12    1    4    4    0    0 -0.18852278511E+02  0.19965307346E+01 -0.56432951895E+01  0.19779821047E+02  0.00000000000E+00 0. -1.
</event>
<event>
 8    1  0.1278459E-006  0.9118800E+02  0.7816164E-02  0.1184000E+00
        -11   -1    0    0    0    0  0.00000000000E+00  0.00000000000E+00  0.45593999997E+02  0.45594000000E+02  0.51100000000E-03 0. -1.
         11   -1    0    0    0    0 -0.00000000000E+00 -0.00000000000E+00 -0.45593999997E+02  0.45594000000E+02  0.51100000000E-03 0.  1.
         23    2    1    2    0    0  0.00000000000E+00  0.00000000000E+00  0.00000000000E+00  0.91188000000E+02  0.91188000000E+02 0.  0.
    9900012    2    3    3    0    0 -0.30191642283E+02 -0.19862747772E+02  0.70509413812E+01  0.54367084922E+02  0.40000001697E+02 0.  0.
         12    1    3    3    0    0  0.30191642283E+02  0.19862747772E+02 -0.70509413812E+01  0.36820915078E+02  0.00000000000E+00 0. -1.
         11    1    4    4    0    0 -0.11403554985E+02 -0.22899864190E+02  0.32541700846E+01  0.25788262241E+02  0.51100000000E-03 0. -1.
        -11    1    4    4    0    0 -0.18160140520E+02 -0.43879160615E+01 -0.24662582135E+01  0.18844812042E+02  0.51100000000E-03 0.  1.
        -12    1    4    4    0    0 -0.62794677787E+00  0.74250324792E+01  0.62630295101E+01  0.97340106389E+01  0.00000000000E+00 0.  1.
</event>
<event>
 8    1  0.1278459E-006  0.9118800E+02  0.7816164E-02  0.1184000E+00
        -11   -1    0    0    0    0  0.00000000000E+00  0.00000000000E+00  0.45593999997E+02  0.45594000000E+02  0.51100000000E-03 0. -1.
         11   -1    0    0    0    0 -0.00000000000E+00 -0.00000000000E+00 -0.45593999997E+02  0.45594000000E+02  0.51100000000E-03 0.  1.
         23    2    1    2    0    0 -0.88817841970E-15  0.00000000000E+00  0.00000000000E+00  0.91188000000E+02  0.91188000000E+02 0.  0.
    9900012    2    3    3    0    0  0.29214076155E+01 -0.94224248717E+01 -0.35474873731E+02  0.54367036145E+02  0.39999890501E+02 0.  0.
         12    1    3    3    0    0 -0.29214076155E+01  0.94224248717E+01  0.35474873731E+02  0.36820963855E+02  0.00000000000E+00 0. -1.
         11    1    4    4    0    0  0.25845089987E+01 -0.55314522792E+00  0.42414221125E+01  0.49975312110E+01  0.51100000000E-03 0. -1.
        -11    1    4    4    0    0 -0.80991470106E+01 -0.15176913822E+02 -0.16324539533E+02  0.23715511521E+02  0.51100000000E-03 0.  1.
         12    1    4    4    0    0  0.84360456275E+01  0.63076341785E+01 -0.23391756311E+02  0.25653993414E+02  0.00000000000E+00 0. -1.
</event>
<event>
 8    1  0.1278459E-006  0.9118800E+02  0.7816164E-02  0.1184000E+00
        -11   -1    0    0    0    0  0.00000000000E+00  0.00000000000E+00  0.45593999997E+02  0.45594000000E+02  0.51100000000E-03 0.  1.
         11   -1    0    0    0    0 -0.00000000000E+00 -0.00000000000E+00 -0.45593999997E+02  0.45594000000E+02  0.51100000000E-03 0. -1.
         23    2    1    2    0    0 -0.35527136788E-14  0.88817841970E-15  0.00000000000E+00  0.91188000000E+02  0.91188000000E+02 0.  0.
    9900012    2    3    3    0    0  0.21646850434E+02  0.78826991724E+01 -0.28723856300E+02  0.54367041285E+02  0.39999902217E+02 0.  0.
        -12    1    3    3    0    0 -0.21646850434E+02 -0.78826991724E+01  0.28723856300E+02  0.36820958715E+02  0.00000000000E+00 0.  1.
         11    1    4    4    0    0  0.19618922059E+02  0.21577978810E+02 -0.20668295226E+02  0.35744785635E+02  0.51100000000E-03 0. -1.
        -11    1    4    4    0    0  0.23812626528E+01 -0.97608277195E-01 -0.35836072445E+01  0.43037402735E+01  0.51100000000E-03 0.  1.
        -12    1    4    4    0    0 -0.35333427775E+00 -0.13597671360E+02 -0.44719538295E+01  0.14318515377E+02  0.00000000000E+00 0.  1.
</event>
<event>
 8    1  0.1278459E-006  0.9118800E+02  0.7816164E-02  0.1184000E+00
        -11   -1    0    0    0    0  0.00000000000E+00  0.00000000000E+00  0.45593999997E+02  0.45594000000E+02  0.51100000000E-03 0.  1.
         11   -1    0    0    0    0 -0.00000000000E+00 -0.00000000000E+00 -0.45593999997E+02  0.45594000000E+02  0.51100000000E-03 0. -1.
         23    2    1    2    0    0  0.00000000000E+00  0.00000000000E+00  0.35527136788E-14  0.91188000000E+02  0.91188000000E+02 0.  0.
    9900012    2    3    3    0    0 -0.11887107208E+02 -0.30103712702E+02  0.17556896985E+02  0.54367062098E+02  0.39999949666E+02 0.  0.
         12    1    3    3    0    0  0.11887107208E+02  0.30103712702E+02 -0.17556896985E+02  0.36820937902E+02  0.00000000000E+00 0. -1.
         11    1    4    4    0    0 -0.17674754809E+02 -0.10705386755E+02 -0.26250031574E+01  0.20830096135E+02  0.51100000000E-03 0. -1.
        -11    1    4    4    0    0  0.86869440715E+01 -0.17447492246E+02  0.83570420211E+01  0.21206558763E+02  0.51100000000E-03 0.  1.
        -12    1    4    4    0    0 -0.28992964698E+01 -0.19508337012E+01  0.11824858121E+02  0.12330407201E+02  0.00000000000E+00 0.  1.
</event>
<event>
 8    1  0.1278459E-006  0.9118800E+02  0.7816164E-02  0.1184000E+00
        -11   -1    0    0    0    0  0.00000000000E+00  0.00000000000E+00  0.45593999997E+02  0.45594000000E+02  0.51100000000E-03 0.  1.
         11   -1    0    0    0    0 -0.00000000000E+00 -0.00000000000E+00 -0.45593999997E+02  0.45594000000E+02  0.51100000000E-03 0. -1.
         23    2    1    2    0    0  0.35527136788E-14 -0.35527136788E-14  0.00000000000E+00  0.91188000000E+02  0.91188000000E+02 0.  0.
    9900012    2    3    3    0    0  0.19923587090E+02 -0.21711021704E+02  0.22078516505E+02  0.54367099997E+02  0.40000036063E+02 0.  0.
         12    1    3    3    0    0 -0.19923587090E+02  0.21711021704E+02 -0.22078516505E+02  0.36820900003E+02  0.00000000000E+00 0. -1.
         11    1    4    4    0    0  0.10600149341E+01 -0.84686615091E+01 -0.19846269044E+01  0.87624542012E+01  0.51100000000E-03 0. -1.
        -11    1    4    4    0    0 -0.28181238833E+01 -0.16226855852E+02  0.71964835864E+01  0.17973370561E+02  0.51100000000E-03 0.  1.
         12    1    4    4    0    0  0.21681696040E+02  0.29844956571E+01  0.16866659823E+02  0.27631275234E+02  0.00000000000E+00 0. -1.
</event>
<event>
 8    1  0.1278459E-006  0.9118800E+02  0.7816164E-02  0.1184000E+00
        -11   -1    0    0    0    0  0.00000000000E+00  0.00000000000E+00  0.45593999997E+02  0.45594000000E+02  0.51100000000E-03 0. -1.
         11   -1    0    0    0    0 -0.00000000000E+00 -0.00000000000E+00 -0.45593999997E+02  0.45594000000E+02  0.51100000000E-03 0.  1.
         23    2    1    2    0    0  0.00000000000E+00  0.00000000000E+00  0.00000000000E+00  0.91188000000E+02  0.91188000000E+02 0.  0.
    9900012    2    3    3    0    0 -0.27809537973E+02 -0.26400484247E+01  0.23988325247E+02  0.54367081949E+02  0.39999994919E+02 0.  0.
        -12    1    3    3    0    0  0.27809537973E+02  0.26400484247E+01 -0.23988325247E+02  0.36820918051E+02  0.00000000000E+00 0.  1.
         11    1    4    4    0    0 -0.17865296508E+02 -0.21105496557E+01  0.18674268831E+01  0.18086197018E+02  0.51100000000E-03 0. -1.
        -11    1    4    4    0    0  0.21869501889E+00  0.12344507585E+02  0.90613029210E+01  0.15314761047E+02  0.51100000000E-03 0.  1.
        -12    1    4    4    0    0 -0.10162936484E+02 -0.12874006354E+02  0.13059595443E+02  0.20966123884E+02  0.00000000000E+00 0.  1.
</event>
<event>
 8    1  0.1278459E-006  0.9118800E+02  0.7816164E-02  0.1184000E+00
        -11   -1    0    0    0    0  0.00000000000E+00  0.00000000000E+00  0.45593999997E+02  0.45594000000E+02  0.51100000000E-03 0.  1.
         11   -1    0    0    0    0 -0.00000000000E+00 -0.00000000000E+00 -0.45593999997E+02  0.45594000000E+02  0.51100000000E-03 0. -1.
         23    2    1    2    0    0  0.00000000000E+00  0.00000000000E+00  0.00000000000E+00  0.91188000000E+02  0.91188000000E+02 0.  0.
    9900012    2    3    3    0    0 -0.73351018854E+01 -0.21668194813E+02  0.28852509023E+02  0.54367059450E+02  0.39999943627E+02 0.  0.
         12    1    3    3    0    0  0.73351018854E+01  0.21668194813E+02 -0.28852509023E+02  0.36820940550E+02  0.00000000000E+00 0. -1.
         11    1    4    4    0    0  0.38623880839E+00 -0.11624520557E+02  0.19971816475E+01  0.11801160680E+02  0.51100000000E-03 0. -1.
        -11    1    4    4    0    0  0.87737199124E+01  0.35604990703E+01  0.18185000344E+01  0.96416936981E+01  0.51100000000E-03 0.  1.
        -12    1    4    4    0    0 -0.16495060606E+02 -0.13604173326E+02  0.25036827341E+02  0.32924205071E+02  0.00000000000E+00 0.  1.
</event>
<event>
 8    1  0.1278459E-006  0.9118800E+02  0.7816164E-02  0.1184000E+00
        -11   -1    0    0    0    0  0.00000000000E+00  0.00000000000E+00  0.45593999997E+02  0.45594000000E+02  0.51100000000E-03 0. -1.
         11   -1    0    0    0    0 -0.00000000000E+00 -0.00000000000E+00 -0.45593999997E+02  0.45594000000E+02  0.51100000000E-03 0.  1.
         23    2    1    2    0    0  0.17763568394E-14  0.00000000000E+00  0.00000000000E+00  0.91188000000E+02  0.91188000000E+02 0.  0.
    9900012    2    3    3    0    0 -0.85012397756E+01 -0.74547515019E+01 -0.35041909077E+02  0.54367084892E+02  0.40000001627E+02 0.  0.
         12    1    3    3    0    0  0.85012397756E+01  0.74547515019E+01  0.35041909077E+02  0.36820915108E+02  0.00000000000E+00 0. -1.
         11    1    4    4    0    0 -0.25006834459E+01 -0.11118685146E+01 -0.31555226122E+02  0.31673679376E+02  0.51100000000E-03 0. -1.
        -11    1    4    4    0    0 -0.12398056352E+02 -0.71387130791E+01 -0.63339553052E+01  0.15645830620E+02  0.51100000000E-03 0.  1.
         12    1    4    4    0    0  0.63975000223E+01  0.79583009170E+00  0.28472723507E+01  0.70475748956E+01  0.00000000000E+00 0. -1.
</event>
<event>
 8    1  0.1278459E-006  0.9118800E+02  0.7816164E-02  0.1184000E+00
        -11   -1    0    0    0    0  0.00000000000E+00  0.00000000000E+00  0.45593999997E+02  0.45594000000E+02  0.51100000000E-03 0.  1.
         11   -1    0    0    0    0 -0.00000000000E+00 -0.00000000000E+00 -0.45593999997E+02  0.45594000000E+02  0.51100000000E-03 0. -1.
         23    2    1    2    0    0  0.00000000000E+00  0.00000000000E+00  0.00000000000E+00  0.91188000000E+02  0.91188000000E+02 0.  0.
    9900012    2    3    3    0    0  0.24432794064E+02 -0.20886457318E+02  0.17960422446E+02  0.54367050806E+02  0.39999923923E+02 0.  0.
         12    1    3    3    0    0 -0.24432794064E+02  0.20886457318E+02 -0.17960422446E+02  0.36820949194E+02  0.00000000000E+00 0. -1.
         11    1    4    4    0    0  0.16520123917E+02 -0.13027448369E+02  0.15135511473E+02  0.25917419105E+02  0.51100000000E-03 0. -1.
        -11    1    4    4    0    0  0.42646050500E+01 -0.17383085086E+02  0.34644018208E+01  0.18230759270E+02  0.51100000000E-03 0.  1.
         12    1    4    4    0    0  0.36480650965E+01  0.95240761371E+01 -0.63949084774E+00  0.10218872431E+02  0.00000000000E+00 0. -1.
</event>
<event>
 8    1  0.1278459E-006  0.9118800E+02  0.7816164E-02  0.1184000E+00
        -11   -1    0    0    0    0  0.00000000000E+00  0.00000000000E+00  0.45593999997E+02  0.45594000000E+02  0.51100000000E-03 0.  1.
         11   -1    0    0    0    0 -0.00000000000E+00 -0.00000000000E+00 -0.45593999997E+02  0.45594000000E+02  0.51100000000E-03 0. -1.
         23    2    1    2    0    0  0.00000000000E+00  0.00000000000E+00  0.00000000000E+00  0.91188000000E+02  0.91188000000E+02 0.  0.
    9900012    2    3    3    0    0 -0.35024073678E+02  0.55183974647E+01 -0.99317882881E+01  0.54367097429E+02  0.40000030208E+02 0.  0.
        -12    1    3    3    0    0  0.35024073678E+02 -0.55183974647E+01  0.99317882881E+01  0.36820902571E+02  0.00000000000E+00 0.  1.
         11    1    4    4    0    0 -0.20098881591E+02  0.76158532382E+01 -0.14168720335E+02  0.25743327251E+02  0.51100000000E-03 0. -1.
        -11    1    4    4    0    0 -0.20214545706E+01 -0.10496289134E+01  0.12865522129E+02  0.13065590662E+02  0.51100000000E-03 0.  1.
         12    1    4    4    0    0 -0.12903737516E+02 -0.10478268601E+01 -0.86285900827E+01  0.15558179515E+02  0.00000000000E+00 0. -1.
</event>
<event>
 8    1  0.1278459E-006  0.9118800E+02  0.7816164E-02  0.1184000E+00
        -11   -1    0    0    0    0  0.00000000000E+00  0.00000000000E+00  0.45593999997E+02  0.45594000000E+02  0.51100000000E-03 0.  1.
         11   -1    0    0    0    0 -0.00000000000E+00 -0.00000000000E+00 -0.45593999997E+02  0.45594000000E+02  0.51100000000E-03 0. -1.
         23    2    1    2    0    0  0.17763568394E-14  0.35527136788E-14  0.71054273576E-14  0.91188000000E+02  0.91188000000E+02 0.  0.
    9900012    2    3    3    0    0 -0.59958842834E+01 -0.20899478627E+02 -0.29715948089E+02  0.54367130836E+02  0.40000106366E+02 0.  0.
        -12    1    3    3    0    0  0.59958842834E+01  0.20899478627E+02  0.29715948089E+02  0.36820869164E+02  0.00000000000E+00 0.  1.
         11    1    4    4    0    0  0.36728587861E+01  0.12343322926E+01 -0.97755063127E+01  0.10515416863E+02  0.51100000000E-03 0. -1.
        -11    1    4    4    0    0 -0.73916715794E+01  0.31671082470E+01 -0.16317572452E+02  0.18191496760E+02  0.51100000000E-03 0.  1.
         12    1    4    4    0    0 -0.22770714901E+01 -0.25300919167E+02 -0.36228693237E+01  0.25660217212E+02  0.00000000000E+00 0. -1.
</event>
<event>
 8    1  0.1278459E-006  0.9118800E+02  0.7816164E-02  0.1184000E+00
        -11   -1    0    0    0    0  0.00000000000E+00  0.00000000000E+00  0.45593999997E+02  0.45594000000E+02  0.51100000000E-03 0.  1.
         11   -1    0    0    0    0 -0.00000000000E+00 -0.00000000000E+00 -0.45593999997E+02  0.45594000000E+02  0.51100000000E-03 0. -1.
         23    2    1    2    0    0 -0.35527136788E-14 -0.17763568394E-14  0.00000000000E+00  0.91188000000E+02  0.91188000000E+02 0.  0.
    9900012    2    3    3    0    0  0.25225066984E+02  0.15681057317E+02  0.21761890376E+02  0.54367089695E+02  0.40000012578E+02 0.  0.
         12    1    3    3    0    0 -0.25225066984E+02 -0.15681057317E+02 -0.21761890376E+02  0.36820910305E+02  0.00000000000E+00 0. -1.
         11    1    4    4    0    0  0.42012015263E+01 -0.68705111075E+01 -0.21812636988E+01  0.83433763386E+01  0.51100000000E-03 0. -1.
        -11    1    4    4    0    0  0.25545844806E+02  0.15469526071E+02  0.13934418000E+02  0.32955491636E+02  0.51100000000E-03 0.  1.
        -12    1    4    4    0    0 -0.45219793478E+01  0.70820423533E+01  0.10008736075E+02  0.13068221720E+02  0.00000000000E+00 0.  1.
</event>
<event>
 8    1  0.1278459E-006  0.9118800E+02  0.7816164E-02  0.1184000E+00
        -11   -1    0    0    0    0  0.00000000000E+00  0.00000000000E+00  0.45593999997E+02  0.45594000000E+02  0.51100000000E-03 0. -1.
         11   -1    0    0    0    0 -0.00000000000E+00 -0.00000000000E+00 -0.45593999997E+02  0.45594000000E+02  0.51100000000E-03 0.  1.
         23    2    1    2    0    0  0.54817261841E-15 -0.35527136788E-14  0.00000000000E+00  0.91188000000E+02  0.91188000000E+02 0.  0.
    9900012    2    3    3    0    0  0.54492491452E-01 -0.94915794810E+01  0.35576478347E+02  0.54367097485E+02  0.40000030336E+02 0.  0.
        -12    1    3    3    0    0 -0.54492491452E-01  0.94915794810E+01 -0.35576478347E+02  0.36820902515E+02  0.00000000000E+00 0.  1.
         11    1    4    4    0    0 -0.30102587371E+01 -0.14475369146E+02  0.36920118415E+02  0.39770505574E+02  0.51100000000E-03 0. -1.
        -11    1    4    4    0    0  0.73255178306E+01  0.66823795403E+01 -0.13695755165E+01  0.10009652600E+02  0.51100000000E-03 0.  1.
        -12    1    4    4    0    0 -0.42607666020E+01 -0.16985898758E+01  0.25935448593E-01  0.45869393118E+01  0.00000000000E+00 0.  1.
</event>
<event>
 8    1  0.1278459E-006  0.9118800E+02  0.7816164E-02  0.1184000E+00
        -11   -1    0    0    0    0  0.00000000000E+00  0.00000000000E+00  0.45593999997E+02  0.45594000000E+02  0.51100000000E-03 0.  1.
         11   -1    0    0    0    0 -0.00000000000E+00 -0.00000000000E+00 -0.45593999997E+02  0.45594000000E+02  0.51100000000E-03 0. -1.
         23    2    1    2    0    0  0.35527136788E-14  0.00000000000E+00  0.35527136788E-14  0.91188000000E+02  0.91188000000E+02 0.  0.
    9900012    2    3    3    0    0  0.20705936453E+02  0.97642883837E+01  0.28839271424E+02  0.54367072414E+02  0.39999973183E+02 0.  0.
        -12    1    3    3    0    0 -0.20705936453E+02 -0.97642883837E+01 -0.28839271424E+02  0.36820927586E+02  0.00000000000E+00 0.  1.
         11    1    4    4    0    0  0.95547397769E+00  0.64714663782E+01  0.45329035181E+01  0.79586444934E+01  0.51100000000E-03 0. -1.
        -11    1    4    4    0    0 -0.58850264282E+01  0.11216782114E+02  0.87136470453E+01  0.15374569332E+02  0.51100000000E-03 0.  1.
        -12    1    4    4    0    0  0.25635488903E+02 -0.79239601082E+01  0.15592720860E+02  0.31033858589E+02  0.00000000000E+00 0.  1.
</event>
<event>
 8    1  0.1278459E-006  0.9118800E+02  0.7816164E-02  0.1184000E+00
        -11   -1    0    0    0    0  0.00000000000E+00  0.00000000000E+00  0.45593999997E+02  0.45594000000E+02  0.51100000000E-03 0. -1.
         11   -1    0    0    0    0 -0.00000000000E+00 -0.00000000000E+00 -0.45593999997E+02  0.45594000000E+02  0.51100000000E-03 0.  1.
         23    2    1    2    0    0 -0.71054273576E-14 -0.66613381478E-15 -0.44408920985E-15  0.91188000000E+02  0.91188000000E+02 0.  0.
    9900012    2    3    3    0    0 -0.36759029588E+02 -0.19483757690E+01 -0.87041310502E+00  0.54367081443E+02  0.39999993765E+02 0.  0.
        -12    1    3    3    0    0  0.36759029588E+02  0.19483757690E+01  0.87041310502E+00  0.36820918557E+02  0.00000000000E+00 0.  1.
         11    1    4    4    0    0  0.51280578605E-01 -0.94329563125E+00  0.24304301348E+01  0.26075711394E+01  0.51100000000E-03 0. -1.
        -11    1    4    4    0    0  0.71199648747E+01 -0.21359806741E+01 -0.23795145260E+01  0.78050242086E+01  0.51100000000E-03 0.  1.
         12    1    4    4    0    0 -0.43930275042E+02  0.11309005363E+01 -0.92132871384E+00  0.43954486095E+02  0.00000000000E+00 0. -1.
</event>
<event>
 8    1  0.1278459E-006  0.9118800E+02  0.7816164E-02  0.1184000E+00
        -11   -1    0    0    0    0  0.00000000000E+00  0.00000000000E+00  0.45593999997E+02  0.45594000000E+02  0.51100000000E-03 0.  1.
         11   -1    0    0    0    0 -0.00000000000E+00 -0.00000000000E+00 -0.45593999997E+02  0.45594000000E+02  0.51100000000E-03 0. -1.
         23    2    1    2    0    0  0.17763568394E-14 -0.71054273576E-14  0.00000000000E+00  0.91188000000E+02  0.91188000000E+02 0.  0.
    9900012    2    3    3    0    0 -0.13144027053E+02 -0.32150477910E+02  0.12221378716E+02  0.54367071512E+02  0.39999971127E+02 0.  0.
         12    1    3    3    0    0  0.13144027053E+02  0.32150477910E+02 -0.12221378716E+02  0.36820928488E+02  0.00000000000E+00 0. -1.
         11    1    4    4    0    0 -0.31084524698E+01  0.37742390068E+01 -0.24032478993E+01  0.54482068210E+01  0.51100000000E-03 0. -1.
        -11    1    4    4    0    0 -0.12442136951E+02 -0.34862475637E+02  0.20619863881E+02  0.42371898307E+02  0.51100000000E-03 0.  1.
        -12    1    4    4    0    0  0.24065623678E+01 -0.10622412796E+01 -0.59952372657E+01  0.65469663844E+01  0.00000000000E+00 0.  1.
</event>
<event>
 8    1  0.1278459E-006  0.9118800E+02  0.7816164E-02  0.1184000E+00
        -11   -1    0    0    0    0  0.00000000000E+00  0.00000000000E+00  0.45593999997E+02  0.45594000000E+02  0.51100000000E-03 0.  1.
         11   -1    0    0    0    0 -0.00000000000E+00 -0.00000000000E+00 -0.45593999997E+02  0.45594000000E+02  0.51100000000E-03 0. -1.
         23    2    1    2    0    0  0.35527136788E-14  0.71054273576E-14  0.00000000000E+00  0.91188000000E+02  0.91188000000E+02 0.  0.
    9900012    2    3    3    0    0  0.11922013265E+02  0.33240253554E+02  0.10427414462E+02  0.54367084355E+02  0.40000000403E+02 0.  0.
         12    1    3    3    0    0 -0.11922013265E+02 -0.33240253554E+02 -0.10427414462E+02  0.36820915645E+02  0.00000000000E+00 0. -1.
         11    1    4    4    0    0 -0.11545323567E+02  0.63063685480E+01  0.12956977821E+02  0.18464778770E+02  0.51100000000E-03 0. -1.
        -11    1    4    4    0    0  0.70879208696E+01  0.64555130204E+01 -0.47392150070E+00  0.95987953651E+01  0.51100000000E-03 0.  1.
         12    1    4    4    0    0  0.16379415962E+02  0.20478371986E+02 -0.20556418582E+01  0.26303510220E+02  0.00000000000E+00 0. -1.
</event>
<event>
 8    1  0.1278459E-006  0.9118800E+02  0.7816164E-02  0.1184000E+00
        -11   -1    0    0    0    0  0.00000000000E+00  0.00000000000E+00  0.45593999997E+02  0.45594000000E+02  0.51100000000E-03 0. -1.
         11   -1    0    0    0    0 -0.00000000000E+00 -0.00000000000E+00 -0.45593999997E+02  0.45594000000E+02  0.51100000000E-03 0.  1.
         23    2    1    2    0    0  0.00000000000E+00 -0.88817841970E-15  0.00000000000E+00  0.91188000000E+02  0.91188000000E+02 0.  0.
    9900012    2    3    3    0    0  0.56860282554E+01 -0.15323043970E+01  0.36346928458E+02  0.54367108071E+02  0.40000054470E+02 0.  0.
        -12    1    3    3    0    0 -0.56860282554E+01  0.15323043970E+01 -0.36346928458E+02  0.36820891929E+02  0.00000000000E+00 0.  1.
         11    1    4    4    0    0  0.57922193693E+01 -0.10803868724E+02  0.22574985895E+02  0.25688584489E+02  0.51100000000E-03 0. -1.
        -11    1    4    4    0    0  0.82277737248E+00 -0.71147382040E+01  0.91650239308E+01  0.11631600330E+02  0.51100000000E-03 0.  1.
        -12    1    4    4    0    0 -0.92896848631E+00  0.16386302531E+02  0.46069186320E+01  0.17046923252E+02  0.00000000000E+00 0.  1.
</event>
<event>
 8    1  0.1278459E-006  0.9118800E+02  0.7816164E-02  0.1184000E+00
        -11   -1    0    0    0    0  0.00000000000E+00  0.00000000000E+00  0.45593999997E+02  0.45594000000E+02  0.51100000000E-03 0. -1.
         11   -1    0    0    0    0 -0.00000000000E+00 -0.00000000000E+00 -0.45593999997E+02  0.45594000000E+02  0.51100000000E-03 0.  1.
         23    2    1    2    0    0  0.71054273576E-14  0.00000000000E+00  0.00000000000E+00  0.91188000000E+02  0.91188000000E+02 0.  0.
    9900012    2    3    3    0    0 -0.28175303250E+02  0.22802009389E+02 -0.64807319961E+01  0.54367092453E+02  0.40000018864E+02 0.  0.
         12    1    3    3    0    0  0.28175303250E+02 -0.22802009389E+02  0.64807319961E+01  0.36820907547E+02  0.00000000000E+00 0. -1.
         11    1    4    4    0    0  0.63683038482E+01  0.15318917735E+02 -0.12397085397E+01  0.16636147752E+02  0.51100000000E-03 0. -1.
        -11    1    4    4    0    0 -0.12213117849E+02  0.75632684551E+01 -0.55446154707E+01  0.15398247897E+02  0.51100000000E-03 0.  1.
         12    1    4    4    0    0 -0.22330489249E+02 -0.80176801398E-01  0.30359201427E+00  0.22332696804E+02  0.00000000000E+00 0. -1.
</event>
<event>
 8    1  0.1278459E-006  0.9118800E+02  0.7816164E-02  0.1184000E+00
        -11   -1    0    0    0    0  0.00000000000E+00  0.00000000000E+00  0.45593999997E+02  0.45594000000E+02  0.51100000000E-03 0. -1.
         11   -1    0    0    0    0 -0.00000000000E+00 -0.00000000000E+00 -0.45593999997E+02  0.45594000000E+02  0.51100000000E-03 0.  1.
         23    2    1    2    0    0  0.35527136788E-14  0.00000000000E+00  0.00000000000E+00  0.91188000000E+02  0.91188000000E+02 0.  0.
    9900012    2    3    3    0    0  0.27156217974E+02  0.10691690280E+02 -0.22450109855E+02  0.54367084094E+02  0.39999999809E+02 0.  0.
         12    1    3    3    0    0 -0.27156217974E+02 -0.10691690280E+02  0.22450109855E+02  0.36820915906E+02  0.00000000000E+00 0. -1.
         11    1    4    4    0    0  0.27213934513E+01  0.86197356788E+01 -0.79691556606E+01  0.12050446784E+02  0.51100000000E-03 0. -1.
        -11    1    4    4    0    0  0.22645811066E+02  0.14636658877E+02 -0.11275096128E+02  0.29226568990E+02  0.51100000000E-03 0.  1.
        -12    1    4    4    0    0  0.17890134560E+01 -0.12564704276E+02 -0.32058580657E+01  0.13090068320E+02  0.00000000000E+00 0.  1.
</event>
<event>
 8    1  0.1278459E-006  0.9118800E+02  0.7816164E-02  0.1184000E+00
        -11   -1    0    0    0    0  0.00000000000E+00  0.00000000000E+00  0.45593999997E+02  0.45594000000E+02  0.51100000000E-03 0. -1.
         11   -1    0    0    0    0 -0.00000000000E+00 -0.00000000000E+00 -0.45593999997E+02  0.45594000000E+02  0.51100000000E-03 0.  1.
         23    2    1    2    0    0  0.00000000000E+00  0.35527136788E-14 -0.35527136788E-14  0.91188000000E+02  0.91188000000E+02 0.  0.
    9900012    2    3    3    0    0 -0.12166513388E+02  0.19980877929E+02 -0.28434497116E+02  0.54367079899E+02  0.39999990246E+02 0.  0.
         12    1    3    3    0    0  0.12166513388E+02 -0.19980877929E+02  0.28434497116E+02  0.36820920101E+02  0.00000000000E+00 0. -1.
         11    1    4    4    0    0 -0.32480233703E+01  0.27257976146E+01 -0.15535310207E+01  0.45158706074E+01  0.51100000000E-03 0.  1.
        -11    1    4    4    0    0 -0.98658406211E+01  0.78958388306E+00 -0.31258032905E+02  0.32787541463E+02  0.51100000000E-03 0. -1.
         12    1    4    4    0    0  0.94735060304E+00  0.16465496432E+02  0.43770668093E+01  0.17063667828E+02  0.00000000000E+00 0. -1.
</event>
<event>
 8    1  0.1278459E-006  0.9118800E+02  0.7816164E-02  0.1184000E+00
        -11   -1    0    0    0    0  0.00000000000E+00  0.00000000000E+00  0.45593999997E+02  0.45594000000E+02  0.51100000000E-03 0.  1.
         11   -1    0    0    0    0 -0.00000000000E+00 -0.00000000000E+00 -0.45593999997E+02  0.45594000000E+02  0.51100000000E-03 0. -1.
         23    2    1    2    0    0 -0.35527136788E-14 -0.22204460493E-15  0.00000000000E+00  0.91188000000E+02  0.91188000000E+02 0.  0.
    9900012    2    3    3    0    0  0.22762404675E+02 -0.15208618312E+01  0.28902253767E+02  0.54367077142E+02  0.39999983960E+02 0.  0.
         12    1    3    3    0    0 -0.22762404675E+02  0.15208618312E+01 -0.28902253767E+02  0.36820922858E+02  0.00000000000E+00 0. -1.
         11    1    4    4    0    0 -0.60758791736E+01  0.23710468875E+01  0.16188579701E+02  0.17453030799E+02  0.51100000000E-03 0. -1.
        -11    1    4    4    0    0  0.22690963703E+02 -0.90386661207E+01  0.34575257443E+01  0.24668437396E+02  0.51100000000E-03 0.  1.
         12    1    4    4    0    0  0.61473201453E+01  0.51467574021E+01  0.92561483227E+01  0.12245608948E+02  0.00000000000E+00 0. -1.
</event>
<event>
 8    1  0.1278459E-006  0.9118800E+02  0.7816164E-02  0.1184000E+00
        -11   -1    0    0    0    0  0.00000000000E+00  0.00000000000E+00  0.45593999997E+02  0.45594000000E+02  0.51100000000E-03 0. -1.
         11   -1    0    0    0    0 -0.00000000000E+00 -0.00000000000E+00 -0.45593999997E+02  0.45594000000E+02  0.51100000000E-03 0.  1.
         23    2    1    2    0    0  0.00000000000E+00  0.00000000000E+00  0.00000000000E+00  0.91188000000E+02  0.91188000000E+02 0.  0.
    9900012    2    3    3    0    0  0.24272708909E+02  0.15309378671E+02 -0.23070262506E+02  0.54367102602E+02  0.40000042002E+02 0.  0.
         12    1    3    3    0    0 -0.24272708909E+02 -0.15309378671E+02  0.23070262506E+02  0.36820897398E+02  0.00000000000E+00 0. -1.
         11    1    4    4    0    0 -0.64326127529E+01  0.14060131244E+02 -0.22230666291E+01  0.15620749756E+02  0.51100000000E-03 0. -1.
        -11    1    4    4    0    0  0.13156001314E+02 -0.49112631725E+01 -0.83342878959E+01  0.16329765201E+02  0.51100000000E-03 0.  1.
         12    1    4    4    0    0  0.17549320348E+02  0.61605105992E+01 -0.12512907981E+02  0.22416587645E+02  0.00000000000E+00 0. -1.
</event>
<event>
 8    1  0.1278459E-006  0.9118800E+02  0.7816164E-02  0.1184000E+00
        -11   -1    0    0    0    0  0.00000000000E+00  0.00000000000E+00  0.45593999997E+02  0.45594000000E+02  0.51100000000E-03 0. -1.
         11   -1    0    0    0    0 -0.00000000000E+00 -0.00000000000E+00 -0.45593999997E+02  0.45594000000E+02  0.51100000000E-03 0.  1.
         23    2    1    2    0    0  0.00000000000E+00  0.00000000000E+00  0.00000000000E+00  0.91188000000E+02  0.91188000000E+02 0.  0.
    9900012    2    3    3    0    0 -0.33672432813E+02  0.96155868452E+01 -0.11379280773E+02  0.54367078327E+02  0.39999986662E+02 0.  0.
         12    1    3    3    0    0  0.33672432813E+02 -0.96155868452E+01  0.11379280773E+02  0.36820921673E+02  0.00000000000E+00 0. -1.
         11    1    4    4    0    0  0.53898288904E+00  0.43398031044E+01 -0.13538591623E+00  0.43752397817E+01  0.51100000000E-03 0. -1.
        -11    1    4    4    0    0 -0.34530942832E+02  0.10685041766E+02  0.14649793922E+01  0.36175990592E+02  0.51100000000E-03 0.  1.
        -12    1    4    4    0    0  0.31952713006E+00 -0.54092580257E+01 -0.12708874249E+02  0.13815847953E+02  0.00000000000E+00 0.  1.
</event>
<event>
 8    1  0.1278459E-006  0.9118800E+02  0.7816164E-02  0.1184000E+00
        -11   -1    0    0    0    0  0.00000000000E+00  0.00000000000E+00  0.45593999997E+02  0.45594000000E+02  0.51100000000E-03 0. -1.
         11   -1    0    0    0    0 -0.00000000000E+00 -0.00000000000E+00 -0.45593999997E+02  0.45594000000E+02  0.51100000000E-03 0.  1.
         23    2    1    2    0    0  0.71054273576E-14  0.17763568394E-14 -0.71054273576E-14  0.91188000000E+02  0.91188000000E+02 0.  0.
    9900012    2    3    3    0    0  0.20018435995E+02  0.92283751467E+01 -0.29493706576E+02  0.54367089975E+02  0.40000013215E+02 0.  0.
         12    1    3    3    0    0 -0.20018435995E+02 -0.92283751467E+01  0.29493706576E+02  0.36820910025E+02  0.00000000000E+00 0. -1.
         11    1    4    4    0    0  0.22702984706E+01 -0.33865088800E+00  0.47625987494E+01  0.52868976421E+01  0.51100000000E-03 0. -1.
        -11    1    4    4    0    0 -0.30883875416E+01  0.87260661889E+01 -0.33618971155E+00  0.92625802303E+01  0.51100000000E-03 0.  1.
        -12    1    4    4    0    0  0.20836525066E+02  0.84095984586E+00 -0.33920115613E+02  0.39817612102E+02  0.00000000000E+00 0.  1.
</event>
<event>
 8    1  0.1278459E-006  0.9118800E+02  0.7816164E-02  0.1184000E+00
        -11   -1    0    0    0    0  0.00000000000E+00  0.00000000000E+00  0.45593999997E+02  0.45594000000E+02  0.51100000000E-03 0.  1.
         11   -1    0    0    0    0 -0.00000000000E+00 -0.00000000000E+00 -0.45593999997E+02  0.45594000000E+02  0.51100000000E-03 0. -1.
         23    2    1    2    0    0  0.35527136788E-14  0.00000000000E+00  0.35527136788E-14  0.91188000000E+02  0.91188000000E+02 0.  0.
    9900012    2    3    3    0    0  0.24735588427E+02 -0.87264050733E+01 -0.25841468069E+02  0.54367069101E+02  0.39999965630E+02 0.  0.
        -12    1    3    3    0    0 -0.24735588427E+02  0.87264050733E+01  0.25841468069E+02  0.36820930899E+02  0.00000000000E+00 0.  1.
         11    1    4    4    0    0  0.17490839020E+01 -0.40986703801E+01 -0.35742697698E+01  0.57125999361E+01  0.51100000000E-03 0. -1.
        -11    1    4    4    0    0  0.18781101076E+00 -0.63028049075E+01  0.83381904897E+01  0.10453996536E+02  0.51100000000E-03 0.  1.
        -12    1    4    4    0    0  0.22798693514E+02  0.16750702143E+01 -0.30605388789E+02  0.38200472629E+02  0.00000000000E+00 0.  1.
</event>
<event>
 8    1  0.1278459E-006  0.9118800E+02  0.7816164E-02  0.1184000E+00
        -11   -1    0    0    0    0  0.00000000000E+00  0.00000000000E+00  0.45593999997E+02  0.45594000000E+02  0.51100000000E-03 0. -1.
         11   -1    0    0    0    0 -0.00000000000E+00 -0.00000000000E+00 -0.45593999997E+02  0.45594000000E+02  0.51100000000E-03 0.  1.
         23    2    1    2    0    0  0.00000000000E+00  0.44408920985E-15  0.00000000000E+00  0.91188000000E+02  0.91188000000E+02 0.  0.
    9900012    2    3    3    0    0 -0.31417715776E+02  0.35276370981E+01 -0.18874915264E+02  0.54367088627E+02  0.40000010144E+02 0.  0.
         12    1    3    3    0    0  0.31417715776E+02 -0.35276370981E+01  0.18874915264E+02  0.36820911373E+02  0.00000000000E+00 0. -1.
         11    1    4    4    0    0  0.12682277957E+01 -0.75453418172E+01 -0.60311183050E+01  0.97424315831E+01  0.51100000000E-03 0. -1.
        -11    1    4    4    0    0 -0.12817457150E+02 -0.56028431055E+01 -0.12382057660E+02  0.18681392100E+02  0.51100000000E-03 0.  1.
         12    1    4    4    0    0 -0.19868486422E+02  0.16675822021E+02 -0.46173929945E+00  0.25943264944E+02  0.00000000000E+00 0. -1.
</event>
<event>
 8    1  0.1278459E-006  0.9118800E+02  0.7816164E-02  0.1184000E+00
        -11   -1    0    0    0    0  0.00000000000E+00  0.00000000000E+00  0.45593999997E+02  0.45594000000E+02  0.51100000000E-03 0.  1.
         11   -1    0    0    0    0 -0.00000000000E+00 -0.00000000000E+00 -0.45593999997E+02  0.45594000000E+02  0.51100000000E-03 0. -1.
         23    2    1    2    0    0  0.00000000000E+00  0.17763568394E-14  0.35527136788E-14  0.91188000000E+02  0.91188000000E+02 0.  0.
    9900012    2    3    3    0    0 -0.19092279917E+02  0.14891708516E+02  0.27739880779E+02  0.54367093974E+02  0.40000022332E+02 0.  0.
         12    1    3    3    0    0  0.19092279917E+02 -0.14891708516E+02 -0.27739880779E+02  0.36820906026E+02  0.00000000000E+00 0. -1.
         11    1    4    4    0    0 -0.66677819067E+00  0.13438737624E+02  0.57865141554E+01  0.14646774676E+02  0.51100000000E-03 0. -1.
        -11    1    4    4    0    0  0.56628826692E+01  0.25657637102E+01  0.12230406042E+02  0.13719847512E+02  0.51100000000E-03 0.  1.
         12    1    4    4    0    0 -0.24088384395E+02 -0.11127928177E+01  0.97229605815E+01  0.26000471786E+02  0.00000000000E+00 0. -1.
</event>
<event>
 8    1  0.1278459E-006  0.9118800E+02  0.7816164E-02  0.1184000E+00
        -11   -1    0    0    0    0  0.00000000000E+00  0.00000000000E+00  0.45593999997E+02  0.45594000000E+02  0.51100000000E-03 0.  1.
         11   -1    0    0    0    0 -0.00000000000E+00 -0.00000000000E+00 -0.45593999997E+02  0.45594000000E+02  0.51100000000E-03 0. -1.
         23    2    1    2    0    0  0.35527136788E-14  0.00000000000E+00  0.00000000000E+00  0.91188000000E+02  0.91188000000E+02 0.  0.
    9900012    2    3    3    0    0 -0.27487275126E+02  0.18308195183E+02 -0.16280042148E+02  0.54367080986E+02  0.39999992723E+02 0.  0.
        -12    1    3    3    0    0  0.27487275126E+02 -0.18308195183E+02  0.16280042148E+02  0.36820919014E+02  0.00000000000E+00 0.  1.
         11    1    4    4    0    0 -0.86372152132E+01  0.77255971295E+01 -0.11035498542E+02  0.16002142543E+02  0.51100000000E-03 0. -1.
        -11    1    4    4    0    0 -0.50096617959E+01 -0.16083895144E+01  0.12007726831E+02  0.13109886806E+02  0.51100000000E-03 0.  1.
        -12    1    4    4    0    0 -0.13840398117E+02  0.12190987568E+02 -0.17252270438E+02  0.25255051637E+02  0.00000000000E+00 0.  1.
</event>
<event>
 8    1  0.1278459E-006  0.9118800E+02  0.7816164E-02  0.1184000E+00
        -11   -1    0    0    0    0  0.00000000000E+00  0.00000000000E+00  0.45593999997E+02  0.45594000000E+02  0.51100000000E-03 0. -1.
         11   -1    0    0    0    0 -0.00000000000E+00 -0.00000000000E+00 -0.45593999997E+02  0.45594000000E+02  0.51100000000E-03 0.  1.
         23    2    1    2    0    0  0.00000000000E+00  0.35527136788E-14  0.00000000000E+00  0.91188000000E+02  0.91188000000E+02 0.  0.
    9900012    2    3    3    0    0  0.66627752164E+01  0.19742255808E+02 -0.30358364730E+02  0.54367088183E+02  0.40000009130E+02 0.  0.
         12    1    3    3    0    0 -0.66627752164E+01 -0.19742255808E+02  0.30358364730E+02  0.36820911817E+02  0.00000000000E+00 0. -1.
         11    1    4    4    0    0  0.48346679065E+01 -0.60350251460E+01 -0.88805136565E+01  0.11775358396E+02  0.51100000000E-03 0. -1.
        -11    1    4    4    0    0  0.75727063299E+01  0.12486810672E+02 -0.23804577526E+02  0.27927123615E+02  0.51100000000E-03 0.  1.
         12    1    4    4    0    0 -0.57445990200E+01  0.13290470282E+02  0.23267264524E+01  0.14664606172E+02  0.00000000000E+00 0. -1.
</event>
<event>
 8    1  0.1278459E-006  0.9118800E+02  0.7816164E-02  0.1184000E+00
        -11   -1    0    0    0    0  0.00000000000E+00  0.00000000000E+00  0.45593999997E+02  0.45594000000E+02  0.51100000000E-03 0. -1.
         11   -1    0    0    0    0 -0.00000000000E+00 -0.00000000000E+00 -0.45593999997E+02  0.45594000000E+02  0.51100000000E-03 0.  1.
         23    2    1    2    0    0 -0.17763568394E-14 -0.13322676296E-14  0.71054273576E-14  0.91188000000E+02  0.91188000000E+02 0.  0.
    9900012    2    3    3    0    0 -0.14310773183E+02 -0.27233540882E+01 -0.33816656300E+02  0.54367066689E+02  0.39999960131E+02 0.  0.
         12    1    3    3    0    0  0.14310773183E+02  0.27233540882E+01  0.33816656300E+02  0.36820933311E+02  0.00000000000E+00 0. -1.
         11    1    4    4    0    0  0.10882937626E+02  0.11465965048E+01 -0.90703706531E+01  0.14213537173E+02  0.51100000000E-03 0. -1.
        -11    1    4    4    0    0 -0.17489111994E+01  0.54574465140E+01 -0.81104668333E+01  0.99308652872E+01  0.51100000000E-03 0.  1.
        -12    1    4    4    0    0 -0.23444799609E+02 -0.93273971070E+01 -0.16635818813E+02  0.30222664229E+02  0.00000000000E+00 0.  1.
</event>
<event>
 8    1  0.1278459E-006  0.9118800E+02  0.7816164E-02  0.1184000E+00
        -11   -1    0    0    0    0  0.00000000000E+00  0.00000000000E+00  0.45593999997E+02  0.45594000000E+02  0.51100000000E-03 0.  1.
         11   -1    0    0    0    0 -0.00000000000E+00 -0.00000000000E+00 -0.45593999997E+02  0.45594000000E+02  0.51100000000E-03 0. -1.
         23    2    1    2    0    0  0.17763568394E-14  0.00000000000E+00  0.00000000000E+00  0.91188000000E+02  0.91188000000E+02 0.  0.
    9900012    2    3    3    0    0  0.13228327694E+02  0.31759399538E+02  0.13119946097E+02  0.54367067119E+02  0.39999961112E+02 0.  0.
         12    1    3    3    0    0 -0.13228327694E+02 -0.31759399538E+02 -0.13119946097E+02  0.36820932881E+02  0.00000000000E+00 0. -1.
         11    1    4    4    0    0  0.16622756214E+02  0.13587528457E+02  0.13374327965E+02  0.25294457940E+02  0.51100000000E-03 0. -1.
        -11    1    4    4    0    0  0.90175165997E+00  0.11681246603E+02  0.10543541180E+02  0.15761692140E+02  0.51100000000E-03 0.  1.
         12    1    4    4    0    0 -0.42961801803E+01  0.64906244786E+01 -0.10797923048E+02  0.13310917039E+02  0.00000000000E+00 0. -1.
</event>
<event>
 8    1  0.1278459E-006  0.9118800E+02  0.7816164E-02  0.1184000E+00
        -11   -1    0    0    0    0  0.00000000000E+00  0.00000000000E+00  0.45593999997E+02  0.45594000000E+02  0.51100000000E-03 0.  1.
         11   -1    0    0    0    0 -0.00000000000E+00 -0.00000000000E+00 -0.45593999997E+02  0.45594000000E+02  0.51100000000E-03 0. -1.
         23    2    1    2    0    0 -0.17763568394E-14 -0.71054273576E-14  0.00000000000E+00  0.91188000000E+02  0.91188000000E+02 0.  0.
    9900012    2    3    3    0    0 -0.63586307549E+01 -0.36000041944E+02  0.43982972556E+01  0.54367078993E+02  0.39999988180E+02 0.  0.
        -12    1    3    3    0    0  0.63586307549E+01  0.36000041944E+02 -0.43982972556E+01  0.36820921007E+02  0.00000000000E+00 0.  1.
         11    1    4    4    0    0 -0.15687572350E+02 -0.10305485068E+02 -0.35973757640E-01  0.18769769394E+02  0.51100000000E-03 0. -1.
        -11    1    4    4    0    0  0.94484451512E+01 -0.21867806255E-01  0.28786387850E+01  0.98772544511E+01  0.51100000000E-03 0.  1.
         12    1    4    4    0    0 -0.11950355623E+00 -0.25672689070E+02  0.15556322283E+01  0.25720055148E+02  0.00000000000E+00 0. -1.
</event>
<event>
 8    1  0.1278459E-006  0.9118800E+02  0.7816164E-02  0.1184000E+00
        -11   -1    0    0    0    0  0.00000000000E+00  0.00000000000E+00  0.45593999997E+02  0.45594000000E+02  0.51100000000E-03 0.  1.
         11   -1    0    0    0    0 -0.00000000000E+00 -0.00000000000E+00 -0.45593999997E+02  0.45594000000E+02  0.51100000000E-03 0. -1.
         23    2    1    2    0    0  0.00000000000E+00  0.00000000000E+00  0.00000000000E+00  0.91188000000E+02  0.91188000000E+02 0.  0.
    9900012    2    3    3    0    0 -0.32885066640E+02  0.14493634582E+02  0.80179119010E+01  0.54367082541E+02  0.39999996268E+02 0.  0.
        -12    1    3    3    0    0  0.32885066640E+02 -0.14493634582E+02 -0.80179119010E+01  0.36820917459E+02  0.00000000000E+00 0.  1.
         11    1    4    4    0    0 -0.19169812347E+02  0.10105050267E+02  0.71731557017E+01  0.22826473869E+02  0.51100000000E-03 0. -1.
        -11    1    4    4    0    0 -0.18796182610E+02  0.11812997799E+02 -0.14774762557E+01  0.22249187267E+02  0.51100000000E-03 0.  1.
        -12    1    4    4    0    0  0.50809283171E+01 -0.74244134839E+01  0.23222324550E+01  0.92914214046E+01  0.00000000000E+00 0.  1.
</event>
<event>
 8    1  0.1278459E-006  0.9118800E+02  0.7816164E-02  0.1184000E+00
        -11   -1    0    0    0    0  0.00000000000E+00  0.00000000000E+00  0.45593999997E+02  0.45594000000E+02  0.51100000000E-03 0.  1.
         11   -1    0    0    0    0 -0.00000000000E+00 -0.00000000000E+00 -0.45593999997E+02  0.45594000000E+02  0.51100000000E-03 0. -1.
         23    2    1    2    0    0 -0.88817841970E-15  0.00000000000E+00  0.00000000000E+00  0.91188000000E+02  0.91188000000E+02 0.  0.
    9900012    2    3    3    0    0  0.63793843280E+01 -0.21481197872E+02 -0.29217143240E+02  0.54367083858E+02  0.39999999271E+02 0.  0.
        -12    1    3    3    0    0 -0.63793843280E+01  0.21481197872E+02  0.29217143240E+02  0.36820916142E+02  0.00000000000E+00 0.  1.
         11    1    4    4    0    0 -0.71181362759E+01 -0.19963225295E+02 -0.22683801519E+02  0.31044372756E+02  0.51100000000E-03 0. -1.
        -11    1    4    4    0    0  0.28207523636E+00 -0.73465263920E+01 -0.47888506323E+01  0.87740587590E+01  0.51100000000E-03 0.  1.
        -12    1    4    4    0    0  0.13215445367E+02  0.58285538145E+01 -0.17444910891E+01  0.14548652343E+02  0.00000000000E+00 0.  1.
</event>
<event>
 8    1  0.1278459E-006  0.9118800E+02  0.7816164E-02  0.1184000E+00
        -11   -1    0    0    0    0  0.00000000000E+00  0.00000000000E+00  0.45593999997E+02  0.45594000000E+02  0.51100000000E-03 0. -1.
         11   -1    0    0    0    0 -0.00000000000E+00 -0.00000000000E+00 -0.45593999997E+02  0.45594000000E+02  0.51100000000E-03 0.  1.
         23    2    1    2    0    0  0.00000000000E+00  0.00000000000E+00  0.00000000000E+00  0.91188000000E+02  0.91188000000E+02 0.  0.
    9900012    2    3    3    0    0 -0.25401945360E+02 -0.17548557513E+02 -0.20064114141E+02  0.54367090517E+02  0.40000014453E+02 0.  0.
         12    1    3    3    0    0  0.25401945360E+02  0.17548557513E+02  0.20064114141E+02  0.36820909483E+02  0.00000000000E+00 0. -1.
         11    1    4    4    0    0 -0.91380356447E+01  0.77006555637E+01 -0.46337480770E+00  0.11959034578E+02  0.51100000000E-03 0. -1.
        -11    1    4    4    0    0  0.18716565986E+01 -0.11283843764E+02  0.11720092781E+01  0.11497905658E+02  0.51100000000E-03 0.  1.
        -12    1    4    4    0    0 -0.18135566314E+02 -0.13965369313E+02 -0.20772748611E+02  0.30910150282E+02  0.00000000000E+00 0.  1.
</event>
<event>
 8    1  0.1278459E-006  0.9118800E+02  0.7816164E-02  0.1184000E+00
        -11   -1    0    0    0    0  0.00000000000E+00  0.00000000000E+00  0.45593999997E+02  0.45594000000E+02  0.51100000000E-03 0.  1.
         11   -1    0    0    0    0 -0.00000000000E+00 -0.00000000000E+00 -0.45593999997E+02  0.45594000000E+02  0.51100000000E-03 0. -1.
         23    2    1    2    0    0  0.35527136788E-14  0.00000000000E+00  0.00000000000E+00  0.91188000000E+02  0.91188000000E+02 0.  0.
    9900012    2    3    3    0    0 -0.20700225437E+02  0.23785647658E+02  0.19013771019E+02  0.54367083987E+02  0.39999999566E+02 0.  0.
         12    1    3    3    0    0  0.20700225437E+02 -0.23785647658E+02 -0.19013771019E+02  0.36820916013E+02  0.00000000000E+00 0. -1.
         11    1    4    4    0    0 -0.70403857184E+01 -0.41678221410E+01 -0.64956857873E+01  0.10446612205E+02  0.51100000000E-03 0. -1.
        -11    1    4    4    0    0 -0.12561587079E+01  0.26814421289E-01  0.91955691866E+01  0.92810100011E+01  0.51100000000E-03 0.  1.
        -12    1    4    4    0    0 -0.12403681010E+02  0.27926655378E+02  0.16313887619E+02  0.34639461781E+02  0.00000000000E+00 0.  1.
</event>
<event>
 8    1  0.1278459E-006  0.9118800E+02  0.7816164E-02  0.1184000E+00
        -11   -1    0    0    0    0  0.00000000000E+00  0.00000000000E+00  0.45593999997E+02  0.45594000000E+02  0.51100000000E-03 0.  1.
         11   -1    0    0    0    0 -0.00000000000E+00 -0.00000000000E+00 -0.45593999997E+02  0.45594000000E+02  0.51100000000E-03 0. -1.
         23    2    1    2    0    0  0.00000000000E+00 -0.88817841970E-15 -0.35527136788E-14  0.91188000000E+02  0.91188000000E+02 0.  0.
    9900012    2    3    3    0    0 -0.35295090482E+02  0.56188059326E+01 -0.88580706757E+01  0.54367084635E+02  0.40000001042E+02 0.  0.
        -12    1    3    3    0    0  0.35295090482E+02 -0.56188059326E+01  0.88580706757E+01  0.36820915365E+02  0.00000000000E+00 0.  1.
         11    1    4    4    0    0 -0.70987921135E+01 -0.14354041427E+01 -0.85309216516E+01  0.11190614774E+02  0.51100000000E-03 0. -1.
        -11    1    4    4    0    0 -0.94287857262E+01  0.15980841298E+02  0.87301918090E+01  0.20506231690E+02  0.51100000000E-03 0.  1.
        -12    1    4    4    0    0 -0.18767512642E+02 -0.89266312225E+01 -0.90573408332E+01  0.22670238171E+02  0.00000000000E+00 0.  1.
</event>
<event>
 8    1  0.1278459E-006  0.9118800E+02  0.7816164E-02  0.1184000E+00
        -11   -1    0    0    0    0  0.00000000000E+00  0.00000000000E+00  0.45593999997E+02  0.45594000000E+02  0.51100000000E-03 0.  1.
         11   -1    0    0    0    0 -0.00000000000E+00 -0.00000000000E+00 -0.45593999997E+02  0.45594000000E+02  0.51100000000E-03 0. -1.
         23    2    1    2    0    0  0.00000000000E+00  0.00000000000E+00  0.00000000000E+00  0.91188000000E+02  0.91188000000E+02 0.  0.
    9900012    2    3    3    0    0 -0.24769499432E+02 -0.30646220497E+01  0.27071529700E+02  0.54366977055E+02  0.39999755792E+02 0.  0.
         12    1    3    3    0    0  0.24769499432E+02  0.30646220497E+01 -0.27071529700E+02  0.36821022945E+02  0.00000000000E+00 0. -1.
         11    1    4    4    0    0 -0.13757227350E+02  0.24343615744E+01  0.10150966358E+02  0.17269323638E+02  0.51100000000E-03 0. -1.
        -11    1    4    4    0    0 -0.20698529482E+02 -0.71509479535E+01  0.66563185776E+01  0.22888244944E+02  0.51100000000E-03 0.  1.
        -12    1    4    4    0    0  0.96862574005E+01  0.16519643294E+01  0.10264244764E+02  0.14209408473E+02  0.00000000000E+00 0.  1.
</event>
<event>
 8    1  0.1278459E-006  0.9118800E+02  0.7816164E-02  0.1184000E+00
        -11   -1    0    0    0    0  0.00000000000E+00  0.00000000000E+00  0.45593999997E+02  0.45594000000E+02  0.51100000000E-03 0. -1.
         11   -1    0    0    0    0 -0.00000000000E+00 -0.00000000000E+00 -0.45593999997E+02  0.45594000000E+02  0.51100000000E-03 0.  1.
         23    2    1    2    0    0 -0.71054273576E-14  0.00000000000E+00  0.00000000000E+00  0.91188000000E+02  0.91188000000E+02 0.  0.
    9900012    2    3    3    0    0  0.33729577594E+02  0.14110786595E+02  0.43571163431E+01  0.54367039043E+02  0.39999897105E+02 0.  0.
        -12    1    3    3    0    0 -0.33729577594E+02 -0.14110786595E+02 -0.43571163431E+01  0.36820960957E+02  0.00000000000E+00 0.  1.
         11    1    4    4    0    0  0.55702629655E+01  0.17267239001E+02  0.94545158590E+01  0.20459062603E+02  0.51100000000E-03 0. -1.
        -11    1    4    4    0    0 -0.21036739286E+01 -0.17348811575E+00  0.17442095183E+01  0.27382127801E+01  0.51100000000E-03 0.  1.
         12    1    4    4    0    0  0.30262988557E+02 -0.29829642907E+01 -0.68416090341E+01  0.31169763659E+02  0.00000000000E+00 0. -1.
</event>
<event>
 8    1  0.1278459E-006  0.9118800E+02  0.7816164E-02  0.1184000E+00
        -11   -1    0    0    0    0  0.00000000000E+00  0.00000000000E+00  0.45593999997E+02  0.45594000000E+02  0.51100000000E-03 0.  1.
         11   -1    0    0    0    0 -0.00000000000E+00 -0.00000000000E+00 -0.45593999997E+02  0.45594000000E+02  0.51100000000E-03 0. -1.
         23    2    1    2    0    0  0.17763568394E-14 -0.35527136788E-14 -0.35527136788E-14  0.91188000000E+02  0.91188000000E+02 0.  0.
    9900012    2    3    3    0    0  0.13888411310E+02  0.22295475660E+02  0.25803143214E+02  0.54367103713E+02  0.40000044535E+02 0.  0.
         12    1    3    3    0    0 -0.13888411310E+02 -0.22295475660E+02 -0.25803143214E+02  0.36820896287E+02  0.00000000000E+00 0. -1.
         11    1    4    4    0    0  0.18298413754E+02  0.33588751396E+01  0.22471125469E+01  0.18739357064E+02  0.51100000000E-03 0. -1.
        -11    1    4    4    0    0 -0.78644974453E+01  0.14491748686E+01  0.33154686229E+01  0.86569486724E+01  0.51100000000E-03 0.  1.
         12    1    4    4    0    0  0.34544950010E+01  0.17487425652E+02  0.20240562044E+02  0.26970797977E+02  0.00000000000E+00 0. -1.
</event>
<event>
 8    1  0.1278459E-006  0.9118800E+02  0.7816164E-02  0.1184000E+00
        -11   -1    0    0    0    0  0.00000000000E+00  0.00000000000E+00  0.45593999997E+02  0.45594000000E+02  0.51100000000E-03 0.  1.
         11   -1    0    0    0    0 -0.00000000000E+00 -0.00000000000E+00 -0.45593999997E+02  0.45594000000E+02  0.51100000000E-03 0. -1.
         23    2    1    2    0    0 -0.17763568394E-14  0.35527136788E-14  0.00000000000E+00  0.91188000000E+02  0.91188000000E+02 0.  0.
    9900012    2    3    3    0    0  0.70388284730E+01 -0.29584533564E+02 -0.20760357306E+02  0.54367052593E+02  0.39999927996E+02 0.  0.
        -12    1    3    3    0    0 -0.70388284730E+01  0.29584533564E+02  0.20760357306E+02  0.36820947407E+02  0.00000000000E+00 0.  1.
         11    1    4    4    0    0 -0.13615650615E+02 -0.18225519866E+02 -0.19418388255E+02  0.29910354707E+02  0.51100000000E-03 0. -1.
        -11    1    4    4    0    0  0.14885404882E+02 -0.70032511746E+01  0.18506229845E+01  0.16554323037E+02  0.51100000000E-03 0.  1.
         12    1    4    4    0    0  0.57690742059E+01 -0.43557625233E+01 -0.31925920359E+01  0.79023748494E+01  0.00000000000E+00 0. -1.
</event>
<event>
 8    1  0.1278459E-006  0.9118800E+02  0.7816164E-02  0.1184000E+00
        -11   -1    0    0    0    0  0.00000000000E+00  0.00000000000E+00  0.45593999997E+02  0.45594000000E+02  0.51100000000E-03 0.  1.
         11   -1    0    0    0    0 -0.00000000000E+00 -0.00000000000E+00 -0.45593999997E+02  0.45594000000E+02  0.51100000000E-03 0. -1.
         23    2    1    2    0    0  0.71054273576E-14  0.35527136788E-14 -0.88817841970E-15  0.91188000000E+02  0.91188000000E+02 0.  0.
    9900012    2    3    3    0    0 -0.36274235635E+02 -0.63141024973E+01  0.30319932519E+00  0.54367082153E+02  0.39999995384E+02 0.  0.
        -12    1    3    3    0    0  0.36274235635E+02  0.63141024973E+01 -0.30319932519E+00  0.36820917847E+02  0.00000000000E+00 0.  1.
         11    1    4    4    0    0 -0.10067416192E+01 -0.95720980448E+01  0.34826898528E+01  0.10235610316E+02  0.51100000000E-03 0. -1.
        -11    1    4    4    0    0 -0.20565331436E+02 -0.10449511548E+02 -0.59953881824E+01  0.23834215497E+02  0.51100000000E-03 0.  1.
        -12    1    4    4    0    0 -0.14702162580E+02  0.13707507095E+02  0.28158976548E+01  0.20297256339E+02  0.00000000000E+00 0.  1.
</event>
<event>
 8    1  0.1278459E-006  0.9118800E+02  0.7816164E-02  0.1184000E+00
        -11   -1    0    0    0    0  0.00000000000E+00  0.00000000000E+00  0.45593999997E+02  0.45594000000E+02  0.51100000000E-03 0. -1.
         11   -1    0    0    0    0 -0.00000000000E+00 -0.00000000000E+00 -0.45593999997E+02  0.45594000000E+02  0.51100000000E-03 0.  1.
         23    2    1    2    0    0  0.00000000000E+00  0.13322676296E-14  0.00000000000E+00  0.91188000000E+02  0.91188000000E+02 0.  0.
    9900012    2    3    3    0    0 -0.70687114805E+01 -0.11916364333E+01  0.36116371196E+02  0.54367096320E+02  0.40000027682E+02 0.  0.
        -12    1    3    3    0    0  0.70687114805E+01  0.11916364333E+01 -0.36116371196E+02  0.36820903680E+02  0.00000000000E+00 0.  1.
         11    1    4    4    0    0 -0.33372451997E+01  0.55649996536E+01 -0.32248281755E+01  0.72460985151E+01  0.51100000000E-03 0.  1.
        -11    1    4    4    0    0 -0.60550345847E+01  0.53115654928E+01  0.31567691214E+02  0.32579062304E+02  0.51100000000E-03 0. -1.
        -12    1    4    4    0    0  0.23235683039E+01 -0.12068201580E+02  0.77735081581E+01  0.14541935501E+02  0.00000000000E+00 0.  1.
</event>
<event>
 8    1  0.1278459E-006  0.9118800E+02  0.7816164E-02  0.1184000E+00
        -11   -1    0    0    0    0  0.00000000000E+00  0.00000000000E+00  0.45593999997E+02  0.45594000000E+02  0.51100000000E-03 0.  1.
         11   -1    0    0    0    0 -0.00000000000E+00 -0.00000000000E+00 -0.45593999997E+02  0.45594000000E+02  0.51100000000E-03 0. -1.
         23    2    1    2    0    0  0.35527136788E-14 -0.35527136788E-14  0.00000000000E+00  0.91188000000E+02  0.91188000000E+02 0.  0.
    9900012    2    3    3    0    0  0.23725778282E+02 -0.27372846251E+02  0.66025992029E+01  0.54367087692E+02  0.40000008012E+02 0.  0.
         12    1    3    3    0    0 -0.23725778282E+02  0.27372846251E+02 -0.66025992029E+01  0.36820912308E+02  0.00000000000E+00 0. -1.
         11    1    4    4    0    0 -0.44827617284E+01 -0.14840274315E+02  0.10655279119E+02  0.18811269703E+02  0.51100000000E-03 0. -1.
        -11    1    4    4    0    0  0.10992134943E+02  0.40242318158E+00 -0.80800731637E+01  0.13648317025E+02  0.51100000000E-03 0.  1.
         12    1    4    4    0    0  0.17216405068E+02 -0.12934995117E+02  0.40273932475E+01  0.21907500964E+02  0.00000000000E+00 0. -1.
</event>
<event>
 8    1  0.1278459E-006  0.9118800E+02  0.7816164E-02  0.1184000E+00
        -11   -1    0    0    0    0  0.00000000000E+00  0.00000000000E+00  0.45593999997E+02  0.45594000000E+02  0.51100000000E-03 0.  1.
         11   -1    0    0    0    0 -0.00000000000E+00 -0.00000000000E+00 -0.45593999997E+02  0.45594000000E+02  0.51100000000E-03 0. -1.
         23    2    1    2    0    0 -0.35527136788E-14  0.00000000000E+00 -0.88817841970E-15  0.91188000000E+02  0.91188000000E+02 0.  0.
    9900012    2    3    3    0    0  0.27589369990E+02  0.23804200955E+02 -0.52877382925E+01  0.54367170354E+02  0.40000196455E+02 0.  0.
        -12    1    3    3    0    0 -0.27589369990E+02 -0.23804200955E+02  0.52877382925E+01  0.36820829646E+02  0.00000000000E+00 0.  1.
         11    1    4    4    0    0  0.29903771739E+02  0.19464265661E+02 -0.44995115849E+01  0.35963019989E+02  0.51100000000E-03 0. -1.
        -11    1    4    4    0    0  0.33553408458E+01 -0.53603632304E+01  0.23369297288E+01  0.67418874932E+01  0.51100000000E-03 0.  1.
        -12    1    4    4    0    0 -0.56697425939E+01  0.97002985243E+01 -0.31251564364E+01  0.11662262872E+02  0.00000000000E+00 0.  1.
</event>
<event>
 8    1  0.1278459E-006  0.9118800E+02  0.7816164E-02  0.1184000E+00
        -11   -1    0    0    0    0  0.00000000000E+00  0.00000000000E+00  0.45593999997E+02  0.45594000000E+02  0.51100000000E-03 0. -1.
         11   -1    0    0    0    0 -0.00000000000E+00 -0.00000000000E+00 -0.45593999997E+02  0.45594000000E+02  0.51100000000E-03 0.  1.
         23    2    1    2    0    0 -0.71054273576E-14  0.00000000000E+00  0.26645352591E-14  0.91188000000E+02  0.91188000000E+02 0.  0.
    9900012    2    3    3    0    0 -0.33838259426E+02  0.13750590575E+02 -0.46554263954E+01  0.54367088318E+02  0.40000009440E+02 0.  0.
        -12    1    3    3    0    0  0.33838259426E+02 -0.13750590575E+02  0.46554263954E+01  0.36820911682E+02  0.00000000000E+00 0.  1.
         11    1    4    4    0    0 -0.17408788742E+02 -0.42442618564E+01  0.54856345835E+01  0.18739580337E+02  0.51100000000E-03 0. -1.
        -11    1    4    4    0    0  0.34631723591E+00  0.85512680111E+01  0.60434760423E+01  0.10477009266E+02  0.51100000000E-03 0.  1.
        -12    1    4    4    0    0 -0.16775787920E+02  0.94435844199E+01 -0.16184537021E+02  0.25150498715E+02  0.00000000000E+00 0.  1.
</event>
<event>
 8    1  0.1278459E-006  0.9118800E+02  0.7816164E-02  0.1184000E+00
        -11   -1    0    0    0    0  0.00000000000E+00  0.00000000000E+00  0.45593999997E+02  0.45594000000E+02  0.51100000000E-03 0.  1.
         11   -1    0    0    0    0 -0.00000000000E+00 -0.00000000000E+00 -0.45593999997E+02  0.45594000000E+02  0.51100000000E-03 0. -1.
         23    2    1    2    0    0  0.17763568394E-14 -0.13322676296E-14  0.00000000000E+00  0.91188000000E+02  0.91188000000E+02 0.  0.
    9900012    2    3    3    0    0  0.82521704127E+01  0.17646132065E+01 -0.35840879146E+02  0.54367071247E+02  0.39999970521E+02 0.  0.
        -12    1    3    3    0    0 -0.82521704127E+01 -0.17646132065E+01  0.35840879146E+02  0.36820928753E+02  0.00000000000E+00 0.  1.
         11    1    4    4    0    0 -0.42941318131E+00  0.29897475532E+01  0.47802195383E+01  0.56545101652E+01  0.51100000000E-03 0. -1.
        -11    1    4    4    0    0  0.12794768679E+02  0.79489967761E+01 -0.15309442842E+02  0.21477236686E+02  0.51100000000E-03 0.  1.
         12    1    4    4    0    0 -0.41131850849E+01 -0.91741311229E+01 -0.25311655843E+02  0.27235324395E+02  0.00000000000E+00 0. -1.
</event>
<event>
 8    1  0.1278459E-006  0.9118800E+02  0.7816164E-02  0.1184000E+00
        -11   -1    0    0    0    0  0.00000000000E+00  0.00000000000E+00  0.45593999997E+02  0.45594000000E+02  0.51100000000E-03 0.  1.
         11   -1    0    0    0    0 -0.00000000000E+00 -0.00000000000E+00 -0.45593999997E+02  0.45594000000E+02  0.51100000000E-03 0. -1.
         23    2    1    2    0    0  0.17763568394E-14  0.35527136788E-14  0.00000000000E+00  0.91188000000E+02  0.91188000000E+02 0.  0.
    9900012    2    3    3    0    0 -0.13777925731E+02  0.30839256172E+02  0.14659132492E+02  0.54367066768E+02  0.39999960311E+02 0.  0.
         12    1    3    3    0    0  0.13777925731E+02 -0.30839256172E+02 -0.14659132492E+02  0.36820933232E+02  0.00000000000E+00 0. -1.
         11    1    4    4    0    0 -0.16195661442E+02  0.38310285789E+01  0.13005328783E+02  0.21121430031E+02  0.51100000000E-03 0. -1.
        -11    1    4    4    0    0 -0.82448139161E+01  0.85043474365E+01  0.82120443679E+00  0.11873300250E+02  0.51100000000E-03 0.  1.
        -12    1    4    4    0    0  0.10662549627E+02  0.18503880156E+02  0.83259927159E+00  0.21372336487E+02  0.00000000000E+00 0.  1.
</event>
<event>
 8    1  0.1278459E-006  0.9118800E+02  0.7816164E-02  0.1184000E+00
        -11   -1    0    0    0    0  0.00000000000E+00  0.00000000000E+00  0.45593999997E+02  0.45594000000E+02  0.51100000000E-03 0.  1.
         11   -1    0    0    0    0 -0.00000000000E+00 -0.00000000000E+00 -0.45593999997E+02  0.45594000000E+02  0.51100000000E-03 0. -1.
         23    2    1    2    0    0  0.35527136788E-14  0.88817841970E-15  0.00000000000E+00  0.91188000000E+02  0.91188000000E+02 0.  0.
    9900012    2    3    3    0    0  0.27405446162E+02  0.61080940223E+01 -0.23820570835E+02  0.54366988514E+02  0.39999781915E+02 0.  0.
        -12    1    3    3    0    0 -0.27405446162E+02 -0.61080940223E+01  0.23820570835E+02  0.36821011486E+02  0.00000000000E+00 0.  1.
         11    1    4    4    0    0  0.19682952428E+02 -0.39163060839E+01 -0.22188539949E+02  0.29918010879E+02  0.51100000000E-03 0. -1.
        -11    1    4    4    0    0  0.12156106586E+02 -0.53686795938E+00  0.22112598030E+01  0.12367248066E+02  0.51100000000E-03 0.  1.
         12    1    4    4    0    0 -0.44336128519E+01  0.10561268066E+02 -0.38432906884E+01  0.12081729569E+02  0.00000000000E+00 0. -1.
</event>
<event>
 8    1  0.1278459E-006  0.9118800E+02  0.7816164E-02  0.1184000E+00
        -11   -1    0    0    0    0  0.00000000000E+00  0.00000000000E+00  0.45593999997E+02  0.45594000000E+02  0.51100000000E-03 0.  1.
         11   -1    0    0    0    0 -0.00000000000E+00 -0.00000000000E+00 -0.45593999997E+02  0.45594000000E+02  0.51100000000E-03 0. -1.
         23    2    1    2    0    0  0.00000000000E+00 -0.17763568394E-14 -0.11102230246E-14  0.91188000000E+02  0.91188000000E+02 0.  0.
    9900012    2    3    3    0    0  0.34263103874E+02  0.13425504870E+02 -0.12556799086E+01  0.54367065735E+02  0.39999957957E+02 0.  0.
         12    1    3    3    0    0 -0.34263103874E+02 -0.13425504870E+02  0.12556799086E+01  0.36820934265E+02  0.00000000000E+00 0. -1.
         11    1    4    4    0    0  0.96327581989E+01  0.10563616972E+02  0.35414936762E+00  0.14300540413E+02  0.51100000000E-03 0. -1.
        -11    1    4    4    0    0  0.25624675560E+02 -0.55607678837E+01 -0.10068989955E+02  0.28087910139E+02  0.51100000000E-03 0.  1.
        -12    1    4    4    0    0 -0.99432988519E+00  0.84226557810E+01  0.84591606785E+01  0.11978615183E+02  0.00000000000E+00 0.  1.
</event>
<event>
 8    1  0.1278459E-006  0.9118800E+02  0.7816164E-02  0.1184000E+00
        -11   -1    0    0    0    0  0.00000000000E+00  0.00000000000E+00  0.45593999997E+02  0.45594000000E+02  0.51100000000E-03 0.  1.
         11   -1    0    0    0    0 -0.00000000000E+00 -0.00000000000E+00 -0.45593999997E+02  0.45594000000E+02  0.51100000000E-03 0. -1.
         23    2    1    2    0    0  0.00000000000E+00  0.00000000000E+00 -0.44408920985E-15  0.91188000000E+02  0.91188000000E+02 0.  0.
    9900012    2    3    3    0    0  0.11074971572E+02 -0.35064805601E+02 -0.18931158611E+01  0.54367089164E+02  0.40000011367E+02 0.  0.
        -12    1    3    3    0    0 -0.11074971572E+02  0.35064805601E+02  0.18931158611E+01  0.36820910836E+02  0.00000000000E+00 0.  1.
         11    1    4    4    0    0  0.41651918769E+01 -0.86311816338E+01 -0.17714446334E+01  0.97459805108E+01  0.51100000000E-03 0. -1.
        -11    1    4    4    0    0 -0.12228918295E+00  0.39116046784E+01  0.10898473357E+02  0.11579824160E+02  0.51100000000E-03 0.  1.
         12    1    4    4    0    0  0.70320688782E+01 -0.30345228645E+02 -0.11020144585E+02  0.33041284493E+02  0.00000000000E+00 0. -1.
</event>
<event>
 8    1  0.1278459E-006  0.9118800E+02  0.7816164E-02  0.1184000E+00
        -11   -1    0    0    0    0  0.00000000000E+00  0.00000000000E+00  0.45593999997E+02  0.45594000000E+02  0.51100000000E-03 0.  1.
         11   -1    0    0    0    0 -0.00000000000E+00 -0.00000000000E+00 -0.45593999997E+02  0.45594000000E+02  0.51100000000E-03 0. -1.
         23    2    1    2    0    0  0.00000000000E+00  0.35527136788E-14 -0.35527136788E-14  0.91188000000E+02  0.91188000000E+02 0.  0.
    9900012    2    3    3    0    0  0.10002158251E+02  0.26255268828E+02 -0.23799100201E+02  0.54367089076E+02  0.40000011166E+02 0.  0.
        -12    1    3    3    0    0 -0.10002158251E+02 -0.26255268828E+02  0.23799100201E+02  0.36820910924E+02  0.00000000000E+00 0.  1.
         11    1    4    4    0    0  0.93785542812E+01 -0.72067354714E+00  0.53412498632E+00  0.94213555569E+01  0.51100000000E-03 0. -1.
        -11    1    4    4    0    0  0.42130019617E+01  0.10408623122E+01  0.43258826526E+01  0.61274824249E+01  0.51100000000E-03 0.  1.
         12    1    4    4    0    0 -0.35893979919E+01  0.25935080063E+02 -0.28659107840E+02  0.38818251094E+02  0.00000000000E+00 0. -1.
</event>
<event>
 8    1  0.1278459E-006  0.9118800E+02  0.7816164E-02  0.1184000E+00
        -11   -1    0    0    0    0  0.00000000000E+00  0.00000000000E+00  0.45593999997E+02  0.45594000000E+02  0.51100000000E-03 0. -1.
         11   -1    0    0    0    0 -0.00000000000E+00 -0.00000000000E+00 -0.45593999997E+02  0.45594000000E+02  0.51100000000E-03 0.  1.
         23    2    1    2    0    0  0.00000000000E+00  0.00000000000E+00  0.44408920985E-15  0.91188000000E+02  0.91188000000E+02 0.  0.
    9900012    2    3    3    0    0 -0.11617348435E+02 -0.34922264326E+02 -0.11190567038E+01  0.54367087217E+02  0.40000006927E+02 0.  0.
         12    1    3    3    0    0  0.11617348435E+02  0.34922264326E+02  0.11190567038E+01  0.36820912783E+02  0.00000000000E+00 0. -1.
         11    1    4    4    0    0  0.31038907641E+01 -0.13256895195E+01 -0.89070275513E+00  0.34906936612E+01  0.51100000000E-03 0. -1.
        -11    1    4    4    0    0 -0.48099449763E+01 -0.38239835010E+02  0.47864125425E+01  0.38837228242E+02  0.51100000000E-03 0.  1.
        -12    1    4    4    0    0 -0.99112942224E+01  0.46432602031E+01 -0.50147664912E+01  0.12039165313E+02  0.00000000000E+00 0.  1.
</event>
<event>
 8    1  0.1278459E-006  0.9118800E+02  0.7816164E-02  0.1184000E+00
        -11   -1    0    0    0    0  0.00000000000E+00  0.00000000000E+00  0.45593999997E+02  0.45594000000E+02  0.51100000000E-03 0. -1.
         11   -1    0    0    0    0 -0.00000000000E+00 -0.00000000000E+00 -0.45593999997E+02  0.45594000000E+02  0.51100000000E-03 0.  1.
         23    2    1    2    0    0  0.00000000000E+00  0.88817841970E-15 -0.35527136788E-14  0.91188000000E+02  0.91188000000E+02 0.  0.
    9900012    2    3    3    0    0 -0.29509223061E+02 -0.52983271984E+01  0.21375520591E+02  0.54367090216E+02  0.40000013766E+02 0.  0.
        -12    1    3    3    0    0  0.29509223061E+02  0.52983271984E+01 -0.21375520591E+02  0.36820909784E+02  0.00000000000E+00 0.  1.
         11    1    4    4    0    0 -0.19337447800E+02  0.87271069490E+01  0.46946436800E+01  0.21728758884E+02  0.51100000000E-03 0. -1.
        -11    1    4    4    0    0 -0.13680706661E+01 -0.83644411885E+01  0.19947718356E+02  0.21673646708E+02  0.51100000000E-03 0.  1.
        -12    1    4    4    0    0 -0.88037045955E+01 -0.56609929588E+01 -0.32668414449E+01  0.10964684624E+02  0.00000000000E+00 0.  1.
</event>
<event>
 8    1  0.1278459E-006  0.9118800E+02  0.7816164E-02  0.1184000E+00
        -11   -1    0    0    0    0  0.00000000000E+00  0.00000000000E+00  0.45593999997E+02  0.45594000000E+02  0.51100000000E-03 0. -1.
         11   -1    0    0    0    0 -0.00000000000E+00 -0.00000000000E+00 -0.45593999997E+02  0.45594000000E+02  0.51100000000E-03 0.  1.
         23    2    1    2    0    0  0.00000000000E+00  0.00000000000E+00  0.54470317146E-15  0.91188000000E+02  0.91188000000E+02 0.  0.
    9900012    2    3    3    0    0  0.30493824954E+02  0.20637486416E+02  0.24878003349E-01  0.54367084411E+02  0.40000000531E+02 0.  0.
         12    1    3    3    0    0 -0.30493824954E+02 -0.20637486416E+02 -0.24878003349E-01  0.36820915589E+02  0.00000000000E+00 0. -1.
         11    1    4    4    0    0 -0.57092406872E+01  0.40870938074E+01  0.83070846112E+01  0.10876921440E+02  0.51100000000E-03 0. -1.
        -11    1    4    4    0    0 -0.12112710149E+01  0.22881365308E+01 -0.10887976843E+01  0.28085987456E+01  0.51100000000E-03 0.  1.
        -12    1    4    4    0    0  0.37414336656E+02  0.14262256078E+02 -0.71934089236E+01  0.40681564225E+02  0.00000000000E+00 0.  1.
</event>
<event>
 8    1  0.1278459E-006  0.9118800E+02  0.7816164E-02  0.1184000E+00
        -11   -1    0    0    0    0  0.00000000000E+00  0.00000000000E+00  0.45593999997E+02  0.45594000000E+02  0.51100000000E-03 0. -1.
         11   -1    0    0    0    0 -0.00000000000E+00 -0.00000000000E+00 -0.45593999997E+02  0.45594000000E+02  0.51100000000E-03 0.  1.
         23    2    1    2    0    0  0.35527136788E-14  0.35527136788E-14  0.35527136788E-14  0.91188000000E+02  0.91188000000E+02 0.  0.
    9900012    2    3    3    0    0  0.13313336011E+02  0.26351334274E+02 -0.22003214606E+02  0.54367093075E+02  0.40000020284E+02 0.  0.
         12    1    3    3    0    0 -0.13313336011E+02 -0.26351334274E+02  0.22003214606E+02  0.36820906925E+02  0.00000000000E+00 0. -1.
         11    1    4    4    0    0  0.46284397814E+01 -0.96658575629E+00 -0.29718868501E+01  0.55846982502E+01  0.51100000000E-03 0. -1.
        -11    1    4    4    0    0  0.85436017773E+01  0.14404753412E+02 -0.28301523093E+02  0.32885654347E+02  0.51100000000E-03 0.  1.
         12    1    4    4    0    0  0.14129445255E+00  0.12913166618E+02  0.92701953374E+01  0.15896740478E+02  0.00000000000E+00 0. -1.
</event>
<event>
 8    1  0.1278459E-006  0.9118800E+02  0.7816164E-02  0.1184000E+00
        -11   -1    0    0    0    0  0.00000000000E+00  0.00000000000E+00  0.45593999997E+02  0.45594000000E+02  0.51100000000E-03 0. -1.
         11   -1    0    0    0    0 -0.00000000000E+00 -0.00000000000E+00 -0.45593999997E+02  0.45594000000E+02  0.51100000000E-03 0.  1.
         23    2    1    2    0    0 -0.35527136788E-14  0.00000000000E+00 -0.35527136788E-14  0.91188000000E+02  0.91188000000E+02 0.  0.
    9900012    2    3    3    0    0 -0.20139924535E+02 -0.25862939634E+02 -0.16771162050E+02  0.54367080901E+02  0.39999992531E+02 0.  0.
         12    1    3    3    0    0  0.20139924535E+02  0.25862939634E+02  0.16771162050E+02  0.36820919099E+02  0.00000000000E+00 0. -1.
         11    1    4    4    0    0 -0.19676740908E+02 -0.13968308939E+02  0.82958632166E+01  0.25516840207E+02  0.51100000000E-03 0. -1.
        -11    1    4    4    0    0 -0.30816039389E+01 -0.14109687557E+01 -0.74250976295E+01  0.81620579962E+01  0.51100000000E-03 0.  1.
         12    1    4    4    0    0  0.26184203125E+01 -0.10483661939E+02 -0.17641927637E+02  0.20688182698E+02  0.00000000000E+00 0. -1.
</event>
<event>
 8    1  0.1278459E-006  0.9118800E+02  0.7816164E-02  0.1184000E+00
        -11   -1    0    0    0    0  0.00000000000E+00  0.00000000000E+00  0.45593999997E+02  0.45594000000E+02  0.51100000000E-03 0.  1.
         11   -1    0    0    0    0 -0.00000000000E+00 -0.00000000000E+00 -0.45593999997E+02  0.45594000000E+02  0.51100000000E-03 0. -1.
         23    2    1    2    0    0  0.17763568394E-14  0.00000000000E+00  0.00000000000E+00  0.91188000000E+02  0.91188000000E+02 0.  0.
    9900012    2    3    3    0    0  0.15106756098E+02 -0.31626244354E+02  0.11284758136E+02  0.54367093195E+02  0.40000020557E+02 0.  0.
         12    1    3    3    0    0 -0.15106756098E+02  0.31626244354E+02 -0.11284758136E+02  0.36820906805E+02  0.00000000000E+00 0. -1.
         11    1    4    4    0    0  0.16649208812E+00 -0.12821374715E+01 -0.81594674352E+00  0.15288444855E+01  0.51100000000E-03 0. -1.
        -11    1    4    4    0    0  0.48399493325E+00 -0.35842186685E+02  0.10111772377E+02  0.37244389353E+02  0.51100000000E-03 0.  1.
         12    1    4    4    0    0  0.14456269076E+02  0.54980798022E+01  0.19889325028E+01  0.15593859356E+02  0.00000000000E+00 0. -1.
</event>
<event>
 8    1  0.1278459E-006  0.9118800E+02  0.7816164E-02  0.1184000E+00
        -11   -1    0    0    0    0  0.00000000000E+00  0.00000000000E+00  0.45593999997E+02  0.45594000000E+02  0.51100000000E-03 0. -1.
         11   -1    0    0    0    0 -0.00000000000E+00 -0.00000000000E+00 -0.45593999997E+02  0.45594000000E+02  0.51100000000E-03 0.  1.
         23    2    1    2    0    0  0.00000000000E+00 -0.35527136788E-14  0.00000000000E+00  0.91188000000E+02  0.91188000000E+02 0.  0.
    9900012    2    3    3    0    0  0.95560833991E+01  0.24038326248E+02  0.26203420290E+02  0.54367094340E+02  0.40000023167E+02 0.  0.
        -12    1    3    3    0    0 -0.95560833991E+01 -0.24038326248E+02 -0.26203420290E+02  0.36820905660E+02  0.00000000000E+00 0.  1.
         11    1    4    4    0    0 -0.18502390273E+01  0.10876377359E+02  0.16827052973E+02  0.20121348885E+02  0.51100000000E-03 0. -1.
        -11    1    4    4    0    0  0.19198841353E+02  0.87435962987E+01 -0.24804407909E+00  0.21097571226E+02  0.51100000000E-03 0.  1.
        -12    1    4    4    0    0 -0.77925189265E+01  0.44183525897E+01  0.96244113963E+01  0.13148174229E+02  0.00000000000E+00 0.  1.
</event>
<event>
 8    1  0.1278459E-006  0.9118800E+02  0.7816164E-02  0.1184000E+00
        -11   -1    0    0    0    0  0.00000000000E+00  0.00000000000E+00  0.45593999997E+02  0.45594000000E+02  0.51100000000E-03 0. -1.
         11   -1    0    0    0    0 -0.00000000000E+00 -0.00000000000E+00 -0.45593999997E+02  0.45594000000E+02  0.51100000000E-03 0.  1.
         23    2    1    2    0    0  0.35527136788E-14 -0.35527136788E-14  0.00000000000E+00  0.91188000000E+02  0.91188000000E+02 0.  0.
    9900012    2    3    3    0    0 -0.24733919725E+02  0.17356699929E+02 -0.21041805471E+02  0.54367090249E+02  0.40000013841E+02 0.  0.
         12    1    3    3    0    0  0.24733919725E+02 -0.17356699929E+02  0.21041805471E+02  0.36820909751E+02  0.00000000000E+00 0. -1.
         11    1    4    4    0    0  0.70842690553E+00  0.75020536172E+01  0.59219682949E+00  0.75586622164E+01  0.51100000000E-03 0. -1.
        -11    1    4    4    0    0  0.68803491683E+01  0.22405603394E+00 -0.76666820146E+01  0.10303757526E+02  0.51100000000E-03 0.  1.
         12    1    4    4    0    0 -0.32322695799E+02  0.96305902777E+01 -0.13967320286E+02  0.36504670507E+02  0.00000000000E+00 0. -1.
</event>
<event>
 8    1  0.1278459E-006  0.9118800E+02  0.7816164E-02  0.1184000E+00
        -11   -1    0    0    0    0  0.00000000000E+00  0.00000000000E+00  0.45593999997E+02  0.45594000000E+02  0.51100000000E-03 0. -1.
         11   -1    0    0    0    0 -0.00000000000E+00 -0.00000000000E+00 -0.45593999997E+02  0.45594000000E+02  0.51100000000E-03 0.  1.
         23    2    1    2    0    0 -0.22204460493E-15 -0.88817841970E-15  0.00000000000E+00  0.91188000000E+02  0.91188000000E+02 0.  0.
    9900012    2    3    3    0    0 -0.18820735766E+01  0.39416136710E+01 -0.36560843886E+02  0.54367165885E+02  0.40000186267E+02 0.  0.
         12    1    3    3    0    0  0.18820735766E+01 -0.39416136710E+01  0.36560843886E+02  0.36820834115E+02  0.00000000000E+00 0. -1.
         11    1    4    4    0    0  0.16226364625E+01 -0.35033162627E+00 -0.10480729542E+01  0.19631959953E+01  0.51100000000E-03 0. -1.
        -11    1    4    4    0    0 -0.67802023253E+01  0.99828389733E+01 -0.41682323649E+02  0.43394058609E+02  0.51100000000E-03 0.  1.
        -12    1    4    4    0    0  0.32754922862E+01 -0.56908936760E+01  0.61695527171E+01  0.90099112802E+01  0.00000000000E+00 0.  1.
</event>
<event>
 8    1  0.1278459E-006  0.9118800E+02  0.7816164E-02  0.1184000E+00
        -11   -1    0    0    0    0  0.00000000000E+00  0.00000000000E+00  0.45593999997E+02  0.45594000000E+02  0.51100000000E-03 0.  1.
         11   -1    0    0    0    0 -0.00000000000E+00 -0.00000000000E+00 -0.45593999997E+02  0.45594000000E+02  0.51100000000E-03 0. -1.
         23    2    1    2    0    0  0.00000000000E+00 -0.17763568394E-14  0.00000000000E+00  0.91188000000E+02  0.91188000000E+02 0.  0.
    9900012    2    3    3    0    0  0.15982444507E+02 -0.37277480575E+01  0.32961272465E+02  0.54367080396E+02  0.39999991379E+02 0.  0.
         12    1    3    3    0    0 -0.15982444507E+02  0.37277480575E+01 -0.32961272465E+02  0.36820919604E+02  0.00000000000E+00 0. -1.
         11    1    4    4    0    0  0.46090410791E+01 -0.57854450843E+01  0.17249260129E+01  0.75953936372E+01  0.51100000000E-03 0. -1.
        -11    1    4    4    0    0  0.12315373012E+02  0.13219571915E+02  0.30620340393E+02  0.35553209983E+02  0.51100000000E-03 0.  1.
        -12    1    4    4    0    0 -0.94196958372E+00 -0.11161874888E+02  0.61600605839E+00  0.11218476776E+02  0.00000000000E+00 0.  1.
</event>
<event>
 8    1  0.1278459E-006  0.9118800E+02  0.7816164E-02  0.1184000E+00
        -11   -1    0    0    0    0  0.00000000000E+00  0.00000000000E+00  0.45593999997E+02  0.45594000000E+02  0.51100000000E-03 0.  1.
         11   -1    0    0    0    0 -0.00000000000E+00 -0.00000000000E+00 -0.45593999997E+02  0.45594000000E+02  0.51100000000E-03 0. -1.
         23    2    1    2    0    0  0.35527136788E-14  0.00000000000E+00 -0.88817841970E-15  0.91188000000E+02  0.91188000000E+02 0.  0.
    9900012    2    3    3    0    0 -0.22882518225E+02 -0.28276794082E+02 -0.57090336149E+01  0.54367084902E+02  0.40000001650E+02 0.  0.
        -12    1    3    3    0    0  0.22882518225E+02  0.28276794082E+02  0.57090336149E+01  0.36820915098E+02  0.00000000000E+00 0.  1.
         11    1    4    4    0    0 -0.14555944080E+02 -0.63912164715E+01 -0.14312486453E+02  0.21390895838E+02  0.51100000000E-03 0. -1.
        -11    1    4    4    0    0 -0.21660892754E+01  0.24980229947E+01 -0.37136213407E+01  0.49722274037E+01  0.51100000000E-03 0.  1.
        -12    1    4    4    0    0 -0.61604848700E+01 -0.24383600605E+02  0.12317074179E+02  0.28003961659E+02  0.00000000000E+00 0.  1.
</event>
<event>
 8    1  0.1278459E-006  0.9118800E+02  0.7816164E-02  0.1184000E+00
        -11   -1    0    0    0    0  0.00000000000E+00  0.00000000000E+00  0.45593999997E+02  0.45594000000E+02  0.51100000000E-03 0.  1.
         11   -1    0    0    0    0 -0.00000000000E+00 -0.00000000000E+00 -0.45593999997E+02  0.45594000000E+02  0.51100000000E-03 0. -1.
         23    2    1    2    0    0 -0.15543122345E-14  0.00000000000E+00  0.44408920985E-15  0.91188000000E+02  0.91188000000E+02 0.  0.
    9900012    2    3    3    0    0  0.18925104952E+01 -0.36675859053E+02 -0.26608079005E+01  0.54367080241E+02  0.39999991025E+02 0.  0.
        -12    1    3    3    0    0 -0.18925104952E+01  0.36675859053E+02  0.26608079005E+01  0.36820919759E+02  0.00000000000E+00 0.  1.
         11    1    4    4    0    0  0.84650969851E+01 -0.13943179145E+02  0.33095805853E+01  0.16644021015E+02  0.51100000000E-03 0.  1.
        -11    1    4    4    0    0  0.80130886769E+01 -0.20973477723E+02 -0.22270101275E+01  0.22562267890E+02  0.51100000000E-03 0. -1.
         12    1    4    4    0    0 -0.14585675167E+02 -0.17592021842E+01 -0.37433783583E+01  0.15160791336E+02  0.00000000000E+00 0. -1.
</event>
<event>
 8    1  0.1278459E-006  0.9118800E+02  0.7816164E-02  0.1184000E+00
        -11   -1    0    0    0    0  0.00000000000E+00  0.00000000000E+00  0.45593999997E+02  0.45594000000E+02  0.51100000000E-03 0.  1.
         11   -1    0    0    0    0 -0.00000000000E+00 -0.00000000000E+00 -0.45593999997E+02  0.45594000000E+02  0.51100000000E-03 0. -1.
         23    2    1    2    0    0  0.00000000000E+00  0.00000000000E+00  0.00000000000E+00  0.91188000000E+02  0.91188000000E+02 0.  0.
    9900012    2    3    3    0    0  0.27088449003E+02  0.35351568728E+01  0.24688015365E+02  0.54367088738E+02  0.40000010396E+02 0.  0.
         12    1    3    3    0    0 -0.27088449003E+02 -0.35351568728E+01 -0.24688015365E+02  0.36820911262E+02  0.00000000000E+00 0. -1.
         11    1    4    4    0    0  0.22540411919E+02 -0.19095434623E+01 -0.28472926675E+01  0.22799640381E+02  0.51100000000E-03 0. -1.
        -11    1    4    4    0    0 -0.75405316998E-01  0.92150641211E+01  0.13818954327E+02  0.16609834186E+02  0.51100000000E-03 0.  1.
         12    1    4    4    0    0  0.46234424007E+01 -0.37703637859E+01  0.13716353705E+02  0.14957614171E+02  0.00000000000E+00 0. -1.
</event>
<event>
 8    1  0.1278459E-006  0.9118800E+02  0.7816164E-02  0.1184000E+00
        -11   -1    0    0    0    0  0.00000000000E+00  0.00000000000E+00  0.45593999997E+02  0.45594000000E+02  0.51100000000E-03 0. -1.
         11   -1    0    0    0    0 -0.00000000000E+00 -0.00000000000E+00 -0.45593999997E+02  0.45594000000E+02  0.51100000000E-03 0.  1.
         23    2    1    2    0    0  0.00000000000E+00  0.35527136788E-14  0.00000000000E+00  0.91188000000E+02  0.91188000000E+02 0.  0.
    9900012    2    3    3    0    0 -0.98980731495E+01  0.30935675808E+02 -0.17343359561E+02  0.54367081888E+02  0.39999994779E+02 0.  0.
         12    1    3    3    0    0  0.98980731495E+01 -0.30935675808E+02  0.17343359561E+02  0.36820918112E+02  0.00000000000E+00 0. -1.
         11    1    4    4    0    0 -0.42427598394E+01  0.16536038423E+00 -0.26070392073E+01  0.49824701506E+01  0.51100000000E-03 0. -1.
        -11    1    4    4    0    0 -0.50990559872E+01  0.24224402801E+02 -0.26279382918E+02  0.36103019678E+02  0.51100000000E-03 0.  1.
         12    1    4    4    0    0 -0.55625732287E+00  0.65459126225E+01  0.11543062564E+02  0.13281592059E+02  0.00000000000E+00 0. -1.
</event>
<event>
 8    1  0.1278459E-006  0.9118800E+02  0.7816164E-02  0.1184000E+00
        -11   -1    0    0    0    0  0.00000000000E+00  0.00000000000E+00  0.45593999997E+02  0.45594000000E+02  0.51100000000E-03 0.  1.
         11   -1    0    0    0    0 -0.00000000000E+00 -0.00000000000E+00 -0.45593999997E+02  0.45594000000E+02  0.51100000000E-03 0. -1.
         23    2    1    2    0    0 -0.71054273576E-14  0.00000000000E+00  0.00000000000E+00  0.91188000000E+02  0.91188000000E+02 0.  0.
    9900012    2    3    3    0    0  0.31326578745E+02 -0.13855370291E+02  0.13507552420E+02  0.54367084828E+02  0.40000001482E+02 0.  0.
         12    1    3    3    0    0 -0.31326578745E+02  0.13855370291E+02 -0.13507552420E+02  0.36820915172E+02  0.00000000000E+00 0. -1.
         11    1    4    4    0    0 -0.61025513382E+01 -0.27384710638E+01  0.23651052285E+00  0.66930033686E+01  0.51100000000E-03 0. -1.
        -11    1    4    4    0    0  0.21775999920E+01  0.24070254056E+01  0.91314056145E+01  0.96911445035E+01  0.51100000000E-03 0.  1.
        -12    1    4    4    0    0  0.35251530091E+02 -0.13523924633E+02  0.41396362827E+01  0.37982936956E+02  0.00000000000E+00 0.  1.
</event>
<event>
 8    1  0.1278459E-006  0.9118800E+02  0.7816164E-02  0.1184000E+00
        -11   -1    0    0    0    0  0.00000000000E+00  0.00000000000E+00  0.45593999997E+02  0.45594000000E+02  0.51100000000E-03 0.  1.
         11   -1    0    0    0    0 -0.00000000000E+00 -0.00000000000E+00 -0.45593999997E+02  0.45594000000E+02  0.51100000000E-03 0. -1.
         23    2    1    2    0    0 -0.88817841970E-15  0.00000000000E+00 -0.44408920985E-15  0.91188000000E+02  0.91188000000E+02 0.  0.
    9900012    2    3    3    0    0 -0.62685649633E+01  0.36182553677E+02  0.27030784523E+01  0.54367099272E+02  0.40000034410E+02 0.  0.
        -12    1    3    3    0    0  0.62685649633E+01 -0.36182553677E+02 -0.27030784523E+01  0.36820900728E+02  0.00000000000E+00 0.  1.
         11    1    4    4    0    0 -0.13129258059E+02  0.20348261932E+02  0.73027962594E+00  0.24227308753E+02  0.51100000000E-03 0. -1.
        -11    1    4    4    0    0  0.73042411385E+01  0.19050445841E+02  0.90755756456E+01  0.22330192541E+02  0.51100000000E-03 0.  1.
         12    1    4    4    0    0 -0.44354804293E+00 -0.32161540955E+01 -0.71027768192E+01  0.78095979779E+01  0.00000000000E+00 0. -1.
</event>
<event>
 8    1  0.1278459E-006  0.9118800E+02  0.7816164E-02  0.1184000E+00
        -11   -1    0    0    0    0  0.00000000000E+00  0.00000000000E+00  0.45593999997E+02  0.45594000000E+02  0.51100000000E-03 0.  1.
         11   -1    0    0    0    0 -0.00000000000E+00 -0.00000000000E+00 -0.45593999997E+02  0.45594000000E+02  0.51100000000E-03 0. -1.
         23    2    1    2    0    0  0.88817841970E-15  0.61062266354E-15  0.71054273576E-14  0.91188000000E+02  0.91188000000E+02 0.  0.
    9900012    2    3    3    0    0 -0.13945788839E+01 -0.87217311663E-01  0.36794407025E+02  0.54367070551E+02  0.39999968936E+02 0.  0.
         12    1    3    3    0    0  0.13945788839E+01  0.87217311663E-01 -0.36794407025E+02  0.36820929449E+02  0.00000000000E+00 0. -1.
         11    1    4    4    0    0  0.62111580555E+01 -0.10924530828E+02  0.26045280950E+02  0.28918515145E+02  0.51100000000E-03 0. -1.
        -11    1    4    4    0    0 -0.12672636052E+02  0.12072490364E+02  0.63277204552E+01  0.18611307705E+02  0.51100000000E-03 0.  1.
        -12    1    4    4    0    0  0.50668991124E+01 -0.12351768474E+01  0.44214056204E+01  0.68372477006E+01  0.00000000000E+00 0.  1.
</event>
<event>
 8    1  0.1278459E-006  0.9118800E+02  0.7816164E-02  0.1184000E+00
        -11   -1    0    0    0    0  0.00000000000E+00  0.00000000000E+00  0.45593999997E+02  0.45594000000E+02  0.51100000000E-03 0. -1.
         11   -1    0    0    0    0 -0.00000000000E+00 -0.00000000000E+00 -0.45593999997E+02  0.45594000000E+02  0.51100000000E-03 0.  1.
         23    2    1    2    0    0  0.00000000000E+00  0.88817841970E-15  0.00000000000E+00  0.91188000000E+02  0.91188000000E+02 0.  0.
    9900012    2    3    3    0    0 -0.30329634826E+02 -0.29112695986E+01 -0.20674081402E+02  0.54367083645E+02  0.39999998786E+02 0.  0.
         12    1    3    3    0    0  0.30329634826E+02  0.29112695986E+01  0.20674081402E+02  0.36820916355E+02  0.00000000000E+00 0. -1.
         11    1    4    4    0    0 -0.27231647890E+01 -0.80668850478E+00  0.76388760467E+01  0.81497730232E+01  0.51100000000E-03 0. -1.
        -11    1    4    4    0    0 -0.23024949744E+02  0.88119009472E+01 -0.18141299180E+02  0.30608898137E+02  0.51100000000E-03 0.  1.
         12    1    4    4    0    0 -0.45815202936E+01 -0.10916482041E+02 -0.10171658269E+02  0.15608412485E+02  0.00000000000E+00 0. -1.
</event>
<event>
 8    1  0.1278459E-006  0.9118800E+02  0.7816164E-02  0.1184000E+00
        -11   -1    0    0    0    0  0.00000000000E+00  0.00000000000E+00  0.45593999997E+02  0.45594000000E+02  0.51100000000E-03 0.  1.
         11   -1    0    0    0    0 -0.00000000000E+00 -0.00000000000E+00 -0.45593999997E+02  0.45594000000E+02  0.51100000000E-03 0. -1.
         23    2    1    2    0    0  0.00000000000E+00  0.00000000000E+00  0.35527136788E-14  0.91188000000E+02  0.91188000000E+02 0.  0.
    9900012    2    3    3    0    0  0.89183327191E+01 -0.29347456328E+02 -0.20370824764E+02  0.54367077239E+02  0.39999984183E+02 0.  0.
        -12    1    3    3    0    0 -0.89183327191E+01  0.29347456328E+02  0.20370824764E+02  0.36820922761E+02  0.00000000000E+00 0.  1.
         11    1    4    4    0    0  0.55301689398E+01 -0.28579439994E+01 -0.37376013778E+01  0.72608730003E+01  0.51100000000E-03 0. -1.
        -11    1    4    4    0    0  0.75217507563E+01 -0.34232069331E+02 -0.11250080643E+02  0.36809993478E+02  0.51100000000E-03 0.  1.
        -12    1    4    4    0    0 -0.41335869769E+01  0.77425570030E+01 -0.53831427433E+01  0.10296210761E+02  0.00000000000E+00 0.  1.
</event>
<event>
 8    1  0.1278459E-006  0.9118800E+02  0.7816164E-02  0.1184000E+00
        -11   -1    0    0    0    0  0.00000000000E+00  0.00000000000E+00  0.45593999997E+02  0.45594000000E+02  0.51100000000E-03 0. -1.
         11   -1    0    0    0    0 -0.00000000000E+00 -0.00000000000E+00 -0.45593999997E+02  0.45594000000E+02  0.51100000000E-03 0.  1.
         23    2    1    2    0    0 -0.35527136788E-14 -0.77715611724E-15 -0.35527136788E-14  0.91188000000E+02  0.91188000000E+02 0.  0.
    9900012    2    3    3    0    0  0.27966437592E+02  0.95471507355E+00 -0.23932171470E+02  0.54367055638E+02  0.39999934937E+02 0.  0.
         12    1    3    3    0    0 -0.27966437592E+02 -0.95471507355E+00  0.23932171470E+02  0.36820944362E+02  0.00000000000E+00 0. -1.
         11    1    4    4    0    0 -0.73590594853E+01  0.84347040282E+01 -0.54051386170E+01  0.12430426874E+02  0.51100000000E-03 0. -1.
        -11    1    4    4    0    0  0.64869434989E+01  0.19216302042E+00  0.55842779715E+00  0.65137703713E+01  0.51100000000E-03 0.  1.
        -12    1    4    4    0    0  0.28838553578E+02 -0.76721519751E+01 -0.19085460650E+02  0.35422858392E+02  0.00000000000E+00 0.  1.
</event>
<event>
 8    1  0.1278459E-006  0.9118800E+02  0.7816164E-02  0.1184000E+00
        -11   -1    0    0    0    0  0.00000000000E+00  0.00000000000E+00  0.45593999997E+02  0.45594000000E+02  0.51100000000E-03 0.  1.
         11   -1    0    0    0    0 -0.00000000000E+00 -0.00000000000E+00 -0.45593999997E+02  0.45594000000E+02  0.51100000000E-03 0. -1.
         23    2    1    2    0    0 -0.35527136788E-14  0.00000000000E+00  0.00000000000E+00  0.91188000000E+02  0.91188000000E+02 0.  0.
    9900012    2    3    3    0    0  0.31019891397E+02  0.18533911907E+02  0.70737720033E+01  0.54367111862E+02  0.40000063112E+02 0.  0.
         12    1    3    3    0    0 -0.31019891397E+02 -0.18533911907E+02 -0.70737720033E+01  0.36820888138E+02  0.00000000000E+00 0. -1.
         11    1    4    4    0    0 -0.12749759566E+00  0.34339885095E+01  0.46723561992E+01  0.57999521923E+01  0.51100000000E-03 0. -1.
        -11    1    4    4    0    0  0.27588860578E+01 -0.26830498929E+00  0.13995103995E+02  0.14266968001E+02  0.51100000000E-03 0.  1.
        -12    1    4    4    0    0  0.28388502935E+02  0.15368228387E+02 -0.11593688191E+02  0.34300191669E+02  0.00000000000E+00 0.  1.
</event>
<event>
 8    1  0.1278459E-006  0.9118800E+02  0.7816164E-02  0.1184000E+00
        -11   -1    0    0    0    0  0.00000000000E+00  0.00000000000E+00  0.45593999997E+02  0.45594000000E+02  0.51100000000E-03 0.  1.
         11   -1    0    0    0    0 -0.00000000000E+00 -0.00000000000E+00 -0.45593999997E+02  0.45594000000E+02  0.51100000000E-03 0. -1.
         23    2    1    2    0    0 -0.35527136788E-14  0.00000000000E+00  0.35527136788E-14  0.91188000000E+02  0.91188000000E+02 0.  0.
    9900012    2    3    3    0    0 -0.23678742442E+02 -0.96108829625E+01 -0.26508999853E+02  0.54367095772E+02  0.40000026432E+02 0.  0.
        -12    1    3    3    0    0  0.23678742442E+02  0.96108829625E+01  0.26508999853E+02  0.36820904228E+02  0.00000000000E+00 0.  1.
         11    1    4    4    0    0  0.22146540687E+01 -0.91341017046E+01 -0.28107711987E+01  0.98100428942E+01  0.51100000000E-03 0.  1.
        -11    1    4    4    0    0  0.42092457241E+01 -0.46958216510E+01 -0.84677089991E+01  0.10557963179E+02  0.51100000000E-03 0. -1.
         12    1    4    4    0    0 -0.30102642235E+02  0.42190403932E+01 -0.15230519655E+02  0.33999089698E+02  0.00000000000E+00 0. -1.
</event>
<event>
 8    1  0.1278459E-006  0.9118800E+02  0.7816164E-02  0.1184000E+00
        -11   -1    0    0    0    0  0.00000000000E+00  0.00000000000E+00  0.45593999997E+02  0.45594000000E+02  0.51100000000E-03 0.  1.
         11   -1    0    0    0    0 -0.00000000000E+00 -0.00000000000E+00 -0.45593999997E+02  0.45594000000E+02  0.51100000000E-03 0. -1.
         23    2    1    2    0    0  0.00000000000E+00  0.00000000000E+00  0.17763568394E-14  0.91188000000E+02  0.91188000000E+02 0.  0.
    9900012    2    3    3    0    0 -0.26482470299E+02 -0.22748900881E+02  0.11702381850E+02  0.54367089292E+02  0.40000011658E+02 0.  0.
         12    1    3    3    0    0  0.26482470299E+02  0.22748900881E+02 -0.11702381850E+02  0.36820910708E+02  0.00000000000E+00 0. -1.
         11    1    4    4    0    0 -0.62376770863E+00  0.90639531168E+01  0.17942308126E+01  0.92608637139E+01  0.51100000000E-03 0. -1.
        -11    1    4    4    0    0  0.16643172775E+01 -0.53721963846E+01 -0.18945862628E+00  0.56272853870E+01  0.51100000000E-03 0.  1.
        -12    1    4    4    0    0 -0.27523019868E+02 -0.26440657613E+02  0.10097609663E+02  0.39478940191E+02  0.00000000000E+00 0.  1.
</event>
<event>
 8    1  0.1278459E-006  0.9118800E+02  0.7816164E-02  0.1184000E+00
        -11   -1    0    0    0    0  0.00000000000E+00  0.00000000000E+00  0.45593999997E+02  0.45594000000E+02  0.51100000000E-03 0.  1.
         11   -1    0    0    0    0 -0.00000000000E+00 -0.00000000000E+00 -0.45593999997E+02  0.45594000000E+02  0.51100000000E-03 0. -1.
         23    2    1    2    0    0  0.00000000000E+00  0.17763568394E-14  0.00000000000E+00  0.91188000000E+02  0.91188000000E+02 0.  0.
    9900012    2    3    3    0    0 -0.83405166107E+01  0.98881091810E+01 -0.34473798755E+02  0.54367058661E+02  0.39999941829E+02 0.  0.
        -12    1    3    3    0    0  0.83405166107E+01 -0.98881091810E+01  0.34473798755E+02  0.36820941339E+02  0.00000000000E+00 0.  1.
         11    1    4    4    0    0 -0.55967438979E+01  0.48346645145E+01 -0.20354023900E+01  0.76707487494E+01  0.51100000000E-03 0. -1.
        -11    1    4    4    0    0 -0.83550242871E+01 -0.11606862519E+02 -0.22034053572E+02  0.26268330846E+02  0.51100000000E-03 0.  1.
        -12    1    4    4    0    0  0.56112515742E+01  0.16660307185E+02 -0.10404342793E+02  0.20427979065E+02  0.00000000000E+00 0.  1.
</event>
<event>
 8    1  0.1278459E-006  0.9118800E+02  0.7816164E-02  0.1184000E+00
        -11   -1    0    0    0    0  0.00000000000E+00  0.00000000000E+00  0.45593999997E+02  0.45594000000E+02  0.51100000000E-03 0. -1.
         11   -1    0    0    0    0 -0.00000000000E+00 -0.00000000000E+00 -0.45593999997E+02  0.45594000000E+02  0.51100000000E-03 0.  1.
         23    2    1    2    0    0  0.00000000000E+00  0.17763568394E-14  0.00000000000E+00  0.91188000000E+02  0.91188000000E+02 0.  0.
    9900012    2    3    3    0    0  0.87143855120E+01 -0.13902481664E+02  0.32963009915E+02  0.54367088361E+02  0.40000009537E+02 0.  0.
        -12    1    3    3    0    0 -0.87143855120E+01  0.13902481664E+02 -0.32963009915E+02  0.36820911639E+02  0.00000000000E+00 0.  1.
         11    1    4    4    0    0  0.34959646089E+01 -0.24593617121E+02  0.74492158883E+01  0.25933734580E+02  0.51100000000E-03 0. -1.
        -11    1    4    4    0    0 -0.36661561174E+00  0.26749878809E+01  0.42915406358E+01  0.50702355428E+01  0.51100000000E-03 0.  1.
         12    1    4    4    0    0  0.55850365149E+01  0.80161475764E+01  0.21222253391E+02  0.23363118238E+02  0.00000000000E+00 0. -1.
</event>
<event>
 8    1  0.1278459E-006  0.9118800E+02  0.7816164E-02  0.1184000E+00
        -11   -1    0    0    0    0  0.00000000000E+00  0.00000000000E+00  0.45593999997E+02  0.45594000000E+02  0.51100000000E-03 0.  1.
         11   -1    0    0    0    0 -0.00000000000E+00 -0.00000000000E+00 -0.45593999997E+02  0.45594000000E+02  0.51100000000E-03 0. -1.
         23    2    1    2    0    0  0.00000000000E+00  0.11102230246E-14 -0.71054273576E-14  0.91188000000E+02  0.91188000000E+02 0.  0.
    9900012    2    3    3    0    0 -0.12718373872E+02 -0.15930421061E+01  0.34517894485E+02  0.54367083977E+02  0.39999999542E+02 0.  0.
         12    1    3    3    0    0  0.12718373872E+02  0.15930421061E+01 -0.34517894485E+02  0.36820916023E+02  0.00000000000E+00 0. -1.
         11    1    4    4    0    0  0.70579212804E+01 -0.17473155044E+01 -0.16225772898E+01  0.74498403738E+01  0.51100000000E-03 0. -1.
        -11    1    4    4    0    0 -0.83124360099E+01  0.48617149331E+01  0.10310328929E+01  0.96848280107E+01  0.51100000000E-03 0.  1.
        -12    1    4    4    0    0 -0.11463859143E+02 -0.47074415348E+01  0.35109438882E+02  0.37232415592E+02  0.00000000000E+00 0.  1.
</event>
<event>
 8    1  0.1278459E-006  0.9118800E+02  0.7816164E-02  0.1184000E+00
        -11   -1    0    0    0    0  0.00000000000E+00  0.00000000000E+00  0.45593999997E+02  0.45594000000E+02  0.51100000000E-03 0. -1.
         11   -1    0    0    0    0 -0.00000000000E+00 -0.00000000000E+00 -0.45593999997E+02  0.45594000000E+02  0.51100000000E-03 0.  1.
         23    2    1    2    0    0  0.35527136788E-14  0.00000000000E+00  0.00000000000E+00  0.91188000000E+02  0.91188000000E+02 0.  0.
    9900012    2    3    3    0    0 -0.25626652325E+02 -0.22401653230E+02 -0.14043446154E+02  0.54367112494E+02  0.40000064553E+02 0.  0.
         12    1    3    3    0    0  0.25626652325E+02  0.22401653230E+02  0.14043446154E+02  0.36820887506E+02  0.00000000000E+00 0. -1.
         11    1    4    4    0    0  0.24285394055E+01  0.37823477719E+00  0.85822578765E+01  0.89272624982E+01  0.51100000000E-03 0. -1.
        -11    1    4    4    0    0 -0.14000443202E+02 -0.21000138935E+02 -0.14440575827E+02  0.29078316245E+02  0.51100000000E-03 0.  1.
         12    1    4    4    0    0 -0.14054748529E+02 -0.17797490712E+01 -0.81851282041E+01  0.16361533751E+02  0.00000000000E+00 0. -1.
</event>
<event>
 8    1  0.1278459E-006  0.9118800E+02  0.7816164E-02  0.1184000E+00
        -11   -1    0    0    0    0  0.00000000000E+00  0.00000000000E+00  0.45593999997E+02  0.45594000000E+02  0.51100000000E-03 0.  1.
         11   -1    0    0    0    0 -0.00000000000E+00 -0.00000000000E+00 -0.45593999997E+02  0.45594000000E+02  0.51100000000E-03 0. -1.
         23    2    1    2    0    0  0.00000000000E+00  0.00000000000E+00  0.35527136788E-14  0.91188000000E+02  0.91188000000E+02 0.  0.
    9900012    2    3    3    0    0 -0.21666643059E+02  0.20645884750E+02  0.21449597394E+02  0.54367065643E+02  0.39999957746E+02 0.  0.
         12    1    3    3    0    0  0.21666643059E+02 -0.20645884750E+02 -0.21449597394E+02  0.36820934357E+02  0.00000000000E+00 0. -1.
         11    1    4    4    0    0 -0.14957532569E+01 -0.45886295473E+01 -0.15427511011E+01  0.50668412398E+01  0.51100000000E-03 0. -1.
        -11    1    4    4    0    0 -0.11919734479E+02  0.25950950359E+01 -0.42613324692E+01  0.12921824290E+02  0.51100000000E-03 0.  1.
        -12    1    4    4    0    0 -0.82511553227E+01  0.22639419262E+02  0.27253680965E+02  0.36378400113E+02  0.00000000000E+00 0.  1.
</event>
<event>
 8    1  0.1278459E-006  0.9118800E+02  0.7816164E-02  0.1184000E+00
        -11   -1    0    0    0    0  0.00000000000E+00  0.00000000000E+00  0.45593999997E+02  0.45594000000E+02  0.51100000000E-03 0.  1.
         11   -1    0    0    0    0 -0.00000000000E+00 -0.00000000000E+00 -0.45593999997E+02  0.45594000000E+02  0.51100000000E-03 0. -1.
         23    2    1    2    0    0  0.00000000000E+00  0.00000000000E+00  0.00000000000E+00  0.91188000000E+02  0.91188000000E+02 0.  0.
    9900012    2    3    3    0    0  0.12450434692E+02  0.31876022250E+02 -0.13590030133E+02  0.54367040784E+02  0.39999901076E+02 0.  0.
        -12    1    3    3    0    0 -0.12450434692E+02 -0.31876022250E+02  0.13590030133E+02  0.36820959216E+02  0.00000000000E+00 0.  1.
         11    1    4    4    0    0  0.50438615169E+01  0.29884631963E+02 -0.85701663835E+01  0.31495706353E+02  0.51100000000E-03 0. -1.
        -11    1    4    4    0    0  0.83133590064E+01  0.55799275936E+01  0.57064480631E+01  0.11524368949E+02  0.51100000000E-03 0.  1.
         12    1    4    4    0    0 -0.90678583175E+00 -0.35885373063E+01 -0.10726311813E+02  0.11346965482E+02  0.00000000000E+00 0. -1.
</event>
<event>
 8    1  0.1278459E-006  0.9118800E+02  0.7816164E-02  0.1184000E+00
        -11   -1    0    0    0    0  0.00000000000E+00  0.00000000000E+00  0.45593999997E+02  0.45594000000E+02  0.51100000000E-03 0.  1.
         11   -1    0    0    0    0 -0.00000000000E+00 -0.00000000000E+00 -0.45593999997E+02  0.45594000000E+02  0.51100000000E-03 0. -1.
         23    2    1    2    0    0 -0.13322676296E-14  0.00000000000E+00  0.00000000000E+00  0.91188000000E+02  0.91188000000E+02 0.  0.
    9900012    2    3    3    0    0  0.55806981825E+00 -0.22077580318E+02  0.29462707055E+02  0.54367053494E+02  0.39999930049E+02 0.  0.
        -12    1    3    3    0    0 -0.55806981825E+00  0.22077580318E+02 -0.29462707055E+02  0.36820946506E+02  0.00000000000E+00 0.  1.
         11    1    4    4    0    0 -0.44336780153E+01 -0.46645937564E+01  0.11529405100E+02  0.13203905403E+02  0.51100000000E-03 0. -1.
        -11    1    4    4    0    0 -0.39170153095E+01 -0.14104682125E+02  0.25238595315E+02  0.29176561835E+02  0.51100000000E-03 0.  1.
         12    1    4    4    0    0  0.89087631431E+01 -0.33083044364E+01 -0.73052933603E+01  0.11986586256E+02  0.00000000000E+00 0. -1.
</event>
<event>
 8    1  0.1278459E-006  0.9118800E+02  0.7816164E-02  0.1184000E+00
        -11   -1    0    0    0    0  0.00000000000E+00  0.00000000000E+00  0.45593999997E+02  0.45594000000E+02  0.51100000000E-03 0.  1.
         11   -1    0    0    0    0 -0.00000000000E+00 -0.00000000000E+00 -0.45593999997E+02  0.45594000000E+02  0.51100000000E-03 0. -1.
         23    2    1    2    0    0  0.71054273576E-14  0.44408920985E-15 -0.44408920985E-15  0.91188000000E+02  0.91188000000E+02 0.  0.
    9900012    2    3    3    0    0  0.36537633855E+02 -0.30172686430E+01 -0.34172076657E+01  0.54367083308E+02  0.39999998018E+02 0.  0.
        -12    1    3    3    0    0 -0.36537633855E+02  0.30172686430E+01  0.34172076657E+01  0.36820916692E+02  0.00000000000E+00 0.  1.
         11    1    4    4    0    0  0.11965796778E+02  0.44695142051E+01  0.15025608956E+01  0.12861358376E+02  0.51100000000E-03 0. -1.
        -11    1    4    4    0    0  0.20247993159E+02 -0.30428406994E+01  0.11828612294E+02  0.23646483366E+02  0.51100000000E-03 0.  1.
         12    1    4    4    0    0  0.43238439175E+01 -0.44439421486E+01 -0.16748380856E+02  0.17859241567E+02  0.00000000000E+00 0. -1.
</event>
<event>
 8    1  0.1278459E-006  0.9118800E+02  0.7816164E-02  0.1184000E+00
        -11   -1    0    0    0    0  0.00000000000E+00  0.00000000000E+00  0.45593999997E+02  0.45594000000E+02  0.51100000000E-03 0.  1.
         11   -1    0    0    0    0 -0.00000000000E+00 -0.00000000000E+00 -0.45593999997E+02  0.45594000000E+02  0.51100000000E-03 0. -1.
         23    2    1    2    0    0 -0.71054273576E-14  0.17763568394E-14  0.00000000000E+00  0.91188000000E+02  0.91188000000E+02 0.  0.
    9900012    2    3    3    0    0 -0.29148135854E+02  0.99323567266E+01 -0.20186978846E+02  0.54367086800E+02  0.40000005979E+02 0.  0.
         12    1    3    3    0    0  0.29148135854E+02 -0.99323567266E+01  0.20186978846E+02  0.36820913200E+02  0.00000000000E+00 0. -1.
         11    1    4    4    0    0  0.33954676399E+01 -0.51075942701E+00  0.51582412577E+01  0.61965739582E+01  0.51100000000E-03 0. -1.
        -11    1    4    4    0    0 -0.10301950666E+02  0.13603019643E+02 -0.17323817946E+02  0.24316393635E+02  0.51100000000E-03 0.  1.
         12    1    4    4    0    0 -0.22241652828E+02 -0.31599034889E+01 -0.80214021579E+01  0.23854119207E+02  0.00000000000E+00 0. -1.
</event>
<event>
 8    1  0.1278459E-006  0.9118800E+02  0.7816164E-02  0.1184000E+00
        -11   -1    0    0    0    0  0.00000000000E+00  0.00000000000E+00  0.45593999997E+02  0.45594000000E+02  0.51100000000E-03 0.  1.
         11   -1    0    0    0    0 -0.00000000000E+00 -0.00000000000E+00 -0.45593999997E+02  0.45594000000E+02  0.51100000000E-03 0. -1.
         23    2    1    2    0    0 -0.35527136788E-14  0.00000000000E+00 -0.35527136788E-14  0.91188000000E+02  0.91188000000E+02 0.  0.
    9900012    2    3    3    0    0  0.23162350383E+02  0.24816376600E+02  0.14262972593E+02  0.54367090044E+02  0.40000013372E+02 0.  0.
         12    1    3    3    0    0 -0.23162350383E+02 -0.24816376600E+02 -0.14262972593E+02  0.36820909956E+02  0.00000000000E+00 0. -1.
         11    1    4    4    0    0  0.19582254748E+02  0.64930917559E+00  0.13831730162E+02  0.23983391398E+02  0.51100000000E-03 0. -1.
        -11    1    4    4    0    0  0.86801356807E+01  0.11965972807E+02  0.61050786566E+01  0.15993787741E+02  0.51100000000E-03 0.  1.
        -12    1    4    4    0    0 -0.51000400450E+01  0.12201094617E+02 -0.56738362256E+01  0.14389910904E+02  0.00000000000E+00 0.  1.
</event>
<event>
 8    1  0.1278459E-006  0.9118800E+02  0.7816164E-02  0.1184000E+00
        -11   -1    0    0    0    0  0.00000000000E+00  0.00000000000E+00  0.45593999997E+02  0.45594000000E+02  0.51100000000E-03 0. -1.
         11   -1    0    0    0    0 -0.00000000000E+00 -0.00000000000E+00 -0.45593999997E+02  0.45594000000E+02  0.51100000000E-03 0.  1.
         23    2    1    2    0    0 -0.17763568394E-14 -0.35527136788E-14 -0.35527136788E-14  0.91188000000E+02  0.91188000000E+02 0.  0.
    9900012    2    3    3    0    0 -0.80043466496E+01 -0.16662238274E+02 -0.31844576589E+02  0.54367125381E+02  0.40000093931E+02 0.  0.
         12    1    3    3    0    0  0.80043466496E+01  0.16662238274E+02  0.31844576589E+02  0.36820874619E+02  0.00000000000E+00 0. -1.
         11    1    4    4    0    0  0.46263891085E+01  0.29491464481E+01 -0.15556732819E+02  0.16495844240E+02  0.51100000000E-03 0. -1.
        -11    1    4    4    0    0  0.68496688987E+00 -0.47936824937E+01 -0.17259518350E+02  0.17925946151E+02  0.51100000000E-03 0.  1.
         12    1    4    4    0    0 -0.13315702648E+02 -0.14817702228E+02  0.97167457982E+00  0.19945334989E+02  0.00000000000E+00 0. -1.
</event>
<event>
 8    1  0.1278459E-006  0.9118800E+02  0.7816164E-02  0.1184000E+00
        -11   -1    0    0    0    0  0.00000000000E+00  0.00000000000E+00  0.45593999997E+02  0.45594000000E+02  0.51100000000E-03 0.  1.
         11   -1    0    0    0    0 -0.00000000000E+00 -0.00000000000E+00 -0.45593999997E+02  0.45594000000E+02  0.51100000000E-03 0. -1.
         23    2    1    2    0    0  0.00000000000E+00 -0.17763568394E-14  0.00000000000E+00  0.91188000000E+02  0.91188000000E+02 0.  0.
    9900012    2    3    3    0    0 -0.29268583847E+02  0.14762451301E+02 -0.16769032305E+02  0.54367076420E+02  0.39999982315E+02 0.  0.
        -12    1    3    3    0    0  0.29268583847E+02 -0.14762451301E+02  0.16769032305E+02  0.36820923580E+02  0.00000000000E+00 0.  1.
         11    1    4    4    0    0 -0.24754804693E+02  0.18454778759E+02 -0.67783931400E+01  0.31612115213E+02  0.51100000000E-03 0. -1.
        -11    1    4    4    0    0 -0.61137611087E+00  0.46216729466E+01  0.39165698906E+01  0.60887734022E+01  0.51100000000E-03 0.  1.
        -12    1    4    4    0    0 -0.39024030431E+01 -0.83140004040E+01 -0.13907209056E+02  0.16666187805E+02  0.00000000000E+00 0.  1.
</event>
<event>
 8    1  0.1278459E-006  0.9118800E+02  0.7816164E-02  0.1184000E+00
        -11   -1    0    0    0    0  0.00000000000E+00  0.00000000000E+00  0.45593999997E+02  0.45594000000E+02  0.51100000000E-03 0.  1.
         11   -1    0    0    0    0 -0.00000000000E+00 -0.00000000000E+00 -0.45593999997E+02  0.45594000000E+02  0.51100000000E-03 0. -1.
         23    2    1    2    0    0  0.00000000000E+00  0.00000000000E+00  0.00000000000E+00  0.91188000000E+02  0.91188000000E+02 0.  0.
    9900012    2    3    3    0    0  0.12643745289E+02 -0.33643157867E+02 -0.80033766830E+01  0.54367076539E+02  0.39999982586E+02 0.  0.
        -12    1    3    3    0    0 -0.12643745289E+02  0.33643157867E+02  0.80033766830E+01  0.36820923461E+02  0.00000000000E+00 0.  1.
         11    1    4    4    0    0 -0.10026209998E+02 -0.11969898418E+02 -0.74853045721E+01  0.17315690569E+02  0.51100000000E-03 0. -1.
        -11    1    4    4    0    0  0.21407836853E+01 -0.28666718227E+01 -0.75334547069E+01  0.83398862228E+01  0.51100000000E-03 0.  1.
         12    1    4    4    0    0  0.20529171602E+02 -0.18806587626E+02  0.70153825961E+01  0.28711499747E+02  0.00000000000E+00 0. -1.
</event>
<event>
 8    1  0.1278459E-006  0.9118800E+02  0.7816164E-02  0.1184000E+00
        -11   -1    0    0    0    0  0.00000000000E+00  0.00000000000E+00  0.45593999997E+02  0.45594000000E+02  0.51100000000E-03 0. -1.
         11   -1    0    0    0    0 -0.00000000000E+00 -0.00000000000E+00 -0.45593999997E+02  0.45594000000E+02  0.51100000000E-03 0.  1.
         23    2    1    2    0    0  0.00000000000E+00  0.00000000000E+00  0.00000000000E+00  0.91188000000E+02  0.91188000000E+02 0.  0.
    9900012    2    3    3    0    0  0.68879486099E+01  0.35957391048E+02 -0.39246163414E+01  0.54367076323E+02  0.39999982094E+02 0.  0.
         12    1    3    3    0    0 -0.68879486099E+01 -0.35957391048E+02  0.39246163414E+01  0.36820923677E+02  0.00000000000E+00 0. -1.
         11    1    4    4    0    0  0.51374702320E+01  0.30954436506E+02  0.87130291476E-01  0.31377991200E+02  0.51100000000E-03 0. -1.
        -11    1    4    4    0    0  0.11012510942E+02  0.29526609078E+01  0.22515748075E+01  0.11621669117E+02  0.51100000000E-03 0.  1.
         12    1    4    4    0    0 -0.92620325640E+01  0.20502936338E+01 -0.62633214405E+01  0.11367416007E+02  0.00000000000E+00 0. -1.
</event>
<event>
 8    1  0.1278459E-006  0.9118800E+02  0.7816164E-02  0.1184000E+00
        -11   -1    0    0    0    0  0.00000000000E+00  0.00000000000E+00  0.45593999997E+02  0.45594000000E+02  0.51100000000E-03 0.  1.
         11   -1    0    0    0    0 -0.00000000000E+00 -0.00000000000E+00 -0.45593999997E+02  0.45594000000E+02  0.51100000000E-03 0. -1.
         23    2    1    2    0    0  0.00000000000E+00  0.00000000000E+00  0.00000000000E+00  0.91188000000E+02  0.91188000000E+02 0.  0.
    9900012    2    3    3    0    0  0.18896849662E+02 -0.22573705464E+02  0.22115961160E+02  0.54367097736E+02  0.40000030908E+02 0.  0.
         12    1    3    3    0    0 -0.18896849662E+02  0.22573705464E+02 -0.22115961160E+02  0.36820902264E+02  0.00000000000E+00 0. -1.
         11    1    4    4    0    0 -0.51853322980E+01  0.88102756675E+00  0.72453578458E+01  0.89531609608E+01  0.51100000000E-03 0. -1.
        -11    1    4    4    0    0  0.16585869799E+02 -0.25364538181E+02  0.19676960842E+01  0.30369766253E+02  0.51100000000E-03 0.  1.
        -12    1    4    4    0    0  0.74963121609E+01  0.19098051494E+01  0.12902907230E+02  0.15044170522E+02  0.00000000000E+00 0.  1.
</event>
<event>
 8    1  0.1278459E-006  0.9118800E+02  0.7816164E-02  0.1184000E+00
        -11   -1    0    0    0    0  0.00000000000E+00  0.00000000000E+00  0.45593999997E+02  0.45594000000E+02  0.51100000000E-03 0.  1.
         11   -1    0    0    0    0 -0.00000000000E+00 -0.00000000000E+00 -0.45593999997E+02  0.45594000000E+02  0.51100000000E-03 0. -1.
         23    2    1    2    0    0  0.00000000000E+00  0.00000000000E+00  0.00000000000E+00  0.91188000000E+02  0.91188000000E+02 0.  0.
    9900012    2    3    3    0    0  0.75056773577E+01  0.26950020354E+02  0.23940335633E+02  0.54367102946E+02  0.40000042785E+02 0.  0.
         12    1    3    3    0    0 -0.75056773577E+01 -0.26950020354E+02 -0.23940335633E+02  0.36820897054E+02  0.00000000000E+00 0. -1.
         11    1    4    4    0    0  0.10463697153E+02  0.69295530074E+01 -0.12034233431E+01  0.12607771055E+02  0.51100000000E-03 0.  1.
        -11    1    4    4    0    0 -0.97516935242E+01  0.11297374698E+02  0.26705920504E+02  0.30593012141E+02  0.51100000000E-03 0. -1.
         12    1    4    4    0    0  0.67936737294E+01  0.87230926485E+01 -0.15621615274E+01  0.11166319749E+02  0.00000000000E+00 0. -1.
</event>
<event>
 8    1  0.1278459E-006  0.9118800E+02  0.7816164E-02  0.1184000E+00
        -11   -1    0    0    0    0  0.00000000000E+00  0.00000000000E+00  0.45593999997E+02  0.45594000000E+02  0.51100000000E-03 0.  1.
         11   -1    0    0    0    0 -0.00000000000E+00 -0.00000000000E+00 -0.45593999997E+02  0.45594000000E+02  0.51100000000E-03 0. -1.
         23    2    1    2    0    0  0.00000000000E+00  0.17763568394E-14  0.00000000000E+00  0.91188000000E+02  0.91188000000E+02 0.  0.
    9900012    2    3    3    0    0  0.18161869294E+02 -0.11000362310E+02 -0.30081867119E+02  0.54367079363E+02  0.39999989023E+02 0.  0.
        -12    1    3    3    0    0 -0.18161869294E+02  0.11000362310E+02  0.30081867119E+02  0.36820920637E+02  0.00000000000E+00 0.  1.
         11    1    4    4    0    0  0.36391506111E+01 -0.17296709569E+02 -0.30186059745E+01  0.17931301162E+02  0.51100000000E-03 0. -1.
        -11    1    4    4    0    0  0.28215191916E+01 -0.40143410948E+01 -0.17423660610E+02  0.18101377138E+02  0.51100000000E-03 0.  1.
        -12    1    4    4    0    0  0.11701199492E+02  0.10310688354E+02 -0.96396005345E+01  0.18334401063E+02  0.00000000000E+00 0.  1.
</event>
<event>
 8    1  0.1278459E-006  0.9118800E+02  0.7816164E-02  0.1184000E+00
        -11   -1    0    0    0    0  0.00000000000E+00  0.00000000000E+00  0.45593999997E+02  0.45594000000E+02  0.51100000000E-03 0. -1.
         11   -1    0    0    0    0 -0.00000000000E+00 -0.00000000000E+00 -0.45593999997E+02  0.45594000000E+02  0.51100000000E-03 0.  1.
         23    2    1    2    0    0  0.35527136788E-14  0.35527136788E-14 -0.88817841970E-15  0.91188000000E+02  0.91188000000E+02 0.  0.
    9900012    2    3    3    0    0  0.21220181959E+02  0.30052290819E+02  0.15314817288E+01  0.54367058375E+02  0.39999941178E+02 0.  0.
         12    1    3    3    0    0 -0.21220181959E+02 -0.30052290819E+02 -0.15314817288E+01  0.36820941625E+02  0.00000000000E+00 0. -1.
         11    1    4    4    0    0  0.65664776844E+01  0.15664335613E+02 -0.59778979585E+01  0.18006257347E+02  0.51100000000E-03 0. -1.
        -11    1    4    4    0    0  0.17560115829E+02  0.20773766909E+02  0.17044302093E+01  0.27254580205E+02  0.51100000000E-03 0.  1.
         12    1    4    4    0    0 -0.29064115550E+01 -0.63858117037E+01  0.58049494780E+01  0.91062208234E+01  0.00000000000E+00 0. -1.
</event>
<event>
 8    1  0.1278459E-006  0.9118800E+02  0.7816164E-02  0.1184000E+00
        -11   -1    0    0    0    0  0.00000000000E+00  0.00000000000E+00  0.45593999997E+02  0.45594000000E+02  0.51100000000E-03 0.  1.
         11   -1    0    0    0    0 -0.00000000000E+00 -0.00000000000E+00 -0.45593999997E+02  0.45594000000E+02  0.51100000000E-03 0. -1.
         23    2    1    2    0    0  0.17763568394E-14  0.17763568394E-14  0.00000000000E+00  0.91188000000E+02  0.91188000000E+02 0.  0.
    9900012    2    3    3    0    0 -0.15117990055E+02  0.14375764940E+02 -0.30340777422E+02  0.54367095401E+02  0.40000025586E+02 0.  0.
        -12    1    3    3    0    0  0.15117990055E+02 -0.14375764940E+02  0.30340777422E+02  0.36820904599E+02  0.00000000000E+00 0.  1.
         11    1    4    4    0    0 -0.13365498293E+02  0.22316748312E+02 -0.15761816360E+02  0.30415598877E+02  0.51100000000E-03 0. -1.
        -11    1    4    4    0    0  0.64079510191E+01 -0.72695087305E+01 -0.37855457323E+01  0.10403746931E+02  0.51100000000E-03 0.  1.
         12    1    4    4    0    0 -0.81604427808E+01 -0.67147464089E+00 -0.10793415330E+02  0.13547749593E+02  0.00000000000E+00 0. -1.
</event>
<event>
 8    1  0.1278459E-006  0.9118800E+02  0.7816164E-02  0.1184000E+00
        -11   -1    0    0    0    0  0.00000000000E+00  0.00000000000E+00  0.45593999997E+02  0.45594000000E+02  0.51100000000E-03 0.  1.
         11   -1    0    0    0    0 -0.00000000000E+00 -0.00000000000E+00 -0.45593999997E+02  0.45594000000E+02  0.51100000000E-03 0. -1.
         23    2    1    2    0    0  0.00000000000E+00  0.00000000000E+00 -0.35527136788E-14  0.91188000000E+02  0.91188000000E+02 0.  0.
    9900012    2    3    3    0    0 -0.34195592888E+01  0.19491269764E+02 -0.31051198050E+02  0.54367083620E+02  0.39999998728E+02 0.  0.
        -12    1    3    3    0    0  0.34195592888E+01 -0.19491269764E+02  0.31051198050E+02  0.36820916380E+02  0.00000000000E+00 0.  1.
         11    1    4    4    0    0 -0.74096739893E+01  0.71514355663E+00 -0.34467429184E+01  0.82033368785E+01  0.51100000000E-03 0. -1.
        -11    1    4    4    0    0  0.44999678479E+01  0.12587099039E+02 -0.34431258093E+02  0.36935028184E+02  0.51100000000E-03 0.  1.
        -12    1    4    4    0    0 -0.50985314736E+00  0.61890271684E+01  0.68268029618E+01  0.92287185570E+01  0.00000000000E+00 0.  1.
</event>
<event>
 8    1  0.1278459E-006  0.9118800E+02  0.7816164E-02  0.1184000E+00
        -11   -1    0    0    0    0  0.00000000000E+00  0.00000000000E+00  0.45593999997E+02  0.45594000000E+02  0.51100000000E-03 0. -1.
         11   -1    0    0    0    0 -0.00000000000E+00 -0.00000000000E+00 -0.45593999997E+02  0.45594000000E+02  0.51100000000E-03 0.  1.
         23    2    1    2    0    0  0.00000000000E+00  0.44408920985E-14  0.00000000000E+00  0.91188000000E+02  0.91188000000E+02 0.  0.
    9900012    2    3    3    0    0 -0.34461145524E+02  0.25372868596E+01  0.12718946035E+02  0.54367082525E+02  0.39999996232E+02 0.  0.
        -12    1    3    3    0    0  0.34461145524E+02 -0.25372868596E+01 -0.12718946035E+02  0.36820917475E+02  0.00000000000E+00 0.  1.
         11    1    4    4    0    0  0.69867493743E+00  0.58703073477E+01  0.58288859214E+01  0.83020820504E+01  0.51100000000E-03 0. -1.
        -11    1    4    4    0    0 -0.18790377286E+02 -0.14750485596E+02 -0.24803872107E+01  0.24016815460E+02  0.51100000000E-03 0.  1.
        -12    1    4    4    0    0 -0.16369443176E+02  0.11417465108E+02  0.93704473246E+01  0.22048185015E+02  0.00000000000E+00 0.  1.
</event>
<event>
 8    1  0.1278459E-006  0.9118800E+02  0.7816164E-02  0.1184000E+00
        -11   -1    0    0    0    0  0.00000000000E+00  0.00000000000E+00  0.45593999997E+02  0.45594000000E+02  0.51100000000E-03 0.  1.
         11   -1    0    0    0    0 -0.00000000000E+00 -0.00000000000E+00 -0.45593999997E+02  0.45594000000E+02  0.51100000000E-03 0. -1.
         23    2    1    2    0    0 -0.17763568394E-14 -0.71054273576E-14  0.00000000000E+00  0.91188000000E+02  0.91188000000E+02 0.  0.
    9900012    2    3    3    0    0  0.12044360938E+02  0.33521822876E+02  0.93274325460E+01  0.54367078810E+02  0.39999987764E+02 0.  0.
        -12    1    3    3    0    0 -0.12044360938E+02 -0.33521822876E+02 -0.93274325460E+01  0.36820921190E+02  0.00000000000E+00 0.  1.
         11    1    4    4    0    0  0.76940392728E+01  0.71735503850E+01 -0.23538632228E+01  0.10779551836E+02  0.51100000000E-03 0. -1.
        -11    1    4    4    0    0  0.11890289898E+02  0.15937738497E+02  0.20058766854E+02  0.28244373426E+02  0.51100000000E-03 0.  1.
         12    1    4    4    0    0 -0.75399682333E+01  0.10410533994E+02 -0.83774710856E+01  0.15343153548E+02  0.00000000000E+00 0. -1.
</event>
<event>
 8    1  0.1278459E-006  0.9118800E+02  0.7816164E-02  0.1184000E+00
        -11   -1    0    0    0    0  0.00000000000E+00  0.00000000000E+00  0.45593999997E+02  0.45594000000E+02  0.51100000000E-03 0.  1.
         11   -1    0    0    0    0 -0.00000000000E+00 -0.00000000000E+00 -0.45593999997E+02  0.45594000000E+02  0.51100000000E-03 0. -1.
         23    2    1    2    0    0  0.00000000000E+00 -0.17763568394E-14  0.00000000000E+00  0.91188000000E+02  0.91188000000E+02 0.  0.
    9900012    2    3    3    0    0 -0.25548655471E+02 -0.97090268479E+01 -0.24673527075E+02  0.54367055729E+02  0.39999935145E+02 0.  0.
        -12    1    3    3    0    0  0.25548655471E+02  0.97090268479E+01  0.24673527075E+02  0.36820944271E+02  0.00000000000E+00 0.  1.
         11    1    4    4    0    0  0.33316614634E+00 -0.17278210985E+02 -0.24970375787E+01  0.17460892630E+02  0.51100000000E-03 0. -1.
        -11    1    4    4    0    0 -0.15720109744E+02  0.82235122423E+01 -0.19530210259E+02  0.26385168504E+02  0.51100000000E-03 0.  1.
        -12    1    4    4    0    0 -0.10161711873E+02 -0.65432810550E+00 -0.26462792371E+01  0.10520994594E+02  0.00000000000E+00 0.  1.
</event>
<event>
 8    1  0.1278459E-006  0.9118800E+02  0.7816164E-02  0.1184000E+00
        -11   -1    0    0    0    0  0.00000000000E+00  0.00000000000E+00  0.45593999997E+02  0.45594000000E+02  0.51100000000E-03 0. -1.
         11   -1    0    0    0    0 -0.00000000000E+00 -0.00000000000E+00 -0.45593999997E+02  0.45594000000E+02  0.51100000000E-03 0.  1.
         23    2    1    2    0    0  0.00000000000E+00 -0.88817841970E-15  0.00000000000E+00  0.91188000000E+02  0.91188000000E+02 0.  0.
    9900012    2    3    3    0    0 -0.32197362851E+02  0.61490502562E+01  0.16771951668E+02  0.54367090772E+02  0.40000015033E+02 0.  0.
         12    1    3    3    0    0  0.32197362851E+02 -0.61490502562E+01 -0.16771951668E+02  0.36820909228E+02  0.00000000000E+00 0. -1.
         11    1    4    4    0    0 -0.85027348090E+00  0.13721927985E+02 -0.45259615346E+01  0.14474066488E+02  0.51100000000E-03 0. -1.
        -11    1    4    4    0    0 -0.27600054177E+02 -0.90699046079E+01  0.15791808080E+02  0.33066710796E+02  0.51100000000E-03 0.  1.
        -12    1    4    4    0    0 -0.37470351927E+01  0.14970268793E+01  0.55061051231E+01  0.68263134882E+01  0.00000000000E+00 0.  1.
</event>
<event>
 8    1  0.1278459E-006  0.9118800E+02  0.7816164E-02  0.1184000E+00
        -11   -1    0    0    0    0  0.00000000000E+00  0.00000000000E+00  0.45593999997E+02  0.45594000000E+02  0.51100000000E-03 0.  1.
         11   -1    0    0    0    0 -0.00000000000E+00 -0.00000000000E+00 -0.45593999997E+02  0.45594000000E+02  0.51100000000E-03 0. -1.
         23    2    1    2    0    0  0.00000000000E+00  0.00000000000E+00  0.88817841970E-15  0.91188000000E+02  0.91188000000E+02 0.  0.
    9900012    2    3    3    0    0  0.32936138003E+02  0.15368625480E+02 -0.58987896277E+01  0.54367088078E+02  0.40000008891E+02 0.  0.
         12    1    3    3    0    0 -0.32936138003E+02 -0.15368625480E+02  0.58987896277E+01  0.36820911922E+02  0.00000000000E+00 0. -1.
         11    1    4    4    0    0 -0.24652893045E+01  0.47463767479E+01 -0.96866441224E+01  0.11065117180E+02  0.51100000000E-03 0. -1.
        -11    1    4    4    0    0  0.11311707777E+02 -0.17241490798E+01 -0.78090327645E+01  0.13853101308E+02  0.51100000000E-03 0.  1.
        -12    1    4    4    0    0  0.24089719531E+02  0.12346397811E+02  0.11596887259E+02  0.29448869590E+02  0.00000000000E+00 0.  1.
</event>
<event>
 8    1  0.1278459E-006  0.9118800E+02  0.7816164E-02  0.1184000E+00
        -11   -1    0    0    0    0  0.00000000000E+00  0.00000000000E+00  0.45593999997E+02  0.45594000000E+02  0.51100000000E-03 0. -1.
         11   -1    0    0    0    0 -0.00000000000E+00 -0.00000000000E+00 -0.45593999997E+02  0.45594000000E+02  0.51100000000E-03 0.  1.
         23    2    1    2    0    0  0.00000000000E+00  0.00000000000E+00  0.00000000000E+00  0.91188000000E+02  0.91188000000E+02 0.  0.
    9900012    2    3    3    0    0  0.22684428334E+02 -0.28766607157E+02  0.36983807495E+01  0.54367095662E+02  0.40000026180E+02 0.  0.
        -12    1    3    3    0    0 -0.22684428334E+02  0.28766607157E+02 -0.36983807495E+01  0.36820904338E+02  0.00000000000E+00 0.  1.
         11    1    4    4    0    0  0.87361760102E+01 -0.23492017692E+02  0.11573673540E+02  0.27606984370E+02  0.51100000000E-03 0. -1.
        -11    1    4    4    0    0  0.17944604960E+01 -0.11666437678E+02 -0.43807579639E+01  0.12590349367E+02  0.51100000000E-03 0.  1.
         12    1    4    4    0    0  0.12153791827E+02  0.63918482134E+01 -0.34945348270E+01  0.14169761925E+02  0.00000000000E+00 0. -1.
</event>
<event>
 8    1  0.1278459E-006  0.9118800E+02  0.7816164E-02  0.1184000E+00
        -11   -1    0    0    0    0  0.00000000000E+00  0.00000000000E+00  0.45593999997E+02  0.45594000000E+02  0.51100000000E-03 0.  1.
         11   -1    0    0    0    0 -0.00000000000E+00 -0.00000000000E+00 -0.45593999997E+02  0.45594000000E+02  0.51100000000E-03 0. -1.
         23    2    1    2    0    0  0.00000000000E+00  0.35527136788E-14 -0.35527136788E-14  0.91188000000E+02  0.91188000000E+02 0.  0.
    9900012    2    3    3    0    0 -0.17423847075E+02 -0.19977784778E+02  0.25555411627E+02  0.54367063090E+02  0.39999951925E+02 0.  0.
         12    1    3    3    0    0  0.17423847075E+02  0.19977784778E+02 -0.25555411627E+02  0.36820936910E+02  0.00000000000E+00 0. -1.
         11    1    4    4    0    0 -0.21534996047E+01  0.69425243401E+01  0.11249665437E+02  0.13393699171E+02  0.51100000000E-03 0. -1.
        -11    1    4    4    0    0 -0.52456730860E+01 -0.41506358622E+01  0.14636294324E+02  0.16092419830E+02  0.51100000000E-03 0.  1.
         12    1    4    4    0    0 -0.10024674384E+02 -0.22769673256E+02 -0.33054813387E+00  0.24880944089E+02  0.00000000000E+00 0. -1.
</event>
<event>
 8    1  0.1278459E-006  0.9118800E+02  0.7816164E-02  0.1184000E+00
        -11   -1    0    0    0    0  0.00000000000E+00  0.00000000000E+00  0.45593999997E+02  0.45594000000E+02  0.51100000000E-03 0.  1.
         11   -1    0    0    0    0 -0.00000000000E+00 -0.00000000000E+00 -0.45593999997E+02  0.45594000000E+02  0.51100000000E-03 0. -1.
         23    2    1    2    0    0 -0.17763568394E-14  0.00000000000E+00  0.35527136788E-14  0.91188000000E+02  0.91188000000E+02 0.  0.
    9900012    2    3    3    0    0 -0.15005356602E+01 -0.20439500392E+02  0.30590119196E+02  0.54367079643E+02  0.39999989661E+02 0.  0.
         12    1    3    3    0    0  0.15005356602E+01  0.20439500392E+02 -0.30590119196E+02  0.36820920357E+02  0.00000000000E+00 0. -1.
         11    1    4    4    0    0 -0.14857074121E+02 -0.73783819222E+01 -0.16157970798E+01  0.16666852483E+02  0.51100000000E-03 0. -1.
        -11    1    4    4    0    0  0.21207696746E+01 -0.58985603896E+01  0.98978331895E+01  0.11715706585E+02  0.51100000000E-03 0.  1.
         12    1    4    4    0    0  0.11235768787E+02 -0.71625580803E+01  0.22308083086E+02  0.25984520574E+02  0.00000000000E+00 0. -1.
</event>
<event>
 8    1  0.1278459E-006  0.9118800E+02  0.7816164E-02  0.1184000E+00
        -11   -1    0    0    0    0  0.00000000000E+00  0.00000000000E+00  0.45593999997E+02  0.45594000000E+02  0.51100000000E-03 0. -1.
         11   -1    0    0    0    0 -0.00000000000E+00 -0.00000000000E+00 -0.45593999997E+02  0.45594000000E+02  0.51100000000E-03 0.  1.
         23    2    1    2    0    0 -0.35527136788E-14  0.00000000000E+00 -0.35527136788E-14  0.91188000000E+02  0.91188000000E+02 0.  0.
    9900012    2    3    3    0    0 -0.20008606644E+02 -0.11380638532E+02 -0.28738758505E+02  0.54367088637E+02  0.40000010165E+02 0.  0.
         12    1    3    3    0    0  0.20008606644E+02  0.11380638532E+02  0.28738758505E+02  0.36820911363E+02  0.00000000000E+00 0. -1.
         11    1    4    4    0    0  0.20531328027E+01 -0.50509322393E+00 -0.43786318925E+01  0.48623956011E+01  0.51100000000E-03 0. -1.
        -11    1    4    4    0    0 -0.51946477541E+01 -0.13587626235E+02  0.51289772791E+01  0.15424472769E+02  0.51100000000E-03 0.  1.
        -12    1    4    4    0    0 -0.16867091693E+02  0.27120809273E+01 -0.29489103891E+02  0.34080220267E+02  0.00000000000E+00 0.  1.
</event>
<event>
 8    1  0.1278459E-006  0.9118800E+02  0.7816164E-02  0.1184000E+00
        -11   -1    0    0    0    0  0.00000000000E+00  0.00000000000E+00  0.45593999997E+02  0.45594000000E+02  0.51100000000E-03 0. -1.
         11   -1    0    0    0    0 -0.00000000000E+00 -0.00000000000E+00 -0.45593999997E+02  0.45594000000E+02  0.51100000000E-03 0.  1.
         23    2    1    2    0    0 -0.35527136788E-14  0.17763568394E-14 -0.35527136788E-14  0.91188000000E+02  0.91188000000E+02 0.  0.
    9900012    2    3    3    0    0  0.25181251711E+02  0.10762332845E+02 -0.24614138448E+02  0.54367094830E+02  0.40000024285E+02 0.  0.
         12    1    3    3    0    0 -0.25181251711E+02 -0.10762332845E+02  0.24614138448E+02  0.36820905170E+02  0.00000000000E+00 0. -1.
         11    1    4    4    0    0  0.19103265905E+01  0.23125641885E+01  0.60372173402E+01  0.67413125044E+01  0.51100000000E-03 0. -1.
        -11    1    4    4    0    0  0.13408295389E+02  0.10957757743E+02 -0.32922663328E+02  0.37198879027E+02  0.51100000000E-03 0.  1.
        -12    1    4    4    0    0  0.98626297308E+01 -0.25079890864E+01  0.22713075397E+01  0.10426903299E+02  0.00000000000E+00 0.  1.
</event>
<event>
 8    1  0.1278459E-006  0.9118800E+02  0.7816164E-02  0.1184000E+00
        -11   -1    0    0    0    0  0.00000000000E+00  0.00000000000E+00  0.45593999997E+02  0.45594000000E+02  0.51100000000E-03 0.  1.
         11   -1    0    0    0    0 -0.00000000000E+00 -0.00000000000E+00 -0.45593999997E+02  0.45594000000E+02  0.51100000000E-03 0. -1.
         23    2    1    2    0    0  0.33306690739E-15  0.17763568394E-14  0.00000000000E+00  0.91188000000E+02  0.91188000000E+02 0.  0.
    9900012    2    3    3    0    0  0.67248051189E+00  0.12265447594E+02  0.34711464209E+02  0.54367093136E+02  0.40000020422E+02 0.  0.
         12    1    3    3    0    0 -0.67248051189E+00 -0.12265447594E+02 -0.34711464209E+02  0.36820906864E+02  0.00000000000E+00 0. -1.
         11    1    4    4    0    0 -0.95428423165E+01 -0.63948535652E+01  0.16270254048E+02  0.19916856144E+02  0.51100000000E-03 0. -1.
        -11    1    4    4    0    0  0.43792663136E+01  0.18167402564E+02  0.20954344637E+02  0.28076984325E+02  0.51100000000E-03 0.  1.
         12    1    4    4    0    0  0.58360565148E+01  0.49289859555E+00 -0.25131344757E+01  0.63732526674E+01  0.00000000000E+00 0. -1.
</event>
<event>
 8    1  0.1278459E-006  0.9118800E+02  0.7816164E-02  0.1184000E+00
        -11   -1    0    0    0    0  0.00000000000E+00  0.00000000000E+00  0.45593999997E+02  0.45594000000E+02  0.51100000000E-03 0. -1.
         11   -1    0    0    0    0 -0.00000000000E+00 -0.00000000000E+00 -0.45593999997E+02  0.45594000000E+02  0.51100000000E-03 0.  1.
         23    2    1    2    0    0  0.00000000000E+00  0.17763568394E-14  0.00000000000E+00  0.91188000000E+02  0.91188000000E+02 0.  0.
    9900012    2    3    3    0    0 -0.27849187842E+02  0.12828508169E+02 -0.20387094117E+02  0.54367061774E+02  0.39999948927E+02 0.  0.
         12    1    3    3    0    0  0.27849187842E+02 -0.12828508169E+02  0.20387094117E+02  0.36820938226E+02  0.00000000000E+00 0. -1.
         11    1    4    4    0    0  0.33975088892E+01 -0.37813996343E+00  0.66293706044E+01  0.74588612640E+01  0.51100000000E-03 0. -1.
        -11    1    4    4    0    0 -0.23697918772E+02  0.15350174687E+02 -0.13540513044E+02  0.31313969898E+02  0.51100000000E-03 0.  1.
         12    1    4    4    0    0 -0.75487779593E+01 -0.21435265545E+01 -0.13475951677E+02  0.15594230612E+02  0.00000000000E+00 0. -1.
</event>
<event>
 8    1  0.1278459E-006  0.9118800E+02  0.7816164E-02  0.1184000E+00
        -11   -1    0    0    0    0  0.00000000000E+00  0.00000000000E+00  0.45593999997E+02  0.45594000000E+02  0.51100000000E-03 0.  1.
         11   -1    0    0    0    0 -0.00000000000E+00 -0.00000000000E+00 -0.45593999997E+02  0.45594000000E+02  0.51100000000E-03 0. -1.
         23    2    1    2    0    0 -0.35527136788E-14  0.35527136788E-14  0.35527136788E-14  0.91188000000E+02  0.91188000000E+02 0.  0.
    9900012    2    3    3    0    0 -0.29352342817E+02  0.16639955223E+02  0.14742186457E+02  0.54367079313E+02  0.39999988911E+02 0.  0.
         12    1    3    3    0    0  0.29352342817E+02 -0.16639955223E+02 -0.14742186457E+02  0.36820920687E+02  0.00000000000E+00 0. -1.
         11    1    4    4    0    0 -0.18911010925E+01  0.11455692151E+02  0.46932192935E+01  0.12523396248E+02  0.51100000000E-03 0. -1.
        -11    1    4    4    0    0 -0.30356321264E+02  0.72621216187E+01  0.15872102720E+02  0.35016685967E+02  0.51100000000E-03 0.  1.
         12    1    4    4    0    0  0.28950795393E+01 -0.20778585462E+01 -0.58231355561E+01  0.68269970984E+01  0.00000000000E+00 0. -1.
</event>
<event>
 8    1  0.1278459E-006  0.9118800E+02  0.7816164E-02  0.1184000E+00
        -11   -1    0    0    0    0  0.00000000000E+00  0.00000000000E+00  0.45593999997E+02  0.45594000000E+02  0.51100000000E-03 0.  1.
         11   -1    0    0    0    0 -0.00000000000E+00 -0.00000000000E+00 -0.45593999997E+02  0.45594000000E+02  0.51100000000E-03 0. -1.
         23    2    1    2    0    0  0.71054273576E-14  0.35527136788E-14  0.00000000000E+00  0.91188000000E+02  0.91188000000E+02 0.  0.
    9900012    2    3    3    0    0 -0.34004540780E+02 -0.12726679262E+02 -0.61239858832E+01  0.54367077119E+02  0.39999983908E+02 0.  0.
        -12    1    3    3    0    0  0.34004540780E+02  0.12726679262E+02  0.61239858832E+01  0.36820922881E+02  0.00000000000E+00 0.  1.
         11    1    4    4    0    0 -0.23602080401E+02  0.29921773548E+01  0.55753937444E+01  0.24435554838E+02  0.51100000000E-03 0. -1.
        -11    1    4    4    0    0 -0.63531067524E+01  0.20506286378E+01 -0.94471187822E+01  0.11567847542E+02  0.51100000000E-03 0.  1.
        -12    1    4    4    0    0 -0.40493536275E+01 -0.17769485254E+02 -0.22522608455E+01  0.18363674739E+02  0.00000000000E+00 0.  1.
</event>
<event>
 8    1  0.1278459E-006  0.9118800E+02  0.7816164E-02  0.1184000E+00
        -11   -1    0    0    0    0  0.00000000000E+00  0.00000000000E+00  0.45593999997E+02  0.45594000000E+02  0.51100000000E-03 0. -1.
         11   -1    0    0    0    0 -0.00000000000E+00 -0.00000000000E+00 -0.45593999997E+02  0.45594000000E+02  0.51100000000E-03 0.  1.
         23    2    1    2    0    0  0.17763568394E-14  0.00000000000E+00  0.00000000000E+00  0.91188000000E+02  0.91188000000E+02 0.  0.
    9900012    2    3    3    0    0 -0.11077233358E+02 -0.14819260584E+02 -0.31834940966E+02  0.54367094940E+02  0.40000024535E+02 0.  0.
         12    1    3    3    0    0  0.11077233358E+02  0.14819260584E+02  0.31834940966E+02  0.36820905060E+02  0.00000000000E+00 0. -1.
         11    1    4    4    0    0  0.40718199313E+01 -0.10540493950E+02 -0.60207470116E+01  0.12803559079E+02  0.51100000000E-03 0. -1.
        -11    1    4    4    0    0 -0.24705474864E+01 -0.15382987941E+02 -0.14338272162E+02  0.21173709447E+02  0.51100000000E-03 0.  1.
         12    1    4    4    0    0 -0.12678505803E+02  0.11104221307E+02 -0.11475921793E+02  0.20389826414E+02  0.00000000000E+00 0. -1.
</event>
<event>
 8    1  0.1278459E-006  0.9118800E+02  0.7816164E-02  0.1184000E+00
        -11   -1    0    0    0    0  0.00000000000E+00  0.00000000000E+00  0.45593999997E+02  0.45594000000E+02  0.51100000000E-03 0.  1.
         11   -1    0    0    0    0 -0.00000000000E+00 -0.00000000000E+00 -0.45593999997E+02  0.45594000000E+02  0.51100000000E-03 0. -1.
         23    2    1    2    0    0  0.17763568394E-14  0.00000000000E+00 -0.17763568394E-14  0.91188000000E+02  0.91188000000E+02 0.  0.
    9900012    2    3    3    0    0  0.34527007558E+01  0.35150714701E+02 -0.10406058761E+02  0.54367082773E+02  0.39999996797E+02 0.  0.
        -12    1    3    3    0    0 -0.34527007558E+01 -0.35150714701E+02  0.10406058761E+02  0.36820917227E+02  0.00000000000E+00 0.  1.
         11    1    4    4    0    0  0.15060540938E+02  0.20677183580E+02 -0.53633907738E+01  0.26136789684E+02  0.51100000000E-03 0. -1.
        -11    1    4    4    0    0  0.43848249904E+01  0.51543447615E+01  0.37517072987E+01  0.77375233786E+01  0.51100000000E-03 0.  1.
        -12    1    4    4    0    0 -0.15992665173E+02  0.93191863602E+01 -0.87943752857E+01  0.20492769710E+02  0.00000000000E+00 0.  1.
</event>
<event>
 8    1  0.1278459E-006  0.9118800E+02  0.7816164E-02  0.1184000E+00
        -11   -1    0    0    0    0  0.00000000000E+00  0.00000000000E+00  0.45593999997E+02  0.45594000000E+02  0.51100000000E-03 0. -1.
         11   -1    0    0    0    0 -0.00000000000E+00 -0.00000000000E+00 -0.45593999997E+02  0.45594000000E+02  0.51100000000E-03 0.  1.
         23    2    1    2    0    0  0.00000000000E+00  0.35527136788E-14 -0.17763568394E-14  0.91188000000E+02  0.91188000000E+02 0.  0.
    9900012    2    3    3    0    0 -0.21502457897E+02 -0.28027748177E+02  0.10386029353E+02  0.54367082450E+02  0.39999996062E+02 0.  0.
         12    1    3    3    0    0  0.21502457897E+02  0.28027748177E+02 -0.10386029353E+02  0.36820917550E+02  0.00000000000E+00 0. -1.
         11    1    4    4    0    0 -0.31254021709E+01  0.21661049328E+01  0.89582087252E+01  0.97318884671E+01  0.51100000000E-03 0. -1.
        -11    1    4    4    0    0  0.54729744623E+01 -0.14479791806E+02 -0.28964915685E+01  0.15748253359E+02  0.51100000000E-03 0.  1.
        -12    1    4    4    0    0 -0.23850030188E+02 -0.15714061304E+02  0.43243121960E+01  0.28886940624E+02  0.00000000000E+00 0.  1.
</event>
<event>
 8    1  0.1278459E-006  0.9118800E+02  0.7816164E-02  0.1184000E+00
        -11   -1    0    0    0    0  0.00000000000E+00  0.00000000000E+00  0.45593999997E+02  0.45594000000E+02  0.51100000000E-03 0.  1.
         11   -1    0    0    0    0 -0.00000000000E+00 -0.00000000000E+00 -0.45593999997E+02  0.45594000000E+02  0.51100000000E-03 0. -1.
         23    2    1    2    0    0  0.00000000000E+00  0.00000000000E+00  0.00000000000E+00  0.91188000000E+02  0.91188000000E+02 0.  0.
    9900012    2    3    3    0    0 -0.20563171136E+02 -0.28320235517E+02  0.11441169832E+02  0.54367080483E+02  0.39999991577E+02 0.  0.
         12    1    3    3    0    0  0.20563171136E+02  0.28320235517E+02 -0.11441169832E+02  0.36820919517E+02  0.00000000000E+00 0. -1.
         11    1    4    4    0    0  0.77841215057E+01 -0.10811917397E+02  0.10757570646E+02  0.17123534445E+02  0.51100000000E-03 0. -1.
        -11    1    4    4    0    0 -0.17718059707E+02 -0.17808100498E+02  0.52624261490E+01  0.25666149153E+02  0.51100000000E-03 0.  1.
         12    1    4    4    0    0 -0.10629232936E+02  0.29978237851E+00 -0.45788269623E+01  0.11577396885E+02  0.00000000000E+00 0. -1.
</event>
<event>
 8    1  0.1278459E-006  0.9118800E+02  0.7816164E-02  0.1184000E+00
        -11   -1    0    0    0    0  0.00000000000E+00  0.00000000000E+00  0.45593999997E+02  0.45594000000E+02  0.51100000000E-03 0.  1.
         11   -1    0    0    0    0 -0.00000000000E+00 -0.00000000000E+00 -0.45593999997E+02  0.45594000000E+02  0.51100000000E-03 0. -1.
         23    2    1    2    0    0 -0.17763568394E-14 -0.88817841970E-15 -0.71054273576E-14  0.91188000000E+02  0.91188000000E+02 0.  0.
    9900012    2    3    3    0    0  0.97246090254E+01  0.77294922854E+01  0.34662177603E+02  0.54367087086E+02  0.40000006629E+02 0.  0.
         12    1    3    3    0    0 -0.97246090254E+01 -0.77294922854E+01 -0.34662177603E+02  0.36820912914E+02  0.00000000000E+00 0. -1.
         11    1    4    4    0    0 -0.46812496846E-01  0.22188540269E+00 -0.91389384193E+00  0.94160860087E+00  0.51100000000E-03 0. -1.
        -11    1    4    4    0    0  0.80716627957E+01  0.16730503777E+02  0.39194341061E+02  0.43373469637E+02  0.51100000000E-03 0.  1.
        -12    1    4    4    0    0  0.16997587265E+01 -0.92228968947E+01 -0.36182696159E+01  0.10052008848E+02  0.00000000000E+00 0.  1.
</event>
<event>
 8    1  0.1278459E-006  0.9118800E+02  0.7816164E-02  0.1184000E+00
        -11   -1    0    0    0    0  0.00000000000E+00  0.00000000000E+00  0.45593999997E+02  0.45594000000E+02  0.51100000000E-03 0. -1.
         11   -1    0    0    0    0 -0.00000000000E+00 -0.00000000000E+00 -0.45593999997E+02  0.45594000000E+02  0.51100000000E-03 0.  1.
         23    2    1    2    0    0 -0.15265566589E-15  0.00000000000E+00 -0.35527136788E-14  0.91188000000E+02  0.91188000000E+02 0.  0.
    9900012    2    3    3    0    0  0.41755077353E-01 -0.30437297912E+02 -0.20720719923E+02  0.54367094500E+02  0.40000023532E+02 0.  0.
         12    1    3    3    0    0 -0.41755077353E-01  0.30437297912E+02  0.20720719923E+02  0.36820905500E+02  0.00000000000E+00 0. -1.
         11    1    4    4    0    0 -0.58508646372E+01 -0.24082590699E+01 -0.14065153115E+02  0.15422738446E+02  0.51100000000E-03 0. -1.
        -11    1    4    4    0    0 -0.18492402375E+01 -0.29417673772E+02 -0.14480652450E+01  0.29511287889E+02  0.51100000000E-03 0.  1.
        -12    1    4    4    0    0  0.77418599521E+01  0.13886349299E+01 -0.52075015632E+01  0.94330681656E+01  0.00000000000E+00 0.  1.
</event>
<event>
 8    1  0.1278459E-006  0.9118800E+02  0.7816164E-02  0.1184000E+00
        -11   -1    0    0    0    0  0.00000000000E+00  0.00000000000E+00  0.45593999997E+02  0.45594000000E+02  0.51100000000E-03 0.  1.
         11   -1    0    0    0    0 -0.00000000000E+00 -0.00000000000E+00 -0.45593999997E+02  0.45594000000E+02  0.51100000000E-03 0. -1.
         23    2    1    2    0    0  0.71054273576E-14 -0.17763568394E-14  0.00000000000E+00  0.91188000000E+02  0.91188000000E+02 0.  0.
    9900012    2    3    3    0    0 -0.33155132256E+02  0.15184134791E+02 -0.50949657413E+01  0.54367089906E+02  0.40000013059E+02 0.  0.
        -12    1    3    3    0    0  0.33155132256E+02 -0.15184134791E+02  0.50949657413E+01  0.36820910094E+02  0.00000000000E+00 0.  1.
         11    1    4    4    0    0 -0.14432110524E+02  0.10640213500E+01 -0.21943037359E+01  0.14636697878E+02  0.51100000000E-03 0. -1.
        -11    1    4    4    0    0 -0.27818527766E+02  0.10904626901E+02 -0.98996016585E+00  0.29895842459E+02  0.51100000000E-03 0.  1.
        -12    1    4    4    0    0  0.90955060347E+01  0.32154865394E+01 -0.19107018396E+01  0.98345495694E+01  0.00000000000E+00 0.  1.
</event>
<event>
 8    1  0.1278459E-006  0.9118800E+02  0.7816164E-02  0.1184000E+00
        -11   -1    0    0    0    0  0.00000000000E+00  0.00000000000E+00  0.45593999997E+02  0.45594000000E+02  0.51100000000E-03 0.  1.
         11   -1    0    0    0    0 -0.00000000000E+00 -0.00000000000E+00 -0.45593999997E+02  0.45594000000E+02  0.51100000000E-03 0. -1.
         23    2    1    2    0    0 -0.17763568394E-14  0.00000000000E+00  0.00000000000E+00  0.91188000000E+02  0.91188000000E+02 0.  0.
    9900012    2    3    3    0    0 -0.11551964789E+02  0.32151118807E+02 -0.13734521668E+02  0.54367089956E+02  0.40000013172E+02 0.  0.
        -12    1    3    3    0    0  0.11551964789E+02 -0.32151118807E+02  0.13734521668E+02  0.36820910044E+02  0.00000000000E+00 0.  1.
         11    1    4    4    0    0 -0.11466759111E+02  0.11631084735E+01  0.39264562950E+01  0.12176060329E+02  0.51100000000E-03 0. -1.
        -11    1    4    4    0    0  0.10226754806E+02  0.11618690769E+02 -0.11843473505E+02  0.19489698663E+02  0.51100000000E-03 0.  1.
        -12    1    4    4    0    0 -0.10311960485E+02  0.19369319565E+02 -0.58175044586E+01  0.22701330965E+02  0.00000000000E+00 0.  1.
</event>
<event>
 8    1  0.1278459E-006  0.9118800E+02  0.7816164E-02  0.1184000E+00
        -11   -1    0    0    0    0  0.00000000000E+00  0.00000000000E+00  0.45593999997E+02  0.45594000000E+02  0.51100000000E-03 0.  1.
         11   -1    0    0    0    0 -0.00000000000E+00 -0.00000000000E+00 -0.45593999997E+02  0.45594000000E+02  0.51100000000E-03 0. -1.
         23    2    1    2    0    0  0.00000000000E+00  0.88817841970E-15  0.00000000000E+00  0.91188000000E+02  0.91188000000E+02 0.  0.
    9900012    2    3    3    0    0  0.29563666570E+02  0.51145400048E+01  0.21345042244E+02  0.54367085713E+02  0.40000003501E+02 0.  0.
         12    1    3    3    0    0 -0.29563666570E+02 -0.51145400048E+01 -0.21345042244E+02  0.36820914287E+02  0.00000000000E+00 0. -1.
         11    1    4    4    0    0 -0.49851777551E+01  0.52364737545E+01 -0.29319774236E+01  0.78018681420E+01  0.51100000000E-03 0. -1.
        -11    1    4    4    0    0  0.93392230920E+01  0.60998408709E+01  0.15619945021E+02  0.19194057136E+02  0.51100000000E-03 0.  1.
         12    1    4    4    0    0  0.25209621233E+02 -0.62217746206E+01  0.86570746457E+01  0.27371160435E+02  0.00000000000E+00 0. -1.
</event>
<event>
 8    1  0.1278459E-006  0.9118800E+02  0.7816164E-02  0.1184000E+00
        -11   -1    0    0    0    0  0.00000000000E+00  0.00000000000E+00  0.45593999997E+02  0.45594000000E+02  0.51100000000E-03 0.  1.
         11   -1    0    0    0    0 -0.00000000000E+00 -0.00000000000E+00 -0.45593999997E+02  0.45594000000E+02  0.51100000000E-03 0. -1.
         23    2    1    2    0    0  0.00000000000E+00 -0.17763568394E-14  0.00000000000E+00  0.91188000000E+02  0.91188000000E+02 0.  0.
    9900012    2    3    3    0    0 -0.24922575380E+02  0.11573351354E+02 -0.24509294168E+02  0.54367045019E+02  0.39999910730E+02 0.  0.
        -12    1    3    3    0    0  0.24922575380E+02 -0.11573351354E+02  0.24509294168E+02  0.36820954981E+02  0.00000000000E+00 0.  1.
         11    1    4    4    0    0  0.32636785792E+00  0.39858250415E+01 -0.13023052587E+01  0.42058669128E+01  0.51100000000E-03 0. -1.
        -11    1    4    4    0    0 -0.30407452715E+02  0.92794668150E+01 -0.63080590663E+01  0.32411622829E+02  0.51100000000E-03 0.  1.
        -12    1    4    4    0    0  0.51585094774E+01 -0.16919405027E+01 -0.16898929843E+02  0.17749555277E+02  0.00000000000E+00 0.  1.
</event>
<event>
 8    1  0.1278459E-006  0.9118800E+02  0.7816164E-02  0.1184000E+00
        -11   -1    0    0    0    0  0.00000000000E+00  0.00000000000E+00  0.45593999997E+02  0.45594000000E+02  0.51100000000E-03 0. -1.
         11   -1    0    0    0    0 -0.00000000000E+00 -0.00000000000E+00 -0.45593999997E+02  0.45594000000E+02  0.51100000000E-03 0.  1.
         23    2    1    2    0    0  0.00000000000E+00  0.00000000000E+00  0.00000000000E+00  0.91188000000E+02  0.91188000000E+02 0.  0.
    9900012    2    3    3    0    0 -0.16162695696E+02 -0.86221150683E+01  0.31940684236E+02  0.54367069677E+02  0.39999966942E+02 0.  0.
        -12    1    3    3    0    0  0.16162695696E+02  0.86221150683E+01 -0.31940684236E+02  0.36820930323E+02  0.00000000000E+00 0.  1.
         11    1    4    4    0    0  0.78812917444E+01  0.18391128931E+01  0.15514094813E+01  0.82403863643E+01  0.51100000000E-03 0.  1.
        -11    1    4    4    0    0 -0.71895619040E+01 -0.14587151061E+02  0.20455205999E+02  0.26132168474E+02  0.51100000000E-03 0. -1.
        -12    1    4    4    0    0 -0.16854425536E+02  0.41259230991E+01  0.99340687557E+01  0.19994514838E+02  0.00000000000E+00 0.  1.
</event>
<event>
 8    1  0.1278459E-006  0.9118800E+02  0.7816164E-02  0.1184000E+00
        -11   -1    0    0    0    0  0.00000000000E+00  0.00000000000E+00  0.45593999997E+02  0.45594000000E+02  0.51100000000E-03 0. -1.
         11   -1    0    0    0    0 -0.00000000000E+00 -0.00000000000E+00 -0.45593999997E+02  0.45594000000E+02  0.51100000000E-03 0.  1.
         23    2    1    2    0    0 -0.88817841970E-15  0.35527136788E-14  0.35527136788E-14  0.91188000000E+02  0.91188000000E+02 0.  0.
    9900012    2    3    3    0    0  0.71046541429E+01  0.22058330181E+02  0.28613519048E+02  0.54367088643E+02  0.40000010179E+02 0.  0.
        -12    1    3    3    0    0 -0.71046541429E+01 -0.22058330181E+02 -0.28613519048E+02  0.36820911357E+02  0.00000000000E+00 0.  1.
         11    1    4    4    0    0 -0.37150653158E+01 -0.39561434342E+01  0.23552336085E+02  0.24169512128E+02  0.51100000000E-03 0. -1.
        -11    1    4    4    0    0 -0.16782309854E+01  0.15800812056E+01  0.97064616832E-01  0.23070625604E+01  0.51100000000E-03 0.  1.
        -12    1    4    4    0    0  0.12497950444E+02  0.24434392409E+02  0.49641183467E+01  0.27890513955E+02  0.00000000000E+00 0.  1.
</event>
<event>
 8    1  0.1278459E-006  0.9118800E+02  0.7816164E-02  0.1184000E+00
        -11   -1    0    0    0    0  0.00000000000E+00  0.00000000000E+00  0.45593999997E+02  0.45594000000E+02  0.51100000000E-03 0.  1.
         11   -1    0    0    0    0 -0.00000000000E+00 -0.00000000000E+00 -0.45593999997E+02  0.45594000000E+02  0.51100000000E-03 0. -1.
         23    2    1    2    0    0 -0.35527136788E-14  0.18873791419E-14  0.00000000000E+00  0.91188000000E+02  0.91188000000E+02 0.  0.
    9900012    2    3    3    0    0 -0.26452514233E+02 -0.99005302788E+00  0.25594200584E+02  0.54367098086E+02  0.40000031707E+02 0.  0.
         12    1    3    3    0    0  0.26452514233E+02  0.99005302788E+00 -0.25594200584E+02  0.36820901914E+02  0.00000000000E+00 0. -1.
         11    1    4    4    0    0 -0.43889462270E+01 -0.20267301847E+00 -0.27879417674E+01  0.52035127457E+01  0.51100000000E-03 0. -1.
        -11    1    4    4    0    0  0.14489206791E+01 -0.85717808466E+01  0.21899149769E+02  0.23561569534E+02  0.51100000000E-03 0.  1.
        -12    1    4    4    0    0 -0.23512488685E+02  0.77844008372E+01  0.64829925819E+01  0.25602015807E+02  0.00000000000E+00 0.  1.
</event>
<event>
 8    1  0.1278459E-006  0.9118800E+02  0.7816164E-02  0.1184000E+00
        -11   -1    0    0    0    0  0.00000000000E+00  0.00000000000E+00  0.45593999997E+02  0.45594000000E+02  0.51100000000E-03 0.  1.
         11   -1    0    0    0    0 -0.00000000000E+00 -0.00000000000E+00 -0.45593999997E+02  0.45594000000E+02  0.51100000000E-03 0. -1.
         23    2    1    2    0    0  0.00000000000E+00 -0.17763568394E-14  0.71054273576E-14  0.91188000000E+02  0.91188000000E+02 0.  0.
    9900012    2    3    3    0    0  0.62817365221E+01  0.15241452216E+02  0.32924401476E+02  0.54367105226E+02  0.40000047983E+02 0.  0.
         12    1    3    3    0    0 -0.62817365221E+01 -0.15241452216E+02 -0.32924401476E+02  0.36820894774E+02  0.00000000000E+00 0. -1.
         11    1    4    4    0    0  0.79380319770E+01  0.41091767857E+01 -0.70225306544E+01  0.11367217011E+02  0.51100000000E-03 0. -1.
        -11    1    4    4    0    0 -0.22440292172E+01 -0.18530684859E+01  0.77061421793E+01  0.82373635036E+01  0.51100000000E-03 0.  1.
         12    1    4    4    0    0  0.58773376234E+00  0.12985343917E+02  0.32240789951E+02  0.34762524711E+02  0.00000000000E+00 0. -1.
</event>
<event>
 8    1  0.1278459E-006  0.9118800E+02  0.7816164E-02  0.1184000E+00
        -11   -1    0    0    0    0  0.00000000000E+00  0.00000000000E+00  0.45593999997E+02  0.45594000000E+02  0.51100000000E-03 0. -1.
         11   -1    0    0    0    0 -0.00000000000E+00 -0.00000000000E+00 -0.45593999997E+02  0.45594000000E+02  0.51100000000E-03 0.  1.
         23    2    1    2    0    0  0.00000000000E+00 -0.17763568394E-14 -0.71054273576E-14  0.91188000000E+02  0.91188000000E+02 0.  0.
    9900012    2    3    3    0    0  0.13990148047E+02  0.94234081278E+01  0.32730053031E+02  0.54367065268E+02  0.39999956891E+02 0.  0.
        -12    1    3    3    0    0 -0.13990148047E+02 -0.94234081278E+01 -0.32730053031E+02  0.36820934732E+02  0.00000000000E+00 0.  1.
         11    1    4    4    0    0  0.56411088851E+01  0.54336324861E+01  0.12978109341E+02  0.15158423195E+02  0.51100000000E-03 0. -1.
        -11    1    4    4    0    0  0.54778531262E+01 -0.94118747523E+01 -0.41516969383E+01  0.11654477635E+02  0.51100000000E-03 0.  1.
        -12    1    4    4    0    0  0.28711860360E+01  0.13401650394E+02  0.23903640629E+02  0.27554164437E+02  0.00000000000E+00 0.  1.
</event>
<event>
 8    1  0.1278459E-006  0.9118800E+02  0.7816164E-02  0.1184000E+00
        -11   -1    0    0    0    0  0.00000000000E+00  0.00000000000E+00  0.45593999997E+02  0.45594000000E+02  0.51100000000E-03 0.  1.
         11   -1    0    0    0    0 -0.00000000000E+00 -0.00000000000E+00 -0.45593999997E+02  0.45594000000E+02  0.51100000000E-03 0. -1.
         23    2    1    2    0    0  0.00000000000E+00  0.00000000000E+00  0.00000000000E+00  0.91188000000E+02  0.91188000000E+02 0.  0.
    9900012    2    3    3    0    0  0.11950442266E+02  0.23082672449E+02  0.26079830274E+02  0.54367076806E+02  0.39999983194E+02 0.  0.
         12    1    3    3    0    0 -0.11950442266E+02 -0.23082672449E+02 -0.26079830274E+02  0.36820923194E+02  0.00000000000E+00 0. -1.
         11    1    4    4    0    0 -0.64723142881E+01 -0.24787806379E+01  0.38276259182E+01  0.79174444189E+01  0.51100000000E-03 0. -1.
        -11    1    4    4    0    0  0.62036271118E+01 -0.30946582900E+01  0.11623310491E+02  0.13533781670E+02  0.51100000000E-03 0.  1.
        -12    1    4    4    0    0  0.12219129443E+02  0.28656111377E+02  0.10628893865E+02  0.32915850716E+02  0.00000000000E+00 0.  1.
</event>
<event>
 8    1  0.1278459E-006  0.9118800E+02  0.7816164E-02  0.1184000E+00
        -11   -1    0    0    0    0  0.00000000000E+00  0.00000000000E+00  0.45593999997E+02  0.45594000000E+02  0.51100000000E-03 0.  1.
         11   -1    0    0    0    0 -0.00000000000E+00 -0.00000000000E+00 -0.45593999997E+02  0.45594000000E+02  0.51100000000E-03 0. -1.
         23    2    1    2    0    0  0.35527136788E-14  0.00000000000E+00  0.35527136788E-14  0.91188000000E+02  0.91188000000E+02 0.  0.
    9900012    2    3    3    0    0  0.22418128976E+02 -0.71452810884E+01  0.28322282466E+02  0.54367092451E+02  0.40000018861E+02 0.  0.
         12    1    3    3    0    0 -0.22418128976E+02  0.71452810884E+01 -0.28322282466E+02  0.36820907549E+02  0.00000000000E+00 0. -1.
         11    1    4    4    0    0  0.23064906937E+02 -0.87113422477E+01  0.76618735781E+01  0.25818243990E+02  0.51100000000E-03 0. -1.
        -11    1    4    4    0    0 -0.10594395180E+01 -0.84347891126E+01  0.47119426881E+01  0.97195927704E+01  0.51100000000E-03 0.  1.
         12    1    4    4    0    0  0.41266155773E+00  0.10000850272E+02  0.15948466200E+02  0.18829255690E+02  0.00000000000E+00 0. -1.
</event>
<event>
 8    1  0.1278459E-006  0.9118800E+02  0.7816164E-02  0.1184000E+00
        -11   -1    0    0    0    0  0.00000000000E+00  0.00000000000E+00  0.45593999997E+02  0.45594000000E+02  0.51100000000E-03 0.  1.
         11   -1    0    0    0    0 -0.00000000000E+00 -0.00000000000E+00 -0.45593999997E+02  0.45594000000E+02  0.51100000000E-03 0. -1.
         23    2    1    2    0    0 -0.17763568394E-14 -0.71054273576E-14 -0.44408920985E-15  0.91188000000E+02  0.91188000000E+02 0.  0.
    9900012    2    3    3    0    0 -0.95381065018E+01 -0.35545005420E+02 -0.11648239469E+01  0.54367086095E+02  0.40000004371E+02 0.  0.
        -12    1    3    3    0    0  0.95381065018E+01  0.35545005420E+02  0.11648239469E+01  0.36820913905E+02  0.00000000000E+00 0.  1.
         11    1    4    4    0    0 -0.27175101511E+01 -0.32624079660E+01 -0.68136232997E+01  0.80283018060E+01  0.51100000000E-03 0. -1.
        -11    1    4    4    0    0 -0.10251926342E+01  0.59964445773E+01 -0.28244216697E+01  0.67071398923E+01  0.51100000000E-03 0.  1.
         12    1    4    4    0    0 -0.57954037166E+01 -0.38279042032E+02  0.84732210225E+01  0.39631644397E+02  0.00000000000E+00 0. -1.
</event>
<event>
 8    1  0.1278459E-006  0.9118800E+02  0.7816164E-02  0.1184000E+00
        -11   -1    0    0    0    0  0.00000000000E+00  0.00000000000E+00  0.45593999997E+02  0.45594000000E+02  0.51100000000E-03 0. -1.
         11   -1    0    0    0    0 -0.00000000000E+00 -0.00000000000E+00 -0.45593999997E+02  0.45594000000E+02  0.51100000000E-03 0.  1.
         23    2    1    2    0    0  0.35527136788E-14 -0.88817841970E-15  0.00000000000E+00  0.91188000000E+02  0.91188000000E+02 0.  0.
    9900012    2    3    3    0    0 -0.20789222323E+02  0.54598602261E+01 -0.29896098341E+02  0.54367101933E+02  0.40000040476E+02 0.  0.
         12    1    3    3    0    0  0.20789222323E+02 -0.54598602261E+01  0.29896098341E+02  0.36820898067E+02  0.00000000000E+00 0. -1.
         11    1    4    4    0    0 -0.75792949054E+01 -0.99359303573E+01 -0.23420859436E+02  0.26546281855E+02  0.51100000000E-03 0. -1.
        -11    1    4    4    0    0 -0.11937204158E+02  0.33021224776E+01 -0.91138931525E+01  0.15377382892E+02  0.51100000000E-03 0.  1.
         12    1    4    4    0    0 -0.12727232599E+01  0.12093668106E+02  0.26386542477E+01  0.12443437186E+02  0.00000000000E+00 0. -1.
</event>
<event>
 8    1  0.1278459E-006  0.9118800E+02  0.7816164E-02  0.1184000E+00
        -11   -1    0    0    0    0  0.00000000000E+00  0.00000000000E+00  0.45593999997E+02  0.45594000000E+02  0.51100000000E-03 0. -1.
         11   -1    0    0    0    0 -0.00000000000E+00 -0.00000000000E+00 -0.45593999997E+02  0.45594000000E+02  0.51100000000E-03 0.  1.
         23    2    1    2    0    0 -0.17763568394E-14  0.00000000000E+00  0.00000000000E+00  0.91188000000E+02  0.91188000000E+02 0.  0.
    9900012    2    3    3    0    0  0.92354843053E+01 -0.16637278061E+02  0.31522797289E+02  0.54367082839E+02  0.39999996949E+02 0.  0.
         12    1    3    3    0    0 -0.92354843053E+01  0.16637278061E+02 -0.31522797289E+02  0.36820917161E+02  0.00000000000E+00 0. -1.
         11    1    4    4    0    0 -0.50458296065E+01 -0.17503105030E+01  0.61292535229E+00  0.53758404946E+01  0.51100000000E-03 0. -1.
        -11    1    4    4    0    0  0.22032674042E+02 -0.18916650745E+02  0.25953748052E+02  0.38947085117E+02  0.51100000000E-03 0.  1.
        -12    1    4    4    0    0 -0.77513601303E+01  0.40296831875E+01  0.49561238849E+01  0.10044157228E+02  0.00000000000E+00 0.  1.
</event>
<event>
 8    1  0.1278459E-006  0.9118800E+02  0.7816164E-02  0.1184000E+00
        -11   -1    0    0    0    0  0.00000000000E+00  0.00000000000E+00  0.45593999997E+02  0.45594000000E+02  0.51100000000E-03 0.  1.
         11   -1    0    0    0    0 -0.00000000000E+00 -0.00000000000E+00 -0.45593999997E+02  0.45594000000E+02  0.51100000000E-03 0. -1.
         23    2    1    2    0    0  0.66613381478E-15  0.00000000000E+00  0.00000000000E+00  0.91188000000E+02  0.91188000000E+02 0.  0.
    9900012    2    3    3    0    0 -0.16865536354E+01 -0.16346638266E+02  0.32950329668E+02  0.54367064773E+02  0.39999955763E+02 0.  0.
         12    1    3    3    0    0  0.16865536354E+01  0.16346638266E+02 -0.32950329668E+02  0.36820935227E+02  0.00000000000E+00 0. -1.
         11    1    4    4    0    0 -0.81683255340E+01 -0.20524065202E+02  0.23178691732E+01  0.22211062834E+02  0.51100000000E-03 0.  1.
        -11    1    4    4    0    0  0.29460482774E+01  0.41648811469E+01  0.24927867503E+02  0.25444528172E+02  0.51100000000E-03 0. -1.
        -12    1    4    4    0    0  0.35357236213E+01  0.12545789109E-01  0.57045929921E+01  0.67114737672E+01  0.00000000000E+00 0.  1.
</event>
<event>
 8    1  0.1278459E-006  0.9118800E+02  0.7816164E-02  0.1184000E+00
        -11   -1    0    0    0    0  0.00000000000E+00  0.00000000000E+00  0.45593999997E+02  0.45594000000E+02  0.51100000000E-03 0. -1.
         11   -1    0    0    0    0 -0.00000000000E+00 -0.00000000000E+00 -0.45593999997E+02  0.45594000000E+02  0.51100000000E-03 0.  1.
         23    2    1    2    0    0  0.00000000000E+00  0.00000000000E+00  0.00000000000E+00  0.91188000000E+02  0.91188000000E+02 0.  0.
    9900012    2    3    3    0    0 -0.39880001803E+01  0.24290791537E+02  0.27383077901E+02  0.54367086727E+02  0.40000005811E+02 0.  0.
        -12    1    3    3    0    0  0.39880001803E+01 -0.24290791537E+02 -0.27383077901E+02  0.36820913273E+02  0.00000000000E+00 0.  1.
         11    1    4    4    0    0  0.72040675754E+01 -0.51534093131E+01  0.14686857493E+02  0.17151093273E+02  0.51100000000E-03 0. -1.
        -11    1    4    4    0    0 -0.10873553989E+02  0.79147054752E+01  0.46661025238E+01  0.14235492690E+02  0.51100000000E-03 0.  1.
         12    1    4    4    0    0 -0.31851376693E+00  0.21529495375E+02  0.80301178846E+01  0.22980500764E+02  0.00000000000E+00 0. -1.
</event>
<event>
 8    1  0.1278459E-006  0.9118800E+02  0.7816164E-02  0.1184000E+00
        -11   -1    0    0    0    0  0.00000000000E+00  0.00000000000E+00  0.45593999997E+02  0.45594000000E+02  0.51100000000E-03 0.  1.
         11   -1    0    0    0    0 -0.00000000000E+00 -0.00000000000E+00 -0.45593999997E+02  0.45594000000E+02  0.51100000000E-03 0. -1.
         23    2    1    2    0    0  0.00000000000E+00 -0.17763568394E-14  0.00000000000E+00  0.91188000000E+02  0.91188000000E+02 0.  0.
    9900012    2    3    3    0    0 -0.31714025839E+02  0.15465090917E+02 -0.10527876422E+02  0.54367018835E+02  0.39999851037E+02 0.  0.
        -12    1    3    3    0    0  0.31714025839E+02 -0.15465090917E+02  0.10527876422E+02  0.36820981165E+02  0.00000000000E+00 0.  1.
         11    1    4    4    0    0 -0.18102248407E+02 -0.25311127620E+01 -0.14562495478E+01  0.18336264401E+02  0.51100000000E-03 0. -1.
        -11    1    4    4    0    0  0.44974032148E+01 -0.32380246960E+01 -0.56500130104E+01  0.79141700062E+01  0.51100000000E-03 0.  1.
         12    1    4    4    0    0 -0.18109180648E+02  0.21234228375E+02 -0.34216138637E+01  0.28116584427E+02  0.00000000000E+00 0. -1.
</event>
<event>
 8    1  0.1278459E-006  0.9118800E+02  0.7816164E-02  0.1184000E+00
        -11   -1    0    0    0    0  0.00000000000E+00  0.00000000000E+00  0.45593999997E+02  0.45594000000E+02  0.51100000000E-03 0.  1.
         11   -1    0    0    0    0 -0.00000000000E+00 -0.00000000000E+00 -0.45593999997E+02  0.45594000000E+02  0.51100000000E-03 0. -1.
         23    2    1    2    0    0 -0.35527136788E-14 -0.35527136788E-14  0.44408920985E-15  0.91188000000E+02  0.91188000000E+02 0.  0.
    9900012    2    3    3    0    0 -0.31660017565E+02  0.18580705168E+02 -0.28610734893E+01  0.54367013345E+02  0.39999838521E+02 0.  0.
         12    1    3    3    0    0  0.31660017565E+02 -0.18580705168E+02  0.28610734893E+01  0.36820986655E+02  0.00000000000E+00 0. -1.
         11    1    4    4    0    0 -0.12980135175E+02  0.35564530416E+01 -0.57196160217E+01  0.14623483686E+02  0.51100000000E-03 0. -1.
        -11    1    4    4    0    0 -0.11734554776E+02  0.24149238025E+02 -0.27282039166E+01  0.26987563244E+02  0.51100000000E-03 0.  1.
        -12    1    4    4    0    0 -0.69453276136E+01 -0.91249858979E+01  0.55867464491E+01  0.12755966415E+02  0.00000000000E+00 0.  1.
</event>
<event>
 8    1  0.1278459E-006  0.9118800E+02  0.7816164E-02  0.1184000E+00
        -11   -1    0    0    0    0  0.00000000000E+00  0.00000000000E+00  0.45593999997E+02  0.45594000000E+02  0.51100000000E-03 0.  1.
         11   -1    0    0    0    0 -0.00000000000E+00 -0.00000000000E+00 -0.45593999997E+02  0.45594000000E+02  0.51100000000E-03 0. -1.
         23    2    1    2    0    0  0.00000000000E+00  0.00000000000E+00  0.35527136788E-14  0.91188000000E+02  0.91188000000E+02 0.  0.
    9900012    2    3    3    0    0  0.19849685979E+02  0.23242260756E+02 -0.20532121290E+02  0.54367072212E+02  0.39999972723E+02 0.  0.
        -12    1    3    3    0    0 -0.19849685979E+02 -0.23242260756E+02  0.20532121290E+02  0.36820927788E+02  0.00000000000E+00 0.  1.
         11    1    4    4    0    0  0.93620138132E+01  0.87450705252E+01 -0.56877653385E+01  0.14016926765E+02  0.51100000000E-03 0. -1.
        -11    1    4    4    0    0  0.16170028284E+02  0.21570552699E+02 -0.58734187808E+01  0.27590860930E+02  0.51100000000E-03 0.  1.
        -12    1    4    4    0    0 -0.56823561188E+01 -0.70733624683E+01 -0.89709371705E+01  0.12759284517E+02  0.00000000000E+00 0.  1.
</event>
<event>
 8    1  0.1278459E-006  0.9118800E+02  0.7816164E-02  0.1184000E+00
        -11   -1    0    0    0    0  0.00000000000E+00  0.00000000000E+00  0.45593999997E+02  0.45594000000E+02  0.51100000000E-03 0. -1.
         11   -1    0    0    0    0 -0.00000000000E+00 -0.00000000000E+00 -0.45593999997E+02  0.45594000000E+02  0.51100000000E-03 0.  1.
         23    2    1    2    0    0 -0.35527136788E-14  0.00000000000E+00  0.00000000000E+00  0.91188000000E+02  0.91188000000E+02 0.  0.
    9900012    2    3    3    0    0  0.24086872397E+02  0.26700028200E+02  0.79189729077E+01  0.54367094801E+02  0.40000024218E+02 0.  0.
        -12    1    3    3    0    0 -0.24086872397E+02 -0.26700028200E+02 -0.79189729077E+01  0.36820905199E+02  0.00000000000E+00 0.  1.
         11    1    4    4    0    0  0.52600948675E+01  0.31706047581E+01  0.14546825895E+02  0.15790233577E+02  0.51100000000E-03 0. -1.
        -11    1    4    4    0    0  0.15426060873E+02  0.15800737563E+02  0.64544634042E+01  0.23006233062E+02  0.51100000000E-03 0.  1.
        -12    1    4    4    0    0  0.34007166557E+01  0.77286858797E+01 -0.13082316391E+02  0.15570628162E+02  0.00000000000E+00 0.  1.
</event>
<event>
 8    1  0.1278459E-006  0.9118800E+02  0.7816164E-02  0.1184000E+00
        -11   -1    0    0    0    0  0.00000000000E+00  0.00000000000E+00  0.45593999997E+02  0.45594000000E+02  0.51100000000E-03 0.  1.
         11   -1    0    0    0    0 -0.00000000000E+00 -0.00000000000E+00 -0.45593999997E+02  0.45594000000E+02  0.51100000000E-03 0. -1.
         23    2    1    2    0    0  0.00000000000E+00 -0.88817841970E-15 -0.17763568394E-14  0.91188000000E+02  0.91188000000E+02 0.  0.
    9900012    2    3    3    0    0 -0.34929497567E+02  0.55451226814E+01  0.10245017866E+02  0.54367101356E+02  0.40000039162E+02 0.  0.
         12    1    3    3    0    0  0.34929497567E+02 -0.55451226814E+01 -0.10245017866E+02  0.36820898644E+02  0.00000000000E+00 0. -1.
         11    1    4    4    0    0 -0.13463806884E+02  0.90201114558E+01  0.47517611539E+01  0.16888331499E+02  0.51100000000E-03 0. -1.
        -11    1    4    4    0    0 -0.79754671862E+01  0.10993691751E+02  0.10389238688E+02  0.17099871810E+02  0.51100000000E-03 0.  1.
         12    1    4    4    0    0 -0.13490223497E+02 -0.14468680525E+02 -0.48959819759E+01  0.20378898048E+02  0.00000000000E+00 0. -1.
</event>
<event>
 8    1  0.1278459E-006  0.9118800E+02  0.7816164E-02  0.1184000E+00
        -11   -1    0    0    0    0  0.00000000000E+00  0.00000000000E+00  0.45593999997E+02  0.45594000000E+02  0.51100000000E-03 0.  1.
         11   -1    0    0    0    0 -0.00000000000E+00 -0.00000000000E+00 -0.45593999997E+02  0.45594000000E+02  0.51100000000E-03 0. -1.
         23    2    1    2    0    0  0.00000000000E+00  0.00000000000E+00  0.00000000000E+00  0.91188000000E+02  0.91188000000E+02 0.  0.
    9900012    2    3    3    0    0  0.25591733157E+02  0.11736013719E+02  0.23729914753E+02  0.54367086403E+02  0.40000005072E+02 0.  0.
         12    1    3    3    0    0 -0.25591733157E+02 -0.11736013719E+02 -0.23729914753E+02  0.36820913597E+02  0.00000000000E+00 0. -1.
         11    1    4    4    0    0 -0.52511922238E+01 -0.27607156684E+01  0.34277538741E+01  0.68517200509E+01  0.51100000000E-03 0. -1.
        -11    1    4    4    0    0  0.26564349307E+02  0.72217462956E+01  0.25565512185E+02  0.37568786076E+02  0.51100000000E-03 0.  1.
        -12    1    4    4    0    0  0.42785760737E+01  0.72749830920E+01 -0.52633513067E+01  0.99465802759E+01  0.00000000000E+00 0.  1.
</event>
<event>
 8    1  0.1278459E-006  0.9118800E+02  0.7816164E-02  0.1184000E+00
        -11   -1    0    0    0    0  0.00000000000E+00  0.00000000000E+00  0.45593999997E+02  0.45594000000E+02  0.51100000000E-03 0. -1.
         11   -1    0    0    0    0 -0.00000000000E+00 -0.00000000000E+00 -0.45593999997E+02  0.45594000000E+02  0.51100000000E-03 0.  1.
         23    2    1    2    0    0  0.17763568394E-14  0.35527136788E-14 -0.35527136788E-14  0.91188000000E+02  0.91188000000E+02 0.  0.
    9900012    2    3    3    0    0 -0.11527762577E+02 -0.24413236079E+02  0.25037680037E+02  0.54367070795E+02  0.39999969491E+02 0.  0.
         12    1    3    3    0    0  0.11527762577E+02  0.24413236079E+02 -0.25037680037E+02  0.36820929205E+02  0.00000000000E+00 0. -1.
         11    1    4    4    0    0  0.53420713779E+01  0.73319429076E+01  0.32298507978E+01  0.96294885557E+01  0.51100000000E-03 0. -1.
        -11    1    4    4    0    0 -0.32418194972E+01 -0.61909091818E+01 -0.19757216660E+01  0.72622466574E+01  0.51100000000E-03 0.  1.
        -12    1    4    4    0    0 -0.13628014458E+02 -0.25554269804E+02  0.23783550906E+02  0.37475335582E+02  0.00000000000E+00 0.  1.
</event>
<event>
 8    1  0.1278459E-006  0.9118800E+02  0.7816164E-02  0.1184000E+00
        -11   -1    0    0    0    0  0.00000000000E+00  0.00000000000E+00  0.45593999997E+02  0.45594000000E+02  0.51100000000E-03 0.  1.
         11   -1    0    0    0    0 -0.00000000000E+00 -0.00000000000E+00 -0.45593999997E+02  0.45594000000E+02  0.51100000000E-03 0. -1.
         23    2    1    2    0    0  0.35527136788E-14  0.35527136788E-14  0.44408920985E-15  0.91188000000E+02  0.91188000000E+02 0.  0.
    9900012    2    3    3    0    0  0.29640324965E+02 -0.21786712191E+02  0.16057906523E+01  0.54366969926E+02  0.39999739539E+02 0.  0.
         12    1    3    3    0    0 -0.29640324965E+02  0.21786712191E+02 -0.16057906523E+01  0.36821030074E+02  0.00000000000E+00 0. -1.
         11    1    4    4    0    0  0.77114791417E+01 -0.17193154507E+02 -0.10125216718E+02  0.21391388134E+02  0.51100000000E-03 0. -1.
        -11    1    4    4    0    0  0.26048010694E+02 -0.42615755670E+01  0.84978061618E+01  0.27728552022E+02  0.51100000000E-03 0.  1.
        -12    1    4    4    0    0 -0.41191648702E+01 -0.33198211659E+00  0.32332012080E+01  0.52470297698E+01  0.00000000000E+00 0.  1.
</event>
<event>
 8    1  0.1278459E-006  0.9118800E+02  0.7816164E-02  0.1184000E+00
        -11   -1    0    0    0    0  0.00000000000E+00  0.00000000000E+00  0.45593999997E+02  0.45594000000E+02  0.51100000000E-03 0.  1.
         11   -1    0    0    0    0 -0.00000000000E+00 -0.00000000000E+00 -0.45593999997E+02  0.45594000000E+02  0.51100000000E-03 0. -1.
         23    2    1    2    0    0  0.00000000000E+00  0.00000000000E+00  0.00000000000E+00  0.91188000000E+02  0.91188000000E+02 0.  0.
    9900012    2    3    3    0    0 -0.80326098700E+01 -0.14948932483E+02 -0.32677001473E+02  0.54367084355E+02  0.40000000404E+02 0.  0.
        -12    1    3    3    0    0  0.80326098700E+01  0.14948932483E+02  0.32677001473E+02  0.36820915645E+02  0.00000000000E+00 0.  1.
         11    1    4    4    0    0 -0.54617010989E+01 -0.11231761729E+02 -0.15331938109E+02  0.19775008897E+02  0.51100000000E-03 0. -1.
        -11    1    4    4    0    0  0.20467945488E+00 -0.16283066602E+02 -0.13524329464E+02  0.21168080672E+02  0.51100000000E-03 0.  1.
         12    1    4    4    0    0 -0.27755882261E+01  0.12565895848E+02 -0.38207338998E+01  0.13423994785E+02  0.00000000000E+00 0. -1.
</event>
<event>
 8    1  0.1278459E-006  0.9118800E+02  0.7816164E-02  0.1184000E+00
        -11   -1    0    0    0    0  0.00000000000E+00  0.00000000000E+00  0.45593999997E+02  0.45594000000E+02  0.51100000000E-03 0. -1.
         11   -1    0    0    0    0 -0.00000000000E+00 -0.00000000000E+00 -0.45593999997E+02  0.45594000000E+02  0.51100000000E-03 0.  1.
         23    2    1    2    0    0  0.35527136788E-14  0.35527136788E-14 -0.35527136788E-14  0.91188000000E+02  0.91188000000E+02 0.  0.
    9900012    2    3    3    0    0  0.17995934146E+02  0.21267562492E+02 -0.24075254421E+02  0.54367072043E+02  0.39999972337E+02 0.  0.
         12    1    3    3    0    0 -0.17995934146E+02 -0.21267562492E+02  0.24075254421E+02  0.36820927957E+02  0.00000000000E+00 0. -1.
         11    1    4    4    0    0  0.52327887471E+01  0.22082684565E+01 -0.14688012233E+02  0.15747896090E+02  0.51100000000E-03 0.  1.
        -11    1    4    4    0    0  0.17895333457E+01  0.19769862794E+01 -0.16795972459E+02  0.17006339860E+02  0.51100000000E-03 0. -1.
         12    1    4    4    0    0  0.10973612053E+02  0.17082307756E+02  0.74087302704E+01  0.21612836093E+02  0.00000000000E+00 0. -1.
</event>
<event>
 8    1  0.1278459E-006  0.9118800E+02  0.7816164E-02  0.1184000E+00
        -11   -1    0    0    0    0  0.00000000000E+00  0.00000000000E+00  0.45593999997E+02  0.45594000000E+02  0.51100000000E-03 0. -1.
         11   -1    0    0    0    0 -0.00000000000E+00 -0.00000000000E+00 -0.45593999997E+02  0.45594000000E+02  0.51100000000E-03 0.  1.
         23    2    1    2    0    0  0.00000000000E+00  0.00000000000E+00  0.35527136788E-14  0.91188000000E+02  0.91188000000E+02 0.  0.
    9900012    2    3    3    0    0 -0.25441519468E+02 -0.58735091179E+01  0.25961724643E+02  0.54367079742E+02  0.39999989888E+02 0.  0.
        -12    1    3    3    0    0  0.25441519468E+02  0.58735091179E+01 -0.25961724643E+02  0.36820920258E+02  0.00000000000E+00 0.  1.
         11    1    4    4    0    0 -0.11623087859E+01  0.67377557631E+01  0.19677424634E+01  0.71147962093E+01  0.51100000000E-03 0. -1.
        -11    1    4    4    0    0 -0.12186124593E+02  0.93633205444E+01  0.65790521446E+01  0.16716977346E+02  0.51100000000E-03 0.  1.
         12    1    4    4    0    0 -0.12093086089E+02 -0.21974585425E+02  0.17414930035E+02  0.30535306187E+02  0.00000000000E+00 0. -1.
</event>
<event>
 8    1  0.1278459E-006  0.9118800E+02  0.7816164E-02  0.1184000E+00
        -11   -1    0    0    0    0  0.00000000000E+00  0.00000000000E+00  0.45593999997E+02  0.45594000000E+02  0.51100000000E-03 0.  1.
         11   -1    0    0    0    0 -0.00000000000E+00 -0.00000000000E+00 -0.45593999997E+02  0.45594000000E+02  0.51100000000E-03 0. -1.
         23    2    1    2    0    0  0.71054273576E-14  0.00000000000E+00  0.00000000000E+00  0.91188000000E+02  0.91188000000E+02 0.  0.
    9900012    2    3    3    0    0  0.35355293990E+02 -0.88072248213E+01  0.53121249300E+01  0.54367045457E+02  0.39999911728E+02 0.  0.
        -12    1    3    3    0    0 -0.35355293990E+02  0.88072248213E+01 -0.53121249300E+01  0.36820954543E+02  0.00000000000E+00 0.  1.
         11    1    4    4    0    0  0.36257150746E+01 -0.96916452743E+01 -0.12874606578E+02  0.16517544997E+02  0.51100000000E-03 0. -1.
        -11    1    4    4    0    0  0.41043807608E+01 -0.32628135312E+01  0.33054712141E+01  0.61982282773E+01  0.51100000000E-03 0.  1.
        -12    1    4    4    0    0  0.27625198155E+02  0.41472339842E+01  0.14881260294E+02  0.31651272182E+02  0.00000000000E+00 0.  1.
</event>
<event>
 8    1  0.1278459E-006  0.9118800E+02  0.7816164E-02  0.1184000E+00
        -11   -1    0    0    0    0  0.00000000000E+00  0.00000000000E+00  0.45593999997E+02  0.45594000000E+02  0.51100000000E-03 0.  1.
         11   -1    0    0    0    0 -0.00000000000E+00 -0.00000000000E+00 -0.45593999997E+02  0.45594000000E+02  0.51100000000E-03 0. -1.
         23    2    1    2    0    0  0.17763568394E-14  0.00000000000E+00  0.00000000000E+00  0.91188000000E+02  0.91188000000E+02 0.  0.
    9900012    2    3    3    0    0  0.11603874635E+02 -0.67828374631E+01  0.34280046611E+02  0.54367103945E+02  0.40000045064E+02 0.  0.
         12    1    3    3    0    0 -0.11603874635E+02  0.67828374631E+01 -0.34280046611E+02  0.36820896055E+02  0.00000000000E+00 0. -1.
         11    1    4    4    0    0  0.94736392691E+01 -0.79132275339E+01  0.18896978649E+02  0.22571327239E+02  0.51100000000E-03 0. -1.
        -11    1    4    4    0    0 -0.52325905007E+01 -0.15580668913E+01  0.21291309711E+02  0.21980160264E+02  0.51100000000E-03 0.  1.
         12    1    4    4    0    0  0.73628258667E+01  0.26884569621E+01 -0.59082417484E+01  0.98156164421E+01  0.00000000000E+00 0. -1.
</event>
<event>
 8    1  0.1278459E-006  0.9118800E+02  0.7816164E-02  0.1184000E+00
        -11   -1    0    0    0    0  0.00000000000E+00  0.00000000000E+00  0.45593999997E+02  0.45594000000E+02  0.51100000000E-03 0.  1.
         11   -1    0    0    0    0 -0.00000000000E+00 -0.00000000000E+00 -0.45593999997E+02  0.45594000000E+02  0.51100000000E-03 0. -1.
         23    2    1    2    0    0  0.00000000000E+00  0.88817841970E-15  0.00000000000E+00  0.91188000000E+02  0.91188000000E+02 0.  0.
    9900012    2    3    3    0    0  0.74004182381E+01  0.12987965171E+01  0.36046178762E+02  0.54367081138E+02  0.39999993071E+02 0.  0.
         12    1    3    3    0    0 -0.74004182381E+01 -0.12987965171E+01 -0.36046178762E+02  0.36820918862E+02  0.00000000000E+00 0. -1.
         11    1    4    4    0    0  0.43469958256E+01  0.13039202493E+02 -0.23484507575E+01  0.13943901735E+02  0.51100000000E-03 0. -1.
        -11    1    4    4    0    0  0.17725635136E+01 -0.18031938197E+01  0.99207374199E+01  0.10237896296E+02  0.51100000000E-03 0.  1.
         12    1    4    4    0    0  0.12808588989E+01 -0.99372121562E+01  0.28473892100E+02  0.30185283107E+02  0.00000000000E+00 0. -1.
</event>
<event>
 8    1  0.1278459E-006  0.9118800E+02  0.7816164E-02  0.1184000E+00
        -11   -1    0    0    0    0  0.00000000000E+00  0.00000000000E+00  0.45593999997E+02  0.45594000000E+02  0.51100000000E-03 0. -1.
         11   -1    0    0    0    0 -0.00000000000E+00 -0.00000000000E+00 -0.45593999997E+02  0.45594000000E+02  0.51100000000E-03 0.  1.
         23    2    1    2    0    0 -0.88817841970E-15 -0.36082248300E-15  0.71054273576E-14  0.91188000000E+02  0.91188000000E+02 0.  0.
    9900012    2    3    3    0    0  0.15517766463E+01 -0.23449179631E+00 -0.36787476910E+02  0.54367062281E+02  0.39999950081E+02 0.  0.
         12    1    3    3    0    0 -0.15517766463E+01  0.23449179631E+00  0.36787476910E+02  0.36820937719E+02  0.00000000000E+00 0. -1.
         11    1    4    4    0    0 -0.16306784239E+02 -0.77066649236E+01 -0.15821025931E+02  0.23991847745E+02  0.51100000000E-03 0. -1.
        -11    1    4    4    0    0  0.13199361996E+01  0.24709648605E+01 -0.88214158047E+01  0.92555537907E+01  0.51100000000E-03 0.  1.
         12    1    4    4    0    0  0.16538624685E+02  0.50012082668E+01 -0.12145035173E+02  0.21119660745E+02  0.00000000000E+00 0. -1.
</event>
<event>
 8    1  0.1278459E-006  0.9118800E+02  0.7816164E-02  0.1184000E+00
        -11   -1    0    0    0    0  0.00000000000E+00  0.00000000000E+00  0.45593999997E+02  0.45594000000E+02  0.51100000000E-03 0. -1.
         11   -1    0    0    0    0 -0.00000000000E+00 -0.00000000000E+00 -0.45593999997E+02  0.45594000000E+02  0.51100000000E-03 0.  1.
         23    2    1    2    0    0  0.00000000000E+00  0.00000000000E+00  0.35527136788E-14  0.91188000000E+02  0.91188000000E+02 0.  0.
    9900012    2    3    3    0    0  0.18006675934E+02 -0.29417307636E+02  0.12890422625E+02  0.54367063534E+02  0.39999952939E+02 0.  0.
        -12    1    3    3    0    0 -0.18006675934E+02  0.29417307636E+02 -0.12890422625E+02  0.36820936466E+02  0.00000000000E+00 0.  1.
         11    1    4    4    0    0  0.53938170341E+01 -0.29906549351E+02 -0.16714151869E+01  0.30434989490E+02  0.51100000000E-03 0. -1.
        -11    1    4    4    0    0 -0.23236709896E+01  0.23810243464E+01  0.56408326367E+00  0.33744501767E+01  0.51100000000E-03 0.  1.
         12    1    4    4    0    0  0.14936529890E+02 -0.18917826314E+01  0.13997754548E+02  0.20557623867E+02  0.00000000000E+00 0. -1.
</event>
<event>
 8    1  0.1278459E-006  0.9118800E+02  0.7816164E-02  0.1184000E+00
        -11   -1    0    0    0    0  0.00000000000E+00  0.00000000000E+00  0.45593999997E+02  0.45594000000E+02  0.51100000000E-03 0.  1.
         11   -1    0    0    0    0 -0.00000000000E+00 -0.00000000000E+00 -0.45593999997E+02  0.45594000000E+02  0.51100000000E-03 0. -1.
         23    2    1    2    0    0  0.00000000000E+00  0.00000000000E+00  0.00000000000E+00  0.91188000000E+02  0.91188000000E+02 0.  0.
    9900012    2    3    3    0    0 -0.76068741959E+01 -0.70594222973E+01  0.35328242036E+02  0.54367018705E+02  0.39999850741E+02 0.  0.
         12    1    3    3    0    0  0.76068741959E+01  0.70594222973E+01 -0.35328242036E+02  0.36820981295E+02  0.00000000000E+00 0. -1.
         11    1    4    4    0    0  0.79884901075E+01  0.10331009619E+02  0.15881676523E+02  0.20561453825E+02  0.51100000000E-03 0. -1.
        -11    1    4    4    0    0 -0.13780203752E+02 -0.19724106849E+02  0.14647294487E+02  0.28168735195E+02  0.51100000000E-03 0.  1.
        -12    1    4    4    0    0 -0.18151605510E+01  0.23336749323E+01  0.47992710264E+01  0.56368296853E+01  0.00000000000E+00 0.  1.
</event>
<event>
 8    1  0.1278459E-006  0.9118800E+02  0.7816164E-02  0.1184000E+00
        -11   -1    0    0    0    0  0.00000000000E+00  0.00000000000E+00  0.45593999997E+02  0.45594000000E+02  0.51100000000E-03 0. -1.
         11   -1    0    0    0    0 -0.00000000000E+00 -0.00000000000E+00 -0.45593999997E+02  0.45594000000E+02  0.51100000000E-03 0.  1.
         23    2    1    2    0    0 -0.71054273576E-14 -0.17763568394E-14 -0.17763568394E-14  0.91188000000E+02  0.91188000000E+02 0.  0.
    9900012    2    3    3    0    0  0.35560976914E+02 -0.55033617664E+01  0.78044551033E+01  0.54367087609E+02  0.40000007823E+02 0.  0.
         12    1    3    3    0    0 -0.35560976914E+02  0.55033617664E+01 -0.78044551033E+01  0.36820912391E+02  0.00000000000E+00 0. -1.
         11    1    4    4    0    0  0.24603315567E+02 -0.50361870285E+01  0.65566980672E+01  0.25955280897E+02  0.51100000000E-03 0. -1.
        -11    1    4    4    0    0  0.32474362888E+01  0.11784568469E+02  0.53833152557E+01  0.13356720400E+02  0.51100000000E-03 0.  1.
        -12    1    4    4    0    0  0.77102250589E+01 -0.12251743207E+02 -0.41355582195E+01  0.15055086312E+02  0.00000000000E+00 0.  1.
</event>
<event>
 8    1  0.1278459E-006  0.9118800E+02  0.7816164E-02  0.1184000E+00
        -11   -1    0    0    0    0  0.00000000000E+00  0.00000000000E+00  0.45593999997E+02  0.45594000000E+02  0.51100000000E-03 0.  1.
         11   -1    0    0    0    0 -0.00000000000E+00 -0.00000000000E+00 -0.45593999997E+02  0.45594000000E+02  0.51100000000E-03 0. -1.
         23    2    1    2    0    0  0.00000000000E+00 -0.17763568394E-14  0.00000000000E+00  0.91188000000E+02  0.91188000000E+02 0.  0.
    9900012    2    3    3    0    0  0.23973686403E+02  0.13387182403E+02  0.24531812015E+02  0.54367298035E+02  0.40000487528E+02 0.  0.
         12    1    3    3    0    0 -0.23973686403E+02 -0.13387182403E+02 -0.24531812015E+02  0.36820701965E+02  0.00000000000E+00 0. -1.
         11    1    4    4    0    0 -0.20962012314E+01  0.34589412925E+01  0.21948579634E+01  0.46017101395E+01  0.51100000000E-03 0. -1.
        -11    1    4    4    0    0  0.32135701681E+02 -0.14339720297E+00  0.12666301031E+02  0.34542134667E+02  0.51100000000E-03 0.  1.
        -12    1    4    4    0    0 -0.60658140465E+01  0.10071638314E+02  0.96706530204E+01  0.15223453229E+02  0.00000000000E+00 0.  1.
</event>
<event>
 8    1  0.1278459E-006  0.9118800E+02  0.7816164E-02  0.1184000E+00
        -11   -1    0    0    0    0  0.00000000000E+00  0.00000000000E+00  0.45593999997E+02  0.45594000000E+02  0.51100000000E-03 0.  1.
         11   -1    0    0    0    0 -0.00000000000E+00 -0.00000000000E+00 -0.45593999997E+02  0.45594000000E+02  0.51100000000E-03 0. -1.
         23    2    1    2    0    0  0.00000000000E+00 -0.71054273576E-14 -0.35527136788E-14  0.91188000000E+02  0.91188000000E+02 0.  0.
    9900012    2    3    3    0    0 -0.29992017600E+01 -0.35120729694E+02 -0.10645092750E+02  0.54367097443E+02  0.40000030241E+02 0.  0.
        -12    1    3    3    0    0  0.29992017600E+01  0.35120729694E+02  0.10645092750E+02  0.36820902557E+02  0.00000000000E+00 0.  1.
         11    1    4    4    0    0  0.36404569165E+01 -0.31034133181E+01 -0.10481228168E+02  0.11521295281E+02  0.51100000000E-03 0. -1.
        -11    1    4    4    0    0  0.10706314439E+02 -0.15719253047E+02  0.65559983800E+00  0.19030236379E+02  0.51100000000E-03 0.  1.
        -12    1    4    4    0    0 -0.17345973116E+02 -0.16298063329E+02 -0.81946442045E+00  0.23815565783E+02  0.00000000000E+00 0.  1.
</event>
<event>
 8    1  0.1278459E-006  0.9118800E+02  0.7816164E-02  0.1184000E+00
        -11   -1    0    0    0    0  0.00000000000E+00  0.00000000000E+00  0.45593999997E+02  0.45594000000E+02  0.51100000000E-03 0.  1.
         11   -1    0    0    0    0 -0.00000000000E+00 -0.00000000000E+00 -0.45593999997E+02  0.45594000000E+02  0.51100000000E-03 0. -1.
         23    2    1    2    0    0 -0.35527136788E-14 -0.17763568394E-14 -0.35527136788E-14  0.91188000000E+02  0.91188000000E+02 0.  0.
    9900012    2    3    3    0    0 -0.25705459269E+02 -0.95382627523E+01 -0.24577023848E+02  0.54367092980E+02  0.40000020066E+02 0.  0.
        -12    1    3    3    0    0  0.25705459269E+02  0.95382627523E+01  0.24577023848E+02  0.36820907020E+02  0.00000000000E+00 0.  1.
         11    1    4    4    0    0 -0.39273110704E+01 -0.14473274298E+02 -0.14738380088E+02  0.21026632850E+02  0.51100000000E-03 0. -1.
        -11    1    4    4    0    0 -0.88483673279E+01 -0.12187033174E+01 -0.15542983187E+02  0.17926605054E+02  0.51100000000E-03 0.  1.
        -12    1    4    4    0    0 -0.12929780871E+02  0.61537148635E+01  0.57043394268E+01  0.15413855075E+02  0.00000000000E+00 0.  1.
</event>
<event>
 8    1  0.1278459E-006  0.9118800E+02  0.7816164E-02  0.1184000E+00
        -11   -1    0    0    0    0  0.00000000000E+00  0.00000000000E+00  0.45593999997E+02  0.45594000000E+02  0.51100000000E-03 0. -1.
         11   -1    0    0    0    0 -0.00000000000E+00 -0.00000000000E+00 -0.45593999997E+02  0.45594000000E+02  0.51100000000E-03 0.  1.
         23    2    1    2    0    0 -0.88817841970E-15 -0.71054273576E-14  0.35527136788E-14  0.91188000000E+02  0.91188000000E+02 0.  0.
    9900012    2    3    3    0    0  0.74159110069E+01  0.21651556035E+02  0.28844313442E+02  0.54367081588E+02  0.39999994095E+02 0.  0.
        -12    1    3    3    0    0 -0.74159110069E+01 -0.21651556035E+02 -0.28844313442E+02  0.36820918412E+02  0.00000000000E+00 0.  1.
         11    1    4    4    0    0 -0.45080774983E+01  0.23260188382E+01 -0.48094370200E+01  0.69902654511E+01  0.51100000000E-03 0. -1.
        -11    1    4    4    0    0  0.17048459229E+02  0.69220214791E+01  0.12220250095E+02  0.22088432631E+02  0.51100000000E-03 0.  1.
         12    1    4    4    0    0 -0.51244707240E+01  0.12403515718E+02  0.21433500366E+02  0.25288383505E+02  0.00000000000E+00 0. -1.
</event>
<event>
 8    1  0.1278459E-006  0.9118800E+02  0.7816164E-02  0.1184000E+00
        -11   -1    0    0    0    0  0.00000000000E+00  0.00000000000E+00  0.45593999997E+02  0.45594000000E+02  0.51100000000E-03 0.  1.
         11   -1    0    0    0    0 -0.00000000000E+00 -0.00000000000E+00 -0.45593999997E+02  0.45594000000E+02  0.51100000000E-03 0. -1.
         23    2    1    2    0    0  0.00000000000E+00  0.00000000000E+00  0.00000000000E+00  0.91188000000E+02  0.91188000000E+02 0.  0.
    9900012    2    3    3    0    0  0.21511137067E+02 -0.78492290415E+01 -0.28834726339E+02  0.54367070387E+02  0.39999968562E+02 0.  0.
        -12    1    3    3    0    0 -0.21511137067E+02  0.78492290415E+01  0.28834726339E+02  0.36820929613E+02  0.00000000000E+00 0.  1.
         11    1    4    4    0    0  0.34959740750E+01 -0.56356872587E+01  0.48107527333E+01  0.81930548474E+01  0.51100000000E-03 0.  1.
        -11    1    4    4    0    0  0.23433153256E+02 -0.60923176209E+01 -0.21786006984E+02  0.32570832136E+02  0.51100000000E-03 0. -1.
        -12    1    4    4    0    0 -0.54179902633E+01  0.38787758381E+01 -0.11859472089E+02  0.13603183404E+02  0.00000000000E+00 0.  1.
</event>
<event>
 8    1  0.1278459E-006  0.9118800E+02  0.7816164E-02  0.1184000E+00
        -11   -1    0    0    0    0  0.00000000000E+00  0.00000000000E+00  0.45593999997E+02  0.45594000000E+02  0.51100000000E-03 0.  1.
         11   -1    0    0    0    0 -0.00000000000E+00 -0.00000000000E+00 -0.45593999997E+02  0.45594000000E+02  0.51100000000E-03 0. -1.
         23    2    1    2    0    0 -0.35527136788E-14  0.35527136788E-14  0.00000000000E+00  0.91188000000E+02  0.91188000000E+02 0.  0.
    9900012    2    3    3    0    0 -0.17505033888E+02  0.17360338960E+02  0.27349049029E+02  0.54367108335E+02  0.40000055070E+02 0.  0.
         12    1    3    3    0    0  0.17505033888E+02 -0.17360338960E+02 -0.27349049029E+02  0.36820891665E+02  0.00000000000E+00 0. -1.
         11    1    4    4    0    0  0.50078015738E+01 -0.28862492245E+01  0.14437149908E+01  0.59575854525E+01  0.51100000000E-03 0. -1.
        -11    1    4    4    0    0 -0.10933605198E+02  0.25752613529E+02  0.19279403963E+02  0.33976995800E+02  0.51100000000E-03 0.  1.
         12    1    4    4    0    0 -0.11579230264E+02 -0.55060253442E+01  0.66259300754E+01  0.14432527082E+02  0.00000000000E+00 0. -1.
</event>
<event>
 8    1  0.1278459E-006  0.9118800E+02  0.7816164E-02  0.1184000E+00
        -11   -1    0    0    0    0  0.00000000000E+00  0.00000000000E+00  0.45593999997E+02  0.45594000000E+02  0.51100000000E-03 0. -1.
         11   -1    0    0    0    0 -0.00000000000E+00 -0.00000000000E+00 -0.45593999997E+02  0.45594000000E+02  0.51100000000E-03 0.  1.
         23    2    1    2    0    0  0.35527136788E-14  0.71054273576E-14 -0.17763568394E-14  0.91188000000E+02  0.91188000000E+02 0.  0.
    9900012    2    3    3    0    0 -0.11812147859E+02 -0.33199991200E+02  0.10677728075E+02  0.54367080272E+02  0.39999991097E+02 0.  0.
         12    1    3    3    0    0  0.11812147859E+02  0.33199991200E+02 -0.10677728075E+02  0.36820919728E+02  0.00000000000E+00 0. -1.
         11    1    4    4    0    0  0.66669271085E+00  0.36200169710E+01  0.27004759886E+01  0.45652571524E+01  0.51100000000E-03 0. -1.
        -11    1    4    4    0    0 -0.10481952940E+02 -0.10541902533E+00 -0.38660148021E+01  0.11172668496E+02  0.51100000000E-03 0.  1.
         12    1    4    4    0    0 -0.19968876297E+01 -0.36714589146E+02  0.11843266888E+02  0.38629154624E+02  0.00000000000E+00 0. -1.
</event>
<event>
 8    1  0.1278459E-006  0.9118800E+02  0.7816164E-02  0.1184000E+00
        -11   -1    0    0    0    0  0.00000000000E+00  0.00000000000E+00  0.45593999997E+02  0.45594000000E+02  0.51100000000E-03 0.  1.
         11   -1    0    0    0    0 -0.00000000000E+00 -0.00000000000E+00 -0.45593999997E+02  0.45594000000E+02  0.51100000000E-03 0. -1.
         23    2    1    2    0    0  0.27755575616E-15  0.00000000000E+00  0.00000000000E+00  0.91188000000E+02  0.91188000000E+02 0.  0.
    9900012    2    3    3    0    0  0.27990258147E+00 -0.23307636171E+02  0.28503596015E+02  0.54367092419E+02  0.40000018787E+02 0.  0.
         12    1    3    3    0    0 -0.27990258147E+00  0.23307636171E+02 -0.28503596015E+02  0.36820907581E+02  0.00000000000E+00 0. -1.
         11    1    4    4    0    0 -0.46268067542E+01 -0.19947031915E+02  0.62779095021E+01  0.21417366107E+02  0.51100000000E-03 0. -1.
        -11    1    4    4    0    0  0.12051914929E+02 -0.87174474193E+01  0.10483239986E+02  0.18197276275E+02  0.51100000000E-03 0.  1.
         12    1    4    4    0    0 -0.71452055933E+01  0.53568431638E+01  0.11742446527E+02  0.14752450037E+02  0.00000000000E+00 0. -1.
</event>
<event>
 8    1  0.1278459E-006  0.9118800E+02  0.7816164E-02  0.1184000E+00
        -11   -1    0    0    0    0  0.00000000000E+00  0.00000000000E+00  0.45593999997E+02  0.45594000000E+02  0.51100000000E-03 0.  1.
         11   -1    0    0    0    0 -0.00000000000E+00 -0.00000000000E+00 -0.45593999997E+02  0.45594000000E+02  0.51100000000E-03 0. -1.
         23    2    1    2    0    0  0.88817841970E-15  0.00000000000E+00  0.35527136788E-14  0.91188000000E+02  0.91188000000E+02 0.  0.
    9900012    2    3    3    0    0 -0.50587696906E+01  0.21904978913E+02 -0.29160933454E+02  0.54367091648E+02  0.40000017030E+02 0.  0.
        -12    1    3    3    0    0  0.50587696906E+01 -0.21904978913E+02  0.29160933454E+02  0.36820908352E+02  0.00000000000E+00 0.  1.
         11    1    4    4    0    0 -0.14162783555E+01  0.10751290124E+02 -0.18036298589E+02  0.21045288089E+02  0.51100000000E-03 0. -1.
        -11    1    4    4    0    0 -0.89084493864E+01  0.97846762081E+01 -0.19360720669E+02  0.23450754019E+02  0.51100000000E-03 0.  1.
        -12    1    4    4    0    0  0.52659580513E+01  0.13690125813E+01  0.82360858042E+01  0.98710495399E+01  0.00000000000E+00 0.  1.
</event>
<event>
 8    1  0.1278459E-006  0.9118800E+02  0.7816164E-02  0.1184000E+00
        -11   -1    0    0    0    0  0.00000000000E+00  0.00000000000E+00  0.45593999997E+02  0.45594000000E+02  0.51100000000E-03 0. -1.
         11   -1    0    0    0    0 -0.00000000000E+00 -0.00000000000E+00 -0.45593999997E+02  0.45594000000E+02  0.51100000000E-03 0.  1.
         23    2    1    2    0    0 -0.17763568394E-14  0.00000000000E+00  0.44408920985E-15  0.91188000000E+02  0.91188000000E+02 0.  0.
    9900012    2    3    3    0    0  0.83189154685E+01  0.35743956136E+02 -0.29905124771E+01  0.54367110281E+02  0.40000059509E+02 0.  0.
        -12    1    3    3    0    0 -0.83189154685E+01 -0.35743956136E+02  0.29905124771E+01  0.36820889719E+02  0.00000000000E+00 0.  1.
         11    1    4    4    0    0  0.15136050969E+02  0.28051552660E+02 -0.46493015062E+01  0.32211886786E+02  0.51100000000E-03 0. -1.
        -11    1    4    4    0    0 -0.83064952305E+01  0.23391576142E+01  0.93131640944E+01  0.12696635266E+02  0.51100000000E-03 0.  1.
        -12    1    4    4    0    0  0.14893597296E+01  0.53532458618E+01 -0.76543750653E+01  0.94585882298E+01  0.00000000000E+00 0.  1.
</event>
<event>
 8    1  0.1278459E-006  0.9118800E+02  0.7816164E-02  0.1184000E+00
        -11   -1    0    0    0    0  0.00000000000E+00  0.00000000000E+00  0.45593999997E+02  0.45594000000E+02  0.51100000000E-03 0. -1.
         11   -1    0    0    0    0 -0.00000000000E+00 -0.00000000000E+00 -0.45593999997E+02  0.45594000000E+02  0.51100000000E-03 0.  1.
         23    2    1    2    0    0  0.35527136788E-14  0.00000000000E+00  0.00000000000E+00  0.91188000000E+02  0.91188000000E+02 0.  0.
    9900012    2    3    3    0    0  0.20808277556E+02  0.68793168147E+01 -0.29588364190E+02  0.54367072389E+02  0.39999973126E+02 0.  0.
         12    1    3    3    0    0 -0.20808277556E+02 -0.68793168147E+01  0.29588364190E+02  0.36820927611E+02  0.00000000000E+00 0. -1.
         11    1    4    4    0    0 -0.48648538481E+01 -0.80593508337E+01 -0.41590721956E+01  0.10291638383E+02  0.51100000000E-03 0. -1.
        -11    1    4    4    0    0  0.77064087992E+01  0.12524642981E+02 -0.20608352183E+02  0.25317179905E+02  0.51100000000E-03 0.  1.
         12    1    4    4    0    0  0.17966722605E+02  0.24140246674E+01 -0.48209398108E+01  0.18758254101E+02  0.00000000000E+00 0. -1.
</event>
<event>
 8    1  0.1278459E-006  0.9118800E+02  0.7816164E-02  0.1184000E+00
        -11   -1    0    0    0    0  0.00000000000E+00  0.00000000000E+00  0.45593999997E+02  0.45594000000E+02  0.51100000000E-03 0.  1.
         11   -1    0    0    0    0 -0.00000000000E+00 -0.00000000000E+00 -0.45593999997E+02  0.45594000000E+02  0.51100000000E-03 0. -1.
         23    2    1    2    0    0  0.00000000000E+00  0.35527136788E-14  0.00000000000E+00  0.91188000000E+02  0.91188000000E+02 0.  0.
    9900012    2    3    3    0    0  0.27770279423E+02 -0.22120458277E+02  0.97611190984E+01  0.54367047545E+02  0.39999916489E+02 0.  0.
         12    1    3    3    0    0 -0.27770279423E+02  0.22120458277E+02 -0.97611190984E+01  0.36820952455E+02  0.00000000000E+00 0. -1.
         11    1    4    4    0    0  0.33389549330E+01 -0.17073187326E+01  0.75117570959E+00  0.38246336435E+01  0.51100000000E-03 0. -1.
        -11    1    4    4    0    0  0.32717083701E+02 -0.10993163770E+02  0.13720437523E+02  0.37141723461E+02  0.51100000000E-03 0.  1.
         12    1    4    4    0    0 -0.82857592111E+01 -0.94199757749E+01 -0.47104941345E+01  0.13400690441E+02  0.00000000000E+00 0. -1.
</event>
<event>
 8    1  0.1278459E-006  0.9118800E+02  0.7816164E-02  0.1184000E+00
        -11   -1    0    0    0    0  0.00000000000E+00  0.00000000000E+00  0.45593999997E+02  0.45594000000E+02  0.51100000000E-03 0. -1.
         11   -1    0    0    0    0 -0.00000000000E+00 -0.00000000000E+00 -0.45593999997E+02  0.45594000000E+02  0.51100000000E-03 0.  1.
         23    2    1    2    0    0 -0.44408920985E-15  0.00000000000E+00  0.71054273576E-14  0.91188000000E+02  0.91188000000E+02 0.  0.
    9900012    2    3    3    0    0  0.85029541487E+00  0.17456210815E+02  0.32408870651E+02  0.54367120120E+02  0.40000081937E+02 0.  0.
        -12    1    3    3    0    0 -0.85029541487E+00 -0.17456210815E+02 -0.32408870651E+02  0.36820879880E+02  0.00000000000E+00 0.  1.
         11    1    4    4    0    0  0.27134197066E+01  0.12819468220E+01  0.15474256573E+02  0.15762571202E+02  0.51100000000E-03 0. -1.
        -11    1    4    4    0    0 -0.73225640157E+01  0.12031005094E+02 -0.55199855251E+01  0.15127302066E+02  0.51100000000E-03 0.  1.
        -12    1    4    4    0    0  0.54594397240E+01  0.41432588993E+01  0.22454599603E+02  0.23477246852E+02  0.00000000000E+00 0.  1.
</event>
<event>
 8    1  0.1278459E-006  0.9118800E+02  0.7816164E-02  0.1184000E+00
        -11   -1    0    0    0    0  0.00000000000E+00  0.00000000000E+00  0.45593999997E+02  0.45594000000E+02  0.51100000000E-03 0.  1.
         11   -1    0    0    0    0 -0.00000000000E+00 -0.00000000000E+00 -0.45593999997E+02  0.45594000000E+02  0.51100000000E-03 0. -1.
         23    2    1    2    0    0  0.00000000000E+00 -0.35527136788E-14  0.35527136788E-14  0.91188000000E+02  0.91188000000E+02 0.  0.
    9900012    2    3    3    0    0  0.10361294642E+02  0.27988702809E+02 -0.21565200667E+02  0.54367057706E+02  0.39999939653E+02 0.  0.
        -12    1    3    3    0    0 -0.10361294642E+02 -0.27988702809E+02  0.21565200667E+02  0.36820942294E+02  0.00000000000E+00 0.  1.
         11    1    4    4    0    0  0.13846082685E+00  0.18589909378E+02 -0.28738641273E+02  0.34227377998E+02  0.51100000000E-03 0. -1.
        -11    1    4    4    0    0  0.11825353254E+02  0.79669412205E+01  0.18242428303E+01  0.14374943275E+02  0.51100000000E-03 0.  1.
         12    1    4    4    0    0 -0.16025194389E+01  0.14318522104E+01  0.53491977760E+01  0.57647364338E+01  0.00000000000E+00 0. -1.
</event>
<event>
 8    1  0.1278459E-006  0.9118800E+02  0.7816164E-02  0.1184000E+00
        -11   -1    0    0    0    0  0.00000000000E+00  0.00000000000E+00  0.45593999997E+02  0.45594000000E+02  0.51100000000E-03 0.  1.
         11   -1    0    0    0    0 -0.00000000000E+00 -0.00000000000E+00 -0.45593999997E+02  0.45594000000E+02  0.51100000000E-03 0. -1.
         23    2    1    2    0    0  0.35527136788E-14  0.35527136788E-14  0.35527136788E-14  0.91188000000E+02  0.91188000000E+02 0.  0.
    9900012    2    3    3    0    0  0.19057208300E+02  0.21842784103E+02  0.22704551982E+02  0.54367067282E+02  0.39999961482E+02 0.  0.
         12    1    3    3    0    0 -0.19057208300E+02 -0.21842784103E+02 -0.22704551982E+02  0.36820932718E+02  0.00000000000E+00 0. -1.
         11    1    4    4    0    0  0.89183212042E+01 -0.12224879148E+01  0.40280473176E+01  0.98618504987E+01  0.51100000000E-03 0. -1.
        -11    1    4    4    0    0  0.14229888294E+02  0.80708754796E+01  0.23136081814E+02  0.28335614231E+02  0.51100000000E-03 0.  1.
         12    1    4    4    0    0 -0.40910011985E+01  0.14994396538E+02 -0.44595771499E+01  0.16169602552E+02  0.00000000000E+00 0. -1.
</event>
<event>
 8    1  0.1278459E-006  0.9118800E+02  0.7816164E-02  0.1184000E+00
        -11   -1    0    0    0    0  0.00000000000E+00  0.00000000000E+00  0.45593999997E+02  0.45594000000E+02  0.51100000000E-03 0. -1.
         11   -1    0    0    0    0 -0.00000000000E+00 -0.00000000000E+00 -0.45593999997E+02  0.45594000000E+02  0.51100000000E-03 0.  1.
         23    2    1    2    0    0  0.00000000000E+00 -0.17763568394E-14 -0.17763568394E-14  0.91188000000E+02  0.91188000000E+02 0.  0.
    9900012    2    3    3    0    0 -0.33652089781E+02  0.10091503133E+02 -0.11021727130E+02  0.54367081339E+02  0.39999993529E+02 0.  0.
         12    1    3    3    0    0  0.33652089781E+02 -0.10091503133E+02  0.11021727130E+02  0.36820918661E+02  0.00000000000E+00 0. -1.
         11    1    4    4    0    0  0.29627990819E+01  0.62160477924E+00  0.44747809011E+01  0.54026137447E+01  0.51100000000E-03 0. -1.
        -11    1    4    4    0    0 -0.35127857096E+02  0.14898988387E+02 -0.18694554522E+02  0.42490382067E+02  0.51100000000E-03 0.  1.
        -12    1    4    4    0    0 -0.14870317664E+01 -0.54290900334E+01  0.31980464906E+01  0.64740855278E+01  0.00000000000E+00 0.  1.
</event>
<event>
 8    1  0.1278459E-006  0.9118800E+02  0.7816164E-02  0.1184000E+00
        -11   -1    0    0    0    0  0.00000000000E+00  0.00000000000E+00  0.45593999997E+02  0.45594000000E+02  0.51100000000E-03 0.  1.
         11   -1    0    0    0    0 -0.00000000000E+00 -0.00000000000E+00 -0.45593999997E+02  0.45594000000E+02  0.51100000000E-03 0. -1.
         23    2    1    2    0    0  0.00000000000E+00 -0.22204460493E-15  0.00000000000E+00  0.91188000000E+02  0.91188000000E+02 0.  0.
    9900012    2    3    3    0    0  0.73889976224E+01 -0.84890821800E+00  0.36061967869E+02  0.54367035081E+02  0.39999888073E+02 0.  0.
         12    1    3    3    0    0 -0.73889976224E+01  0.84890821800E+00 -0.36061967869E+02  0.36820964919E+02  0.00000000000E+00 0. -1.
         11    1    4    4    0    0  0.29277451403E+01  0.11932487233E+01 -0.40754442752E+01  0.51579822046E+01  0.51100000000E-03 0. -1.
        -11    1    4    4    0    0  0.68019228317E+01 -0.76935669273E+01  0.41658699129E+02  0.42905761148E+02  0.51100000000E-03 0.  1.
         12    1    4    4    0    0 -0.23406703496E+01  0.56514099860E+01 -0.15212869856E+01  0.63032917280E+01  0.00000000000E+00 0. -1.
</event>
<event>
 8    1  0.1278459E-006  0.9118800E+02  0.7816164E-02  0.1184000E+00
        -11   -1    0    0    0    0  0.00000000000E+00  0.00000000000E+00  0.45593999997E+02  0.45594000000E+02  0.51100000000E-03 0.  1.
         11   -1    0    0    0    0 -0.00000000000E+00 -0.00000000000E+00 -0.45593999997E+02  0.45594000000E+02  0.51100000000E-03 0. -1.
         23    2    1    2    0    0  0.35527136788E-14 -0.35527136788E-14  0.00000000000E+00  0.91188000000E+02  0.91188000000E+02 0.  0.
    9900012    2    3    3    0    0  0.18966388352E+02 -0.27750120026E+02 -0.15032839288E+02  0.54367091461E+02  0.40000016603E+02 0.  0.
        -12    1    3    3    0    0 -0.18966388352E+02  0.27750120026E+02  0.15032839288E+02  0.36820908539E+02  0.00000000000E+00 0.  1.
         11    1    4    4    0    0  0.92251169765E+01  0.37534634342E+01 -0.49990530455E+01  0.11143688913E+02  0.51100000000E-03 0. -1.
        -11    1    4    4    0    0  0.71724764832E+01 -0.21391004461E+02  0.66717570978E+01  0.23527257252E+02  0.51100000000E-03 0.  1.
         12    1    4    4    0    0  0.25687948922E+01 -0.10112578999E+02 -0.16705543340E+02  0.19696145296E+02  0.00000000000E+00 0. -1.
</event>
<event>
 8    1  0.1278459E-006  0.9118800E+02  0.7816164E-02  0.1184000E+00
        -11   -1    0    0    0    0  0.00000000000E+00  0.00000000000E+00  0.45593999997E+02  0.45594000000E+02  0.51100000000E-03 0.  1.
         11   -1    0    0    0    0 -0.00000000000E+00 -0.00000000000E+00 -0.45593999997E+02  0.45594000000E+02  0.51100000000E-03 0. -1.
         23    2    1    2    0    0  0.00000000000E+00 -0.35527136788E-14  0.17763568394E-14  0.91188000000E+02  0.91188000000E+02 0.  0.
    9900012    2    3    3    0    0  0.32445809231E+02 -0.16726357310E+02 -0.48247062256E+01  0.54367090781E+02  0.40000015054E+02 0.  0.
         12    1    3    3    0    0 -0.32445809231E+02  0.16726357310E+02  0.48247062256E+01  0.36820909219E+02  0.00000000000E+00 0. -1.
         11    1    4    4    0    0  0.15793575739E+02 -0.15240920810E+01  0.43549122945E+00  0.15872918577E+02  0.51100000000E-03 0. -1.
        -11    1    4    4    0    0  0.10897518690E+02  0.10489684159E+01  0.10475676475E+02  0.15152427073E+02  0.51100000000E-03 0.  1.
         12    1    4    4    0    0  0.57547148023E+01 -0.16251233645E+02 -0.15735873930E+02  0.23341745131E+02  0.00000000000E+00 0. -1.
</event>
<event>
 8    1  0.1278459E-006  0.9118800E+02  0.7816164E-02  0.1184000E+00
        -11   -1    0    0    0    0  0.00000000000E+00  0.00000000000E+00  0.45593999997E+02  0.45594000000E+02  0.51100000000E-03 0.  1.
         11   -1    0    0    0    0 -0.00000000000E+00 -0.00000000000E+00 -0.45593999997E+02  0.45594000000E+02  0.51100000000E-03 0. -1.
         23    2    1    2    0    0 -0.35527136788E-14  0.00000000000E+00 -0.35527136788E-14  0.91188000000E+02  0.91188000000E+02 0.  0.
    9900012    2    3    3    0    0  0.20981694064E+02  0.17839684065E+02  0.24439596652E+02  0.54367086135E+02  0.40000004461E+02 0.  0.
         12    1    3    3    0    0 -0.20981694064E+02 -0.17839684065E+02 -0.24439596652E+02  0.36820913865E+02  0.00000000000E+00 0. -1.
         11    1    4    4    0    0 -0.56839953083E+01 -0.52092919425E+00 -0.58184248233E+00  0.57373958226E+01  0.51100000000E-03 0. -1.
        -11    1    4    4    0    0  0.24305756943E+02  0.24150748532E+02  0.24934688828E+02  0.42376493277E+02  0.51100000000E-03 0.  1.
        -12    1    4    4    0    0  0.23599324292E+01 -0.57901352723E+01  0.86750306397E-01  0.62531970350E+01  0.00000000000E+00 0.  1.
</event>
<event>
 8    1  0.1278459E-006  0.9118800E+02  0.7816164E-02  0.1184000E+00
        -11   -1    0    0    0    0  0.00000000000E+00  0.00000000000E+00  0.45593999997E+02  0.45594000000E+02  0.51100000000E-03 0.  1.
         11   -1    0    0    0    0 -0.00000000000E+00 -0.00000000000E+00 -0.45593999997E+02  0.45594000000E+02  0.51100000000E-03 0. -1.
         23    2    1    2    0    0  0.00000000000E+00  0.35527136788E-14  0.00000000000E+00  0.91188000000E+02  0.91188000000E+02 0.  0.
    9900012    2    3    3    0    0 -0.17663141058E+02 -0.19704913560E+02  0.25602916039E+02  0.54367089091E+02  0.40000011201E+02 0.  0.
         12    1    3    3    0    0  0.17663141058E+02  0.19704913560E+02 -0.25602916039E+02  0.36820910909E+02  0.00000000000E+00 0. -1.
         11    1    4    4    0    0 -0.41174171583E+01  0.19461476010E+01  0.11931263083E+01  0.47078833024E+01  0.51100000000E-03 0. -1.
        -11    1    4    4    0    0 -0.48319276458E+01 -0.22887021271E+02 -0.33704545973E+00  0.23393949375E+02  0.51100000000E-03 0.  1.
         12    1    4    4    0    0 -0.87137962542E+01  0.12359601105E+01  0.24746835190E+02  0.26265256414E+02  0.00000000000E+00 0. -1.
</event>
<event>
 8    1  0.1278459E-006  0.9118800E+02  0.7816164E-02  0.1184000E+00
        -11   -1    0    0    0    0  0.00000000000E+00  0.00000000000E+00  0.45593999997E+02  0.45594000000E+02  0.51100000000E-03 0. -1.
         11   -1    0    0    0    0 -0.00000000000E+00 -0.00000000000E+00 -0.45593999997E+02  0.45594000000E+02  0.51100000000E-03 0.  1.
         23    2    1    2    0    0 -0.35527136788E-14  0.35527136788E-14 -0.17763568394E-14  0.91188000000E+02  0.91188000000E+02 0.  0.
    9900012    2    3    3    0    0  0.30022542222E+02 -0.16546231680E+02 -0.13440609932E+02  0.54367070902E+02  0.39999969735E+02 0.  0.
         12    1    3    3    0    0 -0.30022542222E+02  0.16546231680E+02  0.13440609932E+02  0.36820929098E+02  0.00000000000E+00 0. -1.
         11    1    4    4    0    0  0.16257835748E+02  0.66063103636E+01 -0.58112149239E+01  0.18485961674E+02  0.51100000000E-03 0. -1.
        -11    1    4    4    0    0  0.13274122266E+02 -0.20028216998E+02 -0.14677469309E+02  0.28155992322E+02  0.51100000000E-03 0.  1.
         12    1    4    4    0    0  0.49058420765E+00 -0.31243250463E+01  0.70480743014E+01  0.77251169064E+01  0.00000000000E+00 0. -1.
</event>
<event>
 8    1  0.1278459E-006  0.9118800E+02  0.7816164E-02  0.1184000E+00
        -11   -1    0    0    0    0  0.00000000000E+00  0.00000000000E+00  0.45593999997E+02  0.45594000000E+02  0.51100000000E-03 0.  1.
         11   -1    0    0    0    0 -0.00000000000E+00 -0.00000000000E+00 -0.45593999997E+02  0.45594000000E+02  0.51100000000E-03 0. -1.
         23    2    1    2    0    0  0.00000000000E+00 -0.35527136788E-14  0.35527136788E-14  0.91188000000E+02  0.91188000000E+02 0.  0.
    9900012    2    3    3    0    0 -0.10665649718E+02 -0.29932826705E+02  0.18602413101E+02  0.54367082417E+02  0.39999995987E+02 0.  0.
         12    1    3    3    0    0  0.10665649718E+02  0.29932826705E+02 -0.18602413101E+02  0.36820917583E+02  0.00000000000E+00 0. -1.
         11    1    4    4    0    0 -0.38648552375E+01 -0.62960372552E+01 -0.81453298188E+01  0.10996526235E+02  0.51100000000E-03 0. -1.
        -11    1    4    4    0    0 -0.95099200916E+01 -0.19524269305E+01  0.16703390344E+02  0.19319777440E+02  0.51100000000E-03 0.  1.
        -12    1    4    4    0    0  0.27091256113E+01 -0.21684362520E+02  0.10044352575E+02  0.24050778742E+02  0.00000000000E+00 0.  1.
</event>
<event>
 8    1  0.1278459E-006  0.9118800E+02  0.7816164E-02  0.1184000E+00
        -11   -1    0    0    0    0  0.00000000000E+00  0.00000000000E+00  0.45593999997E+02  0.45594000000E+02  0.51100000000E-03 0.  1.
         11   -1    0    0    0    0 -0.00000000000E+00 -0.00000000000E+00 -0.45593999997E+02  0.45594000000E+02  0.51100000000E-03 0. -1.
         23    2    1    2    0    0 -0.35527136788E-14  0.00000000000E+00  0.00000000000E+00  0.91188000000E+02  0.91188000000E+02 0.  0.
    9900012    2    3    3    0    0 -0.22299454567E+02  0.15672117965E+02 -0.24756810353E+02  0.54367073689E+02  0.39999976089E+02 0.  0.
        -12    1    3    3    0    0  0.22299454567E+02 -0.15672117965E+02  0.24756810353E+02  0.36820926311E+02  0.00000000000E+00 0.  1.
         11    1    4    4    0    0 -0.13423804683E+01  0.10129147690E+02 -0.73932249549E+01  0.12611954398E+02  0.51100000000E-03 0. -1.
        -11    1    4    4    0    0  0.34090567891E+01  0.10642808885E+02 -0.11789702495E+02  0.16244634017E+02  0.51100000000E-03 0.  1.
         12    1    4    4    0    0 -0.24366130888E+02 -0.50998386106E+01 -0.55738829038E+01  0.25510485275E+02  0.00000000000E+00 0. -1.
</event>
<event>
 8    1  0.1278459E-006  0.9118800E+02  0.7816164E-02  0.1184000E+00
        -11   -1    0    0    0    0  0.00000000000E+00  0.00000000000E+00  0.45593999997E+02  0.45594000000E+02  0.51100000000E-03 0.  1.
         11   -1    0    0    0    0 -0.00000000000E+00 -0.00000000000E+00 -0.45593999997E+02  0.45594000000E+02  0.51100000000E-03 0. -1.
         23    2    1    2    0    0  0.17763568394E-14 -0.35527136788E-14  0.00000000000E+00  0.91188000000E+02  0.91188000000E+02 0.  0.
    9900012    2    3    3    0    0 -0.13125485223E+02  0.29420056022E+02 -0.17831479565E+02  0.54367085805E+02  0.40000003710E+02 0.  0.
        -12    1    3    3    0    0  0.13125485223E+02 -0.29420056022E+02  0.17831479565E+02  0.36820914195E+02  0.00000000000E+00 0.  1.
         11    1    4    4    0    0 -0.11806576636E+02  0.24495553384E+02  0.49855818535E+01  0.27645676228E+02  0.51100000000E-03 0.  1.
        -11    1    4    4    0    0  0.45798929389E+01  0.35498453452E+00 -0.15887733159E+02  0.16538485377E+02  0.51100000000E-03 0. -1.
         12    1    4    4    0    0 -0.58988015261E+01  0.45695181036E+01 -0.69293282594E+01  0.10182924200E+02  0.00000000000E+00 0. -1.
</event>
<event>
 8    1  0.1278459E-006  0.9118800E+02  0.7816164E-02  0.1184000E+00
        -11   -1    0    0    0    0  0.00000000000E+00  0.00000000000E+00  0.45593999997E+02  0.45594000000E+02  0.51100000000E-03 0. -1.
         11   -1    0    0    0    0 -0.00000000000E+00 -0.00000000000E+00 -0.45593999997E+02  0.45594000000E+02  0.51100000000E-03 0.  1.
         23    2    1    2    0    0  0.11102230246E-14  0.35527136788E-14  0.71054273576E-14  0.91188000000E+02  0.91188000000E+02 0.  0.
    9900012    2    3    3    0    0 -0.12186129348E+01 -0.16486662237E+02 -0.32901119968E+02  0.54367099083E+02  0.40000033979E+02 0.  0.
         12    1    3    3    0    0  0.12186129348E+01  0.16486662237E+02  0.32901119968E+02  0.36820900917E+02  0.00000000000E+00 0. -1.
         11    1    4    4    0    0 -0.70259576406E+01 -0.88949134743E+01  0.11139900541E+00  0.11335606578E+02  0.51100000000E-03 0. -1.
        -11    1    4    4    0    0 -0.43488153164E+01 -0.14284914080E+02 -0.22214680467E+02  0.26766826361E+02  0.51100000000E-03 0.  1.
        -12    1    4    4    0    0  0.10156160022E+02  0.66931653173E+01 -0.10797838507E+02  0.16264666144E+02  0.00000000000E+00 0.  1.
</event>
<event>
 8    1  0.1278459E-006  0.9118800E+02  0.7816164E-02  0.1184000E+00
        -11   -1    0    0    0    0  0.00000000000E+00  0.00000000000E+00  0.45593999997E+02  0.45594000000E+02  0.51100000000E-03 0. -1.
         11   -1    0    0    0    0 -0.00000000000E+00 -0.00000000000E+00 -0.45593999997E+02  0.45594000000E+02  0.51100000000E-03 0.  1.
         23    2    1    2    0    0  0.00000000000E+00 -0.35527136788E-14  0.35527136788E-14  0.91188000000E+02  0.91188000000E+02 0.  0.
    9900012    2    3    3    0    0  0.92409606823E+01 -0.23678744332E+02  0.26640192352E+02  0.54367107343E+02  0.40000052810E+02 0.  0.
        -12    1    3    3    0    0 -0.92409606823E+01  0.23678744332E+02 -0.26640192352E+02  0.36820892657E+02  0.00000000000E+00 0.  1.
         11    1    4    4    0    0  0.32469967433E+00  0.62490577293E+01  0.12097907740E+02  0.13620408376E+02  0.51100000000E-03 0. -1.
        -11    1    4    4    0    0 -0.37759089857E+01  0.15165832667E+01  0.24279333289E+01  0.47383936079E+01  0.51100000000E-03 0.  1.
         12    1    4    4    0    0  0.12692169994E+02 -0.31444385328E+02  0.12114351283E+02  0.36008305359E+02  0.00000000000E+00 0. -1.
</event>
<event>
 8    1  0.1278459E-006  0.9118800E+02  0.7816164E-02  0.1184000E+00
        -11   -1    0    0    0    0  0.00000000000E+00  0.00000000000E+00  0.45593999997E+02  0.45594000000E+02  0.51100000000E-03 0. -1.
         11   -1    0    0    0    0 -0.00000000000E+00 -0.00000000000E+00 -0.45593999997E+02  0.45594000000E+02  0.51100000000E-03 0.  1.
         23    2    1    2    0    0  0.17763568394E-14  0.17763568394E-14  0.35527136788E-14  0.91188000000E+02  0.91188000000E+02 0.  0.
    9900012    2    3    3    0    0 -0.15038807897E+02 -0.12910112565E+02 -0.31031324396E+02  0.54367084162E+02  0.39999999963E+02 0.  0.
         12    1    3    3    0    0  0.15038807897E+02  0.12910112565E+02  0.31031324396E+02  0.36820915838E+02  0.00000000000E+00 0. -1.
         11    1    4    4    0    0 -0.81423418107E+01  0.70127747258E+01 -0.17196964378E+01  0.10882743019E+02  0.51100000000E-03 0. -1.
        -11    1    4    4    0    0 -0.91130225030E+01 -0.33782142647E+01  0.38870752612E-01  0.97191060266E+01  0.51100000000E-03 0.  1.
        -12    1    4    4    0    0  0.22165564163E+01 -0.16544673026E+02 -0.29350498711E+02  0.33765235116E+02  0.00000000000E+00 0.  1.
</event>
<event>
 8    1  0.1278459E-006  0.9118800E+02  0.7816164E-02  0.1184000E+00
        -11   -1    0    0    0    0  0.00000000000E+00  0.00000000000E+00  0.45593999997E+02  0.45594000000E+02  0.51100000000E-03 0.  1.
         11   -1    0    0    0    0 -0.00000000000E+00 -0.00000000000E+00 -0.45593999997E+02  0.45594000000E+02  0.51100000000E-03 0. -1.
         23    2    1    2    0    0 -0.53290705182E-14  0.00000000000E+00  0.00000000000E+00  0.91188000000E+02  0.91188000000E+02 0.  0.
    9900012    2    3    3    0    0 -0.49031599898E+01  0.30010377793E+02  0.20763339629E+02  0.54367081683E+02  0.39999994312E+02 0.  0.
        -12    1    3    3    0    0  0.49031599898E+01 -0.30010377793E+02 -0.20763339629E+02  0.36820918317E+02  0.00000000000E+00 0.  1.
         11    1    4    4    0    0  0.11604931831E+02  0.16538821339E+02  0.17086350770E+02  0.26460355949E+02  0.51100000000E-03 0. -1.
        -11    1    4    4    0    0 -0.13104311996E+02 -0.64589131890E+00  0.11996782523E+01  0.13174953383E+02  0.51100000000E-03 0.  1.
         12    1    4    4    0    0 -0.34037798251E+01  0.14117447773E+02  0.24773106070E+01  0.14731772350E+02  0.00000000000E+00 0. -1.
</event>
<event>
 8    1  0.1278459E-006  0.9118800E+02  0.7816164E-02  0.1184000E+00
        -11   -1    0    0    0    0  0.00000000000E+00  0.00000000000E+00  0.45593999997E+02  0.45594000000E+02  0.51100000000E-03 0.  1.
         11   -1    0    0    0    0 -0.00000000000E+00 -0.00000000000E+00 -0.45593999997E+02  0.45594000000E+02  0.51100000000E-03 0. -1.
         23    2    1    2    0    0  0.00000000000E+00  0.17763568394E-14 -0.13322676296E-14  0.91188000000E+02  0.91188000000E+02 0.  0.
    9900012    2    3    3    0    0 -0.34168890705E+02 -0.13391466709E+02  0.29891618877E+01  0.54367087988E+02  0.40000008686E+02 0.  0.
        -12    1    3    3    0    0  0.34168890705E+02  0.13391466709E+02 -0.29891618877E+01  0.36820912012E+02  0.00000000000E+00 0.  1.
         11    1    4    4    0    0 -0.89781974916E+01 -0.10516260178E+01 -0.62400006545E+01  0.10984150213E+02  0.51100000000E-03 0.  1.
        -11    1    4    4    0    0  0.62429023959E+01  0.89544688559E+00  0.66717289795E+01  0.91808291176E+01  0.51100000000E-03 0. -1.
         12    1    4    4    0    0 -0.31433595609E+02 -0.13235287576E+02  0.25574335627E+01  0.34202108657E+02  0.00000000000E+00 0. -1.
</event>
<event>
 8    1  0.1278459E-006  0.9118800E+02  0.7816164E-02  0.1184000E+00
        -11   -1    0    0    0    0  0.00000000000E+00  0.00000000000E+00  0.45593999997E+02  0.45594000000E+02  0.51100000000E-03 0.  1.
         11   -1    0    0    0    0 -0.00000000000E+00 -0.00000000000E+00 -0.45593999997E+02  0.45594000000E+02  0.51100000000E-03 0. -1.
         23    2    1    2    0    0  0.00000000000E+00  0.00000000000E+00  0.00000000000E+00  0.91188000000E+02  0.91188000000E+02 0.  0.
    9900012    2    3    3    0    0 -0.30488327111E+02  0.17595232534E+02 -0.10800272048E+02  0.54367133983E+02  0.40000113541E+02 0.  0.
         12    1    3    3    0    0  0.30488327111E+02 -0.17595232534E+02  0.10800272048E+02  0.36820866017E+02  0.00000000000E+00 0. -1.
         11    1    4    4    0    0 -0.13066486355E+02  0.70609342942E+01 -0.42406773309E+01  0.15445815072E+02  0.51100000000E-03 0. -1.
        -11    1    4    4    0    0 -0.24052433941E+02  0.13282283254E+01  0.27496996358E+01  0.24245507158E+02  0.51100000000E-03 0.  1.
         12    1    4    4    0    0  0.66305931853E+01  0.92060699144E+01 -0.93092943528E+01  0.14675811753E+02  0.00000000000E+00 0. -1.
</event>
<event>
 8    1  0.1278459E-006  0.9118800E+02  0.7816164E-02  0.1184000E+00
        -11   -1    0    0    0    0  0.00000000000E+00  0.00000000000E+00  0.45593999997E+02  0.45594000000E+02  0.51100000000E-03 0.  1.
         11   -1    0    0    0    0 -0.00000000000E+00 -0.00000000000E+00 -0.45593999997E+02  0.45594000000E+02  0.51100000000E-03 0. -1.
         23    2    1    2    0    0  0.88817841970E-15  0.00000000000E+00  0.71054273576E-14  0.91188000000E+02  0.91188000000E+02 0.  0.
    9900012    2    3    3    0    0 -0.47501804222E+01 -0.10625131181E+02 -0.34933142003E+02  0.54367054373E+02  0.39999932055E+02 0.  0.
        -12    1    3    3    0    0  0.47501804222E+01  0.10625131181E+02  0.34933142003E+02  0.36820945627E+02  0.00000000000E+00 0.  1.
         11    1    4    4    0    0 -0.85403632419E+00  0.21620943169E+01  0.26975986621E+00  0.23402565083E+01  0.51100000000E-03 0. -1.
        -11    1    4    4    0    0  0.33534982334E+00 -0.22888825086E+02 -0.10866416624E+02  0.25339490599E+02  0.51100000000E-03 0.  1.
         12    1    4    4    0    0 -0.42314939213E+01  0.10101599587E+02 -0.24336485245E+02  0.26687307266E+02  0.00000000000E+00 0. -1.
</event>
<event>
 8    1  0.1278459E-006  0.9118800E+02  0.7816164E-02  0.1184000E+00
        -11   -1    0    0    0    0  0.00000000000E+00  0.00000000000E+00  0.45593999997E+02  0.45594000000E+02  0.51100000000E-03 0.  1.
         11   -1    0    0    0    0 -0.00000000000E+00 -0.00000000000E+00 -0.45593999997E+02  0.45594000000E+02  0.51100000000E-03 0. -1.
         23    2    1    2    0    0 -0.35527136788E-14  0.17763568394E-14  0.00000000000E+00  0.91188000000E+02  0.91188000000E+02 0.  0.
    9900012    2    3    3    0    0 -0.19881784883E+02  0.13408194294E+02  0.27941286713E+02  0.54367074597E+02  0.39999978158E+02 0.  0.
         12    1    3    3    0    0  0.19881784883E+02 -0.13408194294E+02 -0.27941286713E+02  0.36820925403E+02  0.00000000000E+00 0. -1.
         11    1    4    4    0    0  0.91844705936E+00 -0.40956864469E+01 -0.39427324123E+01  0.57587612911E+01  0.51100000000E-03 0. -1.
        -11    1    4    4    0    0  0.79122703960E+00 -0.35596705716E+00  0.16729532640E+02  0.16752015263E+02  0.51100000000E-03 0.  1.
        -12    1    4    4    0    0 -0.21591458982E+02  0.17859847798E+02  0.15154486486E+02  0.31856298043E+02  0.00000000000E+00 0.  1.
</event>
<event>
 8    1  0.1278459E-006  0.9118800E+02  0.7816164E-02  0.1184000E+00
        -11   -1    0    0    0    0  0.00000000000E+00  0.00000000000E+00  0.45593999997E+02  0.45594000000E+02  0.51100000000E-03 0.  1.
         11   -1    0    0    0    0 -0.00000000000E+00 -0.00000000000E+00 -0.45593999997E+02  0.45594000000E+02  0.51100000000E-03 0. -1.
         23    2    1    2    0    0  0.35527136788E-14  0.00000000000E+00  0.00000000000E+00  0.91188000000E+02  0.91188000000E+02 0.  0.
    9900012    2    3    3    0    0  0.29773790594E+02 -0.10610068289E+02  0.18887230196E+02  0.54367087193E+02  0.40000006875E+02 0.  0.
         12    1    3    3    0    0 -0.29773790594E+02  0.10610068289E+02 -0.18887230196E+02  0.36820912807E+02  0.00000000000E+00 0. -1.
         11    1    4    4    0    0 -0.77078544059E+01 -0.18226359224E+00 -0.57947274880E+00  0.77317545542E+01  0.51100000000E-03 0. -1.
        -11    1    4    4    0    0  0.35979954528E+01 -0.31538934885E+01 -0.27028974581E+01  0.54952952919E+01  0.51100000000E-03 0.  1.
         12    1    4    4    0    0  0.33883649547E+02 -0.72739112080E+01  0.22169600403E+02  0.41140037347E+02  0.00000000000E+00 0. -1.
</event>
<event>
 8    1  0.1278459E-006  0.9118800E+02  0.7816164E-02  0.1184000E+00
        -11   -1    0    0    0    0  0.00000000000E+00  0.00000000000E+00  0.45593999997E+02  0.45594000000E+02  0.51100000000E-03 0.  1.
         11   -1    0    0    0    0 -0.00000000000E+00 -0.00000000000E+00 -0.45593999997E+02  0.45594000000E+02  0.51100000000E-03 0. -1.
         23    2    1    2    0    0  0.00000000000E+00 -0.17763568394E-14  0.35527136788E-14  0.91188000000E+02  0.91188000000E+02 0.  0.
    9900012    2    3    3    0    0 -0.22839321752E+02  0.15602812755E+02 -0.24304294771E+02  0.54367066711E+02  0.39999960181E+02 0.  0.
        -12    1    3    3    0    0  0.22839321752E+02 -0.15602812755E+02  0.24304294771E+02  0.36820933289E+02  0.00000000000E+00 0.  1.
         11    1    4    4    0    0 -0.14627651968E+02  0.20195695295E+02 -0.24582371688E+01  0.25057478740E+02  0.51100000000E-03 0.  1.
        -11    1    4    4    0    0 -0.11736960400E+02  0.14179555792E+01 -0.96395671959E+01  0.15254117262E+02  0.51100000000E-03 0. -1.
         12    1    4    4    0    0  0.35252906161E+01 -0.60108381189E+01 -0.12206490406E+02  0.14055470709E+02  0.00000000000E+00 0. -1.
</event>
<event>
 8    1  0.1278459E-006  0.9118800E+02  0.7816164E-02  0.1184000E+00
        -11   -1    0    0    0    0  0.00000000000E+00  0.00000000000E+00  0.45593999997E+02  0.45594000000E+02  0.51100000000E-03 0.  1.
         11   -1    0    0    0    0 -0.00000000000E+00 -0.00000000000E+00 -0.45593999997E+02  0.45594000000E+02  0.51100000000E-03 0. -1.
         23    2    1    2    0    0 -0.35527136788E-14  0.00000000000E+00 -0.35527136788E-14  0.91188000000E+02  0.91188000000E+02 0.  0.
    9900012    2    3    3    0    0  0.20658049695E+02  0.13127954567E+02  0.27507831284E+02  0.54367095743E+02  0.40000026366E+02 0.  0.
         12    1    3    3    0    0 -0.20658049695E+02 -0.13127954567E+02 -0.27507831284E+02  0.36820904257E+02  0.00000000000E+00 0. -1.
         11    1    4    4    0    0  0.81915339725E+00  0.14045451312E+02  0.32585064132E+01  0.14441730477E+02  0.51100000000E-03 0. -1.
        -11    1    4    4    0    0 -0.58305203276E+01 -0.14410510746E+01  0.38597859339E+01  0.71392957080E+01  0.51100000000E-03 0.  1.
        -12    1    4    4    0    0  0.25669416626E+02  0.52355432878E+00  0.20389538937E+02  0.32786069559E+02  0.00000000000E+00 0.  1.
</event>
<event>
 8    1  0.1278459E-006  0.9118800E+02  0.7816164E-02  0.1184000E+00
        -11   -1    0    0    0    0  0.00000000000E+00  0.00000000000E+00  0.45593999997E+02  0.45594000000E+02  0.51100000000E-03 0. -1.
         11   -1    0    0    0    0 -0.00000000000E+00 -0.00000000000E+00 -0.45593999997E+02  0.45594000000E+02  0.51100000000E-03 0.  1.
         23    2    1    2    0    0 -0.44408920985E-15  0.17763568394E-14  0.00000000000E+00  0.91188000000E+02  0.91188000000E+02 0.  0.
    9900012    2    3    3    0    0  0.24375542640E+01 -0.61990594255E+01  0.36213402859E+02  0.54367074493E+02  0.39999977923E+02 0.  0.
        -12    1    3    3    0    0 -0.24375542640E+01  0.61990594255E+01 -0.36213402859E+02  0.36820925507E+02  0.00000000000E+00 0.  1.
         11    1    4    4    0    0 -0.10368065811E+02 -0.73348253677E+01  0.10748915505E+02  0.16638378426E+02  0.51100000000E-03 0. -1.
        -11    1    4    4    0    0 -0.26181507315E+01 -0.30955196055E+00  0.21603080550E+02  0.21763355099E+02  0.51100000000E-03 0.  1.
        -12    1    4    4    0    0  0.15423770807E+02  0.14453179027E+01  0.38614068039E+01  0.15965340969E+02  0.00000000000E+00 0.  1.
</event>
<event>
 8    1  0.1278459E-006  0.9118800E+02  0.7816164E-02  0.1184000E+00
        -11   -1    0    0    0    0  0.00000000000E+00  0.00000000000E+00  0.45593999997E+02  0.45594000000E+02  0.51100000000E-03 0.  1.
         11   -1    0    0    0    0 -0.00000000000E+00 -0.00000000000E+00 -0.45593999997E+02  0.45594000000E+02  0.51100000000E-03 0. -1.
         23    2    1    2    0    0  0.17763568394E-14  0.17763568394E-14  0.35527136788E-14  0.91188000000E+02  0.91188000000E+02 0.  0.
    9900012    2    3    3    0    0  0.13705249433E+02 -0.15716720695E+02  0.30346742906E+02  0.54367163828E+02  0.40000181577E+02 0.  0.
         12    1    3    3    0    0 -0.13705249433E+02  0.15716720695E+02 -0.30346742906E+02  0.36820836172E+02  0.00000000000E+00 0. -1.
         11    1    4    4    0    0  0.98486343740E+01 -0.10426982450E+02 -0.31179106164E+01  0.14677838020E+02  0.51100000000E-03 0. -1.
        -11    1    4    4    0    0  0.98749577422E+01 -0.96898890735E+01  0.23003062223E+02  0.26843055202E+02  0.51100000000E-03 0.  1.
         12    1    4    4    0    0 -0.60183426837E+01  0.44001508285E+01  0.10461591299E+02  0.12846270606E+02  0.00000000000E+00 0. -1.
</event>
<event>
 8    1  0.1278459E-006  0.9118800E+02  0.7816164E-02  0.1184000E+00
        -11   -1    0    0    0    0  0.00000000000E+00  0.00000000000E+00  0.45593999997E+02  0.45594000000E+02  0.51100000000E-03 0.  1.
         11   -1    0    0    0    0 -0.00000000000E+00 -0.00000000000E+00 -0.45593999997E+02  0.45594000000E+02  0.51100000000E-03 0. -1.
         23    2    1    2    0    0  0.00000000000E+00  0.35527136788E-14 -0.35527136788E-14  0.91188000000E+02  0.91188000000E+02 0.  0.
    9900012    2    3    3    0    0  0.56160463663E+01  0.31472487200E+02 -0.18268065760E+02  0.54367086731E+02  0.40000005820E+02 0.  0.
        -12    1    3    3    0    0 -0.56160463663E+01 -0.31472487200E+02  0.18268065760E+02  0.36820913269E+02  0.00000000000E+00 0.  1.
         11    1    4    4    0    0  0.47618275053E+01  0.20519015929E+02 -0.27366072488E+02  0.34534141651E+02  0.51100000000E-03 0. -1.
        -11    1    4    4    0    0  0.51158293093E+01  0.32525654951E+01  0.92155300145E+01  0.11030724615E+02  0.51100000000E-03 0.  1.
         12    1    4    4    0    0 -0.42616104483E+01  0.77009057766E+01 -0.11752328695E+00  0.88022204651E+01  0.00000000000E+00 0. -1.
</event>
<event>
 8    1  0.1278459E-006  0.9118800E+02  0.7816164E-02  0.1184000E+00
        -11   -1    0    0    0    0  0.00000000000E+00  0.00000000000E+00  0.45593999997E+02  0.45594000000E+02  0.51100000000E-03 0.  1.
         11   -1    0    0    0    0 -0.00000000000E+00 -0.00000000000E+00 -0.45593999997E+02  0.45594000000E+02  0.51100000000E-03 0. -1.
         23    2    1    2    0    0 -0.35527136788E-14  0.17763568394E-14  0.00000000000E+00  0.91188000000E+02  0.91188000000E+02 0.  0.
    9900012    2    3    3    0    0 -0.30813710127E+02  0.87688657928E+01  0.18149470572E+02  0.54367068166E+02  0.39999963499E+02 0.  0.
         12    1    3    3    0    0  0.30813710127E+02 -0.87688657928E+01 -0.18149470572E+02  0.36820931834E+02  0.00000000000E+00 0. -1.
         11    1    4    4    0    0 -0.34557885361E+01 -0.97586829825E+01  0.34833666990E+01  0.10922829843E+02  0.51100000000E-03 0. -1.
        -11    1    4    4    0    0 -0.19615058982E+02  0.12392336310E+02  0.21339186059E+02  0.31522712447E+02  0.51100000000E-03 0.  1.
         12    1    4    4    0    0 -0.77428626084E+01  0.61352124654E+01 -0.66730821860E+01  0.11921525877E+02  0.00000000000E+00 0. -1.
</event>
<event>
 8    1  0.1278459E-006  0.9118800E+02  0.7816164E-02  0.1184000E+00
        -11   -1    0    0    0    0  0.00000000000E+00  0.00000000000E+00  0.45593999997E+02  0.45594000000E+02  0.51100000000E-03 0.  1.
         11   -1    0    0    0    0 -0.00000000000E+00 -0.00000000000E+00 -0.45593999997E+02  0.45594000000E+02  0.51100000000E-03 0. -1.
         23    2    1    2    0    0  0.00000000000E+00  0.00000000000E+00  0.00000000000E+00  0.91188000000E+02  0.91188000000E+02 0.  0.
    9900012    2    3    3    0    0  0.23312152726E+01 -0.32420044823E+02 -0.17299517255E+02  0.54367256278E+02  0.40000392335E+02 0.  0.
        -12    1    3    3    0    0 -0.23312152726E+01  0.32420044823E+02  0.17299517255E+02  0.36820743722E+02  0.00000000000E+00 0.  1.
         11    1    4    4    0    0 -0.11202548805E+02 -0.80290249558E+01  0.10854058191E+01  0.13825355241E+02  0.51100000000E-03 0. -1.
        -11    1    4    4    0    0 -0.40793725043E+01 -0.66090124369E+01 -0.12683164567E+02  0.14872222064E+02  0.51100000000E-03 0.  1.
        -12    1    4    4    0    0  0.17613136582E+02 -0.17782007430E+02 -0.57017585072E+01  0.25669678973E+02  0.00000000000E+00 0.  1.
</event>
<event>
 8    1  0.1278459E-006  0.9118800E+02  0.7816164E-02  0.1184000E+00
        -11   -1    0    0    0    0  0.00000000000E+00  0.00000000000E+00  0.45593999997E+02  0.45594000000E+02  0.51100000000E-03 0. -1.
         11   -1    0    0    0    0 -0.00000000000E+00 -0.00000000000E+00 -0.45593999997E+02  0.45594000000E+02  0.51100000000E-03 0.  1.
         23    2    1    2    0    0  0.00000000000E+00 -0.17763568394E-14  0.00000000000E+00  0.91188000000E+02  0.91188000000E+02 0.  0.
    9900012    2    3    3    0    0 -0.29968526545E+02  0.15810574720E+02  0.14411565962E+02  0.54367080814E+02  0.39999992331E+02 0.  0.
        -12    1    3    3    0    0  0.29968526545E+02 -0.15810574720E+02 -0.14411565962E+02  0.36820919186E+02  0.00000000000E+00 0.  1.
         11    1    4    4    0    0 -0.37943876766E+01  0.49638712269E+01  0.96694771085E+00  0.63223716700E+01  0.51100000000E-03 0. -1.
        -11    1    4    4    0    0 -0.13803163789E+02  0.36064704546E+01 -0.12130576908E+02  0.18726581538E+02  0.51100000000E-03 0.  1.
        -12    1    4    4    0    0 -0.12370975080E+02  0.72402330381E+01  0.25575195159E+02  0.29318127606E+02  0.00000000000E+00 0.  1.
</event>
<event>
 8    1  0.1278459E-006  0.9118800E+02  0.7816164E-02  0.1184000E+00
        -11   -1    0    0    0    0  0.00000000000E+00  0.00000000000E+00  0.45593999997E+02  0.45594000000E+02  0.51100000000E-03 0.  1.
         11   -1    0    0    0    0 -0.00000000000E+00 -0.00000000000E+00 -0.45593999997E+02  0.45594000000E+02  0.51100000000E-03 0. -1.
         23    2    1    2    0    0  0.00000000000E+00  0.00000000000E+00  0.00000000000E+00  0.91188000000E+02  0.91188000000E+02 0.  0.
    9900012    2    3    3    0    0 -0.32055525190E+02 -0.14466842921E+02  0.10905688231E+02  0.54367078296E+02  0.39999986592E+02 0.  0.
         12    1    3    3    0    0  0.32055525190E+02  0.14466842921E+02 -0.10905688231E+02  0.36820921704E+02  0.00000000000E+00 0. -1.
         11    1    4    4    0    0  0.66289003614E+00 -0.25571081603E+01  0.95421115891E+01  0.99010160683E+01  0.51100000000E-03 0. -1.
        -11    1    4    4    0    0  0.15534855200E+01  0.22435369643E+01  0.64839883047E+01  0.70348333291E+01  0.51100000000E-03 0.  1.
         12    1    4    4    0    0 -0.34271900746E+02 -0.14153271725E+02 -0.51204116627E+01  0.37431228899E+02  0.00000000000E+00 0. -1.
</event>
<event>
 8    1  0.1278459E-006  0.9118800E+02  0.7816164E-02  0.1184000E+00
        -11   -1    0    0    0    0  0.00000000000E+00  0.00000000000E+00  0.45593999997E+02  0.45594000000E+02  0.51100000000E-03 0.  1.
         11   -1    0    0    0    0 -0.00000000000E+00 -0.00000000000E+00 -0.45593999997E+02  0.45594000000E+02  0.51100000000E-03 0. -1.
         23    2    1    2    0    0  0.88817841970E-15 -0.71054273576E-14  0.00000000000E+00  0.91188000000E+02  0.91188000000E+02 0.  0.
    9900012    2    3    3    0    0  0.49766794750E+01 -0.34667141505E+02  0.11366709273E+02  0.54367080424E+02  0.39999991442E+02 0.  0.
         12    1    3    3    0    0 -0.49766794750E+01  0.34667141505E+02 -0.11366709273E+02  0.36820919576E+02  0.00000000000E+00 0. -1.
         11    1    4    4    0    0  0.41192394585E+01 -0.18154829632E+00  0.62747177106E+01  0.75082072500E+01  0.51100000000E-03 0. -1.
        -11    1    4    4    0    0  0.15030754661E+02 -0.20317929110E+02  0.82191896584E+01  0.26576247062E+02  0.51100000000E-03 0.  1.
         12    1    4    4    0    0 -0.14173314645E+02 -0.14167664099E+02 -0.31271980959E+01  0.20282626111E+02  0.00000000000E+00 0. -1.
</event>
<event>
 8    1  0.1278459E-006  0.9118800E+02  0.7816164E-02  0.1184000E+00
        -11   -1    0    0    0    0  0.00000000000E+00  0.00000000000E+00  0.45593999997E+02  0.45594000000E+02  0.51100000000E-03 0.  1.
         11   -1    0    0    0    0 -0.00000000000E+00 -0.00000000000E+00 -0.45593999997E+02  0.45594000000E+02  0.51100000000E-03 0. -1.
         23    2    1    2    0    0  0.00000000000E+00 -0.17763568394E-14  0.00000000000E+00  0.91188000000E+02  0.91188000000E+02 0.  0.
    9900012    2    3    3    0    0  0.30754536779E+02 -0.10015217563E+02 -0.17596425577E+02  0.54367077844E+02  0.39999985562E+02 0.  0.
        -12    1    3    3    0    0 -0.30754536779E+02  0.10015217563E+02  0.17596425577E+02  0.36820922156E+02  0.00000000000E+00 0.  1.
         11    1    4    4    0    0  0.11426468553E+01  0.45748526360E+01 -0.18605908551E+01  0.50691929405E+01  0.51100000000E-03 0. -1.
        -11    1    4    4    0    0 -0.53620760866E+01  0.19131373072E+01 -0.80655166303E+01  0.98724117160E+01  0.51100000000E-03 0.  1.
         12    1    4    4    0    0  0.34973966010E+02 -0.16503207507E+02 -0.76703180914E+01  0.39425473188E+02  0.00000000000E+00 0. -1.
</event>
<event>
 8    1  0.1278459E-006  0.9118800E+02  0.7816164E-02  0.1184000E+00
        -11   -1    0    0    0    0  0.00000000000E+00  0.00000000000E+00  0.45593999997E+02  0.45594000000E+02  0.51100000000E-03 0. -1.
         11   -1    0    0    0    0 -0.00000000000E+00 -0.00000000000E+00 -0.45593999997E+02  0.45594000000E+02  0.51100000000E-03 0.  1.
         23    2    1    2    0    0  0.00000000000E+00  0.00000000000E+00  0.00000000000E+00  0.91188000000E+02  0.91188000000E+02 0.  0.
    9900012    2    3    3    0    0 -0.28782269768E+02  0.72721041287E+01 -0.21782485760E+02  0.54367092389E+02  0.40000018718E+02 0.  0.
         12    1    3    3    0    0  0.28782269768E+02 -0.72721041287E+01  0.21782485760E+02  0.36820907611E+02  0.00000000000E+00 0. -1.
         11    1    4    4    0    0 -0.21639408025E+02  0.14537262231E+02 -0.96703453805E+01  0.27804883616E+02  0.51100000000E-03 0. -1.
        -11    1    4    4    0    0  0.37849782618E+01  0.51738796400E+01 -0.69075776175E+00  0.64476536444E+01  0.51100000000E-03 0.  1.
        -12    1    4    4    0    0 -0.10927840005E+02 -0.12439037742E+02 -0.11421382618E+02  0.20114555129E+02  0.00000000000E+00 0.  1.
</event>
<event>
 8    1  0.1278459E-006  0.9118800E+02  0.7816164E-02  0.1184000E+00
        -11   -1    0    0    0    0  0.00000000000E+00  0.00000000000E+00  0.45593999997E+02  0.45594000000E+02  0.51100000000E-03 0. -1.
         11   -1    0    0    0    0 -0.00000000000E+00 -0.00000000000E+00 -0.45593999997E+02  0.45594000000E+02  0.51100000000E-03 0.  1.
         23    2    1    2    0    0  0.35527136788E-14  0.00000000000E+00  0.35527136788E-14  0.91188000000E+02  0.91188000000E+02 0.  0.
    9900012    2    3    3    0    0 -0.30492777834E+02 -0.56124717012E+01  0.19861075732E+02  0.54367195176E+02  0.40000253042E+02 0.  0.
         12    1    3    3    0    0  0.30492777834E+02  0.56124717012E+01 -0.19861075732E+02  0.36820804824E+02  0.00000000000E+00 0. -1.
         11    1    4    4    0    0 -0.15804381614E+02 -0.26774348028E+01  0.27510090472E+02  0.31839475708E+02  0.51100000000E-03 0. -1.
        -11    1    4    4    0    0 -0.11762144405E+01 -0.32932020306E+01  0.35434329336E+01  0.49784111161E+01  0.51100000000E-03 0.  1.
        -12    1    4    4    0    0 -0.13512181779E+02  0.35816513227E+00 -0.11192447674E+02  0.17549308352E+02  0.00000000000E+00 0.  1.
</event>
<event>
 8    1  0.1278459E-006  0.9118800E+02  0.7816164E-02  0.1184000E+00
        -11   -1    0    0    0    0  0.00000000000E+00  0.00000000000E+00  0.45593999997E+02  0.45594000000E+02  0.51100000000E-03 0.  1.
         11   -1    0    0    0    0 -0.00000000000E+00 -0.00000000000E+00 -0.45593999997E+02  0.45594000000E+02  0.51100000000E-03 0. -1.
         23    2    1    2    0    0  0.35527136788E-14 -0.35527136788E-14  0.00000000000E+00  0.91188000000E+02  0.91188000000E+02 0.  0.
    9900012    2    3    3    0    0 -0.19766817986E+02  0.20438049823E+02 -0.23395280927E+02  0.54367080083E+02  0.39999990666E+02 0.  0.
        -12    1    3    3    0    0  0.19766817986E+02 -0.20438049823E+02  0.23395280927E+02  0.36820919917E+02  0.00000000000E+00 0.  1.
         11    1    4    4    0    0 -0.10768213219E+02  0.20598637389E+02 -0.24564342551E+02  0.33818119454E+02  0.51100000000E-03 0. -1.
        -11    1    4    4    0    0 -0.11443080375E+02 -0.59695293567E+01 -0.26555509708E+01  0.13176923785E+02  0.51100000000E-03 0.  1.
         12    1    4    4    0    0  0.24444756088E+01  0.58089417908E+01  0.38246125944E+01  0.73720368440E+01  0.00000000000E+00 0. -1.
</event>
<event>
 8    1  0.1278459E-006  0.9118800E+02  0.7816164E-02  0.1184000E+00
        -11   -1    0    0    0    0  0.00000000000E+00  0.00000000000E+00  0.45593999997E+02  0.45594000000E+02  0.51100000000E-03 0.  1.
         11   -1    0    0    0    0 -0.00000000000E+00 -0.00000000000E+00 -0.45593999997E+02  0.45594000000E+02  0.51100000000E-03 0. -1.
         23    2    1    2    0    0  0.00000000000E+00  0.00000000000E+00  0.00000000000E+00  0.91188000000E+02  0.91188000000E+02 0.  0.
    9900012    2    3    3    0    0 -0.11372662961E+02  0.99937636216E+01 -0.33564374160E+02  0.54367082210E+02  0.39999995513E+02 0.  0.
        -12    1    3    3    0    0  0.11372662961E+02 -0.99937636216E+01  0.33564374160E+02  0.36820917790E+02  0.00000000000E+00 0.  1.
         11    1    4    4    0    0  0.63937279847E+01  0.12939592555E+02 -0.10856662787E+02  0.18060452380E+02  0.51100000000E-03 0. -1.
        -11    1    4    4    0    0  0.99465825679E+00 -0.31087760862E+01 -0.16081091264E+02  0.16409001503E+02  0.51100000000E-03 0.  1.
        -12    1    4    4    0    0 -0.18761049203E+02  0.16294715268E+00 -0.66266201086E+01  0.19897628327E+02  0.00000000000E+00 0.  1.
</event>
<event>
 8    1  0.1278459E-006  0.9118800E+02  0.7816164E-02  0.1184000E+00
        -11   -1    0    0    0    0  0.00000000000E+00  0.00000000000E+00  0.45593999997E+02  0.45594000000E+02  0.51100000000E-03 0.  1.
         11   -1    0    0    0    0 -0.00000000000E+00 -0.00000000000E+00 -0.45593999997E+02  0.45594000000E+02  0.51100000000E-03 0. -1.
         23    2    1    2    0    0  0.00000000000E+00  0.00000000000E+00 -0.35527136788E-14  0.91188000000E+02  0.91188000000E+02 0.  0.
    9900012    2    3    3    0    0  0.13713928021E+02 -0.16768476614E+02 -0.29774614588E+02  0.54367064331E+02  0.39999954754E+02 0.  0.
        -12    1    3    3    0    0 -0.13713928021E+02  0.16768476614E+02  0.29774614588E+02  0.36820935669E+02  0.00000000000E+00 0.  1.
         11    1    4    4    0    0  0.37451123196E+01 -0.61771758331E+01 -0.14857449071E+01  0.73750122542E+01  0.51100000000E-03 0. -1.
        -11    1    4    4    0    0  0.11379992696E+02 -0.22344400221E+02 -0.23002392237E+02  0.34027731395E+02  0.51100000000E-03 0.  1.
        -12    1    4    4    0    0 -0.14111769945E+01  0.11753099440E+02 -0.52864774436E+01  0.12964320681E+02  0.00000000000E+00 0.  1.
</event>
<event>
 8    1  0.1278459E-006  0.9118800E+02  0.7816164E-02  0.1184000E+00
        -11   -1    0    0    0    0  0.00000000000E+00  0.00000000000E+00  0.45593999997E+02  0.45594000000E+02  0.51100000000E-03 0.  1.
         11   -1    0    0    0    0 -0.00000000000E+00 -0.00000000000E+00 -0.45593999997E+02  0.45594000000E+02  0.51100000000E-03 0. -1.
         23    2    1    2    0    0  0.00000000000E+00  0.00000000000E+00  0.00000000000E+00  0.91188000000E+02  0.91188000000E+02 0.  0.
    9900012    2    3    3    0    0 -0.35919520880E+02 -0.79586696627E+01  0.14928989365E+01  0.54367066412E+02  0.39999959500E+02 0.  0.
         12    1    3    3    0    0  0.35919520880E+02  0.79586696627E+01 -0.14928989365E+01  0.36820933588E+02  0.00000000000E+00 0. -1.
         11    1    4    4    0    0 -0.91413716994E+01 -0.17932300503E+02  0.12440180051E+01  0.20166300081E+02  0.51100000000E-03 0. -1.
        -11    1    4    4    0    0 -0.12369996568E+02  0.13328106937E+02  0.46451477356E+01  0.18767862088E+02  0.51100000000E-03 0.  1.
         12    1    4    4    0    0 -0.14408152613E+02 -0.33544760963E+01 -0.43962668042E+01  0.15432904244E+02  0.00000000000E+00 0. -1.
</event>
<event>
 8    1  0.1278459E-006  0.9118800E+02  0.7816164E-02  0.1184000E+00
        -11   -1    0    0    0    0  0.00000000000E+00  0.00000000000E+00  0.45593999997E+02  0.45594000000E+02  0.51100000000E-03 0.  1.
         11   -1    0    0    0    0 -0.00000000000E+00 -0.00000000000E+00 -0.45593999997E+02  0.45594000000E+02  0.51100000000E-03 0. -1.
         23    2    1    2    0    0  0.00000000000E+00  0.00000000000E+00 -0.35527136788E-14  0.91188000000E+02  0.91188000000E+02 0.  0.
    9900012    2    3    3    0    0 -0.45619279830E+01 -0.27171610703E+02  0.24426863532E+02  0.54367091848E+02  0.40000017485E+02 0.  0.
         12    1    3    3    0    0  0.45619279830E+01  0.27171610703E+02 -0.24426863532E+02  0.36820908152E+02  0.00000000000E+00 0. -1.
         11    1    4    4    0    0 -0.32776407627E+01  0.86600669966E+00  0.26483076911E+01  0.43019100945E+01  0.51100000000E-03 0. -1.
        -11    1    4    4    0    0  0.69984158676E+01  0.65058690982E+01  0.44154534081E+01  0.10526176250E+02  0.51100000000E-03 0.  1.
        -12    1    4    4    0    0 -0.82827030878E+01 -0.34543486501E+02  0.17363102433E+02  0.39539005503E+02  0.00000000000E+00 0.  1.
</event>
<event>
 8    1  0.1278459E-006  0.9118800E+02  0.7816164E-02  0.1184000E+00
        -11   -1    0    0    0    0  0.00000000000E+00  0.00000000000E+00  0.45593999997E+02  0.45594000000E+02  0.51100000000E-03 0. -1.
         11   -1    0    0    0    0 -0.00000000000E+00 -0.00000000000E+00 -0.45593999997E+02  0.45594000000E+02  0.51100000000E-03 0.  1.
         23    2    1    2    0    0  0.00000000000E+00  0.00000000000E+00  0.00000000000E+00  0.91188000000E+02  0.91188000000E+02 0.  0.
    9900012    2    3    3    0    0 -0.74057614628E+01 -0.34582018502E+02 -0.10247907040E+02  0.54367069740E+02  0.39999967086E+02 0.  0.
         12    1    3    3    0    0  0.74057614628E+01  0.34582018502E+02  0.10247907040E+02  0.36820930260E+02  0.00000000000E+00 0. -1.
         11    1    4    4    0    0 -0.70778302464E+01 -0.16358899243E+02 -0.13176576443E+02  0.22165997214E+02  0.51100000000E-03 0. -1.
        -11    1    4    4    0    0  0.30810622427E+01 -0.16478835126E+02 -0.94494608731E+01  0.19244148791E+02  0.51100000000E-03 0.  1.
         12    1    4    4    0    0 -0.34089934591E+01 -0.17442841324E+01  0.12378130276E+02  0.12956923735E+02  0.00000000000E+00 0. -1.
</event>
<event>
 8    1  0.1278459E-006  0.9118800E+02  0.7816164E-02  0.1184000E+00
        -11   -1    0    0    0    0  0.00000000000E+00  0.00000000000E+00  0.45593999997E+02  0.45594000000E+02  0.51100000000E-03 0.  1.
         11   -1    0    0    0    0 -0.00000000000E+00 -0.00000000000E+00 -0.45593999997E+02  0.45594000000E+02  0.51100000000E-03 0. -1.
         23    2    1    2    0    0 -0.35527136788E-14  0.35527136788E-14  0.00000000000E+00  0.91188000000E+02  0.91188000000E+02 0.  0.
    9900012    2    3    3    0    0 -0.86904508991E+01  0.16025712286E+02 -0.31991079605E+02  0.54367128672E+02  0.40000101433E+02 0.  0.
        -12    1    3    3    0    0  0.86904508991E+01 -0.16025712286E+02  0.31991079605E+02  0.36820871328E+02  0.00000000000E+00 0.  1.
         11    1    4    4    0    0  0.15734533127E+01 -0.56628230480E+01 -0.23396233326E+02  0.24123164268E+02  0.51100000000E-03 0. -1.
        -11    1    4    4    0    0 -0.45404144118E+01  0.46828262260E+01  0.45915663873E+01  0.79766350452E+01  0.51100000000E-03 0.  1.
         12    1    4    4    0    0 -0.57234898000E+01  0.17005709108E+02 -0.13186412666E+02  0.22267329358E+02  0.00000000000E+00 0. -1.
</event>
<event>
 8    1  0.1278459E-006  0.9118800E+02  0.7816164E-02  0.1184000E+00
        -11   -1    0    0    0    0  0.00000000000E+00  0.00000000000E+00  0.45593999997E+02  0.45594000000E+02  0.51100000000E-03 0.  1.
         11   -1    0    0    0    0 -0.00000000000E+00 -0.00000000000E+00 -0.45593999997E+02  0.45594000000E+02  0.51100000000E-03 0. -1.
         23    2    1    2    0    0 -0.17763568394E-14  0.00000000000E+00 -0.71054273576E-14  0.91188000000E+02  0.91188000000E+02 0.  0.
    9900012    2    3    3    0    0  0.12168255330E+02  0.54620557149E+01  0.34320254278E+02  0.54367077359E+02  0.39999984456E+02 0.  0.
         12    1    3    3    0    0 -0.12168255330E+02 -0.54620557149E+01 -0.34320254278E+02  0.36820922641E+02  0.00000000000E+00 0. -1.
         11    1    4    4    0    0 -0.85980899149E+01  0.30618455439E+01  0.18849483185E+01  0.93196072205E+01  0.51100000000E-03 0. -1.
        -11    1    4    4    0    0 -0.21640448463E+01 -0.13270980319E+01  0.16924824259E+02  0.17114144902E+02  0.51100000000E-03 0.  1.
         12    1    4    4    0    0  0.22930390091E+02  0.37273082029E+01  0.15510481701E+02  0.27933325237E+02  0.00000000000E+00 0. -1.
</event>
<event>
 8    1  0.1278459E-006  0.9118800E+02  0.7816164E-02  0.1184000E+00
        -11   -1    0    0    0    0  0.00000000000E+00  0.00000000000E+00  0.45593999997E+02  0.45594000000E+02  0.51100000000E-03 0.  1.
         11   -1    0    0    0    0 -0.00000000000E+00 -0.00000000000E+00 -0.45593999997E+02  0.45594000000E+02  0.51100000000E-03 0. -1.
         23    2    1    2    0    0  0.00000000000E+00 -0.35527136788E-14  0.00000000000E+00  0.91188000000E+02  0.91188000000E+02 0.  0.
    9900012    2    3    3    0    0  0.23985557331E+02  0.27838465281E+02  0.23438870282E+01  0.54367069593E+02  0.39999966750E+02 0.  0.
         12    1    3    3    0    0 -0.23985557331E+02 -0.27838465281E+02 -0.23438870282E+01  0.36820930407E+02  0.00000000000E+00 0. -1.
         11    1    4    4    0    0  0.28849172571E+02  0.10237868100E+02  0.12164989336E+01  0.30636066510E+02  0.51100000000E-03 0. -1.
        -11    1    4    4    0    0 -0.10201277898E+02  0.13125606623E+02  0.18590085646E+01  0.16727328929E+02  0.51100000000E-03 0.  1.
        -12    1    4    4    0    0  0.53376626576E+01  0.44749905579E+01 -0.73162047007E+00  0.70036741538E+01  0.00000000000E+00 0.  1.
</event>
<event>
 8    1  0.1278459E-006  0.9118800E+02  0.7816164E-02  0.1184000E+00
        -11   -1    0    0    0    0  0.00000000000E+00  0.00000000000E+00  0.45593999997E+02  0.45594000000E+02  0.51100000000E-03 0. -1.
         11   -1    0    0    0    0 -0.00000000000E+00 -0.00000000000E+00 -0.45593999997E+02  0.45594000000E+02  0.51100000000E-03 0.  1.
         23    2    1    2    0    0  0.00000000000E+00 -0.17763568394E-14  0.00000000000E+00  0.91188000000E+02  0.91188000000E+02 0.  0.
    9900012    2    3    3    0    0 -0.32712932974E+02 -0.13293359785E+02 -0.10436850985E+02  0.54367119285E+02  0.40000080034E+02 0.  0.
        -12    1    3    3    0    0  0.32712932974E+02  0.13293359785E+02  0.10436850985E+02  0.36820880715E+02  0.00000000000E+00 0.  1.
         11    1    4    4    0    0  0.21321323303E+01  0.41845718976E+01 -0.30318341519E+01  0.55900490898E+01  0.51100000000E-03 0. -1.
        -11    1    4    4    0    0 -0.16971632506E+02  0.64127827714E+01 -0.51285298557E+01  0.18853697556E+02  0.51100000000E-03 0.  1.
         12    1    4    4    0    0 -0.17873432799E+02 -0.23890714455E+02 -0.22764869772E+01  0.29923372639E+02  0.00000000000E+00 0. -1.
</event>
<event>
 8    1  0.1278459E-006  0.9118800E+02  0.7816164E-02  0.1184000E+00
        -11   -1    0    0    0    0  0.00000000000E+00  0.00000000000E+00  0.45593999997E+02  0.45594000000E+02  0.51100000000E-03 0. -1.
         11   -1    0    0    0    0 -0.00000000000E+00 -0.00000000000E+00 -0.45593999997E+02  0.45594000000E+02  0.51100000000E-03 0.  1.
         23    2    1    2    0    0  0.00000000000E+00  0.00000000000E+00  0.00000000000E+00  0.91188000000E+02  0.91188000000E+02 0.  0.
    9900012    2    3    3    0    0  0.10951070774E+02 -0.99517280529E+01  0.33716716507E+02  0.54367084553E+02  0.40000000855E+02 0.  0.
        -12    1    3    3    0    0 -0.10951070774E+02  0.99517280529E+01 -0.33716716507E+02  0.36820915447E+02  0.00000000000E+00 0.  1.
         11    1    4    4    0    0  0.96338624136E+01  0.73739690605E+01  0.14981678212E+02  0.19277899445E+02  0.51100000000E-03 0. -1.
        -11    1    4    4    0    0  0.16217056306E+00 -0.17123792170E+02  0.24118450159E+02  0.29579557061E+02  0.51100000000E-03 0.  1.
        -12    1    4    4    0    0  0.11550377978E+01 -0.20190494301E+00 -0.53834118635E+01  0.55096280466E+01  0.00000000000E+00 0.  1.
</event>
<event>
 8    1  0.1278459E-006  0.9118800E+02  0.7816164E-02  0.1184000E+00
        -11   -1    0    0    0    0  0.00000000000E+00  0.00000000000E+00  0.45593999997E+02  0.45594000000E+02  0.51100000000E-03 0.  1.
         11   -1    0    0    0    0 -0.00000000000E+00 -0.00000000000E+00 -0.45593999997E+02  0.45594000000E+02  0.51100000000E-03 0. -1.
         23    2    1    2    0    0 -0.35527136788E-14 -0.35527136788E-14  0.35527136788E-14  0.91188000000E+02  0.91188000000E+02 0.  0.
    9900012    2    3    3    0    0  0.19781991498E+02 -0.22714913999E+02 -0.21177450816E+02  0.54367096580E+02  0.40000028273E+02 0.  0.
        -12    1    3    3    0    0 -0.19781991498E+02  0.22714913999E+02  0.21177450816E+02  0.36820903420E+02  0.00000000000E+00 0.  1.
         11    1    4    4    0    0  0.28397404248E+02 -0.21997682235E+02 -0.10941925042E+02  0.37550450272E+02  0.51100000000E-03 0. -1.
        -11    1    4    4    0    0 -0.10322609051E+02 -0.25808816820E+01 -0.92668281898E+01  0.14109972106E+02  0.51100000000E-03 0.  1.
        -12    1    4    4    0    0  0.17071963010E+01  0.18636499174E+01 -0.96869758445E+00  0.27066742018E+01  0.00000000000E+00 0.  1.
</event>
<event>
 8    1  0.1278459E-006  0.9118800E+02  0.7816164E-02  0.1184000E+00
        -11   -1    0    0    0    0  0.00000000000E+00  0.00000000000E+00  0.45593999997E+02  0.45594000000E+02  0.51100000000E-03 0.  1.
         11   -1    0    0    0    0 -0.00000000000E+00 -0.00000000000E+00 -0.45593999997E+02  0.45594000000E+02  0.51100000000E-03 0. -1.
         23    2    1    2    0    0 -0.17763568394E-14  0.00000000000E+00 -0.27755575616E-16  0.91188000000E+02  0.91188000000E+02 0.  0.
    9900012    2    3    3    0    0  0.72326469092E+01  0.36102932591E+02  0.20569760678E+00  0.54367146744E+02  0.40000142632E+02 0.  0.
         12    1    3    3    0    0 -0.72326469092E+01 -0.36102932591E+02 -0.20569760678E+00  0.36820853256E+02  0.00000000000E+00 0. -1.
         11    1    4    4    0    0 -0.35080221703E+01  0.10863956208E+02  0.40389178896E+01  0.12109691243E+02  0.51100000000E-03 0. -1.
        -11    1    4    4    0    0  0.21167610637E+02  0.14901077462E+02  0.30045938425E+01  0.26060265424E+02  0.51100000000E-03 0.  1.
         12    1    4    4    0    0 -0.10426941557E+02  0.10337898922E+02 -0.68378141253E+01  0.16197190076E+02  0.00000000000E+00 0. -1.
</event>
<event>
 8    1  0.1278459E-006  0.9118800E+02  0.7816164E-02  0.1184000E+00
        -11   -1    0    0    0    0  0.00000000000E+00  0.00000000000E+00  0.45593999997E+02  0.45594000000E+02  0.51100000000E-03 0. -1.
         11   -1    0    0    0    0 -0.00000000000E+00 -0.00000000000E+00 -0.45593999997E+02  0.45594000000E+02  0.51100000000E-03 0.  1.
         23    2    1    2    0    0  0.00000000000E+00  0.00000000000E+00  0.00000000000E+00  0.91188000000E+02  0.91188000000E+02 0.  0.
    9900012    2    3    3    0    0  0.79077993791E+01  0.10319243850E+02 -0.34449382231E+02  0.54367081750E+02  0.39999994465E+02 0.  0.
         12    1    3    3    0    0 -0.79077993791E+01 -0.10319243850E+02  0.34449382231E+02  0.36820918250E+02  0.00000000000E+00 0. -1.
         11    1    4    4    0    0  0.95964277957E+01 -0.20603172710E+01 -0.65863603937E+01  0.11820172469E+02  0.51100000000E-03 0. -1.
        -11    1    4    4    0    0  0.77396272548E+00  0.17927873525E+02 -0.46276191750E+01  0.18531662821E+02  0.51100000000E-03 0.  1.
        -12    1    4    4    0    0 -0.24625911421E+01 -0.55483124031E+01 -0.23235402663E+02  0.24015246460E+02  0.00000000000E+00 0.  1.
</event>
<event>
 8    1  0.1278459E-006  0.9118800E+02  0.7816164E-02  0.1184000E+00
        -11   -1    0    0    0    0  0.00000000000E+00  0.00000000000E+00  0.45593999997E+02  0.45594000000E+02  0.51100000000E-03 0.  1.
         11   -1    0    0    0    0 -0.00000000000E+00 -0.00000000000E+00 -0.45593999997E+02  0.45594000000E+02  0.51100000000E-03 0. -1.
         23    2    1    2    0    0  0.00000000000E+00 -0.71054273576E-14 -0.88817841970E-15  0.91188000000E+02  0.91188000000E+02 0.  0.
    9900012    2    3    3    0    0  0.22554197170E+02 -0.28693758515E+02 -0.48740279481E+01  0.54367085616E+02  0.40000003278E+02 0.  0.
        -12    1    3    3    0    0 -0.22554197170E+02  0.28693758515E+02  0.48740279481E+01  0.36820914384E+02  0.00000000000E+00 0.  1.
         11    1    4    4    0    0  0.13838324516E+02 -0.84031459731E+01 -0.17067976524E+02  0.23525048577E+02  0.51100000000E-03 0. -1.
        -11    1    4    4    0    0 -0.14085574823E+01  0.23943851562E+01  0.36183231660E+01  0.45617296338E+01  0.51100000000E-03 0.  1.
         12    1    4    4    0    0  0.10124430136E+02 -0.22684997698E+02  0.85756254102E+01  0.26280307405E+02  0.00000000000E+00 0. -1.
</event>
<event>
 8    1  0.1278459E-006  0.9118800E+02  0.7816164E-02  0.1184000E+00
        -11   -1    0    0    0    0  0.00000000000E+00  0.00000000000E+00  0.45593999997E+02  0.45594000000E+02  0.51100000000E-03 0.  1.
         11   -1    0    0    0    0 -0.00000000000E+00 -0.00000000000E+00 -0.45593999997E+02  0.45594000000E+02  0.51100000000E-03 0. -1.
         23    2    1    2    0    0  0.00000000000E+00  0.00000000000E+00  0.00000000000E+00  0.91188000000E+02  0.91188000000E+02 0.  0.
    9900012    2    3    3    0    0 -0.32993650951E+02  0.10271271294E+02  0.12716287303E+02  0.54367027989E+02  0.39999871906E+02 0.  0.
         12    1    3    3    0    0  0.32993650951E+02 -0.10271271294E+02 -0.12716287303E+02  0.36820972011E+02  0.00000000000E+00 0. -1.
         11    1    4    4    0    0 -0.35758614665E-02 -0.92655505682E+01  0.15315026235E+01  0.93912693852E+01  0.51100000000E-03 0. -1.
        -11    1    4    4    0    0 -0.62284940741E+01  0.13505906695E+02 -0.11091946940E+01  0.14914220302E+02  0.51100000000E-03 0.  1.
        -12    1    4    4    0    0 -0.26761581015E+02  0.60309151670E+01  0.12293979374E+02  0.30061538301E+02  0.00000000000E+00 0.  1.
</event>
<event>
 8    1  0.1278459E-006  0.9118800E+02  0.7816164E-02  0.1184000E+00
        -11   -1    0    0    0    0  0.00000000000E+00  0.00000000000E+00  0.45593999997E+02  0.45594000000E+02  0.51100000000E-03 0.  1.
         11   -1    0    0    0    0 -0.00000000000E+00 -0.00000000000E+00 -0.45593999997E+02  0.45594000000E+02  0.51100000000E-03 0. -1.
         23    2    1    2    0    0  0.00000000000E+00  0.00000000000E+00  0.00000000000E+00  0.91188000000E+02  0.91188000000E+02 0.  0.
    9900012    2    3    3    0    0  0.36474988929E+02 -0.34359271721E+01  0.36806593054E+01  0.54367113728E+02  0.40000067366E+02 0.  0.
         12    1    3    3    0    0 -0.36474988929E+02  0.34359271721E+01 -0.36806593054E+01  0.36820886272E+02  0.00000000000E+00 0. -1.
         11    1    4    4    0    0  0.29301699498E+02 -0.10485140577E+02 -0.39406039214E+01  0.31369668884E+02  0.51100000000E-03 0. -1.
        -11    1    4    4    0    0  0.92578104058E+01  0.12655480939E+02  0.61071034265E+01  0.16827506168E+02  0.51100000000E-03 0.  1.
        -12    1    4    4    0    0 -0.20845209741E+01 -0.56062675348E+01  0.15141598003E+01  0.61699386758E+01  0.00000000000E+00 0.  1.
</event>
<event>
 8    1  0.1278459E-006  0.9118800E+02  0.7816164E-02  0.1184000E+00
        -11   -1    0    0    0    0  0.00000000000E+00  0.00000000000E+00  0.45593999997E+02  0.45594000000E+02  0.51100000000E-03 0.  1.
         11   -1    0    0    0    0 -0.00000000000E+00 -0.00000000000E+00 -0.45593999997E+02  0.45594000000E+02  0.51100000000E-03 0. -1.
         23    2    1    2    0    0  0.00000000000E+00  0.00000000000E+00  0.00000000000E+00  0.91188000000E+02  0.91188000000E+02 0.  0.
    9900012    2    3    3    0    0 -0.22941137880E+02  0.21030132885E+02  0.19677793809E+02  0.54367111015E+02  0.40000061182E+02 0.  0.
         12    1    3    3    0    0  0.22941137880E+02 -0.21030132885E+02 -0.19677793809E+02  0.36820888985E+02  0.00000000000E+00 0. -1.
         11    1    4    4    0    0 -0.12175337963E+02 -0.87600709090E+01  0.15196096870E+02  0.21351792833E+02  0.51100000000E-03 0. -1.
        -11    1    4    4    0    0 -0.93736042273E+01  0.19925209528E+02 -0.16883541360E+00  0.22020602549E+02  0.51100000000E-03 0.  1.
         12    1    4    4    0    0 -0.13921956905E+01  0.98649942660E+01  0.46505323529E+01  0.10994715634E+02  0.00000000000E+00 0. -1.
</event>
<event>
 8    1  0.1278459E-006  0.9118800E+02  0.7816164E-02  0.1184000E+00
        -11   -1    0    0    0    0  0.00000000000E+00  0.00000000000E+00  0.45593999997E+02  0.45594000000E+02  0.51100000000E-03 0. -1.
         11   -1    0    0    0    0 -0.00000000000E+00 -0.00000000000E+00 -0.45593999997E+02  0.45594000000E+02  0.51100000000E-03 0.  1.
         23    2    1    2    0    0  0.00000000000E+00 -0.35527136788E-14 -0.71054273576E-14  0.91188000000E+02  0.91188000000E+02 0.  0.
    9900012    2    3    3    0    0 -0.14457169327E+01 -0.26358607047E+02 -0.25669314485E+02  0.54367082453E+02  0.39999996068E+02 0.  0.
         12    1    3    3    0    0  0.14457169327E+01  0.26358607047E+02  0.25669314485E+02  0.36820917547E+02  0.00000000000E+00 0. -1.
         11    1    4    4    0    0  0.11123580515E+01 -0.28822762732E+01 -0.10263254648E+02  0.10718173967E+02  0.51100000000E-03 0. -1.
        -11    1    4    4    0    0  0.10913383551E+02 -0.83127618455E+01 -0.18603799306E+02  0.23115044861E+02  0.51100000000E-03 0.  1.
         12    1    4    4    0    0 -0.13471458535E+02 -0.15163568928E+02  0.31977394693E+01  0.20533863626E+02  0.00000000000E+00 0. -1.
</event>
<event>
 8    1  0.1278459E-006  0.9118800E+02  0.7816164E-02  0.1184000E+00
        -11   -1    0    0    0    0  0.00000000000E+00  0.00000000000E+00  0.45593999997E+02  0.45594000000E+02  0.51100000000E-03 0.  1.
         11   -1    0    0    0    0 -0.00000000000E+00 -0.00000000000E+00 -0.45593999997E+02  0.45594000000E+02  0.51100000000E-03 0. -1.
         23    2    1    2    0    0 -0.15543122345E-14  0.00000000000E+00  0.00000000000E+00  0.91188000000E+02  0.91188000000E+02 0.  0.
    9900012    2    3    3    0    0  0.84451436264E+00  0.89301692929E+01  0.35711570204E+02  0.54367117684E+02  0.40000076383E+02 0.  0.
         12    1    3    3    0    0 -0.84451436264E+00 -0.89301692929E+01 -0.35711570204E+02  0.36820882316E+02  0.00000000000E+00 0. -1.
         11    1    4    4    0    0 -0.10654505459E+02  0.34824766527E+00  0.26988580978E+01  0.10996526647E+02  0.51100000000E-03 0. -1.
        -11    1    4    4    0    0 -0.64493036081E+01  0.35720262097E+01  0.28259418894E+01  0.78954946708E+01  0.51100000000E-03 0.  1.
        -12    1    4    4    0    0  0.17948323429E+02  0.50098954179E+01  0.30186770217E+02  0.35475096366E+02  0.00000000000E+00 0.  1.
</event>
<event>
 8    1  0.1278459E-006  0.9118800E+02  0.7816164E-02  0.1184000E+00
        -11   -1    0    0    0    0  0.00000000000E+00  0.00000000000E+00  0.45593999997E+02  0.45594000000E+02  0.51100000000E-03 0. -1.
         11   -1    0    0    0    0 -0.00000000000E+00 -0.00000000000E+00 -0.45593999997E+02  0.45594000000E+02  0.51100000000E-03 0.  1.
         23    2    1    2    0    0  0.00000000000E+00  0.88817841970E-15  0.71054273576E-14  0.91188000000E+02  0.91188000000E+02 0.  0.
    9900012    2    3    3    0    0 -0.16000335255E+02 -0.78404477522E+01 -0.32222594020E+02  0.54367096771E+02  0.40000028709E+02 0.  0.
         12    1    3    3    0    0  0.16000335255E+02  0.78404477522E+01  0.32222594020E+02  0.36820903229E+02  0.00000000000E+00 0. -1.
         11    1    4    4    0    0  0.15110240662E+01 -0.40029073574E+01 -0.30286011873E+00  0.42893106152E+01  0.51100000000E-03 0. -1.
        -11    1    4    4    0    0  0.23509998227E-01  0.92645046774E+01 -0.25704843756E+02  0.27323444007E+02  0.51100000000E-03 0.  1.
        -12    1    4    4    0    0 -0.17534869319E+02 -0.13102045072E+02 -0.62148901451E+01  0.22754342149E+02  0.00000000000E+00 0.  1.
</event>
<event>
 8    1  0.1278459E-006  0.9118800E+02  0.7816164E-02  0.1184000E+00
        -11   -1    0    0    0    0  0.00000000000E+00  0.00000000000E+00  0.45593999997E+02  0.45594000000E+02  0.51100000000E-03 0. -1.
         11   -1    0    0    0    0 -0.00000000000E+00 -0.00000000000E+00 -0.45593999997E+02  0.45594000000E+02  0.51100000000E-03 0.  1.
         23    2    1    2    0    0  0.71054273576E-14 -0.88817841970E-15  0.00000000000E+00  0.91188000000E+02  0.91188000000E+02 0.  0.
    9900012    2    3    3    0    0 -0.32907558803E+02  0.48952787073E+01  0.15776983369E+02  0.54367022498E+02  0.39999859388E+02 0.  0.
         12    1    3    3    0    0  0.32907558803E+02 -0.48952787073E+01 -0.15776983369E+02  0.36820977502E+02  0.00000000000E+00 0. -1.
         11    1    4    4    0    0 -0.38568287708E+01 -0.36220118737E+01 -0.54889898371E+01  0.76238512494E+01  0.51100000000E-03 0. -1.
        -11    1    4    4    0    0 -0.22289672334E+02  0.18363042713E+02  0.19047193020E+02  0.34595178749E+02  0.51100000000E-03 0.  1.
        -12    1    4    4    0    0 -0.67610576983E+01 -0.98457521323E+01  0.22187801858E+01  0.12147992499E+02  0.00000000000E+00 0.  1.
</event>
<event>
 8    1  0.1278459E-006  0.9118800E+02  0.7816164E-02  0.1184000E+00
        -11   -1    0    0    0    0  0.00000000000E+00  0.00000000000E+00  0.45593999997E+02  0.45594000000E+02  0.51100000000E-03 0. -1.
         11   -1    0    0    0    0 -0.00000000000E+00 -0.00000000000E+00 -0.45593999997E+02  0.45594000000E+02  0.51100000000E-03 0.  1.
         23    2    1    2    0    0  0.00000000000E+00  0.17763568394E-14  0.00000000000E+00  0.91188000000E+02  0.91188000000E+02 0.  0.
    9900012    2    3    3    0    0 -0.22110348878E+02 -0.62921263803E+01 -0.28763195487E+02  0.54367084795E+02  0.40000001408E+02 0.  0.
         12    1    3    3    0    0  0.22110348878E+02  0.62921263803E+01  0.28763195487E+02  0.36820915205E+02  0.00000000000E+00 0. -1.
         11    1    4    4    0    0 -0.62614318710E+01 -0.16005213862E+02 -0.90530570404E+01  0.19424990138E+02  0.51100000000E-03 0.  1.
        -11    1    4    4    0    0 -0.19263128793E+02  0.10023043574E+02 -0.21926835936E+02  0.30859612243E+02  0.51100000000E-03 0. -1.
         12    1    4    4    0    0  0.34142117868E+01 -0.30995609275E+00  0.22166974886E+01  0.40824824140E+01  0.00000000000E+00 0. -1.
</event>
<event>
 8    1  0.1278459E-006  0.9118800E+02  0.7816164E-02  0.1184000E+00
        -11   -1    0    0    0    0  0.00000000000E+00  0.00000000000E+00  0.45593999997E+02  0.45594000000E+02  0.51100000000E-03 0.  1.
         11   -1    0    0    0    0 -0.00000000000E+00 -0.00000000000E+00 -0.45593999997E+02  0.45594000000E+02  0.51100000000E-03 0. -1.
         23    2    1    2    0    0 -0.44408920985E-15  0.35527136788E-14  0.00000000000E+00  0.91188000000E+02  0.91188000000E+02 0.  0.
    9900012    2    3    3    0    0  0.26876822254E+01  0.18137286878E+02  0.31931088901E+02  0.54367092224E+02  0.40000018343E+02 0.  0.
         12    1    3    3    0    0 -0.26876822254E+01 -0.18137286878E+02 -0.31931088901E+02  0.36820907776E+02  0.00000000000E+00 0. -1.
         11    1    4    4    0    0 -0.12539664267E+02  0.34336409803E+01 -0.19281416592E+01  0.13143469893E+02  0.51100000000E-03 0. -1.
        -11    1    4    4    0    0  0.76159747708E+01  0.47480095515E+01  0.22825764887E+02  0.24526765163E+02  0.51100000000E-03 0.  1.
         12    1    4    4    0    0  0.76113717214E+01  0.99556363464E+01  0.11033465673E+02  0.16696857168E+02  0.00000000000E+00 0. -1.
</event>
<event>
 8    1  0.1278459E-006  0.9118800E+02  0.7816164E-02  0.1184000E+00
        -11   -1    0    0    0    0  0.00000000000E+00  0.00000000000E+00  0.45593999997E+02  0.45594000000E+02  0.51100000000E-03 0.  1.
         11   -1    0    0    0    0 -0.00000000000E+00 -0.00000000000E+00 -0.45593999997E+02  0.45594000000E+02  0.51100000000E-03 0. -1.
         23    2    1    2    0    0  0.00000000000E+00 -0.88817841970E-15  0.17763568394E-14  0.91188000000E+02  0.91188000000E+02 0.  0.
    9900012    2    3    3    0    0  0.34756581445E+02  0.77999588832E+01  0.93230622301E+01  0.54367098304E+02  0.40000032204E+02 0.  0.
         12    1    3    3    0    0 -0.34756581445E+02 -0.77999588832E+01 -0.93230622301E+01  0.36820901696E+02  0.00000000000E+00 0. -1.
         11    1    4    4    0    0  0.16641635273E+02  0.25439762934E+01 -0.15470955184E+02  0.22864083068E+02  0.51100000000E-03 0. -1.
        -11    1    4    4    0    0  0.97597263631E+01  0.50113716624E+01  0.15670680729E+02  0.19129462601E+02  0.51100000000E-03 0.  1.
         12    1    4    4    0    0  0.83552198090E+01  0.24461092739E+00  0.91233366854E+01  0.12373552636E+02  0.00000000000E+00 0. -1.
</event>
<event>
 8    1  0.1278459E-006  0.9118800E+02  0.7816164E-02  0.1184000E+00
        -11   -1    0    0    0    0  0.00000000000E+00  0.00000000000E+00  0.45593999997E+02  0.45594000000E+02  0.51100000000E-03 0. -1.
         11   -1    0    0    0    0 -0.00000000000E+00 -0.00000000000E+00 -0.45593999997E+02  0.45594000000E+02  0.51100000000E-03 0.  1.
         23    2    1    2    0    0 -0.35527136788E-14 -0.17763568394E-14  0.35527136788E-14  0.91188000000E+02  0.91188000000E+02 0.  0.
    9900012    2    3    3    0    0  0.27862378066E+02 -0.77038209181E+01  0.22806122947E+02  0.54367079152E+02  0.39999988543E+02 0.  0.
        -12    1    3    3    0    0 -0.27862378066E+02  0.77038209181E+01 -0.22806122947E+02  0.36820920848E+02  0.00000000000E+00 0.  1.
         11    1    4    4    0    0  0.37371370056E+02 -0.22921161959E+01  0.15601769257E+02  0.40562153552E+02  0.51100000000E-03 0. -1.
        -11    1    4    4    0    0 -0.42852454219E+01 -0.25772243409E+01  0.58747509492E+01  0.77147982868E+01  0.51100000000E-03 0.  1.
        -12    1    4    4    0    0 -0.52237465690E+01 -0.28344803812E+01  0.13296027413E+01  0.60901273138E+01  0.00000000000E+00 0.  1.
</event>
<event>
 8    1  0.1278459E-006  0.9118800E+02  0.7816164E-02  0.1184000E+00
        -11   -1    0    0    0    0  0.00000000000E+00  0.00000000000E+00  0.45593999997E+02  0.45594000000E+02  0.51100000000E-03 0.  1.
         11   -1    0    0    0    0 -0.00000000000E+00 -0.00000000000E+00 -0.45593999997E+02  0.45594000000E+02  0.51100000000E-03 0. -1.
         23    2    1    2    0    0 -0.17763568394E-14 -0.17763568394E-14  0.00000000000E+00  0.91188000000E+02  0.91188000000E+02 0.  0.
    9900012    2    3    3    0    0 -0.14831436807E+02 -0.12266181779E+02 -0.31390268299E+02  0.54367086417E+02  0.40000005106E+02 0.  0.
        -12    1    3    3    0    0  0.14831436807E+02  0.12266181779E+02  0.31390268299E+02  0.36820913583E+02  0.00000000000E+00 0.  1.
         11    1    4    4    0    0 -0.43598360657E+01 -0.24201350468E+02 -0.93141171349E+01  0.26295747056E+02  0.51100000000E-03 0. -1.
        -11    1    4    4    0    0 -0.69348458037E+01  0.86119804186E+01 -0.94517665198E+01  0.14546277313E+02  0.51100000000E-03 0.  1.
         12    1    4    4    0    0 -0.35367549377E+01  0.33231882702E+01 -0.12624384644E+02  0.13525062048E+02  0.00000000000E+00 0. -1.
</event>
<event>
 8    1  0.1278459E-006  0.9118800E+02  0.7816164E-02  0.1184000E+00
        -11   -1    0    0    0    0  0.00000000000E+00  0.00000000000E+00  0.45593999997E+02  0.45594000000E+02  0.51100000000E-03 0.  1.
         11   -1    0    0    0    0 -0.00000000000E+00 -0.00000000000E+00 -0.45593999997E+02  0.45594000000E+02  0.51100000000E-03 0. -1.
         23    2    1    2    0    0  0.00000000000E+00  0.00000000000E+00  0.17763568394E-14  0.91188000000E+02  0.91188000000E+02 0.  0.
    9900012    2    3    3    0    0 -0.85935263380E+01 -0.32445024916E+02 -0.15141092460E+02  0.54367068213E+02  0.39999963606E+02 0.  0.
        -12    1    3    3    0    0  0.85935263380E+01  0.32445024916E+02  0.15141092460E+02  0.36820931787E+02  0.00000000000E+00 0.  1.
         11    1    4    4    0    0  0.10773649351E+02 -0.21169971732E+02 -0.15377030246E+02  0.28296506550E+02  0.51100000000E-03 0.  1.
        -11    1    4    4    0    0 -0.20709638670E+02 -0.10877851159E+02 -0.19510139703E+01  0.23473884116E+02  0.51100000000E-03 0. -1.
        -12    1    4    4    0    0  0.13424629815E+01 -0.39720202467E+00  0.21869517560E+01  0.25966775480E+01  0.00000000000E+00 0.  1.
</event>
<event>
 8    1  0.1278459E-006  0.9118800E+02  0.7816164E-02  0.1184000E+00
        -11   -1    0    0    0    0  0.00000000000E+00  0.00000000000E+00  0.45593999997E+02  0.45594000000E+02  0.51100000000E-03 0.  1.
         11   -1    0    0    0    0 -0.00000000000E+00 -0.00000000000E+00 -0.45593999997E+02  0.45594000000E+02  0.51100000000E-03 0. -1.
         23    2    1    2    0    0  0.44408920985E-15  0.00000000000E+00  0.00000000000E+00  0.91188000000E+02  0.91188000000E+02 0.  0.
    9900012    2    3    3    0    0 -0.31596448307E+01  0.18609331059E+02 -0.31614703669E+02  0.54367081407E+02  0.39999993685E+02 0.  0.
        -12    1    3    3    0    0  0.31596448307E+01 -0.18609331059E+02  0.31614703669E+02  0.36820918593E+02  0.00000000000E+00 0.  1.
         11    1    4    4    0    0 -0.11016203868E+02  0.17142203658E+02 -0.97280010496E+01  0.22579767461E+02  0.51100000000E-03 0.  1.
        -11    1    4    4    0    0  0.14849416648E+02 -0.16294510780E+01 -0.11318469691E+02  0.18742146142E+02  0.51100000000E-03 0. -1.
         12    1    4    4    0    0 -0.69928576102E+01  0.30965784796E+01 -0.10568232928E+02  0.13045167805E+02  0.00000000000E+00 0. -1.
</event>
<event>
 8    1  0.1278459E-006  0.9118800E+02  0.7816164E-02  0.1184000E+00
        -11   -1    0    0    0    0  0.00000000000E+00  0.00000000000E+00  0.45593999997E+02  0.45594000000E+02  0.51100000000E-03 0.  1.
         11   -1    0    0    0    0 -0.00000000000E+00 -0.00000000000E+00 -0.45593999997E+02  0.45594000000E+02  0.51100000000E-03 0. -1.
         23    2    1    2    0    0 -0.35527136788E-14  0.00000000000E+00  0.35527136788E-14  0.91188000000E+02  0.91188000000E+02 0.  0.
    9900012    2    3    3    0    0  0.27831021895E+02  0.14408891068E+02 -0.19328697338E+02  0.54367075754E+02  0.39999980796E+02 0.  0.
        -12    1    3    3    0    0 -0.27831021895E+02 -0.14408891068E+02  0.19328697338E+02  0.36820924246E+02  0.00000000000E+00 0.  1.
         11    1    4    4    0    0  0.12556864283E+02  0.11007190305E+02  0.95184560765E+00  0.16725402517E+02  0.51100000000E-03 0. -1.
        -11    1    4    4    0    0  0.21896072234E+02 -0.33476646268E+01 -0.12782232542E+02  0.25574016243E+02  0.51100000000E-03 0.  1.
         12    1    4    4    0    0 -0.66219146223E+01  0.67493653901E+01 -0.74983104032E+01  0.12067656995E+02  0.00000000000E+00 0. -1.
</event>
<event>
 8    1  0.1278459E-006  0.9118800E+02  0.7816164E-02  0.1184000E+00
        -11   -1    0    0    0    0  0.00000000000E+00  0.00000000000E+00  0.45593999997E+02  0.45594000000E+02  0.51100000000E-03 0.  1.
         11   -1    0    0    0    0 -0.00000000000E+00 -0.00000000000E+00 -0.45593999997E+02  0.45594000000E+02  0.51100000000E-03 0. -1.
         23    2    1    2    0    0  0.00000000000E+00  0.00000000000E+00  0.00000000000E+00  0.91188000000E+02  0.91188000000E+02 0.  0.
    9900012    2    3    3    0    0 -0.28118000374E+02 -0.18497620207E+02 -0.14933070782E+02  0.54367075224E+02  0.39999979589E+02 0.  0.
        -12    1    3    3    0    0  0.28118000374E+02  0.18497620207E+02  0.14933070782E+02  0.36820924776E+02  0.00000000000E+00 0.  1.
         11    1    4    4    0    0 -0.10497162753E+02 -0.59895985181E-01 -0.99647865840E+01  0.14473803416E+02  0.51100000000E-03 0. -1.
        -11    1    4    4    0    0 -0.26238608563E+02 -0.13927160454E+02 -0.52315504204E+01  0.30162882782E+02  0.51100000000E-03 0.  1.
        -12    1    4    4    0    0  0.86177709418E+01 -0.45105637684E+01  0.26326622267E+00  0.97303890271E+01  0.00000000000E+00 0.  1.
</event>
<event>
 8    1  0.1278459E-006  0.9118800E+02  0.7816164E-02  0.1184000E+00
        -11   -1    0    0    0    0  0.00000000000E+00  0.00000000000E+00  0.45593999997E+02  0.45594000000E+02  0.51100000000E-03 0.  1.
         11   -1    0    0    0    0 -0.00000000000E+00 -0.00000000000E+00 -0.45593999997E+02  0.45594000000E+02  0.51100000000E-03 0. -1.
         23    2    1    2    0    0  0.00000000000E+00  0.00000000000E+00 -0.35527136788E-14  0.91188000000E+02  0.91188000000E+02 0.  0.
    9900012    2    3    3    0    0  0.23494317413E+02  0.19332427070E+02 -0.20737743091E+02  0.54367086437E+02  0.40000005150E+02 0.  0.
        -12    1    3    3    0    0 -0.23494317413E+02 -0.19332427070E+02  0.20737743091E+02  0.36820913563E+02  0.00000000000E+00 0.  1.
         11    1    4    4    0    0  0.83701406164E+00 -0.56157359313E+01  0.24510088145E-01  0.56778238433E+01  0.51100000000E-03 0. -1.
        -11    1    4    4    0    0  0.19876047233E+02  0.25677822162E+02 -0.26734313735E+02  0.42061042970E+02  0.51100000000E-03 0.  1.
        -12    1    4    4    0    0  0.27812561183E+01 -0.72965916118E+00  0.59720605561E+01  0.66282196232E+01  0.00000000000E+00 0.  1.
</event>
<event>
 8    1  0.1278459E-006  0.9118800E+02  0.7816164E-02  0.1184000E+00
        -11   -1    0    0    0    0  0.00000000000E+00  0.00000000000E+00  0.45593999997E+02  0.45594000000E+02  0.51100000000E-03 0.  1.
         11   -1    0    0    0    0 -0.00000000000E+00 -0.00000000000E+00 -0.45593999997E+02  0.45594000000E+02  0.51100000000E-03 0. -1.
         23    2    1    2    0    0 -0.88817841970E-15 -0.44408920985E-15  0.00000000000E+00  0.91188000000E+02  0.91188000000E+02 0.  0.
    9900012    2    3    3    0    0  0.57774049043E+01 -0.39654117835E+01 -0.36147981934E+02  0.54367088877E+02  0.40000010713E+02 0.  0.
        -12    1    3    3    0    0 -0.57774049043E+01  0.39654117835E+01  0.36147981934E+02  0.36820911123E+02  0.00000000000E+00 0.  1.
         11    1    4    4    0    0 -0.99125006124E+01  0.37731210650E+01 -0.25432130997E+02  0.27555170082E+02  0.51100000000E-03 0. -1.
        -11    1    4    4    0    0 -0.32821567301E+01  0.13188875106E+01 -0.11986520197E+01  0.37348070889E+01  0.51100000000E-03 0.  1.
         12    1    4    4    0    0  0.18972062247E+02 -0.90574203591E+01 -0.95171989175E+01  0.23077111706E+02  0.00000000000E+00 0. -1.
</event>
<event>
 8    1  0.1278459E-006  0.9118800E+02  0.7816164E-02  0.1184000E+00
        -11   -1    0    0    0    0  0.00000000000E+00  0.00000000000E+00  0.45593999997E+02  0.45594000000E+02  0.51100000000E-03 0. -1.
         11   -1    0    0    0    0 -0.00000000000E+00 -0.00000000000E+00 -0.45593999997E+02  0.45594000000E+02  0.51100000000E-03 0.  1.
         23    2    1    2    0    0  0.00000000000E+00  0.00000000000E+00  0.00000000000E+00  0.91188000000E+02  0.91188000000E+02 0.  0.
    9900012    2    3    3    0    0  0.18778044923E+02 -0.22641820909E+02 -0.22147522390E+02  0.54367085112E+02  0.40000002129E+02 0.  0.
         12    1    3    3    0    0 -0.18778044923E+02  0.22641820909E+02  0.22147522390E+02  0.36820914888E+02  0.00000000000E+00 0. -1.
         11    1    4    4    0    0 -0.91100591444E+00  0.60894644755E+01  0.24705918451E+01  0.66344053013E+01  0.51100000000E-03 0. -1.
        -11    1    4    4    0    0  0.17561866615E+02 -0.85403271825E+01 -0.66757404830E+01  0.20637874373E+02  0.51100000000E-03 0.  1.
        -12    1    4    4    0    0  0.21271842231E+01 -0.20190958202E+02 -0.17942373752E+02  0.27094805437E+02  0.00000000000E+00 0.  1.
</event>
<event>
 8    1  0.1278459E-006  0.9118800E+02  0.7816164E-02  0.1184000E+00
        -11   -1    0    0    0    0  0.00000000000E+00  0.00000000000E+00  0.45593999997E+02  0.45594000000E+02  0.51100000000E-03 0.  1.
         11   -1    0    0    0    0 -0.00000000000E+00 -0.00000000000E+00 -0.45593999997E+02  0.45594000000E+02  0.51100000000E-03 0. -1.
         23    2    1    2    0    0  0.00000000000E+00  0.00000000000E+00  0.00000000000E+00  0.91188000000E+02  0.91188000000E+02 0.  0.
    9900012    2    3    3    0    0 -0.29212263467E+02  0.84003996372E+01 -0.20781212498E+02  0.54367056995E+02  0.39999938031E+02 0.  0.
        -12    1    3    3    0    0  0.29212263467E+02 -0.84003996372E+01  0.20781212498E+02  0.36820943005E+02  0.00000000000E+00 0.  1.
         11    1    4    4    0    0 -0.84231431597E+01 -0.49622544510E+01 -0.70630487151E+01  0.12060678560E+02  0.51100000000E-03 0. -1.
        -11    1    4    4    0    0 -0.23214179672E+02  0.20990569312E+02 -0.14026257576E+02  0.34296326913E+02  0.51100000000E-03 0.  1.
        -12    1    4    4    0    0  0.24250593652E+01 -0.76279152236E+01  0.30809379301E+00  0.80100515209E+01  0.00000000000E+00 0.  1.
</event>
<event>
 8    1  0.1278459E-006  0.9118800E+02  0.7816164E-02  0.1184000E+00
        -11   -1    0    0    0    0  0.00000000000E+00  0.00000000000E+00  0.45593999997E+02  0.45594000000E+02  0.51100000000E-03 0.  1.
         11   -1    0    0    0    0 -0.00000000000E+00 -0.00000000000E+00 -0.45593999997E+02  0.45594000000E+02  0.51100000000E-03 0. -1.
         23    2    1    2    0    0  0.35527136788E-14  0.00000000000E+00 -0.35527136788E-14  0.91188000000E+02  0.91188000000E+02 0.  0.
    9900012    2    3    3    0    0  0.23035063741E+02  0.75381474750E+01  0.27718987326E+02  0.54367080847E+02  0.39999992407E+02 0.  0.
         12    1    3    3    0    0 -0.23035063741E+02 -0.75381474750E+01 -0.27718987326E+02  0.36820919153E+02  0.00000000000E+00 0. -1.
         11    1    4    4    0    0 -0.17372634208E+01  0.54453165366E+01  0.14379361358E+02  0.15473706398E+02  0.51100000000E-03 0. -1.
        -11    1    4    4    0    0 -0.18036953799E+01 -0.72279017045E+01  0.65588973971E+01  0.99254730567E+01  0.51100000000E-03 0.  1.
         12    1    4    4    0    0  0.26576022541E+02  0.93207326430E+01  0.67807285708E+01  0.28967901392E+02  0.00000000000E+00 0. -1.
</event>
<event>
 8    1  0.1278459E-006  0.9118800E+02  0.7816164E-02  0.1184000E+00
        -11   -1    0    0    0    0  0.00000000000E+00  0.00000000000E+00  0.45593999997E+02  0.45594000000E+02  0.51100000000E-03 0.  1.
         11   -1    0    0    0    0 -0.00000000000E+00 -0.00000000000E+00 -0.45593999997E+02  0.45594000000E+02  0.51100000000E-03 0. -1.
         23    2    1    2    0    0  0.44408920985E-15  0.71054273576E-14  0.00000000000E+00  0.91188000000E+02  0.91188000000E+02 0.  0.
    9900012    2    3    3    0    0 -0.33601279883E+01 -0.33396883410E+02 -0.15136856450E+02  0.54367262571E+02  0.40000406681E+02 0.  0.
         12    1    3    3    0    0  0.33601279883E+01  0.33396883410E+02  0.15136856450E+02  0.36820737429E+02  0.00000000000E+00 0. -1.
         11    1    4    4    0    0  0.16435741783E+01 -0.20125715271E+01  0.84052370021E+01  0.87977150189E+01  0.51100000000E-03 0.  1.
        -11    1    4    4    0    0 -0.63677659965E+01 -0.11627540349E+01  0.10815534604E+01  0.65627889560E+01  0.51100000000E-03 0. -1.
        -12    1    4    4    0    0  0.13640638299E+01 -0.30221557848E+02 -0.24623646912E+02  0.39006758596E+02  0.00000000000E+00 0.  1.
</event>
<event>
 8    1  0.1278459E-006  0.9118800E+02  0.7816164E-02  0.1184000E+00
        -11   -1    0    0    0    0  0.00000000000E+00  0.00000000000E+00  0.45593999997E+02  0.45594000000E+02  0.51100000000E-03 0. -1.
         11   -1    0    0    0    0 -0.00000000000E+00 -0.00000000000E+00 -0.45593999997E+02  0.45594000000E+02  0.51100000000E-03 0.  1.
         23    2    1    2    0    0  0.00000000000E+00  0.00000000000E+00  0.35527136788E-14  0.91188000000E+02  0.91188000000E+02 0.  0.
    9900012    2    3    3    0    0  0.10368027710E+02  0.18429173884E+02  0.30143809005E+02  0.54367086514E+02  0.40000005326E+02 0.  0.
        -12    1    3    3    0    0 -0.10368027710E+02 -0.18429173884E+02 -0.30143809005E+02  0.36820913486E+02  0.00000000000E+00 0.  1.
         11    1    4    4    0    0  0.15233728048E+02 -0.38802880106E+01  0.10749520896E+02  0.19044035944E+02  0.51100000000E-03 0. -1.
        -11    1    4    4    0    0  0.10170575555E+01 -0.29296253605E+01  0.26576752868E+00  0.31125140103E+01  0.51100000000E-03 0.  1.
         12    1    4    4    0    0 -0.58827578932E+01  0.25239087255E+02  0.19128520580E+02  0.32210536560E+02  0.00000000000E+00 0. -1.
</event>
<event>
 8    1  0.1278459E-006  0.9118800E+02  0.7816164E-02  0.1184000E+00
        -11   -1    0    0    0    0  0.00000000000E+00  0.00000000000E+00  0.45593999997E+02  0.45594000000E+02  0.51100000000E-03 0. -1.
         11   -1    0    0    0    0 -0.00000000000E+00 -0.00000000000E+00 -0.45593999997E+02  0.45594000000E+02  0.51100000000E-03 0.  1.
         23    2    1    2    0    0  0.17763568394E-14  0.00000000000E+00  0.00000000000E+00  0.91188000000E+02  0.91188000000E+02 0.  0.
    9900012    2    3    3    0    0  0.15221395064E+02 -0.89302134392E+01  0.32316262052E+02  0.54367076970E+02  0.39999983569E+02 0.  0.
        -12    1    3    3    0    0 -0.15221395064E+02  0.89302134392E+01 -0.32316262052E+02  0.36820923030E+02  0.00000000000E+00 0.  1.
         11    1    4    4    0    0  0.46521258077E+01  0.21829900015E+01  0.10448501351E+02  0.11643835305E+02  0.51100000000E-03 0. -1.
        -11    1    4    4    0    0  0.16517241079E+02  0.11352166192E+01 -0.46971842002E+00  0.16562868268E+02  0.51100000000E-03 0.  1.
         12    1    4    4    0    0 -0.59479718227E+01 -0.12248420060E+02  0.22337479121E+02  0.26160373396E+02  0.00000000000E+00 0. -1.
</event>
<event>
 8    1  0.1278459E-006  0.9118800E+02  0.7816164E-02  0.1184000E+00
        -11   -1    0    0    0    0  0.00000000000E+00  0.00000000000E+00  0.45593999997E+02  0.45594000000E+02  0.51100000000E-03 0.  1.
         11   -1    0    0    0    0 -0.00000000000E+00 -0.00000000000E+00 -0.45593999997E+02  0.45594000000E+02  0.51100000000E-03 0. -1.
         23    2    1    2    0    0  0.00000000000E+00 -0.22204460493E-15  0.00000000000E+00  0.91188000000E+02  0.91188000000E+02 0.  0.
    9900012    2    3    3    0    0  0.15582833759E+02  0.18814014981E+01  0.33307891241E+02  0.54367082053E+02  0.39999995156E+02 0.  0.
         12    1    3    3    0    0 -0.15582833759E+02 -0.18814014981E+01 -0.33307891241E+02  0.36820917947E+02  0.00000000000E+00 0. -1.
         11    1    4    4    0    0  0.20467428369E+01  0.15970458219E+01  0.34308506591E+02  0.34406588560E+02  0.51100000000E-03 0. -1.
        -11    1    4    4    0    0  0.13451294291E+02  0.45735871964E+01  0.24970078195E+01  0.14425327249E+02  0.51100000000E-03 0.  1.
         12    1    4    4    0    0  0.84796631937E-01 -0.42892315202E+01 -0.34976231700E+01  0.55351662434E+01  0.00000000000E+00 0. -1.
</event>
<event>
 8    1  0.1278459E-006  0.9118800E+02  0.7816164E-02  0.1184000E+00
        -11   -1    0    0    0    0  0.00000000000E+00  0.00000000000E+00  0.45593999997E+02  0.45594000000E+02  0.51100000000E-03 0. -1.
         11   -1    0    0    0    0 -0.00000000000E+00 -0.00000000000E+00 -0.45593999997E+02  0.45594000000E+02  0.51100000000E-03 0.  1.
         23    2    1    2    0    0 -0.17763568394E-14 -0.71054273576E-14  0.00000000000E+00  0.91188000000E+02  0.91188000000E+02 0.  0.
    9900012    2    3    3    0    0 -0.13217846871E+02 -0.26717809077E+02 -0.21615408049E+02  0.54367100189E+02  0.40000036502E+02 0.  0.
         12    1    3    3    0    0  0.13217846871E+02  0.26717809077E+02  0.21615408049E+02  0.36820899811E+02  0.00000000000E+00 0. -1.
         11    1    4    4    0    0  0.19563221645E+01  0.47012723731E+01  0.17647436746E+01  0.53892002037E+01  0.51100000000E-03 0. -1.
        -11    1    4    4    0    0 -0.12483462613E+02 -0.12508138348E+02  0.13575651506E+01  0.17723807355E+02  0.51100000000E-03 0.  1.
        -12    1    4    4    0    0 -0.26907064219E+01 -0.18910943102E+02 -0.24737716874E+02  0.31254092631E+02  0.00000000000E+00 0.  1.
</event>
<event>
 8    1  0.1278459E-006  0.9118800E+02  0.7816164E-02  0.1184000E+00
        -11   -1    0    0    0    0  0.00000000000E+00  0.00000000000E+00  0.45593999997E+02  0.45594000000E+02  0.51100000000E-03 0.  1.
         11   -1    0    0    0    0 -0.00000000000E+00 -0.00000000000E+00 -0.45593999997E+02  0.45594000000E+02  0.51100000000E-03 0. -1.
         23    2    1    2    0    0 -0.22204460493E-14  0.00000000000E+00  0.00000000000E+00  0.91188000000E+02  0.91188000000E+02 0.  0.
    9900012    2    3    3    0    0  0.55008864513E+00  0.28859734697E+02 -0.22860229275E+02  0.54367123221E+02  0.40000089006E+02 0.  0.
        -12    1    3    3    0    0 -0.55008864513E+00 -0.28859734697E+02  0.22860229275E+02  0.36820876779E+02  0.00000000000E+00 0.  1.
         11    1    4    4    0    0  0.27247007681E+01  0.84401614188E+01 -0.11719544749E+02  0.14697212267E+02  0.51100000000E-03 0. -1.
        -11    1    4    4    0    0 -0.12925640724E+02  0.23130959745E+02 -0.49002208052E+01  0.26946718744E+02  0.51100000000E-03 0.  1.
        -12    1    4    4    0    0  0.10751028601E+02 -0.27113864666E+01 -0.62404637207E+01  0.12723192209E+02  0.00000000000E+00 0.  1.
</event>
<event>
 8    1  0.1278459E-006  0.9118800E+02  0.7816164E-02  0.1184000E+00
        -11   -1    0    0    0    0  0.00000000000E+00  0.00000000000E+00  0.45593999997E+02  0.45594000000E+02  0.51100000000E-03 0. -1.
         11   -1    0    0    0    0 -0.00000000000E+00 -0.00000000000E+00 -0.45593999997E+02  0.45594000000E+02  0.51100000000E-03 0.  1.
         23    2    1    2    0    0 -0.35527136788E-14 -0.17763568394E-14 -0.35527136788E-14  0.91188000000E+02  0.91188000000E+02 0.  0.
    9900012    2    3    3    0    0  0.25714957952E+02 -0.13495793312E+02  0.22635931396E+02  0.54367069950E+02  0.39999967565E+02 0.  0.
        -12    1    3    3    0    0 -0.25714957952E+02  0.13495793312E+02 -0.22635931396E+02  0.36820930050E+02  0.00000000000E+00 0.  1.
         11    1    4    4    0    0  0.11732369941E+02 -0.23498403804E+02  0.16822834969E+02  0.31190243064E+02  0.51100000000E-03 0. -1.
        -11    1    4    4    0    0  0.98877760828E+00  0.35951275594E+01 -0.41613953401E+01  0.55874712317E+01  0.51100000000E-03 0.  1.
        -12    1    4    4    0    0  0.12993810403E+02  0.64074829326E+01  0.99744917676E+01  0.17589355654E+02  0.00000000000E+00 0.  1.
</event>
<event>
 8    1  0.1278459E-006  0.9118800E+02  0.7816164E-02  0.1184000E+00
        -11   -1    0    0    0    0  0.00000000000E+00  0.00000000000E+00  0.45593999997E+02  0.45594000000E+02  0.51100000000E-03 0.  1.
         11   -1    0    0    0    0 -0.00000000000E+00 -0.00000000000E+00 -0.45593999997E+02  0.45594000000E+02  0.51100000000E-03 0. -1.
         23    2    1    2    0    0 -0.35527136788E-14  0.00000000000E+00  0.00000000000E+00  0.91188000000E+02  0.91188000000E+02 0.  0.
    9900012    2    3    3    0    0 -0.27343379320E+02 -0.68465424421E+01  0.23690804224E+02  0.54366949759E+02  0.39999693565E+02 0.  0.
         12    1    3    3    0    0  0.27343379320E+02  0.68465424421E+01 -0.23690804224E+02  0.36821050241E+02  0.00000000000E+00 0. -1.
         11    1    4    4    0    0 -0.52082096582E+01  0.17467228824E+01 -0.52804112954E+01  0.76196609099E+01  0.51100000000E-03 0. -1.
        -11    1    4    4    0    0 -0.23821219040E+02 -0.43481070333E+00  0.30047725565E+02  0.38347168720E+02  0.51100000000E-03 0.  1.
        -12    1    4    4    0    0  0.16860493787E+01 -0.81584546211E+01 -0.10765100459E+01  0.84001201296E+01  0.00000000000E+00 0.  1.
</event>
<event>
 8    1  0.1278459E-006  0.9118800E+02  0.7816164E-02  0.1184000E+00
        -11   -1    0    0    0    0  0.00000000000E+00  0.00000000000E+00  0.45593999997E+02  0.45594000000E+02  0.51100000000E-03 0. -1.
         11   -1    0    0    0    0 -0.00000000000E+00 -0.00000000000E+00 -0.45593999997E+02  0.45594000000E+02  0.51100000000E-03 0.  1.
         23    2    1    2    0    0  0.13322676296E-14  0.17763568394E-14 -0.71054273576E-14  0.91188000000E+02  0.91188000000E+02 0.  0.
    9900012    2    3    3    0    0  0.34003020975E+01 -0.15250178367E+02  0.33341391001E+02  0.54367104458E+02  0.40000046233E+02 0.  0.
        -12    1    3    3    0    0 -0.34003020975E+01  0.15250178367E+02 -0.33341391001E+02  0.36820895542E+02  0.00000000000E+00 0.  1.
         11    1    4    4    0    0  0.80733562201E+01 -0.69833662714E+01  0.35407077590E+01  0.11246470417E+02  0.51100000000E-03 0. -1.
        -11    1    4    4    0    0 -0.25727224126E+00 -0.59600468046E+01 -0.51107902535E+01  0.78554773372E+01  0.51100000000E-03 0.  1.
         12    1    4    4    0    0 -0.44157818813E+01 -0.23067652914E+01  0.34911473496E+02  0.35265156704E+02  0.00000000000E+00 0. -1.
</event>
<event>
 8    1  0.1278459E-006  0.9118800E+02  0.7816164E-02  0.1184000E+00
        -11   -1    0    0    0    0  0.00000000000E+00  0.00000000000E+00  0.45593999997E+02  0.45594000000E+02  0.51100000000E-03 0.  1.
         11   -1    0    0    0    0 -0.00000000000E+00 -0.00000000000E+00 -0.45593999997E+02  0.45594000000E+02  0.51100000000E-03 0. -1.
         23    2    1    2    0    0  0.00000000000E+00  0.00000000000E+00  0.00000000000E+00  0.91188000000E+02  0.91188000000E+02 0.  0.
    9900012    2    3    3    0    0 -0.15806972586E+02  0.88404561576E+01 -0.32058790337E+02  0.54367080874E+02  0.39999992468E+02 0.  0.
        -12    1    3    3    0    0  0.15806972586E+02 -0.88404561576E+01  0.32058790337E+02  0.36820919126E+02  0.00000000000E+00 0.  1.
         11    1    4    4    0    0 -0.18915757693E+01  0.30148708184E+01 -0.82803746475E+01  0.90128857480E+01  0.51100000000E-03 0. -1.
        -11    1    4    4    0    0 -0.16293861725E+02  0.13333024460E+02 -0.80571041545E+00  0.21069139534E+02  0.51100000000E-03 0.  1.
        -12    1    4    4    0    0  0.23784649085E+01 -0.75074391206E+01 -0.22972705274E+02  0.24285055592E+02  0.00000000000E+00 0.  1.
</event>
<event>
 8    1  0.1278459E-006  0.9118800E+02  0.7816164E-02  0.1184000E+00
        -11   -1    0    0    0    0  0.00000000000E+00  0.00000000000E+00  0.45593999997E+02  0.45594000000E+02  0.51100000000E-03 0. -1.
         11   -1    0    0    0    0 -0.00000000000E+00 -0.00000000000E+00 -0.45593999997E+02  0.45594000000E+02  0.51100000000E-03 0.  1.
         23    2    1    2    0    0  0.00000000000E+00  0.35527136788E-14 -0.35527136788E-14  0.91188000000E+02  0.91188000000E+02 0.  0.
    9900012    2    3    3    0    0  0.15718150771E+02 -0.23011754261E+02  0.24066141787E+02  0.54367078252E+02  0.39999986492E+02 0.  0.
        -12    1    3    3    0    0 -0.15718150771E+02  0.23011754261E+02 -0.24066141787E+02  0.36820921748E+02  0.00000000000E+00 0.  1.
         11    1    4    4    0    0  0.23584194085E+02 -0.19062719544E+02  0.64590996989E+01  0.31005184344E+02  0.51100000000E-03 0. -1.
        -11    1    4    4    0    0 -0.10805272148E+02 -0.52509980678E+01  0.15033065765E+02  0.19243699058E+02  0.51100000000E-03 0.  1.
         12    1    4    4    0    0  0.29392288339E+01  0.13019633514E+01  0.25739763237E+01  0.41181948498E+01  0.00000000000E+00 0. -1.
</event>
<event>
 8    1  0.1278459E-006  0.9118800E+02  0.7816164E-02  0.1184000E+00
        -11   -1    0    0    0    0  0.00000000000E+00  0.00000000000E+00  0.45593999997E+02  0.45594000000E+02  0.51100000000E-03 0.  1.
         11   -1    0    0    0    0 -0.00000000000E+00 -0.00000000000E+00 -0.45593999997E+02  0.45594000000E+02  0.51100000000E-03 0. -1.
         23    2    1    2    0    0  0.00000000000E+00  0.35527136788E-14 -0.35527136788E-14  0.91188000000E+02  0.91188000000E+02 0.  0.
    9900012    2    3    3    0    0  0.10436509801E+02 -0.19427533347E+02  0.29486079178E+02  0.54367100309E+02  0.40000036774E+02 0.  0.
         12    1    3    3    0    0 -0.10436509801E+02  0.19427533347E+02 -0.29486079178E+02  0.36820899691E+02  0.00000000000E+00 0. -1.
         11    1    4    4    0    0 -0.11814237481E+01  0.75680073752E+01 -0.15411216952E+01  0.78131654305E+01  0.51100000000E-03 0. -1.
        -11    1    4    4    0    0  0.80401045227E+00 -0.22358543812E+02  0.16184112576E+02  0.27612975470E+02  0.51100000000E-03 0.  1.
        -12    1    4    4    0    0  0.10813923096E+02 -0.46369969108E+01  0.14843088298E+02  0.18940959408E+02  0.00000000000E+00 0.  1.
</event>
<event>
 8    1  0.1278459E-006  0.9118800E+02  0.7816164E-02  0.1184000E+00
        -11   -1    0    0    0    0  0.00000000000E+00  0.00000000000E+00  0.45593999997E+02  0.45594000000E+02  0.51100000000E-03 0.  1.
         11   -1    0    0    0    0 -0.00000000000E+00 -0.00000000000E+00 -0.45593999997E+02  0.45594000000E+02  0.51100000000E-03 0. -1.
         23    2    1    2    0    0  0.00000000000E+00 -0.35527136788E-14 -0.44408920985E-15  0.91188000000E+02  0.91188000000E+02 0.  0.
    9900012    2    3    3    0    0 -0.29293648310E+02 -0.22173859844E+02 -0.24457184232E+01  0.54367089769E+02  0.40000012745E+02 0.  0.
        -12    1    3    3    0    0  0.29293648310E+02  0.22173859844E+02  0.24457184232E+01  0.36820910231E+02  0.00000000000E+00 0.  1.
         11    1    4    4    0    0 -0.84717612970E+01 -0.14266462843E+01 -0.32137010681E+01  0.91724551735E+01  0.51100000000E-03 0. -1.
        -11    1    4    4    0    0  0.52699957592E+01 -0.16351295219E+02 -0.54328772745E+01  0.18018153800E+02  0.51100000000E-03 0.  1.
        -12    1    4    4    0    0 -0.26091882772E+02 -0.43959183407E+01  0.62008599194E+01  0.27176480795E+02  0.00000000000E+00 0.  1.
</event>
<event>
 8    1  0.1278459E-006  0.9118800E+02  0.7816164E-02  0.1184000E+00
        -11   -1    0    0    0    0  0.00000000000E+00  0.00000000000E+00  0.45593999997E+02  0.45594000000E+02  0.51100000000E-03 0.  1.
         11   -1    0    0    0    0 -0.00000000000E+00 -0.00000000000E+00 -0.45593999997E+02  0.45594000000E+02  0.51100000000E-03 0. -1.
         23    2    1    2    0    0  0.00000000000E+00  0.00000000000E+00  0.00000000000E+00  0.91188000000E+02  0.91188000000E+02 0.  0.
    9900012    2    3    3    0    0  0.13807192192E+02 -0.33441009822E+02  0.68439507533E+01  0.54367090777E+02  0.40000015044E+02 0.  0.
         12    1    3    3    0    0 -0.13807192192E+02  0.33441009822E+02 -0.68439507533E+01  0.36820909223E+02  0.00000000000E+00 0. -1.
         11    1    4    4    0    0  0.19221115678E+02 -0.31788222144E+02  0.10512606827E+01  0.37162447501E+02  0.51100000000E-03 0. -1.
        -11    1    4    4    0    0 -0.43913017130E+01 -0.76386564196E+01  0.66942203085E+01  0.11065495399E+02  0.51100000000E-03 0.  1.
         12    1    4    4    0    0 -0.10226217734E+01  0.59858687416E+01 -0.90153023796E+00  0.61391478768E+01  0.00000000000E+00 0. -1.
</event>
<event>
 8    1  0.1278459E-006  0.9118800E+02  0.7816164E-02  0.1184000E+00
        -11   -1    0    0    0    0  0.00000000000E+00  0.00000000000E+00  0.45593999997E+02  0.45594000000E+02  0.51100000000E-03 0.  1.
         11   -1    0    0    0    0 -0.00000000000E+00 -0.00000000000E+00 -0.45593999997E+02  0.45594000000E+02  0.51100000000E-03 0. -1.
         23    2    1    2    0    0  0.35527136788E-14 -0.17763568394E-14  0.00000000000E+00  0.91188000000E+02  0.91188000000E+02 0.  0.
    9900012    2    3    3    0    0  0.26585451503E+02 -0.12763804444E+02 -0.22047167271E+02  0.54367102127E+02  0.40000040918E+02 0.  0.
        -12    1    3    3    0    0 -0.26585451503E+02  0.12763804444E+02  0.22047167271E+02  0.36820897873E+02  0.00000000000E+00 0.  1.
         11    1    4    4    0    0  0.13348752451E+01 -0.74297457024E+01 -0.11433183999E+01  0.76348012644E+01  0.51100000000E-03 0. -1.
        -11    1    4    4    0    0  0.28188581102E+02 -0.12994018965E+02 -0.90785245023E+01  0.32339762535E+02  0.51100000000E-03 0.  1.
         12    1    4    4    0    0 -0.29380048438E+01  0.76599602233E+01 -0.11825324369E+02  0.14392538328E+02  0.00000000000E+00 0. -1.
</event>
<event>
 8    1  0.1278459E-006  0.9118800E+02  0.7816164E-02  0.1184000E+00
        -11   -1    0    0    0    0  0.00000000000E+00  0.00000000000E+00  0.45593999997E+02  0.45594000000E+02  0.51100000000E-03 0.  1.
         11   -1    0    0    0    0 -0.00000000000E+00 -0.00000000000E+00 -0.45593999997E+02  0.45594000000E+02  0.51100000000E-03 0. -1.
         23    2    1    2    0    0 -0.17763568394E-14  0.00000000000E+00  0.35527136788E-14  0.91188000000E+02  0.91188000000E+02 0.  0.
    9900012    2    3    3    0    0 -0.74226191458E+01  0.26298290859E+02 -0.24679649240E+02  0.54367075735E+02  0.39999980754E+02 0.  0.
        -12    1    3    3    0    0  0.74226191458E+01 -0.26298290859E+02  0.24679649240E+02  0.36820924265E+02  0.00000000000E+00 0.  1.
         11    1    4    4    0    0 -0.97537482640E+01  0.24104543069E+02 -0.30203517763E+02  0.39854950599E+02  0.51100000000E-03 0. -1.
        -11    1    4    4    0    0  0.56192347514E+00  0.56420858587E+01 -0.20296490386E+01  0.60223223353E+01  0.51100000000E-03 0.  1.
        -12    1    4    4    0    0  0.17692056431E+01 -0.34483380692E+01  0.75535175613E+01  0.84898028007E+01  0.00000000000E+00 0.  1.
</event>
<event>
 8    1  0.1278459E-006  0.9118800E+02  0.7816164E-02  0.1184000E+00
        -11   -1    0    0    0    0  0.00000000000E+00  0.00000000000E+00  0.45593999997E+02  0.45594000000E+02  0.51100000000E-03 0.  1.
         11   -1    0    0    0    0 -0.00000000000E+00 -0.00000000000E+00 -0.45593999997E+02  0.45594000000E+02  0.51100000000E-03 0. -1.
         23    2    1    2    0    0  0.35527136788E-14 -0.35527136788E-14 -0.17763568394E-14  0.91188000000E+02  0.91188000000E+02 0.  0.
    9900012    2    3    3    0    0 -0.19911252747E+02  0.28527930960E+02  0.12061519827E+02  0.54367067212E+02  0.39999961324E+02 0.  0.
        -12    1    3    3    0    0  0.19911252747E+02 -0.28527930960E+02 -0.12061519827E+02  0.36820932788E+02  0.00000000000E+00 0.  1.
         11    1    4    4    0    0  0.37119639268E+01  0.16915673013E+02  0.44439704024E+01  0.17879248946E+02  0.51100000000E-03 0. -1.
        -11    1    4    4    0    0  0.20477755458E+00 -0.45265550579E+01  0.61928267200E+01  0.76735088183E+01  0.51100000000E-03 0.  1.
        -12    1    4    4    0    0 -0.23827994229E+02  0.16138813004E+02  0.14247227042E+01  0.28814309448E+02  0.00000000000E+00 0.  1.
</event>
<event>
 8    1  0.1278459E-006  0.9118800E+02  0.7816164E-02  0.1184000E+00
        -11   -1    0    0    0    0  0.00000000000E+00  0.00000000000E+00  0.45593999997E+02  0.45594000000E+02  0.51100000000E-03 0. -1.
         11   -1    0    0    0    0 -0.00000000000E+00 -0.00000000000E+00 -0.45593999997E+02  0.45594000000E+02  0.51100000000E-03 0.  1.
         23    2    1    2    0    0  0.00000000000E+00  0.71054273576E-14 -0.44408920985E-15  0.91188000000E+02  0.91188000000E+02 0.  0.
    9900012    2    3    3    0    0 -0.16939506792E+02 -0.32480761418E+02 -0.37195166182E+01  0.54367060896E+02  0.39999946924E+02 0.  0.
         12    1    3    3    0    0  0.16939506792E+02  0.32480761418E+02  0.37195166182E+01  0.36820939104E+02  0.00000000000E+00 0. -1.
         11    1    4    4    0    0  0.49947094081E+01  0.36591591319E+01  0.63809129142E+01  0.88911538905E+01  0.51100000000E-03 0. -1.
        -11    1    4    4    0    0 -0.19992840810E+01 -0.14035765997E+02 -0.44878353515E+00  0.14184543379E+02  0.51100000000E-03 0.  1.
         12    1    4    4    0    0 -0.19934932119E+02 -0.22104154553E+02 -0.96516459973E+01  0.31291363626E+02  0.00000000000E+00 0. -1.
</event>
<event>
 8    1  0.1278459E-006  0.9118800E+02  0.7816164E-02  0.1184000E+00
        -11   -1    0    0    0    0  0.00000000000E+00  0.00000000000E+00  0.45593999997E+02  0.45594000000E+02  0.51100000000E-03 0.  1.
         11   -1    0    0    0    0 -0.00000000000E+00 -0.00000000000E+00 -0.45593999997E+02  0.45594000000E+02  0.51100000000E-03 0. -1.
         23    2    1    2    0    0  0.71054273576E-14  0.00000000000E+00  0.88817841970E-15  0.91188000000E+02  0.91188000000E+02 0.  0.
    9900012    2    3    3    0    0  0.34543599895E+02  0.11687681147E+02 -0.50912712376E+01  0.54367038210E+02  0.39999895208E+02 0.  0.
         12    1    3    3    0    0 -0.34543599895E+02 -0.11687681147E+02  0.50912712376E+01  0.36820961790E+02  0.00000000000E+00 0. -1.
         11    1    4    4    0    0 -0.10706514136E+01  0.13296086103E+01 -0.10471052650E+02  0.10609292972E+02  0.51100000000E-03 0. -1.
        -11    1    4    4    0    0  0.21324052575E+02  0.13940038512E+02  0.11313547706E+02  0.27875370022E+02  0.51100000000E-03 0.  1.
         12    1    4    4    0    0  0.14290198734E+02 -0.35819659751E+01 -0.59337662936E+01  0.15882375217E+02  0.00000000000E+00 0. -1.
</event>
<event>
 8    1  0.1278459E-006  0.9118800E+02  0.7816164E-02  0.1184000E+00
        -11   -1    0    0    0    0  0.00000000000E+00  0.00000000000E+00  0.45593999997E+02  0.45594000000E+02  0.51100000000E-03 0. -1.
         11   -1    0    0    0    0 -0.00000000000E+00 -0.00000000000E+00 -0.45593999997E+02  0.45594000000E+02  0.51100000000E-03 0.  1.
         23    2    1    2    0    0  0.00000000000E+00  0.35527136788E-14 -0.35527136788E-14  0.91188000000E+02  0.91188000000E+02 0.  0.
    9900012    2    3    3    0    0  0.25565962615E+01  0.31905310909E+02 -0.18201482445E+02  0.54367095450E+02  0.40000025697E+02 0.  0.
         12    1    3    3    0    0 -0.25565962615E+01 -0.31905310909E+02  0.18201482445E+02  0.36820904550E+02  0.00000000000E+00 0. -1.
         11    1    4    4    0    0  0.13268898687E+02  0.14786037654E+02 -0.16592949047E+01  0.19935993622E+02  0.51100000000E-03 0. -1.
        -11    1    4    4    0    0 -0.12332473825E+01 -0.52391814367E+01 -0.56882037248E+01  0.78310652602E+01  0.51100000000E-03 0.  1.
         12    1    4    4    0    0 -0.94790550427E+01  0.22358454692E+02 -0.10853983816E+02  0.26600036568E+02  0.00000000000E+00 0. -1.
</event>
<event>
 8    1  0.1278459E-006  0.9118800E+02  0.7816164E-02  0.1184000E+00
        -11   -1    0    0    0    0  0.00000000000E+00  0.00000000000E+00  0.45593999997E+02  0.45594000000E+02  0.51100000000E-03 0.  1.
         11   -1    0    0    0    0 -0.00000000000E+00 -0.00000000000E+00 -0.45593999997E+02  0.45594000000E+02  0.51100000000E-03 0. -1.
         23    2    1    2    0    0  0.35527136788E-14  0.00000000000E+00  0.00000000000E+00  0.91188000000E+02  0.91188000000E+02 0.  0.
    9900012    2    3    3    0    0  0.29238475050E+02  0.19332768592E+01  0.22296966818E+02  0.54367072364E+02  0.39999973069E+02 0.  0.
         12    1    3    3    0    0 -0.29238475050E+02 -0.19332768592E+01 -0.22296966818E+02  0.36820927636E+02  0.00000000000E+00 0. -1.
         11    1    4    4    0    0  0.16783899854E+01 -0.37063168669E+01  0.11186820217E+02  0.11903727336E+02  0.51100000000E-03 0.  1.
        -11    1    4    4    0    0  0.25892024076E+02 -0.79552216865E+01  0.53770839107E+01  0.27615131622E+02  0.51100000000E-03 0. -1.
         12    1    4    4    0    0  0.16680609886E+01  0.13594815413E+02  0.57330626904E+01  0.14848213407E+02  0.00000000000E+00 0. -1.
</event>
<event>
 8    1  0.1278459E-006  0.9118800E+02  0.7816164E-02  0.1184000E+00
        -11   -1    0    0    0    0  0.00000000000E+00  0.00000000000E+00  0.45593999997E+02  0.45594000000E+02  0.51100000000E-03 0.  1.
         11   -1    0    0    0    0 -0.00000000000E+00 -0.00000000000E+00 -0.45593999997E+02  0.45594000000E+02  0.51100000000E-03 0. -1.
         23    2    1    2    0    0  0.00000000000E+00  0.00000000000E+00  0.11102230246E-14  0.91188000000E+02  0.91188000000E+02 0.  0.
    9900012    2    3    3    0    0 -0.17249131465E+02  0.32511643867E+02  0.11140759159E+01  0.54367072684E+02  0.39999973799E+02 0.  0.
        -12    1    3    3    0    0  0.17249131465E+02 -0.32511643867E+02 -0.11140759159E+01  0.36820927316E+02  0.00000000000E+00 0.  1.
         11    1    4    4    0    0 -0.15983147705E+02  0.16584365948E+02 -0.22508246871E+00  0.23033733237E+02  0.51100000000E-03 0. -1.
        -11    1    4    4    0    0  0.32909932173E+01  0.70454758595E+01  0.13512520011E+02  0.15590303517E+02  0.51100000000E-03 0.  1.
        -12    1    4    4    0    0 -0.45569769772E+01  0.88818020594E+01 -0.12173361627E+02  0.15743035930E+02  0.00000000000E+00 0.  1.
</event>
<event>
 8    1  0.1278459E-006  0.9118800E+02  0.7816164E-02  0.1184000E+00
        -11   -1    0    0    0    0  0.00000000000E+00  0.00000000000E+00  0.45593999997E+02  0.45594000000E+02  0.51100000000E-03 0. -1.
         11   -1    0    0    0    0 -0.00000000000E+00 -0.00000000000E+00 -0.45593999997E+02  0.45594000000E+02  0.51100000000E-03 0.  1.
         23    2    1    2    0    0  0.35527136788E-14  0.00000000000E+00  0.35527136788E-14  0.91188000000E+02  0.91188000000E+02 0.  0.
    9900012    2    3    3    0    0  0.16169292926E+02 -0.21292030380E+02  0.25317652882E+02  0.54367080146E+02  0.39999990809E+02 0.  0.
         12    1    3    3    0    0 -0.16169292926E+02  0.21292030380E+02 -0.25317652882E+02  0.36820919854E+02  0.00000000000E+00 0. -1.
         11    1    4    4    0    0  0.12086495051E+02  0.13444735986E+01  0.26725570419E+02  0.29362341295E+02  0.51100000000E-03 0. -1.
        -11    1    4    4    0    0  0.98199712396E+00 -0.76007147922E+00  0.22874250256E+01  0.26027563301E+01  0.51100000000E-03 0.  1.
        -12    1    4    4    0    0  0.31008007506E+01 -0.21876432499E+02 -0.36953425619E+01  0.22401982520E+02  0.00000000000E+00 0.  1.
</event>
<event>
 8    1  0.1278459E-006  0.9118800E+02  0.7816164E-02  0.1184000E+00
        -11   -1    0    0    0    0  0.00000000000E+00  0.00000000000E+00  0.45593999997E+02  0.45594000000E+02  0.51100000000E-03 0.  1.
         11   -1    0    0    0    0 -0.00000000000E+00 -0.00000000000E+00 -0.45593999997E+02  0.45594000000E+02  0.51100000000E-03 0. -1.
         23    2    1    2    0    0  0.00000000000E+00  0.35527136788E-14  0.00000000000E+00  0.91188000000E+02  0.91188000000E+02 0.  0.
    9900012    2    3    3    0    0  0.16730992199E+02 -0.29468648148E+02 -0.14403207805E+02  0.54367085852E+02  0.40000003816E+02 0.  0.
        -12    1    3    3    0    0 -0.16730992199E+02  0.29468648148E+02  0.14403207805E+02  0.36820914148E+02  0.00000000000E+00 0.  1.
         11    1    4    4    0    0  0.67274939621E-01 -0.30129092588E+02 -0.15306712312E+02  0.33794410605E+02  0.51100000000E-03 0. -1.
        -11    1    4    4    0    0  0.36208936180E+01 -0.32633275185E+01 -0.37814081248E+01  0.61692158945E+01  0.51100000000E-03 0.  1.
        -12    1    4    4    0    0  0.13042823641E+02  0.39237719580E+01  0.46849126327E+01  0.14403459352E+02  0.00000000000E+00 0.  1.
</event>
<event>
 8    1  0.1278459E-006  0.9118800E+02  0.7816164E-02  0.1184000E+00
        -11   -1    0    0    0    0  0.00000000000E+00  0.00000000000E+00  0.45593999997E+02  0.45594000000E+02  0.51100000000E-03 0.  1.
         11   -1    0    0    0    0 -0.00000000000E+00 -0.00000000000E+00 -0.45593999997E+02  0.45594000000E+02  0.51100000000E-03 0. -1.
         23    2    1    2    0    0 -0.11102230246E-15  0.00000000000E+00  0.00000000000E+00  0.91188000000E+02  0.91188000000E+02 0.  0.
    9900012    2    3    3    0    0 -0.78436454306E+00 -0.32846201752E+02  0.16622011874E+02  0.54367089148E+02  0.40000011331E+02 0.  0.
         12    1    3    3    0    0  0.78436454306E+00  0.32846201752E+02 -0.16622011874E+02  0.36820910852E+02  0.00000000000E+00 0. -1.
         11    1    4    4    0    0 -0.19622652130E+01 -0.83537920634E+00  0.16981571240E+02  0.17114967287E+02  0.51100000000E-03 0. -1.
        -11    1    4    4    0    0  0.46548214734E+01 -0.21549931866E+02  0.79616685440E+01  0.23440458456E+02  0.51100000000E-03 0.  1.
         12    1    4    4    0    0 -0.34769208035E+01 -0.10460890679E+02 -0.83212279103E+01  0.13811663405E+02  0.00000000000E+00 0. -1.
</event>
<event>
 8    1  0.1278459E-006  0.9118800E+02  0.7816164E-02  0.1184000E+00
        -11   -1    0    0    0    0  0.00000000000E+00  0.00000000000E+00  0.45593999997E+02  0.45594000000E+02  0.51100000000E-03 0.  1.
         11   -1    0    0    0    0 -0.00000000000E+00 -0.00000000000E+00 -0.45593999997E+02  0.45594000000E+02  0.51100000000E-03 0. -1.
         23    2    1    2    0    0 -0.17763568394E-14  0.00000000000E+00  0.88817841970E-15  0.91188000000E+02  0.91188000000E+02 0.  0.
    9900012    2    3    3    0    0  0.10706434429E+02  0.34420159477E+02 -0.75103515529E+01  0.54367075283E+02  0.39999979722E+02 0.  0.
         12    1    3    3    0    0 -0.10706434429E+02 -0.34420159477E+02  0.75103515529E+01  0.36820924717E+02  0.00000000000E+00 0. -1.
         11    1    4    4    0    0 -0.19054294502E+01  0.25759436125E+00  0.93768650293E+01  0.95719702404E+01  0.51100000000E-03 0. -1.
        -11    1    4    4    0    0 -0.34241836383E+01  0.69675585768E+00  0.95017352405E+00  0.36212335331E+01  0.51100000000E-03 0.  1.
         12    1    4    4    0    0  0.16036047517E+02  0.33465809258E+02 -0.17837390106E+02  0.41173871509E+02  0.00000000000E+00 0. -1.
</event>
<event>
 8    1  0.1278459E-006  0.9118800E+02  0.7816164E-02  0.1184000E+00
        -11   -1    0    0    0    0  0.00000000000E+00  0.00000000000E+00  0.45593999997E+02  0.45594000000E+02  0.51100000000E-03 0.  1.
         11   -1    0    0    0    0 -0.00000000000E+00 -0.00000000000E+00 -0.45593999997E+02  0.45594000000E+02  0.51100000000E-03 0. -1.
         23    2    1    2    0    0 -0.35527136788E-14 -0.35527136788E-14  0.00000000000E+00  0.91188000000E+02  0.91188000000E+02 0.  0.
    9900012    2    3    3    0    0  0.17208160272E+02 -0.14371229501E+02 -0.29208333704E+02  0.54367085086E+02  0.40000002071E+02 0.  0.
        -12    1    3    3    0    0 -0.17208160272E+02  0.14371229501E+02  0.29208333704E+02  0.36820914914E+02  0.00000000000E+00 0.  1.
         11    1    4    4    0    0  0.37526993789E+01  0.98681105476E+01 -0.35425987268E+01  0.11136083890E+02  0.51100000000E-03 0. -1.
        -11    1    4    4    0    0  0.14883765506E+02 -0.77079872398E+01 -0.67512034067E+01  0.18069817116E+02  0.51100000000E-03 0.  1.
         12    1    4    4    0    0 -0.14283046124E+01 -0.16531352809E+02 -0.18914531571E+02  0.25161184080E+02  0.00000000000E+00 0. -1.
</event>
<event>
 8    1  0.1278459E-006  0.9118800E+02  0.7816164E-02  0.1184000E+00
        -11   -1    0    0    0    0  0.00000000000E+00  0.00000000000E+00  0.45593999997E+02  0.45594000000E+02  0.51100000000E-03 0. -1.
         11   -1    0    0    0    0 -0.00000000000E+00 -0.00000000000E+00 -0.45593999997E+02  0.45594000000E+02  0.51100000000E-03 0.  1.
         23    2    1    2    0    0 -0.35527136788E-14 -0.44408920985E-15  0.00000000000E+00  0.91188000000E+02  0.91188000000E+02 0.  0.
    9900012    2    3    3    0    0  0.21220965758E+02 -0.28406165678E+01  0.29956306118E+02  0.54367098783E+02  0.40000033295E+02 0.  0.
        -12    1    3    3    0    0 -0.21220965758E+02  0.28406165678E+01 -0.29956306118E+02  0.36820901217E+02  0.00000000000E+00 0.  1.
         11    1    4    4    0    0  0.23446693042E+02 -0.19137323205E+01  0.32730761100E+02  0.40307722690E+02  0.51100000000E-03 0. -1.
        -11    1    4    4    0    0  0.20777033075E+01  0.54681096974E+01 -0.24572922243E+01  0.63447111860E+01  0.51100000000E-03 0.  1.
         12    1    4    4    0    0 -0.43034305917E+01 -0.63949939447E+01 -0.31716275750E+00  0.77146649068E+01  0.00000000000E+00 0. -1.
</event>
<event>
 8    1  0.1278459E-006  0.9118800E+02  0.7816164E-02  0.1184000E+00
        -11   -1    0    0    0    0  0.00000000000E+00  0.00000000000E+00  0.45593999997E+02  0.45594000000E+02  0.51100000000E-03 0.  1.
         11   -1    0    0    0    0 -0.00000000000E+00 -0.00000000000E+00 -0.45593999997E+02  0.45594000000E+02  0.51100000000E-03 0. -1.
         23    2    1    2    0    0  0.00000000000E+00 -0.35527136788E-14  0.00000000000E+00  0.91188000000E+02  0.91188000000E+02 0.  0.
    9900012    2    3    3    0    0 -0.16443965858E+02 -0.27244346382E+02 -0.18523535291E+02  0.54367084984E+02  0.40000001838E+02 0.  0.
        -12    1    3    3    0    0  0.16443965858E+02  0.27244346382E+02  0.18523535291E+02  0.36820915016E+02  0.00000000000E+00 0.  1.
         11    1    4    4    0    0 -0.44244542436E+01 -0.26291662512E+02 -0.70102448806E+01  0.27567568746E+02  0.51100000000E-03 0. -1.
        -11    1    4    4    0    0 -0.14081659384E+02 -0.43403133389E+00 -0.16310249803E+02  0.21552395762E+02  0.51100000000E-03 0.  1.
        -12    1    4    4    0    0  0.20621477691E+01 -0.51865253624E+00  0.47969593926E+01  0.52471204760E+01  0.00000000000E+00 0.  1.
</event>
<event>
 8    1  0.1278459E-006  0.9118800E+02  0.7816164E-02  0.1184000E+00
        -11   -1    0    0    0    0  0.00000000000E+00  0.00000000000E+00  0.45593999997E+02  0.45594000000E+02  0.51100000000E-03 0.  1.
         11   -1    0    0    0    0 -0.00000000000E+00 -0.00000000000E+00 -0.45593999997E+02  0.45594000000E+02  0.51100000000E-03 0. -1.
         23    2    1    2    0    0  0.00000000000E+00  0.35527136788E-14  0.00000000000E+00  0.91188000000E+02  0.91188000000E+02 0.  0.
    9900012    2    3    3    0    0 -0.42835881497E+01 -0.19448627294E+02 -0.30970667328E+02  0.54367075706E+02  0.39999980688E+02 0.  0.
        -12    1    3    3    0    0  0.42835881497E+01  0.19448627294E+02  0.30970667328E+02  0.36820924294E+02  0.00000000000E+00 0.  1.
         11    1    4    4    0    0 -0.98048488998E+01 -0.48286433262E+00 -0.24952431416E+02  0.26814027183E+02  0.51100000000E-03 0. -1.
        -11    1    4    4    0    0  0.53265968326E+00 -0.19599897549E+02 -0.91413616620E+01  0.21633404808E+02  0.51100000000E-03 0.  1.
        -12    1    4    4    0    0  0.49886010669E+01  0.63413458738E+00  0.31231257497E+01  0.59196437163E+01  0.00000000000E+00 0.  1.
</event>
<event>
 8    1  0.1278459E-006  0.9118800E+02  0.7816164E-02  0.1184000E+00
        -11   -1    0    0    0    0  0.00000000000E+00  0.00000000000E+00  0.45593999997E+02  0.45594000000E+02  0.51100000000E-03 0.  1.
         11   -1    0    0    0    0 -0.00000000000E+00 -0.00000000000E+00 -0.45593999997E+02  0.45594000000E+02  0.51100000000E-03 0. -1.
         23    2    1    2    0    0  0.88817841970E-15 -0.88817841970E-15  0.00000000000E+00  0.91188000000E+02  0.91188000000E+02 0.  0.
    9900012    2    3    3    0    0  0.50706111198E+01 -0.75888255950E+01 -0.35671833940E+02  0.54367066990E+02  0.39999960818E+02 0.  0.
        -12    1    3    3    0    0 -0.50706111198E+01  0.75888255950E+01  0.35671833940E+02  0.36820933010E+02  0.00000000000E+00 0.  1.
         11    1    4    4    0    0 -0.56225767775E+01 -0.19650798690E+02 -0.25857376641E+02  0.32960145415E+02  0.51100000000E-03 0. -1.
        -11    1    4    4    0    0  0.31364771997E+01  0.10448768569E+02 -0.35905069774E+01  0.11485033498E+02  0.51100000000E-03 0.  1.
         12    1    4    4    0    0  0.75567106976E+01  0.16132045259E+01 -0.62239503216E+01  0.99218880771E+01  0.00000000000E+00 0. -1.
</event>
<event>
 8    1  0.1278459E-006  0.9118800E+02  0.7816164E-02  0.1184000E+00
        -11   -1    0    0    0    0  0.00000000000E+00  0.00000000000E+00  0.45593999997E+02  0.45594000000E+02  0.51100000000E-03 0.  1.
         11   -1    0    0    0    0 -0.00000000000E+00 -0.00000000000E+00 -0.45593999997E+02  0.45594000000E+02  0.51100000000E-03 0. -1.
         23    2    1    2    0    0  0.00000000000E+00  0.00000000000E+00  0.00000000000E+00  0.91188000000E+02  0.91188000000E+02 0.  0.
    9900012    2    3    3    0    0  0.24162905125E+02  0.91228250956E+01  0.26243229240E+02  0.54367095573E+02  0.40000025979E+02 0.  0.
         12    1    3    3    0    0 -0.24162905125E+02 -0.91228250956E+01 -0.26243229240E+02  0.36820904427E+02  0.00000000000E+00 0. -1.
         11    1    4    4    0    0 -0.39680747712E+01 -0.27396980604E+01 -0.44390317728E+01  0.65541258908E+01  0.51100000000E-03 0. -1.
        -11    1    4    4    0    0  0.11194626164E+02  0.54626890834E+01  0.26425397111E+02  0.29214076054E+02  0.51100000000E-03 0.  1.
        -12    1    4    4    0    0  0.16936353733E+02  0.63998340726E+01  0.42568639021E+01  0.18598893628E+02  0.00000000000E+00 0.  1.
</event>
<event>
 8    1  0.1278459E-006  0.9118800E+02  0.7816164E-02  0.1184000E+00
        -11   -1    0    0    0    0  0.00000000000E+00  0.00000000000E+00  0.45593999997E+02  0.45594000000E+02  0.51100000000E-03 0.  1.
         11   -1    0    0    0    0 -0.00000000000E+00 -0.00000000000E+00 -0.45593999997E+02  0.45594000000E+02  0.51100000000E-03 0. -1.
         23    2    1    2    0    0 -0.35527136788E-14  0.00000000000E+00 -0.35527136788E-14  0.91188000000E+02  0.91188000000E+02 0.  0.
    9900012    2    3    3    0    0  0.28354478483E+02  0.14277623323E+02  0.18653470914E+02  0.54367096223E+02  0.40000027459E+02 0.  0.
         12    1    3    3    0    0 -0.28354478483E+02 -0.14277623323E+02 -0.18653470914E+02  0.36820903777E+02  0.00000000000E+00 0. -1.
         11    1    4    4    0    0  0.25818785073E+02  0.17919282179E+02  0.13154811327E+02  0.34069919251E+02  0.51100000000E-03 0. -1.
        -11    1    4    4    0    0  0.63406848086E+01  0.34485121717E+01  0.89872846311E+01  0.11526829805E+02  0.51100000000E-03 0.  1.
         12    1    4    4    0    0 -0.38049913986E+01 -0.70901710271E+01 -0.34886250441E+01  0.87703471673E+01  0.00000000000E+00 0. -1.
</event>
<event>
 8    1  0.1278459E-006  0.9118800E+02  0.7816164E-02  0.1184000E+00
        -11   -1    0    0    0    0  0.00000000000E+00  0.00000000000E+00  0.45593999997E+02  0.45594000000E+02  0.51100000000E-03 0.  1.
         11   -1    0    0    0    0 -0.00000000000E+00 -0.00000000000E+00 -0.45593999997E+02  0.45594000000E+02  0.51100000000E-03 0. -1.
         23    2    1    2    0    0 -0.44408920985E-15 -0.17763568394E-14  0.00000000000E+00  0.91188000000E+02  0.91188000000E+02 0.  0.
    9900012    2    3    3    0    0  0.33618628019E+01  0.12590397811E+02 -0.34437711735E+02  0.54367133252E+02  0.40000111875E+02 0.  0.
        -12    1    3    3    0    0 -0.33618628019E+01 -0.12590397811E+02  0.34437711735E+02  0.36820866748E+02  0.00000000000E+00 0.  1.
         11    1    4    4    0    0 -0.11705206095E+02  0.23252460953E+01 -0.61970940562E+01  0.13447029194E+02  0.51100000000E-03 0. -1.
        -11    1    4    4    0    0 -0.42191030774E+01  0.64244488018E+01 -0.16722117428E+01  0.78657908412E+01  0.51100000000E-03 0.  1.
        -12    1    4    4    0    0  0.19286171974E+02  0.38407029142E+01 -0.26568405936E+02  0.33054313217E+02  0.00000000000E+00 0.  1.
</event>
<event>
 8    1  0.1278459E-006  0.9118800E+02  0.7816164E-02  0.1184000E+00
        -11   -1    0    0    0    0  0.00000000000E+00  0.00000000000E+00  0.45593999997E+02  0.45594000000E+02  0.51100000000E-03 0. -1.
         11   -1    0    0    0    0 -0.00000000000E+00 -0.00000000000E+00 -0.45593999997E+02  0.45594000000E+02  0.51100000000E-03 0.  1.
         23    2    1    2    0    0  0.00000000000E+00 -0.88817841970E-15  0.00000000000E+00  0.91188000000E+02  0.91188000000E+02 0.  0.
    9900012    2    3    3    0    0 -0.15005499089E+02  0.25716489561E+01 -0.33526185228E+02  0.54367034814E+02  0.39999887465E+02 0.  0.
         12    1    3    3    0    0  0.15005499089E+02 -0.25716489561E+01  0.33526185228E+02  0.36820965186E+02  0.00000000000E+00 0. -1.
         11    1    4    4    0    0 -0.62951842176E+01 -0.43410855477E+01  0.75837646084E+00  0.76843674550E+01  0.51100000000E-03 0. -1.
        -11    1    4    4    0    0 -0.17275030910E+02 -0.36701807717E+01 -0.15598142682E+02  0.23562660614E+02  0.51100000000E-03 0.  1.
        -12    1    4    4    0    0  0.85647160383E+01  0.10582915276E+02 -0.18686419007E+02  0.23120006744E+02  0.00000000000E+00 0.  1.
</event>
<event>
 8    1  0.1278459E-006  0.9118800E+02  0.7816164E-02  0.1184000E+00
        -11   -1    0    0    0    0  0.00000000000E+00  0.00000000000E+00  0.45593999997E+02  0.45594000000E+02  0.51100000000E-03 0.  1.
         11   -1    0    0    0    0 -0.00000000000E+00 -0.00000000000E+00 -0.45593999997E+02  0.45594000000E+02  0.51100000000E-03 0. -1.
         23    2    1    2    0    0 -0.71054273576E-14  0.44408920985E-15 -0.35527136788E-14  0.91188000000E+02  0.91188000000E+02 0.  0.
    9900012    2    3    3    0    0  0.32057007742E+02  0.35917151115E+01  0.17754669073E+02  0.54367076102E+02  0.39999981589E+02 0.  0.
         12    1    3    3    0    0 -0.32057007742E+02 -0.35917151115E+01 -0.17754669073E+02  0.36820923898E+02  0.00000000000E+00 0. -1.
         11    1    4    4    0    0 -0.13038078624E+01 -0.53221187699E+01 -0.16235230777E+01  0.57149532446E+01  0.51100000000E-03 0. -1.
        -11    1    4    4    0    0  0.31093459591E+02  0.72569672894E+01  0.26182224197E+02  0.41291351004E+02  0.51100000000E-03 0.  1.
        -12    1    4    4    0    0  0.22673560138E+01  0.16568665920E+01 -0.68040320459E+01  0.73607718535E+01  0.00000000000E+00 0.  1.
</event>
<event>
 8    1  0.1278459E-006  0.9118800E+02  0.7816164E-02  0.1184000E+00
        -11   -1    0    0    0    0  0.00000000000E+00  0.00000000000E+00  0.45593999997E+02  0.45594000000E+02  0.51100000000E-03 0.  1.
         11   -1    0    0    0    0 -0.00000000000E+00 -0.00000000000E+00 -0.45593999997E+02  0.45594000000E+02  0.51100000000E-03 0. -1.
         23    2    1    2    0    0  0.00000000000E+00  0.00000000000E+00  0.00000000000E+00  0.91188000000E+02  0.91188000000E+02 0.  0.
    9900012    2    3    3    0    0 -0.25054406791E+02 -0.95379755108E+01  0.25240507610E+02  0.54367088809E+02  0.40000010558E+02 0.  0.
         12    1    3    3    0    0  0.25054406791E+02  0.95379755108E+01 -0.25240507610E+02  0.36820911191E+02  0.00000000000E+00 0. -1.
         11    1    4    4    0    0 -0.18616391670E+01 -0.33772110114E+01 -0.67738607280E+01  0.77946420076E+01  0.51100000000E-03 0. -1.
        -11    1    4    4    0    0 -0.20607291531E+01 -0.70140769412E+01  0.21979274386E+02  0.23163168668E+02  0.51100000000E-03 0.  1.
        -12    1    4    4    0    0 -0.21132038471E+02  0.85331244189E+00  0.10035093952E+02  0.23409278133E+02  0.00000000000E+00 0.  1.
</event>
<event>
 8    1  0.1278459E-006  0.9118800E+02  0.7816164E-02  0.1184000E+00
        -11   -1    0    0    0    0  0.00000000000E+00  0.00000000000E+00  0.45593999997E+02  0.45594000000E+02  0.51100000000E-03 0. -1.
         11   -1    0    0    0    0 -0.00000000000E+00 -0.00000000000E+00 -0.45593999997E+02  0.45594000000E+02  0.51100000000E-03 0.  1.
         23    2    1    2    0    0  0.00000000000E+00 -0.35527136788E-14  0.00000000000E+00  0.91188000000E+02  0.91188000000E+02 0.  0.
    9900012    2    3    3    0    0 -0.20871880570E+02 -0.26759014308E+02 -0.14286268756E+02  0.54367112989E+02  0.40000065682E+02 0.  0.
        -12    1    3    3    0    0  0.20871880570E+02  0.26759014308E+02  0.14286268756E+02  0.36820887011E+02  0.00000000000E+00 0.  1.
         11    1    4    4    0    0 -0.56775984322E+01  0.40727693418E+01  0.53688791909E+01  0.88117783731E+01  0.51100000000E-03 0. -1.
        -11    1    4    4    0    0 -0.12360096108E+02 -0.16690917830E+02 -0.22750371855E+02  0.30804839451E+02  0.51100000000E-03 0.  1.
        -12    1    4    4    0    0 -0.28341860297E+01 -0.14140865820E+02  0.30952239078E+01  0.14750495165E+02  0.00000000000E+00 0.  1.
</event>
<event>
 8    1  0.1278459E-006  0.9118800E+02  0.7816164E-02  0.1184000E+00
        -11   -1    0    0    0    0  0.00000000000E+00  0.00000000000E+00  0.45593999997E+02  0.45594000000E+02  0.51100000000E-03 0. -1.
         11   -1    0    0    0    0 -0.00000000000E+00 -0.00000000000E+00 -0.45593999997E+02  0.45594000000E+02  0.51100000000E-03 0.  1.
         23    2    1    2    0    0  0.00000000000E+00 -0.88817841970E-15 -0.35527136788E-14  0.91188000000E+02  0.91188000000E+02 0.  0.
    9900012    2    3    3    0    0 -0.27307169993E+02  0.69844634872E+01  0.23692128344E+02  0.54367065618E+02  0.39999957690E+02 0.  0.
        -12    1    3    3    0    0  0.27307169993E+02 -0.69844634872E+01 -0.23692128344E+02  0.36820934382E+02  0.00000000000E+00 0.  1.
         11    1    4    4    0    0 -0.98291100639E+01  0.77080172617E+01  0.23832930289E+02  0.26907870618E+02  0.51100000000E-03 0. -1.
        -11    1    4    4    0    0 -0.10116941878E+02  0.42518620131E+01 -0.95285957470E+01  0.14533581139E+02  0.51100000000E-03 0.  1.
         12    1    4    4    0    0 -0.73611180512E+01 -0.49754157876E+01  0.93877938025E+01  0.12925613862E+02  0.00000000000E+00 0. -1.
</event>
<event>
 8    1  0.1278459E-006  0.9118800E+02  0.7816164E-02  0.1184000E+00
        -11   -1    0    0    0    0  0.00000000000E+00  0.00000000000E+00  0.45593999997E+02  0.45594000000E+02  0.51100000000E-03 0. -1.
         11   -1    0    0    0    0 -0.00000000000E+00 -0.00000000000E+00 -0.45593999997E+02  0.45594000000E+02  0.51100000000E-03 0.  1.
         23    2    1    2    0    0  0.00000000000E+00  0.00000000000E+00  0.35527136788E-14  0.91188000000E+02  0.91188000000E+02 0.  0.
    9900012    2    3    3    0    0 -0.20763691026E+02  0.48292881239E+01  0.30022113066E+02  0.54367079836E+02  0.39999990101E+02 0.  0.
        -12    1    3    3    0    0  0.20763691026E+02 -0.48292881239E+01 -0.30022113066E+02  0.36820920164E+02  0.00000000000E+00 0.  1.
         11    1    4    4    0    0 -0.77230429967E+01  0.50739470373E+01  0.26985815943E+01  0.96266647676E+01  0.51100000000E-03 0. -1.
        -11    1    4    4    0    0 -0.11751613474E+01  0.96306797733E+01  0.27646696451E+02  0.29299672729E+02  0.51100000000E-03 0.  1.
        -12    1    4    4    0    0 -0.11865486682E+02 -0.98753386867E+01 -0.32316497968E+00  0.15440742339E+02  0.00000000000E+00 0.  1.
</event>
<event>
 8    1  0.1278459E-006  0.9118800E+02  0.7816164E-02  0.1184000E+00
        -11   -1    0    0    0    0  0.00000000000E+00  0.00000000000E+00  0.45593999997E+02  0.45594000000E+02  0.51100000000E-03 0. -1.
         11   -1    0    0    0    0 -0.00000000000E+00 -0.00000000000E+00 -0.45593999997E+02  0.45594000000E+02  0.51100000000E-03 0.  1.
         23    2    1    2    0    0  0.35527136788E-14  0.22204460493E-14  0.35527136788E-14  0.91188000000E+02  0.91188000000E+02 0.  0.
    9900012    2    3    3    0    0  0.18720125682E+02  0.16345502471E+01  0.31664888392E+02  0.54367081802E+02  0.39999994584E+02 0.  0.
        -12    1    3    3    0    0 -0.18720125682E+02 -0.16345502471E+01 -0.31664888392E+02  0.36820918198E+02  0.00000000000E+00 0.  1.
         11    1    4    4    0    0  0.22496980632E+02  0.12262219378E+02  0.23877973558E+02  0.35023331982E+02  0.51100000000E-03 0. -1.
        -11    1    4    4    0    0  0.82308493733E+00  0.31114381265E+01  0.14274158780E+01  0.35207999629E+01  0.51100000000E-03 0.  1.
         12    1    4    4    0    0 -0.45999398871E+01 -0.13739107258E+02  0.63594989563E+01  0.15822949857E+02  0.00000000000E+00 0. -1.
</event>
<event>
 8    1  0.1278459E-006  0.9118800E+02  0.7816164E-02  0.1184000E+00
        -11   -1    0    0    0    0  0.00000000000E+00  0.00000000000E+00  0.45593999997E+02  0.45594000000E+02  0.51100000000E-03 0.  1.
         11   -1    0    0    0    0 -0.00000000000E+00 -0.00000000000E+00 -0.45593999997E+02  0.45594000000E+02  0.51100000000E-03 0. -1.
         23    2    1    2    0    0  0.00000000000E+00  0.00000000000E+00  0.00000000000E+00  0.91188000000E+02  0.91188000000E+02 0.  0.
    9900012    2    3    3    0    0 -0.35211735074E+02  0.10565693304E+02  0.20689329670E+01  0.54367073266E+02  0.39999975125E+02 0.  0.
         12    1    3    3    0    0  0.35211735074E+02 -0.10565693304E+02 -0.20689329670E+01  0.36820926734E+02  0.00000000000E+00 0. -1.
         11    1    4    4    0    0  0.44270633443E+01 -0.31006505079E+01  0.20529500943E+01  0.57816544153E+01  0.51100000000E-03 0. -1.
        -11    1    4    4    0    0 -0.31762894586E+02  0.20174134941E+02  0.35010231244E+01  0.37790664935E+02  0.51100000000E-03 0.  1.
         12    1    4    4    0    0 -0.78759038322E+01 -0.65077911282E+01 -0.34850402517E+01  0.10794753916E+02  0.00000000000E+00 0. -1.
</event>
<event>
 8    1  0.1278459E-006  0.9118800E+02  0.7816164E-02  0.1184000E+00
        -11   -1    0    0    0    0  0.00000000000E+00  0.00000000000E+00  0.45593999997E+02  0.45594000000E+02  0.51100000000E-03 0. -1.
         11   -1    0    0    0    0 -0.00000000000E+00 -0.00000000000E+00 -0.45593999997E+02  0.45594000000E+02  0.51100000000E-03 0.  1.
         23    2    1    2    0    0 -0.71054273576E-14  0.17763568394E-14 -0.88817841970E-15  0.91188000000E+02  0.91188000000E+02 0.  0.
    9900012    2    3    3    0    0 -0.34142485565E+02 -0.12917357950E+02  0.48178464865E+01  0.54367094230E+02  0.40000022916E+02 0.  0.
         12    1    3    3    0    0  0.34142485565E+02  0.12917357950E+02 -0.48178464865E+01  0.36820905770E+02  0.00000000000E+00 0. -1.
         11    1    4    4    0    0 -0.47497622732E+00  0.36498444533E+01 -0.71466405534E+01  0.80387460721E+01  0.51100000000E-03 0. -1.
        -11    1    4    4    0    0 -0.32990050469E+00  0.50140242537E+01  0.17695784135E+01  0.53273522112E+01  0.51100000000E-03 0.  1.
        -12    1    4    4    0    0 -0.33337608833E+02 -0.21581226657E+02  0.10194908626E+02  0.41000995947E+02  0.00000000000E+00 0.  1.
</event>
<event>
 8    1  0.1278459E-006  0.9118800E+02  0.7816164E-02  0.1184000E+00
        -11   -1    0    0    0    0  0.00000000000E+00  0.00000000000E+00  0.45593999997E+02  0.45594000000E+02  0.51100000000E-03 0. -1.
         11   -1    0    0    0    0 -0.00000000000E+00 -0.00000000000E+00 -0.45593999997E+02  0.45594000000E+02  0.51100000000E-03 0.  1.
         23    2    1    2    0    0 -0.35527136788E-14  0.00000000000E+00  0.00000000000E+00  0.91188000000E+02  0.91188000000E+02 0.  0.
    9900012    2    3    3    0    0 -0.25294152039E+02 -0.15697992670E+02  0.21669305119E+02  0.54367083586E+02  0.39999998651E+02 0.  0.
        -12    1    3    3    0    0  0.25294152039E+02  0.15697992670E+02 -0.21669305119E+02  0.36820916414E+02  0.00000000000E+00 0.  1.
         11    1    4    4    0    0 -0.19635593705E+02 -0.91743664700E+00  0.14679927637E+02  0.24533619909E+02  0.51100000000E-03 0. -1.
        -11    1    4    4    0    0 -0.89356500374E+01 -0.77569123716E+01 -0.70665502852E+01  0.13782295321E+02  0.51100000000E-03 0.  1.
         12    1    4    4    0    0  0.32770917039E+01 -0.70236436515E+01  0.14055927767E+02  0.16051168356E+02  0.00000000000E+00 0. -1.
</event>
<event>
 8    1  0.1278459E-006  0.9118800E+02  0.7816164E-02  0.1184000E+00
        -11   -1    0    0    0    0  0.00000000000E+00  0.00000000000E+00  0.45593999997E+02  0.45594000000E+02  0.51100000000E-03 0.  1.
         11   -1    0    0    0    0 -0.00000000000E+00 -0.00000000000E+00 -0.45593999997E+02  0.45594000000E+02  0.51100000000E-03 0. -1.
         23    2    1    2    0    0 -0.10658141036E-13 -0.35527136788E-14 -0.53290705182E-14  0.91188000000E+02  0.91188000000E+02 0.  0.
    9900012    2    3    3    0    0  0.29830088362E+02  0.16249390056E+02  0.14209265299E+02  0.54367081092E+02  0.39999992966E+02 0.  0.
         12    1    3    3    0    0 -0.29830088362E+02 -0.16249390056E+02 -0.14209265299E+02  0.36820918908E+02  0.00000000000E+00 0. -1.
         11    1    4    4    0    0 -0.63051191848E+00  0.10066040796E+00 -0.23522254319E+01  0.24373433366E+01  0.51100000000E-03 0. -1.
        -11    1    4    4    0    0  0.74270358871E+01  0.13471597140E+02 -0.86723158969E+01  0.17659384328E+02  0.51100000000E-03 0.  1.
        -12    1    4    4    0    0  0.23033564393E+02  0.26771325078E+01  0.25233806628E+02  0.34270353427E+02  0.00000000000E+00 0.  1.
</event>
<event>
 8    1  0.1278459E-006  0.9118800E+02  0.7816164E-02  0.1184000E+00
        -11   -1    0    0    0    0  0.00000000000E+00  0.00000000000E+00  0.45593999997E+02  0.45594000000E+02  0.51100000000E-03 0. -1.
         11   -1    0    0    0    0 -0.00000000000E+00 -0.00000000000E+00 -0.45593999997E+02  0.45594000000E+02  0.51100000000E-03 0.  1.
         23    2    1    2    0    0  0.00000000000E+00 -0.17763568394E-14 -0.35527136788E-14  0.91188000000E+02  0.91188000000E+02 0.  0.
    9900012    2    3    3    0    0 -0.22641298453E+02 -0.82353703285E+01 -0.27844753533E+02  0.54367081769E+02  0.39999994508E+02 0.  0.
         12    1    3    3    0    0  0.22641298453E+02  0.82353703285E+01  0.27844753533E+02  0.36820918231E+02  0.00000000000E+00 0. -1.
         11    1    4    4    0    0 -0.17582236707E+01  0.98317415337E+01 -0.66222410367E+00  0.10009647001E+02  0.51100000000E-03 0.  1.
        -11    1    4    4    0    0 -0.17286579914E+02 -0.58685346404E+01 -0.52348343182E+01  0.18991288386E+02  0.51100000000E-03 0. -1.
        -12    1    4    4    0    0 -0.35964948683E+01 -0.12198577222E+02 -0.21947695111E+02  0.25366146382E+02  0.00000000000E+00 0.  1.
</event>
<event>
 8    1  0.1278459E-006  0.9118800E+02  0.7816164E-02  0.1184000E+00
        -11   -1    0    0    0    0  0.00000000000E+00  0.00000000000E+00  0.45593999997E+02  0.45594000000E+02  0.51100000000E-03 0. -1.
         11   -1    0    0    0    0 -0.00000000000E+00 -0.00000000000E+00 -0.45593999997E+02  0.45594000000E+02  0.51100000000E-03 0.  1.
         23    2    1    2    0    0  0.35527136788E-14  0.00000000000E+00  0.00000000000E+00  0.91188000000E+02  0.91188000000E+02 0.  0.
    9900012    2    3    3    0    0  0.23656357385E+02  0.19424653723E+02 -0.20465569866E+02  0.54367082481E+02  0.39999996132E+02 0.  0.
         12    1    3    3    0    0 -0.23656357385E+02 -0.19424653723E+02  0.20465569866E+02  0.36820917519E+02  0.00000000000E+00 0. -1.
         11    1    4    4    0    0  0.56399756512E+01 -0.77687417711E+01  0.37323534786E+00  0.96073918905E+01  0.51100000000E-03 0. -1.
        -11    1    4    4    0    0  0.15317349960E+02  0.19947119289E+02 -0.30137382655E+01  0.25329654485E+02  0.51100000000E-03 0.  1.
         12    1    4    4    0    0  0.26990317737E+01  0.72462762051E+01 -0.17825066948E+02  0.19430036106E+02  0.00000000000E+00 0. -1.
</event>
<event>
 8    1  0.1278459E-006  0.9118800E+02  0.7816164E-02  0.1184000E+00
        -11   -1    0    0    0    0  0.00000000000E+00  0.00000000000E+00  0.45593999997E+02  0.45594000000E+02  0.51100000000E-03 0.  1.
         11   -1    0    0    0    0 -0.00000000000E+00 -0.00000000000E+00 -0.45593999997E+02  0.45594000000E+02  0.51100000000E-03 0. -1.
         23    2    1    2    0    0 -0.35527136788E-14  0.00000000000E+00  0.00000000000E+00  0.91188000000E+02  0.91188000000E+02 0.  0.
    9900012    2    3    3    0    0  0.26413905996E+02 -0.20181832525E+02  0.15835707120E+02  0.54367212202E+02  0.40000291857E+02 0.  0.
         12    1    3    3    0    0 -0.26413905996E+02  0.20181832525E+02 -0.15835707120E+02  0.36820787798E+02  0.00000000000E+00 0. -1.
         11    1    4    4    0    0 -0.34329232626E+01 -0.14220000660E+02  0.13223218855E+02  0.19719201252E+02  0.51100000000E-03 0. -1.
        -11    1    4    4    0    0  0.10309301255E+02 -0.71241536924E+01 -0.52091111250E+01  0.13570928383E+02  0.51100000000E-03 0.  1.
         12    1    4    4    0    0  0.19537528004E+02  0.11623218266E+01  0.78215993902E+01  0.21077082567E+02  0.00000000000E+00 0. -1.
</event>
<event>
 8    1  0.1278459E-006  0.9118800E+02  0.7816164E-02  0.1184000E+00
        -11   -1    0    0    0    0  0.00000000000E+00  0.00000000000E+00  0.45593999997E+02  0.45594000000E+02  0.51100000000E-03 0. -1.
         11   -1    0    0    0    0 -0.00000000000E+00 -0.00000000000E+00 -0.45593999997E+02  0.45594000000E+02  0.51100000000E-03 0.  1.
         23    2    1    2    0    0  0.00000000000E+00  0.00000000000E+00  0.35527136788E-14  0.91188000000E+02  0.91188000000E+02 0.  0.
    9900012    2    3    3    0    0 -0.21387142733E+02 -0.10909832046E+02  0.27916751794E+02  0.54367090991E+02  0.40000015532E+02 0.  0.
        -12    1    3    3    0    0  0.21387142733E+02  0.10909832046E+02 -0.27916751794E+02  0.36820909009E+02  0.00000000000E+00 0.  1.
         11    1    4    4    0    0 -0.15279181502E+01 -0.77055675838E+01  0.23986539681E+02  0.25240134544E+02  0.51100000000E-03 0. -1.
        -11    1    4    4    0    0 -0.15515398398E+02  0.61641353010E+01 -0.26183991769E+01  0.16899117314E+02  0.51100000000E-03 0.  1.
        -12    1    4    4    0    0 -0.43438261842E+01 -0.93683997637E+01  0.65486112892E+01  0.12227839133E+02  0.00000000000E+00 0.  1.
</event>
<event>
 8    1  0.1278459E-006  0.9118800E+02  0.7816164E-02  0.1184000E+00
        -11   -1    0    0    0    0  0.00000000000E+00  0.00000000000E+00  0.45593999997E+02  0.45594000000E+02  0.51100000000E-03 0. -1.
         11   -1    0    0    0    0 -0.00000000000E+00 -0.00000000000E+00 -0.45593999997E+02  0.45594000000E+02  0.51100000000E-03 0.  1.
         23    2    1    2    0    0 -0.17763568394E-14  0.00000000000E+00  0.00000000000E+00  0.91188000000E+02  0.91188000000E+02 0.  0.
    9900012    2    3    3    0    0 -0.99504622759E+01 -0.29388237734E+02  0.19826715219E+02  0.54367097607E+02  0.40000030615E+02 0.  0.
        -12    1    3    3    0    0  0.99504622759E+01  0.29388237734E+02 -0.19826715219E+02  0.36820902393E+02  0.00000000000E+00 0.  1.
         11    1    4    4    0    0 -0.17969837808E+02 -0.64498215730E+01  0.13171438744E+02  0.23194871588E+02  0.51100000000E-03 0. -1.
        -11    1    4    4    0    0  0.43106745677E+01 -0.90357970534E+01 -0.62848669165E+01  0.11820621643E+02  0.51100000000E-03 0.  1.
         12    1    4    4    0    0  0.37087009642E+01 -0.13902619108E+02  0.12940143392E+02  0.19351604375E+02  0.00000000000E+00 0. -1.
</event>
<event>
 8    1  0.1278459E-006  0.9118800E+02  0.7816164E-02  0.1184000E+00
        -11   -1    0    0    0    0  0.00000000000E+00  0.00000000000E+00  0.45593999997E+02  0.45594000000E+02  0.51100000000E-03 0.  1.
         11   -1    0    0    0    0 -0.00000000000E+00 -0.00000000000E+00 -0.45593999997E+02  0.45594000000E+02  0.51100000000E-03 0. -1.
         23    2    1    2    0    0  0.35527136788E-14  0.00000000000E+00  0.35527136788E-14  0.91188000000E+02  0.91188000000E+02 0.  0.
    9900012    2    3    3    0    0 -0.19975103012E+02  0.16741365302E+02 -0.26009646167E+02  0.54367085478E+02  0.40000002964E+02 0.  0.
        -12    1    3    3    0    0  0.19975103012E+02 -0.16741365302E+02  0.26009646167E+02  0.36820914522E+02  0.00000000000E+00 0.  1.
         11    1    4    4    0    0  0.29525767586E+01  0.13918288151E+02 -0.81568950817E+01  0.16400347320E+02  0.51100000000E-03 0. -1.
        -11    1    4    4    0    0 -0.10006323038E+02  0.13358113179E+02 -0.71645689455E+01  0.18163059678E+02  0.51100000000E-03 0.  1.
        -12    1    4    4    0    0 -0.12921356732E+02 -0.10535036027E+02 -0.10688182140E+02  0.19803678480E+02  0.00000000000E+00 0.  1.
</event>
<event>
 8    1  0.1278459E-006  0.9118800E+02  0.7816164E-02  0.1184000E+00
        -11   -1    0    0    0    0  0.00000000000E+00  0.00000000000E+00  0.45593999997E+02  0.45594000000E+02  0.51100000000E-03 0.  1.
         11   -1    0    0    0    0 -0.00000000000E+00 -0.00000000000E+00 -0.45593999997E+02  0.45594000000E+02  0.51100000000E-03 0. -1.
         23    2    1    2    0    0 -0.17763568394E-14  0.00000000000E+00  0.00000000000E+00  0.91188000000E+02  0.91188000000E+02 0.  0.
    9900012    2    3    3    0    0  0.12826837677E+02 -0.81816194619E+01  0.33530743438E+02  0.54367117103E+02  0.40000075059E+02 0.  0.
         12    1    3    3    0    0 -0.12826837677E+02  0.81816194619E+01 -0.33530743438E+02  0.36820882897E+02  0.00000000000E+00 0. -1.
         11    1    4    4    0    0 -0.51214637161E+01 -0.30309374829E+01  0.63890326329E+01  0.87313063665E+01  0.51100000000E-03 0.  1.
        -11    1    4    4    0    0 -0.84785717446E+01 -0.51783236186E+01  0.10233644672E+02  0.14262843260E+02  0.51100000000E-03 0. -1.
        -12    1    4    4    0    0  0.26426873138E+02  0.27641639604E-01  0.16908066134E+02  0.31372967477E+02  0.00000000000E+00 0.  1.
</event>
<event>
 8    1  0.1278459E-006  0.9118800E+02  0.7816164E-02  0.1184000E+00
        -11   -1    0    0    0    0  0.00000000000E+00  0.00000000000E+00  0.45593999997E+02  0.45594000000E+02  0.51100000000E-03 0.  1.
         11   -1    0    0    0    0 -0.00000000000E+00 -0.00000000000E+00 -0.45593999997E+02  0.45594000000E+02  0.51100000000E-03 0. -1.
         23    2    1    2    0    0  0.00000000000E+00 -0.11102230246E-14  0.71054273576E-14  0.91188000000E+02  0.91188000000E+02 0.  0.
    9900012    2    3    3    0    0 -0.23437918652E+01 -0.19042240838E+01 -0.36696874353E+02  0.54367081802E+02  0.39999994585E+02 0.  0.
        -12    1    3    3    0    0  0.23437918652E+01  0.19042240838E+01  0.36696874353E+02  0.36820918198E+02  0.00000000000E+00 0.  1.
         11    1    4    4    0    0 -0.25557459729E+01 -0.84298787891E+01  0.18478856524E+01  0.90005208473E+01  0.51100000000E-03 0. -1.
        -11    1    4    4    0    0  0.26102095246E+01  0.47205196246E+01  0.11856794511E+01  0.55228919336E+01  0.51100000000E-03 0.  1.
         12    1    4    4    0    0 -0.23982554169E+01  0.18051350806E+01 -0.39730439456E+02  0.39843669021E+02  0.00000000000E+00 0. -1.
</event>
<event>
 8    1  0.1278459E-006  0.9118800E+02  0.7816164E-02  0.1184000E+00
        -11   -1    0    0    0    0  0.00000000000E+00  0.00000000000E+00  0.45593999997E+02  0.45594000000E+02  0.51100000000E-03 0.  1.
         11   -1    0    0    0    0 -0.00000000000E+00 -0.00000000000E+00 -0.45593999997E+02  0.45594000000E+02  0.51100000000E-03 0. -1.
         23    2    1    2    0    0 -0.35527136788E-14  0.00000000000E+00  0.00000000000E+00  0.91188000000E+02  0.91188000000E+02 0.  0.
    9900012    2    3    3    0    0  0.18551228394E+02  0.22756205470E+02 -0.22221305172E+02  0.54367090643E+02  0.40000014740E+02 0.  0.
        -12    1    3    3    0    0 -0.18551228394E+02 -0.22756205470E+02  0.22221305172E+02  0.36820909357E+02  0.00000000000E+00 0.  1.
         11    1    4    4    0    0 -0.56381683222E+00  0.23127600286E+01 -0.11099915348E+02  0.11352306786E+02  0.51100000000E-03 0. -1.
        -11    1    4    4    0    0 -0.24578629342E+01  0.55062764240E+01  0.83786428269E+01  0.10322878772E+02  0.51100000000E-03 0.  1.
        -12    1    4    4    0    0  0.21572908160E+02  0.14937169018E+02 -0.19500032651E+02  0.32691905086E+02  0.00000000000E+00 0.  1.
</event>
<event>
 8    1  0.1278459E-006  0.9118800E+02  0.7816164E-02  0.1184000E+00
        -11   -1    0    0    0    0  0.00000000000E+00  0.00000000000E+00  0.45593999997E+02  0.45594000000E+02  0.51100000000E-03 0. -1.
         11   -1    0    0    0    0 -0.00000000000E+00 -0.00000000000E+00 -0.45593999997E+02  0.45594000000E+02  0.51100000000E-03 0.  1.
         23    2    1    2    0    0  0.00000000000E+00  0.00000000000E+00  0.17763568394E-14  0.91188000000E+02  0.91188000000E+02 0.  0.
    9900012    2    3    3    0    0 -0.35081595520E+02 -0.57300887557E+01  0.96034948025E+01  0.54367090535E+02  0.40000014493E+02 0.  0.
         12    1    3    3    0    0  0.35081595520E+02  0.57300887557E+01 -0.96034948025E+01  0.36820909465E+02  0.00000000000E+00 0. -1.
         11    1    4    4    0    0  0.48543894277E+01  0.11928082538E+00  0.10282050830E+01  0.49635199793E+01  0.51100000000E-03 0.  1.
        -11    1    4    4    0    0 -0.27060664414E+02 -0.14485878630E+02  0.12920451730E+02  0.33302527102E+02  0.51100000000E-03 0. -1.
        -12    1    4    4    0    0 -0.12875320534E+02  0.86365090488E+01 -0.43451620104E+01  0.16101043454E+02  0.00000000000E+00 0.  1.
</event>
<event>
 8    1  0.1278459E-006  0.9118800E+02  0.7816164E-02  0.1184000E+00
        -11   -1    0    0    0    0  0.00000000000E+00  0.00000000000E+00  0.45593999997E+02  0.45594000000E+02  0.51100000000E-03 0. -1.
         11   -1    0    0    0    0 -0.00000000000E+00 -0.00000000000E+00 -0.45593999997E+02  0.45594000000E+02  0.51100000000E-03 0.  1.
         23    2    1    2    0    0 -0.35527136788E-14  0.35527136788E-14  0.13877787808E-16  0.91188000000E+02  0.91188000000E+02 0.  0.
    9900012    2    3    3    0    0  0.28316369189E+02 -0.23536202352E+02  0.98223068465E-01  0.54367092448E+02  0.40000018854E+02 0.  0.
         12    1    3    3    0    0 -0.28316369189E+02  0.23536202352E+02 -0.98223068465E-01  0.36820907552E+02  0.00000000000E+00 0. -1.
         11    1    4    4    0    0  0.16173207854E+02 -0.70157934522E+01  0.11293334188E+02  0.20936413433E+02  0.51100000000E-03 0. -1.
        -11    1    4    4    0    0  0.35397833028E+01 -0.21017210075E+02 -0.10329639697E+02  0.23684481031E+02  0.51100000000E-03 0.  1.
        -12    1    4    4    0    0  0.86033780312E+01  0.44968011755E+01 -0.86547142262E+00  0.97461979840E+01  0.00000000000E+00 0.  1.
</event>
<event>
 8    1  0.1278459E-006  0.9118800E+02  0.7816164E-02  0.1184000E+00
        -11   -1    0    0    0    0  0.00000000000E+00  0.00000000000E+00  0.45593999997E+02  0.45594000000E+02  0.51100000000E-03 0.  1.
         11   -1    0    0    0    0 -0.00000000000E+00 -0.00000000000E+00 -0.45593999997E+02  0.45594000000E+02  0.51100000000E-03 0. -1.
         23    2    1    2    0    0  0.35527136788E-14  0.35527136788E-14 -0.35527136788E-14  0.91188000000E+02  0.91188000000E+02 0.  0.
    9900012    2    3    3    0    0 -0.21816775986E+02 -0.19096860063E+02  0.22696169988E+02  0.54367110401E+02  0.40000059782E+02 0.  0.
         12    1    3    3    0    0  0.21816775986E+02  0.19096860063E+02 -0.22696169988E+02  0.36820889599E+02  0.00000000000E+00 0. -1.
         11    1    4    4    0    0  0.44264329419E+00  0.65209311892E+01  0.24345961687E+01  0.69746494841E+01  0.51100000000E-03 0. -1.
        -11    1    4    4    0    0 -0.15356404981E+02 -0.25302543120E+01  0.17044758472E+02  0.23081272765E+02  0.51100000000E-03 0.  1.
         12    1    4    4    0    0 -0.69030142990E+01 -0.23087536941E+02  0.32168153477E+01  0.24311188152E+02  0.00000000000E+00 0. -1.
</event>
<event>
 8    1  0.1278459E-006  0.9118800E+02  0.7816164E-02  0.1184000E+00
        -11   -1    0    0    0    0  0.00000000000E+00  0.00000000000E+00  0.45593999997E+02  0.45594000000E+02  0.51100000000E-03 0.  1.
         11   -1    0    0    0    0 -0.00000000000E+00 -0.00000000000E+00 -0.45593999997E+02  0.45594000000E+02  0.51100000000E-03 0. -1.
         23    2    1    2    0    0  0.00000000000E+00  0.00000000000E+00  0.00000000000E+00  0.91188000000E+02  0.91188000000E+02 0.  0.
    9900012    2    3    3    0    0  0.20986323984E+02 -0.24815264548E+02  0.17307669885E+02  0.54367101236E+02  0.40000038888E+02 0.  0.
         12    1    3    3    0    0 -0.20986323984E+02  0.24815264548E+02 -0.17307669885E+02  0.36820898764E+02  0.00000000000E+00 0. -1.
         11    1    4    4    0    0  0.27126991542E+02 -0.14394443764E+02  0.11720349000E+02  0.32870051146E+02  0.51100000000E-03 0. -1.
        -11    1    4    4    0    0 -0.75886222855E+01 -0.13804222532E+02  0.73890352080E+01  0.17399470954E+02  0.51100000000E-03 0.  1.
         12    1    4    4    0    0  0.14479547274E+01  0.33834017477E+01 -0.18017143236E+01  0.40975791368E+01  0.00000000000E+00 0. -1.
</event>
<event>
 8    1  0.1278459E-006  0.9118800E+02  0.7816164E-02  0.1184000E+00
        -11   -1    0    0    0    0  0.00000000000E+00  0.00000000000E+00  0.45593999997E+02  0.45594000000E+02  0.51100000000E-03 0. -1.
         11   -1    0    0    0    0 -0.00000000000E+00 -0.00000000000E+00 -0.45593999997E+02  0.45594000000E+02  0.51100000000E-03 0.  1.
         23    2    1    2    0    0  0.00000000000E+00 -0.17763568394E-14  0.00000000000E+00  0.91188000000E+02  0.91188000000E+02 0.  0.
    9900012    2    3    3    0    0 -0.33287543484E+02  0.13935559328E+02  0.73157373389E+01  0.54367076902E+02  0.39999983414E+02 0.  0.
         12    1    3    3    0    0  0.33287543484E+02 -0.13935559328E+02 -0.73157373389E+01  0.36820923098E+02  0.00000000000E+00 0. -1.
         11    1    4    4    0    0 -0.54413229000E+01  0.10252061997E+01  0.15366739718E+02  0.16333882958E+02  0.51100000000E-03 0. -1.
        -11    1    4    4    0    0 -0.19083429661E+02  0.10678513970E+02  0.47330831247E+01  0.22374316176E+02  0.51100000000E-03 0.  1.
         12    1    4    4    0    0 -0.87627909229E+01  0.22318391590E+01 -0.12784085504E+02  0.15658877768E+02  0.00000000000E+00 0. -1.
</event>
<event>
 8    1  0.1278459E-006  0.9118800E+02  0.7816164E-02  0.1184000E+00
        -11   -1    0    0    0    0  0.00000000000E+00  0.00000000000E+00  0.45593999997E+02  0.45594000000E+02  0.51100000000E-03 0. -1.
         11   -1    0    0    0    0 -0.00000000000E+00 -0.00000000000E+00 -0.45593999997E+02  0.45594000000E+02  0.51100000000E-03 0.  1.
         23    2    1    2    0    0  0.00000000000E+00 -0.35527136788E-14  0.00000000000E+00  0.91188000000E+02  0.91188000000E+02 0.  0.
    9900012    2    3    3    0    0  0.23785995999E+02 -0.27233781340E+02  0.69517737233E+01  0.54367087333E+02  0.40000007193E+02 0.  0.
        -12    1    3    3    0    0 -0.23785995999E+02  0.27233781340E+02 -0.69517737233E+01  0.36820912667E+02  0.00000000000E+00 0.  1.
         11    1    4    4    0    0  0.20543308180E+02 -0.24303956506E+02  0.21045419091E+01  0.31892615286E+02  0.51100000000E-03 0. -1.
        -11    1    4    4    0    0 -0.42481553368E+00 -0.11870474247E+02  0.52882291285E+00  0.11889839403E+02  0.51100000000E-03 0.  1.
         12    1    4    4    0    0  0.36675033526E+01  0.89406494135E+01  0.43184089014E+01  0.10584632644E+02  0.00000000000E+00 0. -1.
</event>
<event>
 8    1  0.1278459E-006  0.9118800E+02  0.7816164E-02  0.1184000E+00
        -11   -1    0    0    0    0  0.00000000000E+00  0.00000000000E+00  0.45593999997E+02  0.45594000000E+02  0.51100000000E-03 0. -1.
         11   -1    0    0    0    0 -0.00000000000E+00 -0.00000000000E+00 -0.45593999997E+02  0.45594000000E+02  0.51100000000E-03 0.  1.
         23    2    1    2    0    0  0.17763568394E-14 -0.35527136788E-14  0.00000000000E+00  0.91188000000E+02  0.91188000000E+02 0.  0.
    9900012    2    3    3    0    0 -0.78453288448E+01 -0.28746416350E+02  0.21630400339E+02  0.54367083981E+02  0.39999999551E+02 0.  0.
        -12    1    3    3    0    0  0.78453288448E+01  0.28746416350E+02 -0.21630400339E+02  0.36820916019E+02  0.00000000000E+00 0.  1.
         11    1    4    4    0    0  0.10103293592E+02 -0.23421094303E+02  0.12231428914E+01  0.25536645796E+02  0.51100000000E-03 0. -1.
        -11    1    4    4    0    0  0.43583382592E+00  0.77836691464E+00  0.38610892161E+00  0.97205274450E+00  0.51100000000E-03 0.  1.
         12    1    4    4    0    0 -0.18384456262E+02 -0.61036889621E+01  0.20021148526E+02  0.27858385440E+02  0.00000000000E+00 0. -1.
</event>
<event>
 8    1  0.1278459E-006  0.9118800E+02  0.7816164E-02  0.1184000E+00
        -11   -1    0    0    0    0  0.00000000000E+00  0.00000000000E+00  0.45593999997E+02  0.45594000000E+02  0.51100000000E-03 0.  1.
         11   -1    0    0    0    0 -0.00000000000E+00 -0.00000000000E+00 -0.45593999997E+02  0.45594000000E+02  0.51100000000E-03 0. -1.
         23    2    1    2    0    0  0.17763568394E-14  0.71054273576E-14  0.00000000000E+00  0.91188000000E+02  0.91188000000E+02 0.  0.
    9900012    2    3    3    0    0 -0.11936587041E+02 -0.34676301646E+02  0.32932462491E+01  0.54367170611E+02  0.40000197042E+02 0.  0.
        -12    1    3    3    0    0  0.11936587041E+02  0.34676301646E+02 -0.32932462491E+01  0.36820829389E+02  0.00000000000E+00 0.  1.
         11    1    4    4    0    0 -0.19395477318E+02 -0.12106389489E+02  0.64258104791E+01  0.23749531520E+02  0.51100000000E-03 0.  1.
        -11    1    4    4    0    0 -0.34454759298E+00 -0.70456108563E+01 -0.97420713454E+01  0.12027772019E+02  0.51100000000E-03 0. -1.
        -12    1    4    4    0    0  0.78034378698E+01 -0.15524301301E+02  0.66095071154E+01  0.18589867072E+02  0.00000000000E+00 0.  1.
</event>
<event>
 8    1  0.1278459E-006  0.9118800E+02  0.7816164E-02  0.1184000E+00
        -11   -1    0    0    0    0  0.00000000000E+00  0.00000000000E+00  0.45593999997E+02  0.45594000000E+02  0.51100000000E-03 0.  1.
         11   -1    0    0    0    0 -0.00000000000E+00 -0.00000000000E+00 -0.45593999997E+02  0.45594000000E+02  0.51100000000E-03 0. -1.
         23    2    1    2    0    0  0.00000000000E+00  0.00000000000E+00  0.00000000000E+00  0.91188000000E+02  0.91188000000E+02 0.  0.
    9900012    2    3    3    0    0  0.31394760520E+02  0.10605771748E+02  0.16051987067E+02  0.54367086496E+02  0.40000005285E+02 0.  0.
         12    1    3    3    0    0 -0.31394760520E+02 -0.10605771748E+02 -0.16051987067E+02  0.36820913504E+02  0.00000000000E+00 0. -1.
         11    1    4    4    0    0 -0.23864345834E+01  0.94321545581E+00 -0.28140473491E+01  0.38083576724E+01  0.51100000000E-03 0. -1.
        -11    1    4    4    0    0  0.18062497423E+02  0.14055149880E+02 -0.32036214925E+01  0.23109829991E+02  0.51100000000E-03 0.  1.
        -12    1    4    4    0    0  0.15718697680E+02 -0.43925935881E+01  0.22069655909E+02  0.27448898833E+02  0.00000000000E+00 0.  1.
</event>
<event>
 8    1  0.1278459E-006  0.9118800E+02  0.7816164E-02  0.1184000E+00
        -11   -1    0    0    0    0  0.00000000000E+00  0.00000000000E+00  0.45593999997E+02  0.45594000000E+02  0.51100000000E-03 0.  1.
         11   -1    0    0    0    0 -0.00000000000E+00 -0.00000000000E+00 -0.45593999997E+02  0.45594000000E+02  0.51100000000E-03 0. -1.
         23    2    1    2    0    0  0.17763568394E-14  0.71054273576E-14 -0.44408920985E-15  0.91188000000E+02  0.91188000000E+02 0.  0.
    9900012    2    3    3    0    0 -0.12061942886E+02  0.34756612752E+02  0.15053764532E+01  0.54367098946E+02  0.40000033667E+02 0.  0.
         12    1    3    3    0    0  0.12061942886E+02 -0.34756612752E+02 -0.15053764532E+01  0.36820901054E+02  0.00000000000E+00 0. -1.
         11    1    4    4    0    0 -0.29270832716E+01  0.39617731522E+01 -0.15850963984E+02  0.16598690385E+02  0.51100000000E-03 0. -1.
        -11    1    4    4    0    0 -0.61073249872E+01  0.93059525227E+01  0.23286631128E+01  0.11372020181E+02  0.51100000000E-03 0.  1.
         12    1    4    4    0    0 -0.30275346269E+01  0.21488887077E+02  0.15027677325E+02  0.26396388380E+02  0.00000000000E+00 0. -1.
</event>
<event>
 8    1  0.1278459E-006  0.9118800E+02  0.7816164E-02  0.1184000E+00
        -11   -1    0    0    0    0  0.00000000000E+00  0.00000000000E+00  0.45593999997E+02  0.45594000000E+02  0.51100000000E-03 0.  1.
         11   -1    0    0    0    0 -0.00000000000E+00 -0.00000000000E+00 -0.45593999997E+02  0.45594000000E+02  0.51100000000E-03 0. -1.
         23    2    1    2    0    0  0.00000000000E+00  0.00000000000E+00  0.00000000000E+00  0.91188000000E+02  0.91188000000E+02 0.  0.
    9900012    2    3    3    0    0  0.31226707001E+01  0.14855736732E+02 -0.33546020203E+02  0.54367089397E+02  0.40000011898E+02 0.  0.
        -12    1    3    3    0    0 -0.31226707001E+01 -0.14855736732E+02  0.33546020203E+02  0.36820910603E+02  0.00000000000E+00 0.  1.
         11    1    4    4    0    0  0.28509084822E+01  0.14696473395E+02 -0.31428054458E+01  0.15296772070E+02  0.51100000000E-03 0. -1.
        -11    1    4    4    0    0 -0.10763933684E+02  0.42889414463E+01 -0.91298290321E+01  0.14751646196E+02  0.51100000000E-03 0.  1.
         12    1    4    4    0    0  0.11035695902E+02 -0.41296781096E+01 -0.21273385725E+02  0.24318671131E+02  0.00000000000E+00 0. -1.
</event>
<event>
 8    1  0.1278459E-006  0.9118800E+02  0.7816164E-02  0.1184000E+00
        -11   -1    0    0    0    0  0.00000000000E+00  0.00000000000E+00  0.45593999997E+02  0.45594000000E+02  0.51100000000E-03 0.  1.
         11   -1    0    0    0    0 -0.00000000000E+00 -0.00000000000E+00 -0.45593999997E+02  0.45594000000E+02  0.51100000000E-03 0. -1.
         23    2    1    2    0    0  0.00000000000E+00  0.00000000000E+00  0.00000000000E+00  0.91188000000E+02  0.91188000000E+02 0.  0.
    9900012    2    3    3    0    0  0.34357145781E+02 -0.98498206849E+01  0.88515871613E+01  0.54367040900E+02  0.39999901340E+02 0.  0.
         12    1    3    3    0    0 -0.34357145781E+02  0.98498206849E+01 -0.88515871613E+01  0.36820959100E+02  0.00000000000E+00 0. -1.
         11    1    4    4    0    0  0.20786523735E+02 -0.54889008246E+01 -0.59058078061E+01  0.22295429293E+02  0.51100000000E-03 0. -1.
        -11    1    4    4    0    0  0.12499938823E+01 -0.57319070318E-01 -0.67768524583E+01  0.68914076708E+01  0.51100000000E-03 0.  1.
        -12    1    4    4    0    0  0.12320628164E+02 -0.43036007900E+01  0.21534247426E+02  0.25180203937E+02  0.00000000000E+00 0.  1.
</event>
<event>
 8    1  0.1278459E-006  0.9118800E+02  0.7816164E-02  0.1184000E+00
        -11   -1    0    0    0    0  0.00000000000E+00  0.00000000000E+00  0.45593999997E+02  0.45594000000E+02  0.51100000000E-03 0. -1.
         11   -1    0    0    0    0 -0.00000000000E+00 -0.00000000000E+00 -0.45593999997E+02  0.45594000000E+02  0.51100000000E-03 0.  1.
         23    2    1    2    0    0  0.35527136788E-14  0.00000000000E+00  0.00000000000E+00  0.91188000000E+02  0.91188000000E+02 0.  0.
    9900012    2    3    3    0    0  0.28715109925E+02 -0.17945716928E+01 -0.22978378401E+02  0.54367029080E+02  0.39999874393E+02 0.  0.
         12    1    3    3    0    0 -0.28715109925E+02  0.17945716928E+01  0.22978378401E+02  0.36820970920E+02  0.00000000000E+00 0. -1.
         11    1    4    4    0    0  0.36217879174E+01 -0.51852579744E+01 -0.94061072834E+01  0.11334862261E+02  0.51100000000E-03 0. -1.
        -11    1    4    4    0    0  0.99222840458E+01 -0.56837068039E+01 -0.20957181759E+02  0.23873829003E+02  0.51100000000E-03 0.  1.
         12    1    4    4    0    0  0.15171037961E+02  0.90743930855E+01  0.73849106412E+01  0.19158337816E+02  0.00000000000E+00 0. -1.
</event>
<event>
 8    1  0.1278459E-006  0.9118800E+02  0.7816164E-02  0.1184000E+00
        -11   -1    0    0    0    0  0.00000000000E+00  0.00000000000E+00  0.45593999997E+02  0.45594000000E+02  0.51100000000E-03 0. -1.
         11   -1    0    0    0    0 -0.00000000000E+00 -0.00000000000E+00 -0.45593999997E+02  0.45594000000E+02  0.51100000000E-03 0.  1.
         23    2    1    2    0    0 -0.44408920985E-15  0.00000000000E+00  0.35527136788E-14  0.91188000000E+02  0.91188000000E+02 0.  0.
    9900012    2    3    3    0    0  0.17236272181E+01  0.31365509529E+02 -0.19209748644E+02  0.54367074947E+02  0.39999978957E+02 0.  0.
         12    1    3    3    0    0 -0.17236272181E+01 -0.31365509529E+02  0.19209748644E+02  0.36820925053E+02  0.00000000000E+00 0. -1.
         11    1    4    4    0    0  0.56079711016E-01  0.21951869441E+02  0.56686679828E+01  0.22672042560E+02  0.51100000000E-03 0. -1.
        -11    1    4    4    0    0 -0.25375471038E+00  0.13978513637E+02 -0.21687770217E+02  0.25803538754E+02  0.51100000000E-03 0.  1.
         12    1    4    4    0    0  0.19213022174E+01 -0.45648735489E+01 -0.31906464093E+01  0.58914936338E+01  0.00000000000E+00 0. -1.
</event>
<event>
 8    1  0.1278459E-006  0.9118800E+02  0.7816164E-02  0.1184000E+00
        -11   -1    0    0    0    0  0.00000000000E+00  0.00000000000E+00  0.45593999997E+02  0.45594000000E+02  0.51100000000E-03 0.  1.
         11   -1    0    0    0    0 -0.00000000000E+00 -0.00000000000E+00 -0.45593999997E+02  0.45594000000E+02  0.51100000000E-03 0. -1.
         23    2    1    2    0    0  0.35527136788E-14  0.00000000000E+00  0.00000000000E+00  0.91188000000E+02  0.91188000000E+02 0.  0.
    9900012    2    3    3    0    0 -0.22645386404E+02  0.27954424133E+02  0.78432059214E+01  0.54367092446E+02  0.40000018849E+02 0.  0.
         12    1    3    3    0    0  0.22645386404E+02 -0.27954424133E+02 -0.78432059214E+01  0.36820907554E+02  0.00000000000E+00 0. -1.
         11    1    4    4    0    0 -0.66337220768E+01 -0.56079562886E+01  0.10627456909E+02  0.13725825401E+02  0.51100000000E-03 0. -1.
        -11    1    4    4    0    0 -0.16298790031E+02  0.21042247006E+02 -0.68334497598E+01  0.27479496928E+02  0.51100000000E-03 0.  1.
        -12    1    4    4    0    0  0.28712570364E+00  0.12520133415E+02  0.40491987720E+01  0.13161770117E+02  0.00000000000E+00 0.  1.
</event>
<event>
 8    1  0.1278459E-006  0.9118800E+02  0.7816164E-02  0.1184000E+00
        -11   -1    0    0    0    0  0.00000000000E+00  0.00000000000E+00  0.45593999997E+02  0.45594000000E+02  0.51100000000E-03 0.  1.
         11   -1    0    0    0    0 -0.00000000000E+00 -0.00000000000E+00 -0.45593999997E+02  0.45594000000E+02  0.51100000000E-03 0. -1.
         23    2    1    2    0    0 -0.17763568394E-14  0.00000000000E+00 -0.17763568394E-14  0.91188000000E+02  0.91188000000E+02 0.  0.
    9900012    2    3    3    0    0  0.15965769990E+02 -0.30273978290E+02 -0.13577981635E+02  0.54367066305E+02  0.39999959256E+02 0.  0.
        -12    1    3    3    0    0 -0.15965769990E+02  0.30273978290E+02  0.13577981635E+02  0.36820933695E+02  0.00000000000E+00 0.  1.
         11    1    4    4    0    0  0.16980701980E+02 -0.21340773099E+02 -0.17627121286E+02  0.32472884708E+02  0.51100000000E-03 0. -1.
        -11    1    4    4    0    0  0.49718606343E+01 -0.14700696758E+01 -0.60600667984E+01  0.79752688281E+01  0.51100000000E-03 0.  1.
        -12    1    4    4    0    0 -0.59867926243E+01 -0.74631355159E+01  0.10109206449E+02  0.13918912769E+02  0.00000000000E+00 0.  1.
</event>
<event>
 8    1  0.1278459E-006  0.9118800E+02  0.7816164E-02  0.1184000E+00
        -11   -1    0    0    0    0  0.00000000000E+00  0.00000000000E+00  0.45593999997E+02  0.45594000000E+02  0.51100000000E-03 0.  1.
         11   -1    0    0    0    0 -0.00000000000E+00 -0.00000000000E+00 -0.45593999997E+02  0.45594000000E+02  0.51100000000E-03 0. -1.
         23    2    1    2    0    0 -0.88817841970E-15  0.00000000000E+00  0.00000000000E+00  0.91188000000E+02  0.91188000000E+02 0.  0.
    9900012    2    3    3    0    0 -0.74102756149E+01 -0.13854591392E+02  0.33300427044E+02  0.54367077570E+02  0.39999984935E+02 0.  0.
         12    1    3    3    0    0  0.74102756149E+01  0.13854591392E+02 -0.33300427044E+02  0.36820922430E+02  0.00000000000E+00 0. -1.
         11    1    4    4    0    0  0.11463111937E+02 -0.76259485752E+01  0.23463054529E+02  0.27204281925E+02  0.51100000000E-03 0. -1.
        -11    1    4    4    0    0 -0.88168833839E+01  0.21901485987E+01  0.10679069984E+02  0.14020581995E+02  0.51100000000E-03 0.  1.
         12    1    4    4    0    0 -0.10056504168E+02 -0.84187914155E+01 -0.84169746985E+00  0.13142213650E+02  0.00000000000E+00 0. -1.
</event>
<event>
 8    1  0.1278459E-006  0.9118800E+02  0.7816164E-02  0.1184000E+00
        -11   -1    0    0    0    0  0.00000000000E+00  0.00000000000E+00  0.45593999997E+02  0.45594000000E+02  0.51100000000E-03 0.  1.
         11   -1    0    0    0    0 -0.00000000000E+00 -0.00000000000E+00 -0.45593999997E+02  0.45594000000E+02  0.51100000000E-03 0. -1.
         23    2    1    2    0    0 -0.35527136788E-14 -0.22204460493E-15  0.00000000000E+00  0.91188000000E+02  0.91188000000E+02 0.  0.
    9900012    2    3    3    0    0  0.31404381402E+02 -0.11073701242E+01  0.19191544977E+02  0.54367124964E+02  0.40000092980E+02 0.  0.
        -12    1    3    3    0    0 -0.31404381402E+02  0.11073701242E+01 -0.19191544977E+02  0.36820875036E+02  0.00000000000E+00 0.  1.
         11    1    4    4    0    0 -0.39511999972E+01 -0.84583945884E+00  0.34835602922E+01  0.53350368676E+01  0.51100000000E-03 0. -1.
        -11    1    4    4    0    0  0.97290835268E+01  0.10022040128E+02  0.16231904723E+02  0.21414272946E+02  0.51100000000E-03 0.  1.
         12    1    4    4    0    0  0.25626497872E+02 -0.10283570793E+02 -0.52392003816E+00  0.27617815150E+02  0.00000000000E+00 0. -1.
</event>
<event>
 8    1  0.1278459E-006  0.9118800E+02  0.7816164E-02  0.1184000E+00
        -11   -1    0    0    0    0  0.00000000000E+00  0.00000000000E+00  0.45593999997E+02  0.45594000000E+02  0.51100000000E-03 0. -1.
         11   -1    0    0    0    0 -0.00000000000E+00 -0.00000000000E+00 -0.45593999997E+02  0.45594000000E+02  0.51100000000E-03 0.  1.
         23    2    1    2    0    0 -0.26645352591E-14  0.00000000000E+00  0.17763568394E-14  0.91188000000E+02  0.91188000000E+02 0.  0.
    9900012    2    3    3    0    0 -0.46700783449E+01  0.32928641179E+02  0.15801081040E+02  0.54367092846E+02  0.40000019760E+02 0.  0.
        -12    1    3    3    0    0  0.46700783449E+01 -0.32928641179E+02 -0.15801081040E+02  0.36820907154E+02  0.00000000000E+00 0.  1.
         11    1    4    4    0    0 -0.12362990431E+02  0.16135868784E+02  0.49439533854E+01  0.20920145055E+02  0.51100000000E-03 0. -1.
        -11    1    4    4    0    0  0.74831386982E+01  0.10337471550E+02  0.19102473518E+02  0.22973140351E+02  0.51100000000E-03 0.  1.
        -12    1    4    4    0    0  0.20977338743E+00  0.64553008457E+01 -0.82453458632E+01  0.10473807440E+02  0.00000000000E+00 0.  1.
</event>
