<LesHouchesEvents version="3.0">
<header>
<!--
#*********************************************************************
#                                                                    *
#                        MadGraph5_aMC@NLO                           *
#                                                                    *
#                           Going Beyond                             *
#                                                                    *
#                   http://madgraph.hep.uiuc.edu                     *
#                   http://madgraph.phys.ucl.ac.be                   *
#                   http://amcatnlo.cern.ch                          *
#                                                                    *
#                     The MadGraph5_aMC@NLO team                     *
#                                                                    *
#....................................................................*
#                                                                    *
# This file contains all the information necessary to reproduce      *
# the events generated:                                              *
#                                                                    *
# 1. software version                                                *
# 2. proc_card          : code generation info including model       *
# 3. param_card         : model primary parameters in the LH format  *
# 4. run_card           : running parameters (collider and cuts)     *
# 5. pythia_card        : present only if pythia has been run        *
# 6. pgs_card           : present only if pgs has been run           *
# 7. delphes_cards      : present only if delphes has been run       *
#                                                                    *
#                                                                    *
#*********************************************************************
-->
<MGVersion>
2.6.7
</MGVersion>
<MG5ProcCard>
<![CDATA[
#************************************************************
#*                     MadGraph5_aMC@NLO                    *
#*                                                          *
#*                *                       *                 *
#*                  *        * *        *                   *
#*                    * * * * 5 * * * *                     *
#*                  *        * *        *                   *
#*                *                       *                 *
#*                                                          *
#*                                                          *
#*         VERSION 2.6.7                 2019-10-16         *
#*                                                          *
#*    The MadGraph5_aMC@NLO Development Team - Find us at   *
#*    https://server06.fynu.ucl.ac.be/projects/madgraph     *
#*                                                          *
#************************************************************
#*                                                          *
#*               Command File for MadGraph5_aMC@NLO         *
#*                                                          *
#*     run as ./bin/mg5_aMC  filename                       *
#*                                                          *
#************************************************************
set low_mem_multicore_nlo_generation False
set default_unset_couplings 99
set group_subprocesses Auto
set ignore_six_quark_processes False
set loop_optimized_output True
set loop_color_flows False
set gauge unitary
set complex_mass_scheme False
set max_npoint_for_channel 0
import model sm
define p = g u c d s u~ c~ d~ s~
define j = g u c d s u~ c~ d~ s~
define l+ = e+ mu+
define l- = e- mu-
define vl = ve vm vt
define vl~ = ve~ vm~ vt~
import model SM_HeavyN_CKM_AllMasses_LO
define e = e+ e-
define nue = ve ve~
generate e+ e- > z, z > n1 ve , (n1 > z ve, z > e+ e-)
add process e+ e- > z, z > n1 ve~ , (n1 > z ve~, z > e+ e-)
add process e+ e- > z, z > n1 ve , (n1 > w+ e-, w+ > ve e+)
add process e+ e- > z, z > n1 ve~ , (n1 > w- e+, w- > ve~ e-)
add process e+ e- > z, z > n1 ve , (n1 > z ve~ , z > e+ e-)
add process e+ e- > z, z > n1 ve~ , (n1 > z ve, z > e+ e-)
add process e+ e- > z, z > n1 ve , (n1 > w- e+ , w- > e- ve~)
add process e+ e- > z, z > n1 ve~ , (n1 > w+ e- , w+ > e+ ve)
output HNL_Majorana_70GeV_1e-3Ve
]]>
</MG5ProcCard>
<MGProcCard>
#*********************************************************************
#                        MadGraph/MadEvent                           *
#                   http://madgraph.hep.uiuc.edu                     *
#                                                                    *
#                          proc_card.dat                             *
#*********************************************************************
#                                                                    *
#            This Files is generated by MADGRAPH 5                   *
#                                                                    *
# WARNING: This Files is generated for MADEVENT (compatibility issue)*
#          This files is NOT a valid MG4 proc_card.dat               *
#          Running this in MG4 will NEVER reproduce the result of MG5*
#                                                                    *
#*********************************************************************
#*********************************************************************
# Process(es) requested : mg2 input                                  *
#*********************************************************************
# Begin PROCESS # This is TAG. Do not modify this line
e+ e- > z , z > n1 ve , (n1 > z ve , z > e+ e-)           #Process
# Be carefull the coupling are here in MG5 convention
          
end_coup           # End the couplings input

done               # this tells MG there are no more procs
# End PROCESS  # This is TAG. Do not modify this line
#*********************************************************************
# Model information                                                  *
#*********************************************************************
# Begin MODEL  # This is TAG. Do not modify this line
SM_HeavyN_CKM_AllMasses_LO
# End   MODEL  # This is TAG. Do not modify this line
#*********************************************************************
# Start multiparticle definitions                                    *
#*********************************************************************
# Begin MULTIPARTICLES # This is TAG. Do not modify this line

# End  MULTIPARTICLES # This is TAG. Do not modify this line
</MGProcCard>
<MGRunCard>
<![CDATA[
#*********************************************************************
#                       MadGraph5_aMC@NLO                            *
#                                                                    *
#                     run_card.dat MadEvent                          *
#                                                                    *
#  This file is used to set the parameters of the run.               *
#                                                                    *
#  Some notation/conventions:                                        *
#                                                                    *
#   Lines starting with a '# ' are info or comments                  *
#                                                                    *
#   mind the format:   value    = variable     ! comment             *
#                                                                    *
#   To display more options, you can type the command:               *
#      update full_run_card                                          *
#*********************************************************************
#
#*******************                                                 
# Running parameters
#*******************                                                 
#                                                                    
#*********************************************************************
# Tag name for the run (one word)                                    *
#*********************************************************************
  tag_1	= run_tag ! name of the run 
#*********************************************************************
# Number of events and rnd seed                                      *
# Warning: Do not generate more than 1M events in a single run       *
#*********************************************************************
  1000	= nevents ! Number of unweighted events requested 
 21 = iseed ! rnd seed (0=assigned automatically=default))
#*********************************************************************
# Collider type and energy                                           *
# lpp: 0=No PDF, 1=proton, -1=antiproton, 2=photon from proton,      *
#                                         3=photon from electron     *
#*********************************************************************
  0	= lpp1 ! beam 1 type 
  0	= lpp2 ! beam 2 type
  45.594	= ebeam1 ! beam 1 total energy in GeV
  45.594	= ebeam2 ! beam 2 total energy in GeV
#*********************************************************************
# Beam polarization from -100 (left-handed) to 100 (right-handed)    *
#*********************************************************************
  0.0	= polbeam1 ! beam polarization for beam 1
  0.0	= polbeam2 ! beam polarization for beam 2

#*********************************************************************
# PDF CHOICE: this automatically fixes also alpha_s and its evol.    *
#*********************************************************************
  nn23lo1	= pdlabel ! PDF set                                     
  230000	= lhaid ! if pdlabel=lhapdf, this is the lhapdf number
# To see heavy ion options: type "update ion_pdf"
#*********************************************************************
# Renormalization and factorization scales                           *
#*********************************************************************
  False	= fixed_ren_scale ! if .true. use fixed ren scale
  False	= fixed_fac_scale ! if .true. use fixed fac scale
  91.188	= scale ! fixed ren scale
  91.188	= dsqrt_q2fact1 ! fixed fact scale for pdf1
  91.188	= dsqrt_q2fact2 ! fixed fact scale for pdf2
  -1	= dynamical_scale_choice ! Choose one of the preselected dynamical choices
  1.0	= scalefact ! scale factor for event-by-event scales
#*********************************************************************
# Type and output format
#*********************************************************************
  False	= gridpack !True = setting up the grid pack
  0.0	= time_of_flight ! threshold (in mm) below which the invariant livetime is not written (-1 means not written)
  3.0	= lhe_version ! Change the way clustering information pass to shower.        
  True	= clusinfo ! include clustering tag in output
  average	= event_norm ! average/sum. Normalization of the weight in the LHEF

#*********************************************************************
# Matching parameter (MLM only)
#*********************************************************************
  0	= ickkw ! 0 no matching, 1 MLM
  1.0	= alpsfact ! scale factor for QCD emission vx
  False	= chcluster ! cluster only according to channel diag
  5	= asrwgtflavor ! highest quark flavor for a_s reweight
  True	= auto_ptj_mjj ! Automatic setting of ptj and mjj if xqcut >0
                                   ! (turn off for VBF and single top processes) 
  0.0	= xqcut ! minimum kt jet measure between partons
#*********************************************************************
#
#*********************************************************************
# handling of the helicities:
#  0: sum over all helicities
#  1: importance sampling over helicities
#*********************************************************************
  0	= nhel ! using helicities importance sampling or not.
#*********************************************************************
# Generation bias, check the wiki page below for more information:   *
#  'cp3.irmp.ucl.ac.be/projects/madgraph/wiki/LOEventGenerationBias' *
#*********************************************************************
  None	= bias_module ! Bias type of bias, [None, ptj_bias, -custom_folder-]
  {}	= bias_parameters ! Specifies the parameters of the module.
#
#*******************************                                                 
# Parton level cuts definition *
#*******************************                                     
#                                                                    
#
#*********************************************************************
# BW cutoff (M+/-bwcutoff*Gamma) ! Define on/off-shell for "$" and decay  
#*********************************************************************
  15.0	= bwcutoff ! (M+/-bwcutoff*Gamma)
#*********************************************************************
# Apply pt/E/eta/dr/mij/kt_durham cuts on decay products or not
# (note that etmiss/ptll/ptheavy/ht/sorted cuts always apply)
#*********************************************************************
  False	= cut_decays ! Cut decay products 
#*********************************************************************
# Standard Cuts                                                      *
#*********************************************************************
# Minimum and maximum pt's (for max, -1 means no cut)                *
#*********************************************************************
  0.0	= ptj ! minimum pt for the jets 
  0.0	= ptb ! minimum pt for the b 
  0.0	= pta ! minimum pt for the photons 
  0.0	= ptl ! minimum pt for the charged leptons 
  0.0	= misset ! minimum missing Et (sum of neutrino's momenta)
  -1.0	= ptjmax ! maximum pt for the jets
  -1.0	= ptbmax ! maximum pt for the b
  -1.0	= ptamax ! maximum pt for the photons
  -1.0	= ptlmax ! maximum pt for the charged leptons
  -1.0	= missetmax ! maximum missing Et (sum of neutrino's momenta)
  {}	= pt_min_pdg ! pt cut for other particles (use pdg code). Applied on particle and anti-particle
  {}	= pt_max_pdg ! pt cut for other particles (syntax e.g. {6: 100, 25: 50}) 
#*********************************************************************
# Minimum and maximum E's (in the center of mass frame)              *
#*********************************************************************
  0.0	= ej ! minimum E for the jets
  0.0	= eb ! minimum E for the b
  0.0	= ea ! minimum E for the photons
  0.0	= el ! minimum E for the charged leptons
  -1.0	= ejmax ! maximum E for the jets
  -1.0	= ebmax ! maximum E for the b
  -1.0	= eamax ! maximum E for the photons
  -1.0	= elmax ! maximum E for the charged leptons
  {}	= e_min_pdg ! E cut for other particles (use pdg code). Applied on particle and anti-particle
  {}	= e_max_pdg ! E cut for other particles (syntax e.g. {6: 100, 25: 50})

#*********************************************************************
# Maximum and minimum absolute rapidity (for max, -1 means no cut)   *
#*********************************************************************
  -1.0	= etaj ! max rap for the jets 
  -1.0	= etab ! max rap for the b
  -1.0	= etaa ! max rap for the photons 
  -1.0	= etal ! max rap for the charged leptons 
  0.0	= etajmin ! min rap for the jets
  0.0	= etabmin ! min rap for the b
  0.0	= etaamin ! min rap for the photons
  0.0	= etalmin ! main rap for the charged leptons
  {}	= eta_min_pdg ! rap cut for other particles (use pdg code). Applied on particle and anti-particle
  {}	= eta_max_pdg ! rap cut for other particles (syntax e.g. {6: 2.5, 23: 5})
#*********************************************************************
# Minimum and maximum DeltaR distance                                *
#*********************************************************************
  0.0	= drjj ! min distance between jets 
  0.0	= drbb ! min distance between b's 
  0.0	= drll ! min distance between leptons 
  0.0	= draa ! min distance between gammas 
  0.0	= drbj ! min distance between b and jet 
  0.0	= draj ! min distance between gamma and jet 
  0.0	= drjl ! min distance between jet and lepton 
  0.0	= drab ! min distance between gamma and b 
  0.0	= drbl ! min distance between b and lepton 
  0.0	= dral ! min distance between gamma and lepton 
  -1.0	= drjjmax ! max distance between jets
  -1.0	= drbbmax ! max distance between b's
  -1.0	= drllmax ! max distance between leptons
  -1.0	= draamax ! max distance between gammas
  -1.0	= drbjmax ! max distance between b and jet
  -1.0	= drajmax ! max distance between gamma and jet
  -1.0	= drjlmax ! max distance between jet and lepton
  -1.0	= drabmax ! max distance between gamma and b
  -1.0	= drblmax ! max distance between b and lepton
  -1.0	= dralmax ! maxdistance between gamma and lepton
#*********************************************************************
# Minimum and maximum invariant mass for pairs                       *
# WARNING: for four lepton final state mmll cut require to have      *
#          different lepton masses for each flavor!                  *           
#*********************************************************************
  0.0	= mmjj ! min invariant mass of a jet pair 
  0.0	= mmbb ! min invariant mass of a b pair 
  0.0	= mmaa ! min invariant mass of gamma gamma pair
  0.0	= mmll ! min invariant mass of l+l- (same flavour) lepton pair
  -1.0	= mmjjmax ! max invariant mass of a jet pair
  -1.0	= mmbbmax ! max invariant mass of a b pair
  -1.0	= mmaamax ! max invariant mass of gamma gamma pair
  -1.0	= mmllmax ! max invariant mass of l+l- (same flavour) lepton pair
  {}	= mxx_min_pdg ! min invariant mass of a pair of particles X/X~ (e.g. {6:250})
  {'default': False}	= mxx_only_part_antipart ! if True the invariant mass is applied only 
                       ! to pairs of particle/antiparticle and not to pairs of the same pdg codes.  
#*********************************************************************
# Minimum and maximum invariant mass for all letpons                 *
#*********************************************************************
  0.0	= mmnl ! min invariant mass for all letpons (l+- and vl) 
  -1.0	= mmnlmax ! max invariant mass for all letpons (l+- and vl) 
#*********************************************************************
# Minimum and maximum pt for 4-momenta sum of leptons                *
#*********************************************************************
  0.0	= ptllmin ! Minimum pt for 4-momenta sum of leptons(l and vl)
  -1.0	= ptllmax ! Maximum pt for 4-momenta sum of leptons(l and vl)
#*********************************************************************
# Inclusive cuts                                                     *
#*********************************************************************
  0.0	= ptheavy ! minimum pt for at least one heavy final state
  0.0	= xptj ! minimum pt for at least one jet  
  0.0	= xptb ! minimum pt for at least one b 
  0.0	= xpta ! minimum pt for at least one photon 
  0.0	= xptl ! minimum pt for at least one charged lepton 
#*********************************************************************
# Control the pt's of the jets sorted by pt                          *
#*********************************************************************
  0.0	= ptj1min ! minimum pt for the leading jet in pt
  0.0	= ptj2min ! minimum pt for the second jet in pt
  0.0	= ptj3min ! minimum pt for the third jet in pt
  0.0	= ptj4min ! minimum pt for the fourth jet in pt
  -1.0	= ptj1max ! maximum pt for the leading jet in pt 
  -1.0	= ptj2max ! maximum pt for the second jet in pt
  -1.0	= ptj3max ! maximum pt for the third jet in pt
  -1.0	= ptj4max ! maximum pt for the fourth jet in pt
  0	= cutuse ! reject event if fails any (0) / all (1) jet pt cuts
#*********************************************************************
# Control the pt's of leptons sorted by pt                           *
#*********************************************************************
  0.0	= ptl1min ! minimum pt for the leading lepton in pt
  0.0	= ptl2min ! minimum pt for the second lepton in pt
  0.0	= ptl3min ! minimum pt for the third lepton in pt
  0.0	= ptl4min ! minimum pt for the fourth lepton in pt
  -1.0	= ptl1max ! maximum pt for the leading lepton in pt 
  -1.0	= ptl2max ! maximum pt for the second lepton in pt
  -1.0	= ptl3max ! maximum pt for the third lepton in pt
  -1.0	= ptl4max ! maximum pt for the fourth lepton in pt
#*********************************************************************
# Control the Ht(k)=Sum of k leading jets                            *
#*********************************************************************
  0.0	= htjmin ! minimum jet HT=Sum(jet pt)
  -1.0	= htjmax ! maximum jet HT=Sum(jet pt)
  0.0	= ihtmin !inclusive Ht for all partons (including b)
  -1.0	= ihtmax !inclusive Ht for all partons (including b)
  0.0	= ht2min ! minimum Ht for the two leading jets
  0.0	= ht3min ! minimum Ht for the three leading jets
  0.0	= ht4min ! minimum Ht for the four leading jets
  -1.0	= ht2max ! maximum Ht for the two leading jets
  -1.0	= ht3max ! maximum Ht for the three leading jets
  -1.0	= ht4max ! maximum Ht for the four leading jets
#***********************************************************************
# Photon-isolation cuts, according to hep-ph/9801442                   *
# When ptgmin=0, all the other parameters are ignored                  *
# When ptgmin>0, pta and draj are not going to be used                 *
#***********************************************************************
  0.0	= ptgmin ! Min photon transverse momentum
  0.4	= r0gamma ! Radius of isolation code
  1.0	= xn ! n parameter of eq.(3.4) in hep-ph/9801442
  1.0	= epsgamma ! epsilon_gamma parameter of eq.(3.4) in hep-ph/9801442
  True	= isoem ! isolate photons from EM energy (photons and leptons)
#*********************************************************************
# WBF cuts                                                           *
#*********************************************************************
  0.0	= xetamin ! minimum rapidity for two jets in the WBF case  
  -1.0	= deltaeta ! minimum rapidity for two jets in the WBF case 
#***********************************************************************
# Turn on either the ktdurham or ptlund cut to activate                *
# CKKW(L) merging with Pythia8 [arXiv:1410.3012, arXiv:1109.4829]      *
#***********************************************************************
  0.0	= ktdurham 
  0.0	= dparameter 
  0.0	= ptlund 
  1, 2, 3, 4, 5, 6, 21	= pdgs_for_merging_cut ! PDGs for two cuts above   
#*********************************************************************
# maximal pdg code for quark to be considered as a light jet         *
# (otherwise b cuts are applied)                                     *
#*********************************************************************
  4	= maxjetflavor ! Maximum jet pdg code
#*********************************************************************
#
#*********************************************************************
# Store info for systematics studies                                 *
# WARNING: Do not use for interference type of computation           *
#*********************************************************************
  False	= use_syst ! Enable systematics studies
#
  systematics	= systematics_program ! none, systematics [python], SysCalc [depreceted, C++]
['--mur=0.5,1,2', '--muf=0.5,1,2', '--pdf=errorset'] = systematics_arguments ! see: https://cp3.irmp.ucl.ac.be/projects/madgraph/wiki/Systematics#Systematicspythonmodule
# Syscalc is deprecated but to see the associate options type'update syscalc'#********************************************************************* 
#  Additional hidden parameters
#*********************************************************************
  ['--mur=0.5,1,2', '--muf=0.5,1,2', '--pdf=errorset']	= systematics_arguments # Choose the argment to pass to the systematics command. like --mur=0.25,1,4. Look at the help of the systematics function for more details.
]]>
</MGRunCard>
<slha>
######################################################################
## PARAM_CARD AUTOMATICALY GENERATED BY MG5                       ####
######################################################################
###################################
## INFORMATION FOR CKMBLOCK
###################################
BLOCK CKMBLOCK # 
      1 2.275910e-01 # cabi
      2 3.508000e-03 # th13
      3 4.153900e-02 # th23
      4 1.200000e+00 # del13
###################################
## INFORMATION FOR MASS
###################################
BLOCK MASS # 
      1 5.040000e-03 # md
      2 2.550000e-03 # mu
      3 1.010000e-01 # ms
      4 1.270000e+00 # mc
      5 4.700000e+00 # mb
      6 1.733000e+02 # mt
      11 5.110000e-04 # me
      13 1.056600e-01 # mmu
      15 1.777000e+00 # mta
      23 9.118760e+01 # mz
      25 1.257000e+02 # mh
      9900012 7.000000e+01 # mn1
      9900014 1.000000e+04 # mn2
      9900016 1.000000e+04 # mn3
      12 0.000000e+00 # ve : 0.0
      14 0.000000e+00 # vm : 0.0
      16 0.000000e+00 # vt : 0.0
      21 0.000000e+00 # g : 0.0
      22 0.000000e+00 # a : 0.0
      24 7.995123e+01 # w+ : cmath.sqrt(mz__exp__2/2. + cmath.sqrt(mz__exp__4/4. - (aew*cmath.pi*mz__exp__2)/(gf*sqrt__2)))
###################################
## INFORMATION FOR NUMIXING
###################################
BLOCK NUMIXING # 
      1 1.000000e-03 # ven1
      2 0.000000e+00 # ven2
      3 0.000000e+00 # ven3
      4 0.000000e+00 # vmun1
      5 1.000000e+00 # vmun2
      6 0.000000e+00 # vmun3
      7 0.000000e+00 # vtan1
      8 0.000000e+00 # vtan2
      9 1.000000e+00 # vtan3
###################################
## INFORMATION FOR SMINPUTS
###################################
BLOCK SMINPUTS # 
      1 1.279400e+02 # aewm1
      2 1.174560e-05 # gf
      3 1.184000e-01 # as
###################################
## INFORMATION FOR YUKAWA
###################################
BLOCK YUKAWA # 
      1 5.040000e-03 # ymdo
      2 2.550000e-03 # ymup
      3 1.010000e-01 # yms
      4 1.270000e+00 # ymc
      5 4.700000e+00 # ymb
      6 1.733000e+02 # ymt
      11 5.110000e-04 # yme
      13 1.056600e-01 # ymm
      15 1.777000e+00 # ymtau
###################################
## INFORMATION FOR DECAY
###################################
BLOCK QNUMBERS 9900012 #   n1
      1 0 # 3 times electric charge
      2 2 # number of spin states (2s+1)
      3 1 # colour rep (1: singlet, 3: triplet, 8: octet)
      4 0 # particle/antiparticle distinction (0=own anti)
###################################
## INFORMATION FOR QNUMBERS 9900014
###################################
BLOCK QNUMBERS 9900014 #   n2
      1 0 # 3 times electric charge
      2 2 # number of spin states (2s+1)
      3 1 # colour rep (1: singlet, 3: triplet, 8: octet)
      4 0 # particle/antiparticle distinction (0=own anti)
###################################
## INFORMATION FOR QNUMBERS 9900016
###################################
BLOCK QNUMBERS 9900016 #   n3
      1 0 # 3 times electric charge
      2 2 # number of spin states (2s+1)
      3 1 # colour rep (1: singlet, 3: triplet, 8: octet)
      4 0 # particle/antiparticle distinction (0=own anti)
#
#*************************
#      Decay widths      *
#*************************
#
#      PDG        Width
DECAY  1   0.000000e+00
#
#      PDG        Width
DECAY  2   0.000000e+00
#
#      PDG        Width
DECAY  3   0.000000e+00
#
#      PDG        Width
DECAY  4   0.000000e+00
#
#      PDG        Width
DECAY  5   0.000000e+00
#
#      PDG        Width
DECAY  6   1.350000e+00
#
#      PDG        Width
DECAY  11   0.000000e+00
#
#      PDG        Width
DECAY  12   0.000000e+00
#
#      PDG        Width
DECAY  13   0.000000e+00
#
#      PDG        Width
DECAY  14   0.000000e+00
#
#      PDG        Width
DECAY  15   0.000000e+00
#
#      PDG        Width
DECAY  16   0.000000e+00
#
#      PDG        Width
DECAY  21   0.000000e+00
#
#      PDG        Width
DECAY  22   0.000000e+00
#
#      PDG        Width
DECAY  23   2.495200e+00
#
#      PDG        Width
DECAY  24   2.085000e+00
#
#      PDG        Width
DECAY  25   4.170000e-03
#
#      PDG        Width
DECAY  9900012   1.773221e-09
#  BR             NDA  ID1    ID2   ...
   1.262561e-01   3    -11  -4  3 # 2.23879967898e-10
   1.261264e-01   3    -11  -2  1 # 2.23649981134e-10
   1.252241e-01   3    -1  2  11 # 2.22050003826e-10
   1.251790e-01   3    -3  4  11 # 2.21970031559e-10
   4.444793e-02   3    -13  11  14 # 7.88160028825e-11
   4.416822e-02   3    -15  11  16 # 7.83200152366e-11
   4.402667e-02   3    -16  -11  15 # 7.80690158041e-11
   4.400467e-02   3    -14  -11  13 # 7.80300049421e-11
   2.903305e-02   3    -11  11  12 # 5.1482013954e-11
   2.878209e-02   3    -12  -11  11 # 5.10370064119e-11
   1.970426e-02   3    -3  3  12 # 3.49400076215e-11
   1.951139e-02   3    -1  1  12 # 3.45980064872e-11
   1.944823e-02   3    -12  -1  1 # 3.44860098488e-11
   1.938563e-02   3    -12  -3  3 # 3.43750062142e-11
   1.807727e-02   3    -5  5  12 # 3.20549947867e-11
   1.806825e-02   3    -12  -5  5 # 3.20390003332e-11
   1.529308e-02   3    -12  -2  2 # 2.71180106107e-11
   1.521863e-02   3    -4  4  12 # 2.69859943072e-11
   1.513292e-02   3    -2  2  12 # 2.68340115353e-11
   1.504550e-02   3    -12  -4  4 # 2.66789965555e-11
   8.697451e-03   3    -14  -12  14 # 1.54225009864e-11
   8.697451e-03   3    -16  -12  16 # 1.54225009864e-11
   8.696887e-03   3    -14  12  14 # 1.54215008898e-11
   8.696887e-03   3    -16  12  16 # 1.54215008898e-11
   6.776934e-03   3    -3  2  11 # 1.20170016844e-11
   6.707005e-03   3    -11  -4  1 # 1.18930021131e-11
   6.692342e-03   3    -1  4  11 # 1.18670013736e-11
   6.633128e-03   3    -11  -2  3 # 1.17620018653e-11
   4.435093e-03   3    -13  12  13 # 7.86440004455e-12
   4.404697e-03   3    -13  -12  13 # 7.81050121904e-12
   4.376669e-03   3    -12  12  12 # 7.76080138085e-12
   4.353096e-03   3    -15  12  15 # 7.71900124222e-12
   4.351009e-03   3    -12  -12  12 # 7.71530052999e-12
   4.347907e-03   3    -15  -12  15 # 7.70979999845e-12
#
#      PDG        Width
DECAY  9900014   1.500000e+00
#
#      PDG        Width
DECAY  9900016   1.230000e+01
</slha>
<MGGenerationInfo>
#  Number of Events        :       1000
#  Integrated weight (pb)  :       0.00694805
</MGGenerationInfo>
</header>
<init>
-11 11 4.559400e+01 4.559400e+01 0 0 247000 247000 -4 8
8.686700e-04 7.543300e-07 6.948050e-03 1
8.694900e-04 8.798600e-07 6.948050e-03 3
8.684700e-04 7.038400e-07 6.948050e-03 2
8.665000e-04 8.234000e-07 6.948050e-03 5
8.680600e-04 1.026700e-06 6.948050e-03 4
8.688400e-04 1.328400e-06 6.948050e-03 7
8.689200e-04 7.122400e-07 6.948050e-03 6
8.691000e-04 7.084200e-07 6.948050e-03 8
<generator name='MadGraph5_aMC@NLO' version='2.6.7'>please cite 1405.0301 </generator>
</init>
<event>
 5      3 +6.9480500e-03 9.11880000e+01 7.81616400e-03 1.18400000e-01
      -11 -1    0    0    0    0 +0.0000000000e+00 +0.0000000000e+00 +4.5593999997e+01 4.5594000000e+01 5.1100000000e-04 0.0000e+00 -1.0000e+00
       11 -1    0    0    0    0 -0.0000000000e+00 -0.0000000000e+00 -4.5593999997e+01 4.5594000000e+01 5.1100000000e-04 0.0000e+00 1.0000e+00
       23  2    1    2    0    0 +0.0000000000e+00 +0.0000000000e+00 +0.0000000000e+00 9.1188000000e+01 9.1188000000e+01 5.4152e-14 0.0000e+00
  9900012  1    3    3    0    0 -2.0831836016e-01 -1.4469456411e+01 -1.1885731116e+01 7.2461570294e+01 7.0000000000e+01 6.4409e-07 1.0000e+00
       12  1    3    3    0    0 +2.0831836016e-01 +1.4469456411e+01 +1.1885731116e+01 1.8726429706e+01 0.0000000000e+00 0.0000e+00 -1.0000e+00
</event>
<event>
 5      6 +6.9480500e-03 9.11880000e+01 7.81616400e-03 1.18400000e-01
      -11 -1    0    0    0    0 +0.0000000000e+00 +0.0000000000e+00 +4.5593999997e+01 4.5594000000e+01 5.1100000000e-04 0.0000e+00 -1.0000e+00
       11 -1    0    0    0    0 -0.0000000000e+00 -0.0000000000e+00 -4.5593999997e+01 4.5594000000e+01 5.1100000000e-04 0.0000e+00 1.0000e+00
       23  2    1    2    0    0 +0.0000000000e+00 +0.0000000000e+00 +0.0000000000e+00 9.1188000000e+01 9.1188000000e+01 1.9521e-14 0.0000e+00
  9900012  1    3    3    0    0 -1.1776390796e+01 -1.3046129680e+01 -6.4648503244e+00 7.2461570294e+01 7.0000000000e+01 2.6966e-04 -1.0000e+00
      -12  1    3    3    0    0 +1.1776390796e+01 +1.3046129680e+01 +6.4648503244e+00 1.8726429706e+01 0.0000000000e+00 0.0000e+00 1.0000e+00
</event>
<event>
 5      3 +6.9480500e-03 9.11880000e+01 7.81616400e-03 1.18400000e-01
      -11 -1    0    0    0    0 +0.0000000000e+00 +0.0000000000e+00 +4.5593999997e+01 4.5594000000e+01 5.1100000000e-04 0.0000e+00 1.0000e+00
       11 -1    0    0    0    0 -0.0000000000e+00 -0.0000000000e+00 -4.5593999997e+01 4.5594000000e+01 5.1100000000e-04 0.0000e+00 -1.0000e+00
       23  2    1    2    0    0 +0.0000000000e+00 +0.0000000000e+00 +0.0000000000e+00 9.1188000000e+01 9.1188000000e+01 3.3850e-14 0.0000e+00
  9900012  1    3    3    0    0 +7.2667168873e+00 -8.8744678822e+00 +1.4802628652e+01 7.2461570294e+01 7.0000000000e+01 3.2457e-04 1.0000e+00
       12  1    3    3    0    0 -7.2667168873e+00 +8.8744678822e+00 -1.4802628652e+01 1.8726429706e+01 0.0000000000e+00 0.0000e+00 -1.0000e+00
</event>
<event>
 5      6 +6.9480500e-03 9.11880000e+01 7.81616400e-03 1.18400000e-01
      -11 -1    0    0    0    0 +0.0000000000e+00 +0.0000000000e+00 +4.5593999997e+01 4.5594000000e+01 5.1100000000e-04 0.0000e+00 1.0000e+00
       11 -1    0    0    0    0 -0.0000000000e+00 -0.0000000000e+00 -4.5593999997e+01 4.5594000000e+01 5.1100000000e-04 0.0000e+00 -1.0000e+00
       23  2    1    2    0    0 +0.0000000000e+00 +0.0000000000e+00 +0.0000000000e+00 9.1188000000e+01 9.1188000000e+01 1.2954e-13 0.0000e+00
  9900012  1    3    3    0    0 +5.6184455576e+00 +5.2793387026e+00 -1.7065779264e+01 7.2461570294e+01 7.0000000000e+01 6.3241e-05 -1.0000e+00
      -12  1    3    3    0    0 -5.6184455576e+00 -5.2793387026e+00 +1.7065779264e+01 1.8726429706e+01 0.0000000000e+00 0.0000e+00 1.0000e+00
</event>
<event>
 5      4 +6.9480500e-03 9.11880000e+01 7.81616400e-03 1.18400000e-01
      -11 -1    0    0    0    0 +0.0000000000e+00 +0.0000000000e+00 +4.5593999997e+01 4.5594000000e+01 5.1100000000e-04 0.0000e+00 -1.0000e+00
       11 -1    0    0    0    0 -0.0000000000e+00 -0.0000000000e+00 -4.5593999997e+01 4.5594000000e+01 5.1100000000e-04 0.0000e+00 1.0000e+00
       23  2    1    2    0    0 +0.0000000000e+00 +0.0000000000e+00 +0.0000000000e+00 9.1188000000e+01 9.1188000000e+01 3.4354e-16 0.0000e+00
  9900012  1    3    3    0    0 -7.9385502865e+00 +1.1512945871e+01 +1.2454343269e+01 7.2461570294e+01 7.0000000000e+01 4.8810e-05 -1.0000e+00
      -12  1    3    3    0    0 +7.9385502865e+00 -1.1512945871e+01 -1.2454343269e+01 1.8726429706e+01 0.0000000000e+00 0.0000e+00 1.0000e+00
</event>
<event>
 5      8 +6.9480500e-03 9.11880000e+01 7.81616400e-03 1.18400000e-01
      -11 -1    0    0    0    0 +0.0000000000e+00 +0.0000000000e+00 +4.5593999997e+01 4.5594000000e+01 5.1100000000e-04 0.0000e+00 1.0000e+00
       11 -1    0    0    0    0 -0.0000000000e+00 -0.0000000000e+00 -4.5593999997e+01 4.5594000000e+01 5.1100000000e-04 0.0000e+00 -1.0000e+00
       23  2    1    2    0    0 +0.0000000000e+00 +0.0000000000e+00 +0.0000000000e+00 9.1188000000e+01 9.1188000000e+01 2.0024e-13 0.0000e+00
  9900012  1    3    3    0    0 +1.6981188062e+01 -7.4077725463e+00 +2.7282462160e+00 7.2461570294e+01 7.0000000000e+01 1.6853e-04 1.0000e+00
      -12  1    3    3    0    0 -1.6981188062e+01 +7.4077725463e+00 -2.7282462160e+00 1.8726429706e+01 0.0000000000e+00 0.0000e+00 1.0000e+00
</event>
<event>
 5      1 +6.9480500e-03 9.11880000e+01 7.81616400e-03 1.18400000e-01
      -11 -1    0    0    0    0 +0.0000000000e+00 +0.0000000000e+00 +4.5593999997e+01 4.5594000000e+01 5.1100000000e-04 0.0000e+00 1.0000e+00
       11 -1    0    0    0    0 -0.0000000000e+00 -0.0000000000e+00 -4.5593999997e+01 4.5594000000e+01 5.1100000000e-04 0.0000e+00 -1.0000e+00
       23  2    1    2    0    0 +0.0000000000e+00 +0.0000000000e+00 +0.0000000000e+00 9.1188000000e+01 9.1188000000e+01 2.7596e-13 0.0000e+00
  9900012  1    3    3    0    0 -1.5222663341e+01 +5.5553794314e+00 +9.3854914465e+00 7.2461570294e+01 7.0000000000e+01 4.1727e-05 -1.0000e+00
       12  1    3    3    0    0 +1.5222663341e+01 -5.5553794314e+00 -9.3854914465e+00 1.8726429706e+01 0.0000000000e+00 0.0000e+00 -1.0000e+00
</event>
<event>
 5      7 +6.9480500e-03 9.11880000e+01 7.81616400e-03 1.18400000e-01
      -11 -1    0    0    0    0 +0.0000000000e+00 +0.0000000000e+00 +4.5593999997e+01 4.5594000000e+01 5.1100000000e-04 0.0000e+00 -1.0000e+00
       11 -1    0    0    0    0 -0.0000000000e+00 -0.0000000000e+00 -4.5593999997e+01 4.5594000000e+01 5.1100000000e-04 0.0000e+00 1.0000e+00
       23  2    1    2    0    0 +0.0000000000e+00 +0.0000000000e+00 +0.0000000000e+00 9.1188000000e+01 9.1188000000e+01 6.7984e-14 0.0000e+00
  9900012  1    3    3    0    0 -1.0629709678e+01 -2.0370719200e+00 -1.5281975647e+01 7.2461570294e+01 7.0000000000e+01 2.2238e-04 1.0000e+00
       12  1    3    3    0    0 +1.0629709678e+01 +2.0370719200e+00 +1.5281975647e+01 1.8726429706e+01 0.0000000000e+00 0.0000e+00 -1.0000e+00
</event>
<event>
 5      8 +6.9480500e-03 9.11880000e+01 7.81616400e-03 1.18400000e-01
      -11 -1    0    0    0    0 +0.0000000000e+00 +0.0000000000e+00 +4.5593999997e+01 4.5594000000e+01 5.1100000000e-04 0.0000e+00 1.0000e+00
       11 -1    0    0    0    0 -0.0000000000e+00 -0.0000000000e+00 -4.5593999997e+01 4.5594000000e+01 5.1100000000e-04 0.0000e+00 -1.0000e+00
       23  2    1    2    0    0 +0.0000000000e+00 +0.0000000000e+00 +0.0000000000e+00 9.1188000000e+01 9.1188000000e+01 1.6638e-14 0.0000e+00
  9900012  1    3    3    0    0 -7.7148948847e+00 +1.3654369332e+01 -1.0233169820e+01 7.2461570294e+01 7.0000000000e+01 6.7342e-05 -1.0000e+00
      -12  1    3    3    0    0 +7.7148948847e+00 -1.3654369332e+01 +1.0233169820e+01 1.8726429706e+01 0.0000000000e+00 0.0000e+00 1.0000e+00
</event>
<event>
 5      6 +6.9480500e-03 9.11880000e+01 7.81616400e-03 1.18400000e-01
      -11 -1    0    0    0    0 +0.0000000000e+00 +0.0000000000e+00 +4.5593999997e+01 4.5594000000e+01 5.1100000000e-04 0.0000e+00 -1.0000e+00
       11 -1    0    0    0    0 -0.0000000000e+00 -0.0000000000e+00 -4.5593999997e+01 4.5594000000e+01 5.1100000000e-04 0.0000e+00 1.0000e+00
       23  2    1    2    0    0 +0.0000000000e+00 +0.0000000000e+00 +0.0000000000e+00 9.1188000000e+01 9.1188000000e+01 3.7284e-15 0.0000e+00
  9900012  1    3    3    0    0 +1.5233937166e+01 +9.0909858970e+00 +5.9966910356e+00 7.2461570294e+01 7.0000000000e+01 7.3203e-05 -1.0000e+00
      -12  1    3    3    0    0 -1.5233937166e+01 -9.0909858970e+00 -5.9966910356e+00 1.8726429706e+01 0.0000000000e+00 0.0000e+00 1.0000e+00
</event>
<event>
 5      1 +6.9480500e-03 9.11880000e+01 7.81616400e-03 1.18400000e-01
      -11 -1    0    0    0    0 +0.0000000000e+00 +0.0000000000e+00 +4.5593999997e+01 4.5594000000e+01 5.1100000000e-04 0.0000e+00 -1.0000e+00
       11 -1    0    0    0    0 -0.0000000000e+00 -0.0000000000e+00 -4.5593999997e+01 4.5594000000e+01 5.1100000000e-04 0.0000e+00 1.0000e+00
       23  2    1    2    0    0 +0.0000000000e+00 +0.0000000000e+00 +0.0000000000e+00 9.1188000000e+01 9.1188000000e+01 1.0242e-14 0.0000e+00
  9900012  1    3    3    0    0 -1.7989498172e+01 -5.1140064281e+00 -9.5082242878e-01 7.2461570294e+01 7.0000000000e+01 3.3237e-04 -1.0000e+00
       12  1    3    3    0    0 +1.7989498172e+01 +5.1140064281e+00 +9.5082242878e-01 1.8726429706e+01 0.0000000000e+00 0.0000e+00 -1.0000e+00
</event>
<event>
 5      7 +6.9480500e-03 9.11880000e+01 7.81616400e-03 1.18400000e-01
      -11 -1    0    0    0    0 +0.0000000000e+00 +0.0000000000e+00 +4.5593999997e+01 4.5594000000e+01 5.1100000000e-04 0.0000e+00 -1.0000e+00
       11 -1    0    0    0    0 -0.0000000000e+00 -0.0000000000e+00 -4.5593999997e+01 4.5594000000e+01 5.1100000000e-04 0.0000e+00 1.0000e+00
       23  2    1    2    0    0 +0.0000000000e+00 +0.0000000000e+00 +0.0000000000e+00 9.1188000000e+01 9.1188000000e+01 1.6270e-14 0.0000e+00
  9900012  1    3    3    0    0 +9.9600189149e+00 -9.9036010471e+00 -1.2385309000e+01 7.2461570294e+01 7.0000000000e+01 2.8606e-04 -1.0000e+00
       12  1    3    3    0    0 -9.9600189149e+00 +9.9036010471e+00 +1.2385309000e+01 1.8726429706e+01 0.0000000000e+00 0.0000e+00 -1.0000e+00
</event>
<event>
 5      7 +6.9480500e-03 9.11880000e+01 7.81616400e-03 1.18400000e-01
      -11 -1    0    0    0    0 +0.0000000000e+00 +0.0000000000e+00 +4.5593999997e+01 4.5594000000e+01 5.1100000000e-04 0.0000e+00 -1.0000e+00
       11 -1    0    0    0    0 -0.0000000000e+00 -0.0000000000e+00 -4.5593999997e+01 4.5594000000e+01 5.1100000000e-04 0.0000e+00 1.0000e+00
       23  2    1    2    0    0 +0.0000000000e+00 +0.0000000000e+00 +0.0000000000e+00 9.1188000000e+01 9.1188000000e+01 9.9923e-14 0.0000e+00
  9900012  1    3    3    0    0 +8.4297047794e-01 +6.0416154915e+00 -1.7705012074e+01 7.2461570294e+01 7.0000000000e+01 3.3775e-05 -1.0000e+00
       12  1    3    3    0    0 -8.4297047794e-01 -6.0416154915e+00 +1.7705012074e+01 1.8726429706e+01 0.0000000000e+00 0.0000e+00 -1.0000e+00
</event>
<event>
 5      6 +6.9480500e-03 9.11880000e+01 7.81616400e-03 1.18400000e-01
      -11 -1    0    0    0    0 +0.0000000000e+00 +0.0000000000e+00 +4.5593999997e+01 4.5594000000e+01 5.1100000000e-04 0.0000e+00 -1.0000e+00
       11 -1    0    0    0    0 -0.0000000000e+00 -0.0000000000e+00 -4.5593999997e+01 4.5594000000e+01 5.1100000000e-04 0.0000e+00 1.0000e+00
       23  2    1    2    0    0 +0.0000000000e+00 +0.0000000000e+00 +0.0000000000e+00 9.1188000000e+01 9.1188000000e+01 2.3737e-14 0.0000e+00
  9900012  1    3    3    0    0 -5.3950663553e+00 +1.9846530835e+00 +1.7822277651e+01 7.2461570294e+01 7.0000000000e+01 5.4918e-06 1.0000e+00
      -12  1    3    3    0    0 +5.3950663553e+00 -1.9846530835e+00 -1.7822277651e+01 1.8726429706e+01 0.0000000000e+00 0.0000e+00 1.0000e+00
</event>
<event>
 5      8 +6.9480500e-03 9.11880000e+01 7.81616400e-03 1.18400000e-01
      -11 -1    0    0    0    0 +0.0000000000e+00 +0.0000000000e+00 +4.5593999997e+01 4.5594000000e+01 5.1100000000e-04 0.0000e+00 1.0000e+00
       11 -1    0    0    0    0 -0.0000000000e+00 -0.0000000000e+00 -4.5593999997e+01 4.5594000000e+01 5.1100000000e-04 0.0000e+00 -1.0000e+00
       23  2    1    2    0    0 +0.0000000000e+00 +0.0000000000e+00 +0.0000000000e+00 9.1188000000e+01 9.1188000000e+01 1.8508e-14 0.0000e+00
  9900012  1    3    3    0    0 +1.5785949606e+01 +1.0038089540e+01 -8.4836486362e-01 7.2461570294e+01 7.0000000000e+01 3.4069e-05 -1.0000e+00
      -12  1    3    3    0    0 -1.5785949606e+01 -1.0038089540e+01 +8.4836486362e-01 1.8726429706e+01 0.0000000000e+00 0.0000e+00 1.0000e+00
</event>
<event>
 5      4 +6.9480500e-03 9.11880000e+01 7.81616400e-03 1.18400000e-01
      -11 -1    0    0    0    0 +0.0000000000e+00 +0.0000000000e+00 +4.5593999997e+01 4.5594000000e+01 5.1100000000e-04 0.0000e+00 -1.0000e+00
       11 -1    0    0    0    0 -0.0000000000e+00 -0.0000000000e+00 -4.5593999997e+01 4.5594000000e+01 5.1100000000e-04 0.0000e+00 1.0000e+00
       23  2    1    2    0    0 +0.0000000000e+00 +0.0000000000e+00 +0.0000000000e+00 9.1188000000e+01 9.1188000000e+01 6.3646e-14 0.0000e+00
  9900012  1    3    3    0    0 -4.3943609575e+00 -1.4623343666e+01 +1.0840967730e+01 7.2461570294e+01 7.0000000000e+01 3.4013e-05 -1.0000e+00
      -12  1    3    3    0    0 +4.3943609575e+00 +1.4623343666e+01 -1.0840967730e+01 1.8726429706e+01 0.0000000000e+00 0.0000e+00 1.0000e+00
</event>
<event>
 5      7 +6.9480500e-03 9.11880000e+01 7.81616400e-03 1.18400000e-01
      -11 -1    0    0    0    0 +0.0000000000e+00 +0.0000000000e+00 +4.5593999997e+01 4.5594000000e+01 5.1100000000e-04 0.0000e+00 1.0000e+00
       11 -1    0    0    0    0 -0.0000000000e+00 -0.0000000000e+00 -4.5593999997e+01 4.5594000000e+01 5.1100000000e-04 0.0000e+00 -1.0000e+00
       23  2    1    2    0    0 +0.0000000000e+00 +0.0000000000e+00 +0.0000000000e+00 9.1188000000e+01 9.1188000000e+01 3.2170e-14 0.0000e+00
  9900012  1    3    3    0    0 +8.2454950597e+00 -2.3256424638e+00 +1.6651797737e+01 7.2461570294e+01 7.0000000000e+01 4.0128e-05 1.0000e+00
       12  1    3    3    0    0 -8.2454950597e+00 +2.3256424638e+00 -1.6651797737e+01 1.8726429706e+01 0.0000000000e+00 0.0000e+00 -1.0000e+00
</event>
<event>
 5      2 +6.9480500e-03 9.11880000e+01 7.81616400e-03 1.18400000e-01
      -11 -1    0    0    0    0 +0.0000000000e+00 +0.0000000000e+00 +4.5593999997e+01 4.5594000000e+01 5.1100000000e-04 0.0000e+00 1.0000e+00
       11 -1    0    0    0    0 -0.0000000000e+00 -0.0000000000e+00 -4.5593999997e+01 4.5594000000e+01 5.1100000000e-04 0.0000e+00 -1.0000e+00
       23  2    1    2    0    0 +0.0000000000e+00 +0.0000000000e+00 +0.0000000000e+00 9.1188000000e+01 9.1188000000e+01 3.3022e-14 0.0000e+00
  9900012  1    3    3    0    0 -1.2042884132e+01 -1.4331555151e+01 +5.0461694068e-01 7.2461570294e+01 7.0000000000e+01 2.7111e-05 -1.0000e+00
      -12  1    3    3    0    0 +1.2042884132e+01 +1.4331555151e+01 -5.0461694068e-01 1.8726429706e+01 0.0000000000e+00 0.0000e+00 1.0000e+00
</event>
<event>
 5      2 +6.9480500e-03 9.11880000e+01 7.81616400e-03 1.18400000e-01
      -11 -1    0    0    0    0 +0.0000000000e+00 +0.0000000000e+00 +4.5593999997e+01 4.5594000000e+01 5.1100000000e-04 0.0000e+00 1.0000e+00
       11 -1    0    0    0    0 -0.0000000000e+00 -0.0000000000e+00 -4.5593999997e+01 4.5594000000e+01 5.1100000000e-04 0.0000e+00 -1.0000e+00
       23  2    1    2    0    0 +0.0000000000e+00 +0.0000000000e+00 +0.0000000000e+00 9.1188000000e+01 9.1188000000e+01 2.8857e-14 0.0000e+00
  9900012  1    3    3    0    0 -8.2677402368e-01 -6.0930221915e+00 -1.7688151255e+01 7.2461570294e+01 7.0000000000e+01 1.6109e-04 -1.0000e+00
      -12  1    3    3    0    0 +8.2677402368e-01 +6.0930221915e+00 +1.7688151255e+01 1.8726429706e+01 0.0000000000e+00 0.0000e+00 1.0000e+00
</event>
<event>
 5      7 +6.9480500e-03 9.11880000e+01 7.81616400e-03 1.18400000e-01
      -11 -1    0    0    0    0 +0.0000000000e+00 +0.0000000000e+00 +4.5593999997e+01 4.5594000000e+01 5.1100000000e-04 0.0000e+00 1.0000e+00
       11 -1    0    0    0    0 -0.0000000000e+00 -0.0000000000e+00 -4.5593999997e+01 4.5594000000e+01 5.1100000000e-04 0.0000e+00 -1.0000e+00
       23  2    1    2    0    0 +0.0000000000e+00 +0.0000000000e+00 +0.0000000000e+00 9.1188000000e+01 9.1188000000e+01 2.6402e-14 0.0000e+00
  9900012  1    3    3    0    0 +1.6737682693e+01 -6.2055689240e+00 +5.6586272123e+00 7.2461570294e+01 7.0000000000e+01 4.5795e-05 1.0000e+00
       12  1    3    3    0    0 -1.6737682693e+01 +6.2055689240e+00 -5.6586272123e+00 1.8726429706e+01 0.0000000000e+00 0.0000e+00 -1.0000e+00
</event>
<event>
 5      6 +6.9480500e-03 9.11880000e+01 7.81616400e-03 1.18400000e-01
      -11 -1    0    0    0    0 +0.0000000000e+00 +0.0000000000e+00 +4.5593999997e+01 4.5594000000e+01 5.1100000000e-04 0.0000e+00 -1.0000e+00
       11 -1    0    0    0    0 -0.0000000000e+00 -0.0000000000e+00 -4.5593999997e+01 4.5594000000e+01 5.1100000000e-04 0.0000e+00 1.0000e+00
       23  2    1    2    0    0 +0.0000000000e+00 +0.0000000000e+00 +0.0000000000e+00 9.1188000000e+01 9.1188000000e+01 8.0149e-14 0.0000e+00
  9900012  1    3    3    0    0 +8.5539287135e+00 +9.1585957194e+00 +1.3915085251e+01 7.2461570294e+01 7.0000000000e+01 3.3610e-05 -1.0000e+00
      -12  1    3    3    0    0 -8.5539287135e+00 -9.1585957194e+00 -1.3915085251e+01 1.8726429706e+01 0.0000000000e+00 0.0000e+00 1.0000e+00
</event>
<event>
 5      5 +6.9480500e-03 9.11880000e+01 7.81616400e-03 1.18400000e-01
      -11 -1    0    0    0    0 +0.0000000000e+00 +0.0000000000e+00 +4.5593999997e+01 4.5594000000e+01 5.1100000000e-04 0.0000e+00 -1.0000e+00
       11 -1    0    0    0    0 -0.0000000000e+00 -0.0000000000e+00 -4.5593999997e+01 4.5594000000e+01 5.1100000000e-04 0.0000e+00 1.0000e+00
       23  2    1    2    0    0 +0.0000000000e+00 +0.0000000000e+00 +0.0000000000e+00 9.1188000000e+01 9.1188000000e+01 9.4050e-14 0.0000e+00
  9900012  1    3    3    0    0 +3.3311230912e+00 +5.0550893667e+00 -1.7720859459e+01 7.2461570294e+01 7.0000000000e+01 1.0665e-04 1.0000e+00
       12  1    3    3    0    0 -3.3311230912e+00 -5.0550893667e+00 +1.7720859459e+01 1.8726429706e+01 0.0000000000e+00 0.0000e+00 -1.0000e+00
</event>
<event>
 5      6 +6.9480500e-03 9.11880000e+01 7.81616400e-03 1.18400000e-01
      -11 -1    0    0    0    0 +0.0000000000e+00 +0.0000000000e+00 +4.5593999997e+01 4.5594000000e+01 5.1100000000e-04 0.0000e+00 1.0000e+00
       11 -1    0    0    0    0 -0.0000000000e+00 -0.0000000000e+00 -4.5593999997e+01 4.5594000000e+01 5.1100000000e-04 0.0000e+00 -1.0000e+00
       23  2    1    2    0    0 +0.0000000000e+00 +0.0000000000e+00 +0.0000000000e+00 9.1188000000e+01 9.1188000000e+01 2.5815e-13 0.0000e+00
  9900012  1    3    3    0    0 -1.5764007499e+01 -7.0300691187e+00 -7.2631511945e+00 7.2461570294e+01 7.0000000000e+01 1.9649e-04 -1.0000e+00
      -12  1    3    3    0    0 +1.5764007499e+01 +7.0300691187e+00 +7.2631511945e+00 1.8726429706e+01 0.0000000000e+00 0.0000e+00 1.0000e+00
</event>
<event>
 5      7 +6.9480500e-03 9.11880000e+01 7.81616400e-03 1.18400000e-01
      -11 -1    0    0    0    0 +0.0000000000e+00 +0.0000000000e+00 +4.5593999997e+01 4.5594000000e+01 5.1100000000e-04 0.0000e+00 -1.0000e+00
       11 -1    0    0    0    0 -0.0000000000e+00 -0.0000000000e+00 -4.5593999997e+01 4.5594000000e+01 5.1100000000e-04 0.0000e+00 1.0000e+00
       23  2    1    2    0    0 +0.0000000000e+00 +0.0000000000e+00 +0.0000000000e+00 9.1188000000e+01 9.1188000000e+01 5.1644e-15 0.0000e+00
  9900012  1    3    3    0    0 -1.9932879975e+00 -1.5421400025e+01 +1.0434864338e+01 7.2461570294e+01 7.0000000000e+01 4.9110e-05 -1.0000e+00
       12  1    3    3    0    0 +1.9932879975e+00 +1.5421400025e+01 -1.0434864338e+01 1.8726429706e+01 0.0000000000e+00 0.0000e+00 -1.0000e+00
</event>
<event>
 5      5 +6.9480500e-03 9.11880000e+01 7.81616400e-03 1.18400000e-01
      -11 -1    0    0    0    0 +0.0000000000e+00 +0.0000000000e+00 +4.5593999997e+01 4.5594000000e+01 5.1100000000e-04 0.0000e+00 1.0000e+00
       11 -1    0    0    0    0 -0.0000000000e+00 -0.0000000000e+00 -4.5593999997e+01 4.5594000000e+01 5.1100000000e-04 0.0000e+00 -1.0000e+00
       23  2    1    2    0    0 +0.0000000000e+00 +0.0000000000e+00 +0.0000000000e+00 9.1188000000e+01 9.1188000000e+01 1.6354e-13 0.0000e+00
  9900012  1    3    3    0    0 +2.2507358379e+00 -1.5605099985e+01 -1.0104168059e+01 7.2461570294e+01 7.0000000000e+01 8.1938e-06 1.0000e+00
       12  1    3    3    0    0 -2.2507358379e+00 +1.5605099985e+01 +1.0104168059e+01 1.8726429706e+01 0.0000000000e+00 0.0000e+00 -1.0000e+00
</event>
<event>
 5      8 +6.9480500e-03 9.11880000e+01 7.81616400e-03 1.18400000e-01
      -11 -1    0    0    0    0 +0.0000000000e+00 +0.0000000000e+00 +4.5593999997e+01 4.5594000000e+01 5.1100000000e-04 0.0000e+00 -1.0000e+00
       11 -1    0    0    0    0 -0.0000000000e+00 -0.0000000000e+00 -4.5593999997e+01 4.5594000000e+01 5.1100000000e-04 0.0000e+00 1.0000e+00
       23  2    1    2    0    0 +0.0000000000e+00 +0.0000000000e+00 +0.0000000000e+00 9.1188000000e+01 9.1188000000e+01 2.9134e-15 0.0000e+00
  9900012  1    3    3    0    0 +1.3503886668e+01 -6.1861220476e+00 +1.1404214502e+01 7.2461570294e+01 7.0000000000e+01 2.4470e-06 -1.0000e+00
      -12  1    3    3    0    0 -1.3503886668e+01 +6.1861220476e+00 -1.1404214502e+01 1.8726429706e+01 0.0000000000e+00 0.0000e+00 1.0000e+00
</event>
<event>
 5      4 +6.9480500e-03 9.11880000e+01 7.81616400e-03 1.18400000e-01
      -11 -1    0    0    0    0 +0.0000000000e+00 +0.0000000000e+00 +4.5593999997e+01 4.5594000000e+01 5.1100000000e-04 0.0000e+00 -1.0000e+00
       11 -1    0    0    0    0 -0.0000000000e+00 -0.0000000000e+00 -4.5593999997e+01 4.5594000000e+01 5.1100000000e-04 0.0000e+00 1.0000e+00
       23  2    1    2    0    0 +0.0000000000e+00 +0.0000000000e+00 +0.0000000000e+00 9.1188000000e+01 9.1188000000e+01 6.6536e-14 0.0000e+00
  9900012  1    3    3    0    0 -1.5649603041e+01 -1.0144143744e+01 -1.6927616084e+00 7.2461570294e+01 7.0000000000e+01 1.2394e-05 -1.0000e+00
      -12  1    3    3    0    0 +1.5649603041e+01 +1.0144143744e+01 +1.6927616084e+00 1.8726429706e+01 0.0000000000e+00 0.0000e+00 1.0000e+00
</event>
<event>
 5      8 +6.9480500e-03 9.11880000e+01 7.81616400e-03 1.18400000e-01
      -11 -1    0    0    0    0 +0.0000000000e+00 +0.0000000000e+00 +4.5593999997e+01 4.5594000000e+01 5.1100000000e-04 0.0000e+00 1.0000e+00
       11 -1    0    0    0    0 -0.0000000000e+00 -0.0000000000e+00 -4.5593999997e+01 4.5594000000e+01 5.1100000000e-04 0.0000e+00 -1.0000e+00
       23  2    1    2    0    0 +0.0000000000e+00 +0.0000000000e+00 +0.0000000000e+00 9.1188000000e+01 9.1188000000e+01 6.2102e-14 0.0000e+00
  9900012  1    3    3    0    0 +8.1118176457e+00 -1.2212732533e+01 -1.1650182320e+01 7.2461570294e+01 7.0000000000e+01 1.1320e-04 -1.0000e+00
      -12  1    3    3    0    0 -8.1118176457e+00 +1.2212732533e+01 +1.1650182320e+01 1.8726429706e+01 0.0000000000e+00 0.0000e+00 1.0000e+00
</event>
<event>
 5      3 +6.9480500e-03 9.11880000e+01 7.81616400e-03 1.18400000e-01
      -11 -1    0    0    0    0 +0.0000000000e+00 +0.0000000000e+00 +4.5593999997e+01 4.5594000000e+01 5.1100000000e-04 0.0000e+00 1.0000e+00
       11 -1    0    0    0    0 -0.0000000000e+00 -0.0000000000e+00 -4.5593999997e+01 4.5594000000e+01 5.1100000000e-04 0.0000e+00 -1.0000e+00
       23  2    1    2    0    0 +0.0000000000e+00 +0.0000000000e+00 +0.0000000000e+00 9.1188000000e+01 9.1188000000e+01 2.6174e-15 0.0000e+00
  9900012  1    3    3    0    0 -7.6189913314e-01 -3.0767254140e+00 +1.8456230383e+01 7.2461570294e+01 7.0000000000e+01 6.0056e-04 1.0000e+00
       12  1    3    3    0    0 +7.6189913314e-01 +3.0767254140e+00 -1.8456230383e+01 1.8726429706e+01 0.0000000000e+00 0.0000e+00 -1.0000e+00
</event>
<event>
 5      6 +6.9480500e-03 9.11880000e+01 7.81616400e-03 1.18400000e-01
      -11 -1    0    0    0    0 +0.0000000000e+00 +0.0000000000e+00 +4.5593999997e+01 4.5594000000e+01 5.1100000000e-04 0.0000e+00 -1.0000e+00
       11 -1    0    0    0    0 -0.0000000000e+00 -0.0000000000e+00 -4.5593999997e+01 4.5594000000e+01 5.1100000000e-04 0.0000e+00 1.0000e+00
       23  2    1    2    0    0 +0.0000000000e+00 +0.0000000000e+00 +0.0000000000e+00 9.1188000000e+01 9.1188000000e+01 6.2316e-14 0.0000e+00
  9900012  1    3    3    0    0 -1.8690185606e+01 -6.3382544827e-02 -1.1628044551e+00 7.2461570294e+01 7.0000000000e+01 3.9873e-04 1.0000e+00
      -12  1    3    3    0    0 +1.8690185606e+01 +6.3382544827e-02 +1.1628044551e+00 1.8726429706e+01 0.0000000000e+00 0.0000e+00 1.0000e+00
</event>
<event>
 5      7 +6.9480500e-03 9.11880000e+01 7.81616400e-03 1.18400000e-01
      -11 -1    0    0    0    0 +0.0000000000e+00 +0.0000000000e+00 +4.5593999997e+01 4.5594000000e+01 5.1100000000e-04 0.0000e+00 1.0000e+00
       11 -1    0    0    0    0 -0.0000000000e+00 -0.0000000000e+00 -4.5593999997e+01 4.5594000000e+01 5.1100000000e-04 0.0000e+00 -1.0000e+00
       23  2    1    2    0    0 +0.0000000000e+00 +0.0000000000e+00 +0.0000000000e+00 9.1188000000e+01 9.1188000000e+01 4.3191e-14 0.0000e+00
  9900012  1    3    3    0    0 +3.4996038551e+00 -1.7750346587e+01 +4.8329223495e+00 7.2461570294e+01 7.0000000000e+01 4.2290e-05 1.0000e+00
       12  1    3    3    0    0 -3.4996038551e+00 +1.7750346587e+01 -4.8329223495e+00 1.8726429706e+01 0.0000000000e+00 0.0000e+00 -1.0000e+00
</event>
<event>
 5      4 +6.9480500e-03 9.11880000e+01 7.81616400e-03 1.18400000e-01
      -11 -1    0    0    0    0 +0.0000000000e+00 +0.0000000000e+00 +4.5593999997e+01 4.5594000000e+01 5.1100000000e-04 0.0000e+00 -1.0000e+00
       11 -1    0    0    0    0 -0.0000000000e+00 -0.0000000000e+00 -4.5593999997e+01 4.5594000000e+01 5.1100000000e-04 0.0000e+00 1.0000e+00
       23  2    1    2    0    0 +0.0000000000e+00 +0.0000000000e+00 +0.0000000000e+00 9.1188000000e+01 9.1188000000e+01 2.7928e-14 0.0000e+00
  9900012  1    3    3    0    0 -6.6051417163e+00 -1.6525956997e+01 +5.8261494807e+00 7.2461570294e+01 7.0000000000e+01 6.2762e-06 -1.0000e+00
      -12  1    3    3    0    0 +6.6051417163e+00 +1.6525956997e+01 -5.8261494807e+00 1.8726429706e+01 0.0000000000e+00 0.0000e+00 1.0000e+00
</event>
<event>
 5      2 +6.9480500e-03 9.11880000e+01 7.81616400e-03 1.18400000e-01
      -11 -1    0    0    0    0 +0.0000000000e+00 +0.0000000000e+00 +4.5593999997e+01 4.5594000000e+01 5.1100000000e-04 0.0000e+00 1.0000e+00
       11 -1    0    0    0    0 -0.0000000000e+00 -0.0000000000e+00 -4.5593999997e+01 4.5594000000e+01 5.1100000000e-04 0.0000e+00 -1.0000e+00
       23  2    1    2    0    0 +0.0000000000e+00 +0.0000000000e+00 +0.0000000000e+00 9.1188000000e+01 9.1188000000e+01 3.1416e-14 0.0000e+00
  9900012  1    3    3    0    0 +1.0135914386e+01 +4.5079019718e+00 -1.5087121292e+01 7.2461570294e+01 7.0000000000e+01 2.3879e-04 1.0000e+00
      -12  1    3    3    0    0 -1.0135914386e+01 -4.5079019718e+00 +1.5087121292e+01 1.8726429706e+01 0.0000000000e+00 0.0000e+00 1.0000e+00
</event>
<event>
 5      4 +6.9480500e-03 9.11880000e+01 7.81616400e-03 1.18400000e-01
      -11 -1    0    0    0    0 +0.0000000000e+00 +0.0000000000e+00 +4.5593999997e+01 4.5594000000e+01 5.1100000000e-04 0.0000e+00 -1.0000e+00
       11 -1    0    0    0    0 -0.0000000000e+00 -0.0000000000e+00 -4.5593999997e+01 4.5594000000e+01 5.1100000000e-04 0.0000e+00 1.0000e+00
       23  2    1    2    0    0 +0.0000000000e+00 +0.0000000000e+00 +0.0000000000e+00 9.1188000000e+01 9.1188000000e+01 3.0076e-14 0.0000e+00
  9900012  1    3    3    0    0 -1.4240318832e+01 +1.1958038222e+01 +2.2130998568e+00 7.2461570294e+01 7.0000000000e+01 8.5936e-06 -1.0000e+00
      -12  1    3    3    0    0 +1.4240318832e+01 -1.1958038222e+01 -2.2130998568e+00 1.8726429706e+01 0.0000000000e+00 0.0000e+00 1.0000e+00
</event>
<event>
 5      5 +6.9480500e-03 9.11880000e+01 7.81616400e-03 1.18400000e-01
      -11 -1    0    0    0    0 +0.0000000000e+00 +0.0000000000e+00 +4.5593999997e+01 4.5594000000e+01 5.1100000000e-04 0.0000e+00 -1.0000e+00
       11 -1    0    0    0    0 -0.0000000000e+00 -0.0000000000e+00 -4.5593999997e+01 4.5594000000e+01 5.1100000000e-04 0.0000e+00 1.0000e+00
       23  2    1    2    0    0 +0.0000000000e+00 +0.0000000000e+00 +0.0000000000e+00 9.1188000000e+01 9.1188000000e+01 5.4395e-14 0.0000e+00
  9900012  1    3    3    0    0 -9.9596945889e+00 -1.0792579503e+01 -1.1619117044e+01 7.2461570294e+01 7.0000000000e+01 4.7938e-06 1.0000e+00
       12  1    3    3    0    0 +9.9596945889e+00 +1.0792579503e+01 +1.1619117044e+01 1.8726429706e+01 0.0000000000e+00 0.0000e+00 -1.0000e+00
</event>
<event>
 5      4 +6.9480500e-03 9.11880000e+01 7.81616400e-03 1.18400000e-01
      -11 -1    0    0    0    0 +0.0000000000e+00 +0.0000000000e+00 +4.5593999997e+01 4.5594000000e+01 5.1100000000e-04 0.0000e+00 1.0000e+00
       11 -1    0    0    0    0 -0.0000000000e+00 -0.0000000000e+00 -4.5593999997e+01 4.5594000000e+01 5.1100000000e-04 0.0000e+00 -1.0000e+00
       23  2    1    2    0    0 +0.0000000000e+00 +0.0000000000e+00 +0.0000000000e+00 9.1188000000e+01 9.1188000000e+01 9.1558e-14 0.0000e+00
  9900012  1    3    3    0    0 -2.9595216173e+00 -6.3757675660e+00 -1.7357130790e+01 7.2461570294e+01 7.0000000000e+01 5.1154e-04 -1.0000e+00
      -12  1    3    3    0    0 +2.9595216173e+00 +6.3757675660e+00 +1.7357130790e+01 1.8726429706e+01 0.0000000000e+00 0.0000e+00 1.0000e+00
</event>
<event>
 5      4 +6.9480500e-03 9.11880000e+01 7.81616400e-03 1.18400000e-01
      -11 -1    0    0    0    0 +0.0000000000e+00 +0.0000000000e+00 +4.5593999997e+01 4.5594000000e+01 5.1100000000e-04 0.0000e+00 -1.0000e+00
       11 -1    0    0    0    0 -0.0000000000e+00 -0.0000000000e+00 -4.5593999997e+01 4.5594000000e+01 5.1100000000e-04 0.0000e+00 1.0000e+00
       23  2    1    2    0    0 +0.0000000000e+00 +0.0000000000e+00 +0.0000000000e+00 9.1188000000e+01 9.1188000000e+01 4.2082e-13 0.0000e+00
  9900012  1    3    3    0    0 +6.0798735530e+00 +1.7656544320e+00 +1.7623755886e+01 7.2461570294e+01 7.0000000000e+01 1.4293e-04 -1.0000e+00
      -12  1    3    3    0    0 -6.0798735530e+00 -1.7656544320e+00 -1.7623755886e+01 1.8726429706e+01 0.0000000000e+00 0.0000e+00 1.0000e+00
</event>
<event>
 5      6 +6.9480500e-03 9.11880000e+01 7.81616400e-03 1.18400000e-01
      -11 -1    0    0    0    0 +0.0000000000e+00 +0.0000000000e+00 +4.5593999997e+01 4.5594000000e+01 5.1100000000e-04 0.0000e+00 1.0000e+00
       11 -1    0    0    0    0 -0.0000000000e+00 -0.0000000000e+00 -4.5593999997e+01 4.5594000000e+01 5.1100000000e-04 0.0000e+00 -1.0000e+00
       23  2    1    2    0    0 +0.0000000000e+00 +0.0000000000e+00 +0.0000000000e+00 9.1188000000e+01 9.1188000000e+01 8.1616e-14 0.0000e+00
  9900012  1    3    3    0    0 +9.6974185526e+00 -6.1400348267e-02 -1.6019846221e+01 7.2461570294e+01 7.0000000000e+01 8.6928e-05 -1.0000e+00
      -12  1    3    3    0    0 -9.6974185526e+00 +6.1400348267e-02 +1.6019846221e+01 1.8726429706e+01 0.0000000000e+00 0.0000e+00 1.0000e+00
</event>
<event>
 5      3 +6.9480500e-03 9.11880000e+01 7.81616400e-03 1.18400000e-01
      -11 -1    0    0    0    0 +0.0000000000e+00 +0.0000000000e+00 +4.5593999997e+01 4.5594000000e+01 5.1100000000e-04 0.0000e+00 1.0000e+00
       11 -1    0    0    0    0 -0.0000000000e+00 -0.0000000000e+00 -4.5593999997e+01 4.5594000000e+01 5.1100000000e-04 0.0000e+00 -1.0000e+00
       23  2    1    2    0    0 +0.0000000000e+00 +0.0000000000e+00 +0.0000000000e+00 9.1188000000e+01 9.1188000000e+01 9.3406e-14 0.0000e+00
  9900012  1    3    3    0    0 -1.2648602546e+01 +1.0965435241e+01 +8.3935244773e+00 7.2461570294e+01 7.0000000000e+01 5.9216e-05 1.0000e+00
       12  1    3    3    0    0 +1.2648602546e+01 -1.0965435241e+01 -8.3935244773e+00 1.8726429706e+01 0.0000000000e+00 0.0000e+00 -1.0000e+00
</event>
<event>
 5      6 +6.9480500e-03 9.11880000e+01 7.81616400e-03 1.18400000e-01
      -11 -1    0    0    0    0 +0.0000000000e+00 +0.0000000000e+00 +4.5593999997e+01 4.5594000000e+01 5.1100000000e-04 0.0000e+00 -1.0000e+00
       11 -1    0    0    0    0 -0.0000000000e+00 -0.0000000000e+00 -4.5593999997e+01 4.5594000000e+01 5.1100000000e-04 0.0000e+00 1.0000e+00
       23  2    1    2    0    0 +0.0000000000e+00 +0.0000000000e+00 +0.0000000000e+00 9.1188000000e+01 9.1188000000e+01 3.8086e-14 0.0000e+00
  9900012  1    3    3    0    0 +9.3236899069e+00 -1.4038892628e+01 +8.1644026008e+00 7.2461570294e+01 7.0000000000e+01 7.7091e-05 -1.0000e+00
      -12  1    3    3    0    0 -9.3236899069e+00 +1.4038892628e+01 -8.1644026008e+00 1.8726429706e+01 0.0000000000e+00 0.0000e+00 1.0000e+00
</event>
<event>
 5      5 +6.9480500e-03 9.11880000e+01 7.81616400e-03 1.18400000e-01
      -11 -1    0    0    0    0 +0.0000000000e+00 +0.0000000000e+00 +4.5593999997e+01 4.5594000000e+01 5.1100000000e-04 0.0000e+00 -1.0000e+00
       11 -1    0    0    0    0 -0.0000000000e+00 -0.0000000000e+00 -4.5593999997e+01 4.5594000000e+01 5.1100000000e-04 0.0000e+00 1.0000e+00
       23  2    1    2    0    0 +0.0000000000e+00 +0.0000000000e+00 +0.0000000000e+00 9.1188000000e+01 9.1188000000e+01 1.0978e-13 0.0000e+00
  9900012  1    3    3    0    0 +1.4292599401e+01 -9.9109341321e+00 -6.9407605148e+00 7.2461570294e+01 7.0000000000e+01 3.3377e-05 1.0000e+00
       12  1    3    3    0    0 -1.4292599401e+01 +9.9109341321e+00 +6.9407605148e+00 1.8726429706e+01 0.0000000000e+00 0.0000e+00 -1.0000e+00
</event>
<event>
 5      6 +6.9480500e-03 9.11880000e+01 7.81616400e-03 1.18400000e-01
      -11 -1    0    0    0    0 +0.0000000000e+00 +0.0000000000e+00 +4.5593999997e+01 4.5594000000e+01 5.1100000000e-04 0.0000e+00 1.0000e+00
       11 -1    0    0    0    0 -0.0000000000e+00 -0.0000000000e+00 -4.5593999997e+01 4.5594000000e+01 5.1100000000e-04 0.0000e+00 -1.0000e+00
       23  2    1    2    0    0 +0.0000000000e+00 +0.0000000000e+00 +0.0000000000e+00 9.1188000000e+01 9.1188000000e+01 1.2866e-14 0.0000e+00
  9900012  1    3    3    0    0 -1.0426446068e+01 -1.5254071139e+01 +3.0465891749e+00 7.2461570294e+01 7.0000000000e+01 7.2604e-05 1.0000e+00
      -12  1    3    3    0    0 +1.0426446068e+01 +1.5254071139e+01 -3.0465891749e+00 1.8726429706e+01 0.0000000000e+00 0.0000e+00 1.0000e+00
</event>
<event>
 5      3 +6.9480500e-03 9.11880000e+01 7.81616400e-03 1.18400000e-01
      -11 -1    0    0    0    0 +0.0000000000e+00 +0.0000000000e+00 +4.5593999997e+01 4.5594000000e+01 5.1100000000e-04 0.0000e+00 -1.0000e+00
       11 -1    0    0    0    0 -0.0000000000e+00 -0.0000000000e+00 -4.5593999997e+01 4.5594000000e+01 5.1100000000e-04 0.0000e+00 1.0000e+00
       23  2    1    2    0    0 +0.0000000000e+00 +0.0000000000e+00 +0.0000000000e+00 9.1188000000e+01 9.1188000000e+01 8.8073e-14 0.0000e+00
  9900012  1    3    3    0    0 -1.5558528258e+01 +4.2092332846e+00 -9.5338199656e+00 7.2461570294e+01 7.0000000000e+01 9.7128e-06 -1.0000e+00
       12  1    3    3    0    0 +1.5558528258e+01 -4.2092332846e+00 +9.5338199656e+00 1.8726429706e+01 0.0000000000e+00 0.0000e+00 -1.0000e+00
</event>
<event>
 5      5 +6.9480500e-03 9.11880000e+01 7.81616400e-03 1.18400000e-01
      -11 -1    0    0    0    0 +0.0000000000e+00 +0.0000000000e+00 +4.5593999997e+01 4.5594000000e+01 5.1100000000e-04 0.0000e+00 -1.0000e+00
       11 -1    0    0    0    0 -0.0000000000e+00 -0.0000000000e+00 -4.5593999997e+01 4.5594000000e+01 5.1100000000e-04 0.0000e+00 1.0000e+00
       23  2    1    2    0    0 +0.0000000000e+00 +0.0000000000e+00 +0.0000000000e+00 9.1188000000e+01 9.1188000000e+01 5.2672e-14 0.0000e+00
  9900012  1    3    3    0    0 +1.6775473737e+01 -3.2654413344e-01 -8.3160098214e+00 7.2461570294e+01 7.0000000000e+01 1.2563e-04 1.0000e+00
       12  1    3    3    0    0 -1.6775473737e+01 +3.2654413344e-01 +8.3160098214e+00 1.8726429706e+01 0.0000000000e+00 0.0000e+00 -1.0000e+00
</event>
<event>
 5      4 +6.9480500e-03 9.11880000e+01 7.81616400e-03 1.18400000e-01
      -11 -1    0    0    0    0 +0.0000000000e+00 +0.0000000000e+00 +4.5593999997e+01 4.5594000000e+01 5.1100000000e-04 0.0000e+00 -1.0000e+00
       11 -1    0    0    0    0 -0.0000000000e+00 -0.0000000000e+00 -4.5593999997e+01 4.5594000000e+01 5.1100000000e-04 0.0000e+00 1.0000e+00
       23  2    1    2    0    0 +0.0000000000e+00 +0.0000000000e+00 +0.0000000000e+00 9.1188000000e+01 9.1188000000e+01 3.4266e-13 0.0000e+00
  9900012  1    3    3    0    0 +1.5627577272e+01 +3.6561837126e+00 -9.6483324363e+00 7.2461570294e+01 7.0000000000e+01 1.0791e-04 1.0000e+00
      -12  1    3    3    0    0 -1.5627577272e+01 -3.6561837126e+00 +9.6483324363e+00 1.8726429706e+01 0.0000000000e+00 0.0000e+00 1.0000e+00
</event>
<event>
 5      6 +6.9480500e-03 9.11880000e+01 7.81616400e-03 1.18400000e-01
      -11 -1    0    0    0    0 +0.0000000000e+00 +0.0000000000e+00 +4.5593999997e+01 4.5594000000e+01 5.1100000000e-04 0.0000e+00 -1.0000e+00
       11 -1    0    0    0    0 -0.0000000000e+00 -0.0000000000e+00 -4.5593999997e+01 4.5594000000e+01 5.1100000000e-04 0.0000e+00 1.0000e+00
       23  2    1    2    0    0 +0.0000000000e+00 +0.0000000000e+00 +0.0000000000e+00 9.1188000000e+01 9.1188000000e+01 1.0936e-13 0.0000e+00
  9900012  1    3    3    0    0 -1.0113061691e+01 +1.5760240848e+01 +1.4128399005e-01 7.2461570294e+01 7.0000000000e+01 3.8406e-05 1.0000e+00
      -12  1    3    3    0    0 +1.0113061691e+01 -1.5760240848e+01 -1.4128399005e-01 1.8726429706e+01 0.0000000000e+00 0.0000e+00 1.0000e+00
</event>
<event>
 5      4 +6.9480500e-03 9.11880000e+01 7.81616400e-03 1.18400000e-01
      -11 -1    0    0    0    0 +0.0000000000e+00 +0.0000000000e+00 +4.5593999997e+01 4.5594000000e+01 5.1100000000e-04 0.0000e+00 1.0000e+00
       11 -1    0    0    0    0 -0.0000000000e+00 -0.0000000000e+00 -4.5593999997e+01 4.5594000000e+01 5.1100000000e-04 0.0000e+00 -1.0000e+00
       23  2    1    2    0    0 +0.0000000000e+00 +0.0000000000e+00 +0.0000000000e+00 9.1188000000e+01 9.1188000000e+01 1.0921e-13 0.0000e+00
  9900012  1    3    3    0    0 -1.8212972604e+01 +1.3977941853e-02 -4.3550663679e+00 7.2461570294e+01 7.0000000000e+01 2.0957e-04 -1.0000e+00
      -12  1    3    3    0    0 +1.8212972604e+01 -1.3977941853e-02 +4.3550663679e+00 1.8726429706e+01 0.0000000000e+00 0.0000e+00 1.0000e+00
</event>
<event>
 5      7 +6.9480500e-03 9.11880000e+01 7.81616400e-03 1.18400000e-01
      -11 -1    0    0    0    0 +0.0000000000e+00 +0.0000000000e+00 +4.5593999997e+01 4.5594000000e+01 5.1100000000e-04 0.0000e+00 1.0000e+00
       11 -1    0    0    0    0 -0.0000000000e+00 -0.0000000000e+00 -4.5593999997e+01 4.5594000000e+01 5.1100000000e-04 0.0000e+00 -1.0000e+00
       23  2    1    2    0    0 +0.0000000000e+00 +0.0000000000e+00 +0.0000000000e+00 9.1188000000e+01 9.1188000000e+01 7.2767e-14 0.0000e+00
  9900012  1    3    3    0    0 -3.0136864524e+00 -7.6457734927e+00 +1.6826735013e+01 7.2461570294e+01 7.0000000000e+01 2.1632e-04 1.0000e+00
       12  1    3    3    0    0 +3.0136864524e+00 +7.6457734927e+00 -1.6826735013e+01 1.8726429706e+01 0.0000000000e+00 0.0000e+00 -1.0000e+00
</event>
<event>
 5      7 +6.9480500e-03 9.11880000e+01 7.81616400e-03 1.18400000e-01
      -11 -1    0    0    0    0 +0.0000000000e+00 +0.0000000000e+00 +4.5593999997e+01 4.5594000000e+01 5.1100000000e-04 0.0000e+00 1.0000e+00
       11 -1    0    0    0    0 -0.0000000000e+00 -0.0000000000e+00 -4.5593999997e+01 4.5594000000e+01 5.1100000000e-04 0.0000e+00 -1.0000e+00
       23  2    1    2    0    0 +0.0000000000e+00 +0.0000000000e+00 +0.0000000000e+00 9.1188000000e+01 9.1188000000e+01 6.1807e-14 0.0000e+00
  9900012  1    3    3    0    0 +1.4146998831e+01 +1.3949010703e+00 +1.2189989525e+01 7.2461570294e+01 7.0000000000e+01 8.9063e-06 1.0000e+00
       12  1    3    3    0    0 -1.4146998831e+01 -1.3949010703e+00 -1.2189989525e+01 1.8726429706e+01 0.0000000000e+00 0.0000e+00 -1.0000e+00
</event>
<event>
 5      7 +6.9480500e-03 9.11880000e+01 7.81616400e-03 1.18400000e-01
      -11 -1    0    0    0    0 +0.0000000000e+00 +0.0000000000e+00 +4.5593999997e+01 4.5594000000e+01 5.1100000000e-04 0.0000e+00 1.0000e+00
       11 -1    0    0    0    0 -0.0000000000e+00 -0.0000000000e+00 -4.5593999997e+01 4.5594000000e+01 5.1100000000e-04 0.0000e+00 -1.0000e+00
       23  2    1    2    0    0 +0.0000000000e+00 +0.0000000000e+00 +0.0000000000e+00 9.1188000000e+01 9.1188000000e+01 8.6535e-15 0.0000e+00
  9900012  1    3    3    0    0 +1.5913470014e+01 +5.5052412294e+00 -8.1934706098e+00 7.2461570294e+01 7.0000000000e+01 1.0993e-04 -1.0000e+00
       12  1    3    3    0    0 -1.5913470014e+01 -5.5052412294e+00 +8.1934706098e+00 1.8726429706e+01 0.0000000000e+00 0.0000e+00 -1.0000e+00
</event>
<event>
 5      7 +6.9480500e-03 9.11880000e+01 7.81616400e-03 1.18400000e-01
      -11 -1    0    0    0    0 +0.0000000000e+00 +0.0000000000e+00 +4.5593999997e+01 4.5594000000e+01 5.1100000000e-04 0.0000e+00 1.0000e+00
       11 -1    0    0    0    0 -0.0000000000e+00 -0.0000000000e+00 -4.5593999997e+01 4.5594000000e+01 5.1100000000e-04 0.0000e+00 -1.0000e+00
       23  2    1    2    0    0 +0.0000000000e+00 +0.0000000000e+00 +0.0000000000e+00 9.1188000000e+01 9.1188000000e+01 2.0954e-14 0.0000e+00
  9900012  1    3    3    0    0 +1.5803706737e+01 -7.6755767159e+00 +6.4813227798e+00 7.2461570294e+01 7.0000000000e+01 1.4262e-04 1.0000e+00
       12  1    3    3    0    0 -1.5803706737e+01 +7.6755767159e+00 -6.4813227798e+00 1.8726429706e+01 0.0000000000e+00 0.0000e+00 -1.0000e+00
</event>
<event>
 5      1 +6.9480500e-03 9.11880000e+01 7.81616400e-03 1.18400000e-01
      -11 -1    0    0    0    0 +0.0000000000e+00 +0.0000000000e+00 +4.5593999997e+01 4.5594000000e+01 5.1100000000e-04 0.0000e+00 -1.0000e+00
       11 -1    0    0    0    0 -0.0000000000e+00 -0.0000000000e+00 -4.5593999997e+01 4.5594000000e+01 5.1100000000e-04 0.0000e+00 1.0000e+00
       23  2    1    2    0    0 +0.0000000000e+00 +0.0000000000e+00 +0.0000000000e+00 9.1188000000e+01 9.1188000000e+01 1.3509e-14 0.0000e+00
  9900012  1    3    3    0    0 +1.2196941812e+00 +1.3763267674e+00 -1.8635912649e+01 7.2461570294e+01 7.0000000000e+01 2.5504e-04 1.0000e+00
       12  1    3    3    0    0 -1.2196941812e+00 -1.3763267674e+00 +1.8635912649e+01 1.8726429706e+01 0.0000000000e+00 0.0000e+00 -1.0000e+00
</event>
<event>
 5      7 +6.9480500e-03 9.11880000e+01 7.81616400e-03 1.18400000e-01
      -11 -1    0    0    0    0 +0.0000000000e+00 +0.0000000000e+00 +4.5593999997e+01 4.5594000000e+01 5.1100000000e-04 0.0000e+00 -1.0000e+00
       11 -1    0    0    0    0 -0.0000000000e+00 -0.0000000000e+00 -4.5593999997e+01 4.5594000000e+01 5.1100000000e-04 0.0000e+00 1.0000e+00
       23  2    1    2    0    0 +0.0000000000e+00 +0.0000000000e+00 +0.0000000000e+00 9.1188000000e+01 9.1188000000e+01 7.8379e-14 0.0000e+00
  9900012  1    3    3    0    0 +2.7186722213e+00 -7.9569231831e+00 -1.6732464383e+01 7.2461570294e+01 7.0000000000e+01 2.7523e-06 1.0000e+00
       12  1    3    3    0    0 -2.7186722213e+00 +7.9569231831e+00 +1.6732464383e+01 1.8726429706e+01 0.0000000000e+00 0.0000e+00 -1.0000e+00
</event>
<event>
 5      5 +6.9480500e-03 9.11880000e+01 7.81616400e-03 1.18400000e-01
      -11 -1    0    0    0    0 +0.0000000000e+00 +0.0000000000e+00 +4.5593999997e+01 4.5594000000e+01 5.1100000000e-04 0.0000e+00 -1.0000e+00
       11 -1    0    0    0    0 -0.0000000000e+00 -0.0000000000e+00 -4.5593999997e+01 4.5594000000e+01 5.1100000000e-04 0.0000e+00 1.0000e+00
       23  2    1    2    0    0 +0.0000000000e+00 +0.0000000000e+00 +0.0000000000e+00 9.1188000000e+01 9.1188000000e+01 8.7992e-14 0.0000e+00
  9900012  1    3    3    0    0 +1.5187697970e+01 +1.0915439610e+01 +9.3068683812e-01 7.2461570294e+01 7.0000000000e+01 5.6534e-05 1.0000e+00
       12  1    3    3    0    0 -1.5187697970e+01 -1.0915439610e+01 -9.3068683812e-01 1.8726429706e+01 0.0000000000e+00 0.0000e+00 -1.0000e+00
</event>
<event>
 5      2 +6.9480500e-03 9.11880000e+01 7.81616400e-03 1.18400000e-01
      -11 -1    0    0    0    0 +0.0000000000e+00 +0.0000000000e+00 +4.5593999997e+01 4.5594000000e+01 5.1100000000e-04 0.0000e+00 1.0000e+00
       11 -1    0    0    0    0 -0.0000000000e+00 -0.0000000000e+00 -4.5593999997e+01 4.5594000000e+01 5.1100000000e-04 0.0000e+00 -1.0000e+00
       23  2    1    2    0    0 +0.0000000000e+00 +0.0000000000e+00 +0.0000000000e+00 9.1188000000e+01 9.1188000000e+01 1.6050e-14 0.0000e+00
  9900012  1    3    3    0    0 -1.4764940027e+01 +6.0954497738e+00 +9.7734951564e+00 7.2461570294e+01 7.0000000000e+01 3.7971e-05 -1.0000e+00
      -12  1    3    3    0    0 +1.4764940027e+01 -6.0954497738e+00 -9.7734951564e+00 1.8726429706e+01 0.0000000000e+00 0.0000e+00 1.0000e+00
</event>
<event>
 5      8 +6.9480500e-03 9.11880000e+01 7.81616400e-03 1.18400000e-01
      -11 -1    0    0    0    0 +0.0000000000e+00 +0.0000000000e+00 +4.5593999997e+01 4.5594000000e+01 5.1100000000e-04 0.0000e+00 -1.0000e+00
       11 -1    0    0    0    0 -0.0000000000e+00 -0.0000000000e+00 -4.5593999997e+01 4.5594000000e+01 5.1100000000e-04 0.0000e+00 1.0000e+00
       23  2    1    2    0    0 +0.0000000000e+00 +0.0000000000e+00 +0.0000000000e+00 9.1188000000e+01 9.1188000000e+01 8.4266e-14 0.0000e+00
  9900012  1    3    3    0    0 -7.7559162735e+00 +1.6720882488e+01 +3.3071167359e+00 7.2461570294e+01 7.0000000000e+01 1.5293e-04 1.0000e+00
      -12  1    3    3    0    0 +7.7559162735e+00 -1.6720882488e+01 -3.3071167359e+00 1.8726429706e+01 0.0000000000e+00 0.0000e+00 1.0000e+00
</event>
<event>
 5      7 +6.9480500e-03 9.11880000e+01 7.81616400e-03 1.18400000e-01
      -11 -1    0    0    0    0 +0.0000000000e+00 +0.0000000000e+00 +4.5593999997e+01 4.5594000000e+01 5.1100000000e-04 0.0000e+00 1.0000e+00
       11 -1    0    0    0    0 -0.0000000000e+00 -0.0000000000e+00 -4.5593999997e+01 4.5594000000e+01 5.1100000000e-04 0.0000e+00 -1.0000e+00
       23  2    1    2    0    0 +0.0000000000e+00 +0.0000000000e+00 +0.0000000000e+00 9.1188000000e+01 9.1188000000e+01 2.5664e-13 0.0000e+00
  9900012  1    3    3    0    0 -1.4817302272e+01 +7.8754582185e+00 +8.3128743968e+00 7.2461570294e+01 7.0000000000e+01 1.9436e-04 -1.0000e+00
       12  1    3    3    0    0 +1.4817302272e+01 -7.8754582185e+00 -8.3128743968e+00 1.8726429706e+01 0.0000000000e+00 0.0000e+00 -1.0000e+00
</event>
<event>
 5      7 +6.9480500e-03 9.11880000e+01 7.81616400e-03 1.18400000e-01
      -11 -1    0    0    0    0 +0.0000000000e+00 +0.0000000000e+00 +4.5593999997e+01 4.5594000000e+01 5.1100000000e-04 0.0000e+00 -1.0000e+00
       11 -1    0    0    0    0 -0.0000000000e+00 -0.0000000000e+00 -4.5593999997e+01 4.5594000000e+01 5.1100000000e-04 0.0000e+00 1.0000e+00
       23  2    1    2    0    0 +0.0000000000e+00 +0.0000000000e+00 +0.0000000000e+00 9.1188000000e+01 9.1188000000e+01 1.9391e-13 0.0000e+00
  9900012  1    3    3    0    0 -7.9075555690e+00 -1.6551789796e+00 -1.6894085266e+01 7.2461570294e+01 7.0000000000e+01 1.1989e-04 1.0000e+00
       12  1    3    3    0    0 +7.9075555690e+00 +1.6551789796e+00 +1.6894085266e+01 1.8726429706e+01 0.0000000000e+00 0.0000e+00 -1.0000e+00
</event>
<event>
 5      8 +6.9480500e-03 9.11880000e+01 7.81616400e-03 1.18400000e-01
      -11 -1    0    0    0    0 +0.0000000000e+00 +0.0000000000e+00 +4.5593999997e+01 4.5594000000e+01 5.1100000000e-04 0.0000e+00 -1.0000e+00
       11 -1    0    0    0    0 -0.0000000000e+00 -0.0000000000e+00 -4.5593999997e+01 4.5594000000e+01 5.1100000000e-04 0.0000e+00 1.0000e+00
       23  2    1    2    0    0 +0.0000000000e+00 +0.0000000000e+00 +0.0000000000e+00 9.1188000000e+01 9.1188000000e+01 7.3679e-14 0.0000e+00
  9900012  1    3    3    0    0 -8.4671409252e+00 +1.6481948733e+01 -2.7077776923e+00 7.2461570294e+01 7.0000000000e+01 1.7587e-04 1.0000e+00
      -12  1    3    3    0    0 +8.4671409252e+00 -1.6481948733e+01 +2.7077776923e+00 1.8726429706e+01 0.0000000000e+00 0.0000e+00 1.0000e+00
</event>
<event>
 5      4 +6.9480500e-03 9.11880000e+01 7.81616400e-03 1.18400000e-01
      -11 -1    0    0    0    0 +0.0000000000e+00 +0.0000000000e+00 +4.5593999997e+01 4.5594000000e+01 5.1100000000e-04 0.0000e+00 1.0000e+00
       11 -1    0    0    0    0 -0.0000000000e+00 -0.0000000000e+00 -4.5593999997e+01 4.5594000000e+01 5.1100000000e-04 0.0000e+00 -1.0000e+00
       23  2    1    2    0    0 +0.0000000000e+00 +0.0000000000e+00 +0.0000000000e+00 9.1188000000e+01 9.1188000000e+01 8.0656e-14 0.0000e+00
  9900012  1    3    3    0    0 +1.0787790557e+01 -1.0826395049e+01 +1.0820901749e+01 7.2461570294e+01 7.0000000000e+01 4.2220e-05 -1.0000e+00
      -12  1    3    3    0    0 -1.0787790557e+01 +1.0826395049e+01 -1.0820901749e+01 1.8726429706e+01 0.0000000000e+00 0.0000e+00 1.0000e+00
</event>
<event>
 5      1 +6.9480500e-03 9.11880000e+01 7.81616400e-03 1.18400000e-01
      -11 -1    0    0    0    0 +0.0000000000e+00 +0.0000000000e+00 +4.5593999997e+01 4.5594000000e+01 5.1100000000e-04 0.0000e+00 -1.0000e+00
       11 -1    0    0    0    0 -0.0000000000e+00 -0.0000000000e+00 -4.5593999997e+01 4.5594000000e+01 5.1100000000e-04 0.0000e+00 1.0000e+00
       23  2    1    2    0    0 +0.0000000000e+00 +0.0000000000e+00 +0.0000000000e+00 9.1188000000e+01 9.1188000000e+01 6.5072e-14 0.0000e+00
  9900012  1    3    3    0    0 -6.7571284987e+00 +8.3683227489e+00 +1.5329434378e+01 7.2461570294e+01 7.0000000000e+01 2.5283e-04 -1.0000e+00
       12  1    3    3    0    0 +6.7571284987e+00 -8.3683227489e+00 -1.5329434378e+01 1.8726429706e+01 0.0000000000e+00 0.0000e+00 -1.0000e+00
</event>
<event>
 5      7 +6.9480500e-03 9.11880000e+01 7.81616400e-03 1.18400000e-01
      -11 -1    0    0    0    0 +0.0000000000e+00 +0.0000000000e+00 +4.5593999997e+01 4.5594000000e+01 5.1100000000e-04 0.0000e+00 1.0000e+00
       11 -1    0    0    0    0 -0.0000000000e+00 -0.0000000000e+00 -4.5593999997e+01 4.5594000000e+01 5.1100000000e-04 0.0000e+00 -1.0000e+00
       23  2    1    2    0    0 +0.0000000000e+00 +0.0000000000e+00 +0.0000000000e+00 9.1188000000e+01 9.1188000000e+01 7.6392e-14 0.0000e+00
  9900012  1    3    3    0    0 +6.8560574606e+00 -1.6269125248e+01 +6.2441339887e+00 7.2461570294e+01 7.0000000000e+01 1.3692e-04 1.0000e+00
       12  1    3    3    0    0 -6.8560574606e+00 +1.6269125248e+01 -6.2441339887e+00 1.8726429706e+01 0.0000000000e+00 0.0000e+00 -1.0000e+00
</event>
<event>
 5      2 +6.9480500e-03 9.11880000e+01 7.81616400e-03 1.18400000e-01
      -11 -1    0    0    0    0 +0.0000000000e+00 +0.0000000000e+00 +4.5593999997e+01 4.5594000000e+01 5.1100000000e-04 0.0000e+00 1.0000e+00
       11 -1    0    0    0    0 -0.0000000000e+00 -0.0000000000e+00 -4.5593999997e+01 4.5594000000e+01 5.1100000000e-04 0.0000e+00 -1.0000e+00
       23  2    1    2    0    0 +0.0000000000e+00 +0.0000000000e+00 +0.0000000000e+00 9.1188000000e+01 9.1188000000e+01 5.2183e-14 0.0000e+00
  9900012  1    3    3    0    0 -1.8113591914e+01 +3.4400899932e+00 -3.2776116832e+00 7.2461570294e+01 7.0000000000e+01 7.7674e-05 -1.0000e+00
      -12  1    3    3    0    0 +1.8113591914e+01 -3.4400899932e+00 +3.2776116832e+00 1.8726429706e+01 0.0000000000e+00 0.0000e+00 1.0000e+00
</event>
<event>
 5      4 +6.9480500e-03 9.11880000e+01 7.81616400e-03 1.18400000e-01
      -11 -1    0    0    0    0 +0.0000000000e+00 +0.0000000000e+00 +4.5593999997e+01 4.5594000000e+01 5.1100000000e-04 0.0000e+00 1.0000e+00
       11 -1    0    0    0    0 -0.0000000000e+00 -0.0000000000e+00 -4.5593999997e+01 4.5594000000e+01 5.1100000000e-04 0.0000e+00 -1.0000e+00
       23  2    1    2    0    0 +0.0000000000e+00 +0.0000000000e+00 +0.0000000000e+00 9.1188000000e+01 9.1188000000e+01 1.8129e-13 0.0000e+00
  9900012  1    3    3    0    0 +1.2041394730e+01 -5.1886395319e+00 -1.3370190810e+01 7.2461570294e+01 7.0000000000e+01 7.9760e-06 -1.0000e+00
      -12  1    3    3    0    0 -1.2041394730e+01 +5.1886395319e+00 +1.3370190810e+01 1.8726429706e+01 0.0000000000e+00 0.0000e+00 1.0000e+00
</event>
<event>
 5      2 +6.9480500e-03 9.11880000e+01 7.81616400e-03 1.18400000e-01
      -11 -1    0    0    0    0 +0.0000000000e+00 +0.0000000000e+00 +4.5593999997e+01 4.5594000000e+01 5.1100000000e-04 0.0000e+00 1.0000e+00
       11 -1    0    0    0    0 -0.0000000000e+00 -0.0000000000e+00 -4.5593999997e+01 4.5594000000e+01 5.1100000000e-04 0.0000e+00 -1.0000e+00
       23  2    1    2    0    0 +0.0000000000e+00 +0.0000000000e+00 +0.0000000000e+00 9.1188000000e+01 9.1188000000e+01 1.2606e-13 0.0000e+00
  9900012  1    3    3    0    0 +1.3843921387e+01 -9.2464668579e+00 -8.5748388204e+00 7.2461570294e+01 7.0000000000e+01 3.5561e-05 -1.0000e+00
      -12  1    3    3    0    0 -1.3843921387e+01 +9.2464668579e+00 +8.5748388204e+00 1.8726429706e+01 0.0000000000e+00 0.0000e+00 1.0000e+00
</event>
<event>
 5      1 +6.9480500e-03 9.11880000e+01 7.81616400e-03 1.18400000e-01
      -11 -1    0    0    0    0 +0.0000000000e+00 +0.0000000000e+00 +4.5593999997e+01 4.5594000000e+01 5.1100000000e-04 0.0000e+00 1.0000e+00
       11 -1    0    0    0    0 -0.0000000000e+00 -0.0000000000e+00 -4.5593999997e+01 4.5594000000e+01 5.1100000000e-04 0.0000e+00 -1.0000e+00
       23  2    1    2    0    0 +0.0000000000e+00 +0.0000000000e+00 +0.0000000000e+00 9.1188000000e+01 9.1188000000e+01 4.6650e-15 0.0000e+00
  9900012  1    3    3    0    0 +3.8284020739e-01 -1.8535037528e+01 +2.6429125443e+00 7.2461570294e+01 7.0000000000e+01 2.3677e-04 -1.0000e+00
       12  1    3    3    0    0 -3.8284020739e-01 +1.8535037528e+01 -2.6429125443e+00 1.8726429706e+01 0.0000000000e+00 0.0000e+00 -1.0000e+00
</event>
<event>
 5      2 +6.9480500e-03 9.11880000e+01 7.81616400e-03 1.18400000e-01
      -11 -1    0    0    0    0 +0.0000000000e+00 +0.0000000000e+00 +4.5593999997e+01 4.5594000000e+01 5.1100000000e-04 0.0000e+00 -1.0000e+00
       11 -1    0    0    0    0 -0.0000000000e+00 -0.0000000000e+00 -4.5593999997e+01 4.5594000000e+01 5.1100000000e-04 0.0000e+00 1.0000e+00
       23  2    1    2    0    0 +0.0000000000e+00 +0.0000000000e+00 +0.0000000000e+00 9.1188000000e+01 9.1188000000e+01 2.8278e-14 0.0000e+00
  9900012  1    3    3    0    0 +9.3743371444e+00 +5.4478867398e+00 +1.5268316957e+01 7.2461570294e+01 7.0000000000e+01 9.3309e-05 -1.0000e+00
      -12  1    3    3    0    0 -9.3743371444e+00 -5.4478867398e+00 -1.5268316957e+01 1.8726429706e+01 0.0000000000e+00 0.0000e+00 1.0000e+00
</event>
<event>
 5      1 +6.9480500e-03 9.11880000e+01 7.81616400e-03 1.18400000e-01
      -11 -1    0    0    0    0 +0.0000000000e+00 +0.0000000000e+00 +4.5593999997e+01 4.5594000000e+01 5.1100000000e-04 0.0000e+00 1.0000e+00
       11 -1    0    0    0    0 -0.0000000000e+00 -0.0000000000e+00 -4.5593999997e+01 4.5594000000e+01 5.1100000000e-04 0.0000e+00 -1.0000e+00
       23  2    1    2    0    0 +0.0000000000e+00 +0.0000000000e+00 +0.0000000000e+00 9.1188000000e+01 9.1188000000e+01 9.4303e-14 0.0000e+00
  9900012  1    3    3    0    0 -1.4591393827e+01 -4.1603573879e+00 +1.0975510107e+01 7.2461570294e+01 7.0000000000e+01 1.3592e-05 1.0000e+00
       12  1    3    3    0    0 +1.4591393827e+01 +4.1603573879e+00 -1.0975510107e+01 1.8726429706e+01 0.0000000000e+00 0.0000e+00 -1.0000e+00
</event>
<event>
 5      5 +6.9480500e-03 9.11880000e+01 7.81616400e-03 1.18400000e-01
      -11 -1    0    0    0    0 +0.0000000000e+00 +0.0000000000e+00 +4.5593999997e+01 4.5594000000e+01 5.1100000000e-04 0.0000e+00 1.0000e+00
       11 -1    0    0    0    0 -0.0000000000e+00 -0.0000000000e+00 -4.5593999997e+01 4.5594000000e+01 5.1100000000e-04 0.0000e+00 -1.0000e+00
       23  2    1    2    0    0 +0.0000000000e+00 +0.0000000000e+00 +0.0000000000e+00 9.1188000000e+01 9.1188000000e+01 2.2245e-15 0.0000e+00
  9900012  1    3    3    0    0 -3.4052989363e+00 +8.7621538290e+00 +1.6195918281e+01 7.2461570294e+01 7.0000000000e+01 3.6501e-05 1.0000e+00
       12  1    3    3    0    0 +3.4052989363e+00 -8.7621538290e+00 -1.6195918281e+01 1.8726429706e+01 0.0000000000e+00 0.0000e+00 -1.0000e+00
</event>
<event>
 5      7 +6.9480500e-03 9.11880000e+01 7.81616400e-03 1.18400000e-01
      -11 -1    0    0    0    0 +0.0000000000e+00 +0.0000000000e+00 +4.5593999997e+01 4.5594000000e+01 5.1100000000e-04 0.0000e+00 -1.0000e+00
       11 -1    0    0    0    0 -0.0000000000e+00 -0.0000000000e+00 -4.5593999997e+01 4.5594000000e+01 5.1100000000e-04 0.0000e+00 1.0000e+00
       23  2    1    2    0    0 +0.0000000000e+00 +0.0000000000e+00 +0.0000000000e+00 9.1188000000e+01 9.1188000000e+01 7.0877e-14 0.0000e+00
  9900012  1    3    3    0    0 -1.2349723668e+01 -1.9659204568e+00 -1.3939105122e+01 7.2461570294e+01 7.0000000000e+01 3.1352e-05 1.0000e+00
       12  1    3    3    0    0 +1.2349723668e+01 +1.9659204568e+00 +1.3939105122e+01 1.8726429706e+01 0.0000000000e+00 0.0000e+00 -1.0000e+00
</event>
<event>
 5      5 +6.9480500e-03 9.11880000e+01 7.81616400e-03 1.18400000e-01
      -11 -1    0    0    0    0 +0.0000000000e+00 +0.0000000000e+00 +4.5593999997e+01 4.5594000000e+01 5.1100000000e-04 0.0000e+00 1.0000e+00
       11 -1    0    0    0    0 -0.0000000000e+00 -0.0000000000e+00 -4.5593999997e+01 4.5594000000e+01 5.1100000000e-04 0.0000e+00 -1.0000e+00
       23  2    1    2    0    0 +0.0000000000e+00 +0.0000000000e+00 +0.0000000000e+00 9.1188000000e+01 9.1188000000e+01 3.5052e-15 0.0000e+00
  9900012  1    3    3    0    0 -7.5655382799e+00 -1.5260607575e+01 +7.7817515048e+00 7.2461570294e+01 7.0000000000e+01 8.2883e-05 -1.0000e+00
       12  1    3    3    0    0 +7.5655382799e+00 +1.5260607575e+01 -7.7817515048e+00 1.8726429706e+01 0.0000000000e+00 0.0000e+00 -1.0000e+00
</event>
<event>
 5      5 +6.9480500e-03 9.11880000e+01 7.81616400e-03 1.18400000e-01
      -11 -1    0    0    0    0 +0.0000000000e+00 +0.0000000000e+00 +4.5593999997e+01 4.5594000000e+01 5.1100000000e-04 0.0000e+00 1.0000e+00
       11 -1    0    0    0    0 -0.0000000000e+00 -0.0000000000e+00 -4.5593999997e+01 4.5594000000e+01 5.1100000000e-04 0.0000e+00 -1.0000e+00
       23  2    1    2    0    0 +0.0000000000e+00 +0.0000000000e+00 +0.0000000000e+00 9.1188000000e+01 9.1188000000e+01 6.3953e-14 0.0000e+00
  9900012  1    3    3    0    0 +1.0757184081e+01 -1.5050957080e+01 +2.9035928010e+00 7.2461570294e+01 7.0000000000e+01 1.9521e-04 1.0000e+00
       12  1    3    3    0    0 -1.0757184081e+01 +1.5050957080e+01 -2.9035928010e+00 1.8726429706e+01 0.0000000000e+00 0.0000e+00 -1.0000e+00
</event>
<event>
 5      2 +6.9480500e-03 9.11880000e+01 7.81616400e-03 1.18400000e-01
      -11 -1    0    0    0    0 +0.0000000000e+00 +0.0000000000e+00 +4.5593999997e+01 4.5594000000e+01 5.1100000000e-04 0.0000e+00 -1.0000e+00
       11 -1    0    0    0    0 -0.0000000000e+00 -0.0000000000e+00 -4.5593999997e+01 4.5594000000e+01 5.1100000000e-04 0.0000e+00 1.0000e+00
       23  2    1    2    0    0 +0.0000000000e+00 +0.0000000000e+00 +0.0000000000e+00 9.1188000000e+01 9.1188000000e+01 3.8344e-14 0.0000e+00
  9900012  1    3    3    0    0 -3.7828941043e+00 -1.2226865881e+01 +1.3670136519e+01 7.2461570294e+01 7.0000000000e+01 7.2615e-05 -1.0000e+00
      -12  1    3    3    0    0 +3.7828941043e+00 +1.2226865881e+01 -1.3670136519e+01 1.8726429706e+01 0.0000000000e+00 0.0000e+00 1.0000e+00
</event>
<event>
 5      5 +6.9480500e-03 9.11880000e+01 7.81616400e-03 1.18400000e-01
      -11 -1    0    0    0    0 +0.0000000000e+00 +0.0000000000e+00 +4.5593999997e+01 4.5594000000e+01 5.1100000000e-04 0.0000e+00 -1.0000e+00
       11 -1    0    0    0    0 -0.0000000000e+00 -0.0000000000e+00 -4.5593999997e+01 4.5594000000e+01 5.1100000000e-04 0.0000e+00 1.0000e+00
       23  2    1    2    0    0 +0.0000000000e+00 +0.0000000000e+00 +0.0000000000e+00 9.1188000000e+01 9.1188000000e+01 6.7116e-14 0.0000e+00
  9900012  1    3    3    0    0 -1.8545986355e+01 -1.3743044578e+00 -2.1992832685e+00 7.2461570294e+01 7.0000000000e+01 1.7271e-05 1.0000e+00
       12  1    3    3    0    0 +1.8545986355e+01 +1.3743044578e+00 +2.1992832685e+00 1.8726429706e+01 0.0000000000e+00 0.0000e+00 -1.0000e+00
</event>
<event>
 5      4 +6.9480500e-03 9.11880000e+01 7.81616400e-03 1.18400000e-01
      -11 -1    0    0    0    0 +0.0000000000e+00 +0.0000000000e+00 +4.5593999997e+01 4.5594000000e+01 5.1100000000e-04 0.0000e+00 1.0000e+00
       11 -1    0    0    0    0 -0.0000000000e+00 -0.0000000000e+00 -4.5593999997e+01 4.5594000000e+01 5.1100000000e-04 0.0000e+00 -1.0000e+00
       23  2    1    2    0    0 +0.0000000000e+00 +0.0000000000e+00 +0.0000000000e+00 9.1188000000e+01 9.1188000000e+01 6.3840e-14 0.0000e+00
  9900012  1    3    3    0    0 -7.2656280501e+00 +1.7082168706e+01 +2.4676569581e+00 7.2461570294e+01 7.0000000000e+01 1.3728e-04 -1.0000e+00
      -12  1    3    3    0    0 +7.2656280501e+00 -1.7082168706e+01 -2.4676569581e+00 1.8726429706e+01 0.0000000000e+00 0.0000e+00 1.0000e+00
</event>
<event>
 5      2 +6.9480500e-03 9.11880000e+01 7.81616400e-03 1.18400000e-01
      -11 -1    0    0    0    0 +0.0000000000e+00 +0.0000000000e+00 +4.5593999997e+01 4.5594000000e+01 5.1100000000e-04 0.0000e+00 -1.0000e+00
       11 -1    0    0    0    0 -0.0000000000e+00 -0.0000000000e+00 -4.5593999997e+01 4.5594000000e+01 5.1100000000e-04 0.0000e+00 1.0000e+00
       23  2    1    2    0    0 +0.0000000000e+00 +0.0000000000e+00 +0.0000000000e+00 9.1188000000e+01 9.1188000000e+01 2.2070e-14 0.0000e+00
  9900012  1    3    3    0    0 +1.6958738704e+01 -3.7234504478e+00 +7.0154306954e+00 7.2461570294e+01 7.0000000000e+01 1.4473e-05 1.0000e+00
      -12  1    3    3    0    0 -1.6958738704e+01 +3.7234504478e+00 -7.0154306954e+00 1.8726429706e+01 0.0000000000e+00 0.0000e+00 1.0000e+00
</event>
<event>
 5      2 +6.9480500e-03 9.11880000e+01 7.81616400e-03 1.18400000e-01
      -11 -1    0    0    0    0 +0.0000000000e+00 +0.0000000000e+00 +4.5593999997e+01 4.5594000000e+01 5.1100000000e-04 0.0000e+00 1.0000e+00
       11 -1    0    0    0    0 -0.0000000000e+00 -0.0000000000e+00 -4.5593999997e+01 4.5594000000e+01 5.1100000000e-04 0.0000e+00 -1.0000e+00
       23  2    1    2    0    0 +0.0000000000e+00 +0.0000000000e+00 +0.0000000000e+00 9.1188000000e+01 9.1188000000e+01 1.0343e-13 0.0000e+00
  9900012  1    3    3    0    0 -1.5612429891e+01 -9.3579771755e+00 -4.3999392733e+00 7.2461570294e+01 7.0000000000e+01 3.0771e-06 -1.0000e+00
      -12  1    3    3    0    0 +1.5612429891e+01 +9.3579771755e+00 +4.3999392733e+00 1.8726429706e+01 0.0000000000e+00 0.0000e+00 1.0000e+00
</event>
<event>
 5      4 +6.9480500e-03 9.11880000e+01 7.81616400e-03 1.18400000e-01
      -11 -1    0    0    0    0 +0.0000000000e+00 +0.0000000000e+00 +4.5593999997e+01 4.5594000000e+01 5.1100000000e-04 0.0000e+00 -1.0000e+00
       11 -1    0    0    0    0 -0.0000000000e+00 -0.0000000000e+00 -4.5593999997e+01 4.5594000000e+01 5.1100000000e-04 0.0000e+00 1.0000e+00
       23  2    1    2    0    0 +0.0000000000e+00 +0.0000000000e+00 +0.0000000000e+00 9.1188000000e+01 9.1188000000e+01 2.4683e-14 0.0000e+00
  9900012  1    3    3    0    0 -1.4874243396e+01 +1.1327199286e+01 -1.0633011124e+00 7.2461570294e+01 7.0000000000e+01 8.5438e-05 -1.0000e+00
      -12  1    3    3    0    0 +1.4874243396e+01 -1.1327199286e+01 +1.0633011124e+00 1.8726429706e+01 0.0000000000e+00 0.0000e+00 1.0000e+00
</event>
<event>
 5      6 +6.9480500e-03 9.11880000e+01 7.81616400e-03 1.18400000e-01
      -11 -1    0    0    0    0 +0.0000000000e+00 +0.0000000000e+00 +4.5593999997e+01 4.5594000000e+01 5.1100000000e-04 0.0000e+00 1.0000e+00
       11 -1    0    0    0    0 -0.0000000000e+00 -0.0000000000e+00 -4.5593999997e+01 4.5594000000e+01 5.1100000000e-04 0.0000e+00 -1.0000e+00
       23  2    1    2    0    0 +0.0000000000e+00 +0.0000000000e+00 +0.0000000000e+00 9.1188000000e+01 9.1188000000e+01 2.4348e-14 0.0000e+00
  9900012  1    3    3    0    0 -1.8528857377e+00 +6.8444687272e+00 -1.7332029074e+01 7.2461570294e+01 7.0000000000e+01 1.5227e-04 -1.0000e+00
      -12  1    3    3    0    0 +1.8528857377e+00 -6.8444687272e+00 +1.7332029074e+01 1.8726429706e+01 0.0000000000e+00 0.0000e+00 1.0000e+00
</event>
<event>
 5      3 +6.9480500e-03 9.11880000e+01 7.81616400e-03 1.18400000e-01
      -11 -1    0    0    0    0 +0.0000000000e+00 +0.0000000000e+00 +4.5593999997e+01 4.5594000000e+01 5.1100000000e-04 0.0000e+00 1.0000e+00
       11 -1    0    0    0    0 -0.0000000000e+00 -0.0000000000e+00 -4.5593999997e+01 4.5594000000e+01 5.1100000000e-04 0.0000e+00 -1.0000e+00
       23  2    1    2    0    0 +0.0000000000e+00 +0.0000000000e+00 +0.0000000000e+00 9.1188000000e+01 9.1188000000e+01 7.9932e-14 0.0000e+00
  9900012  1    3    3    0    0 +1.5378966908e+01 +1.0667148268e+01 +6.1521880949e-01 7.2461570294e+01 7.0000000000e+01 3.1222e-06 1.0000e+00
       12  1    3    3    0    0 -1.5378966908e+01 -1.0667148268e+01 -6.1521880949e-01 1.8726429706e+01 0.0000000000e+00 0.0000e+00 -1.0000e+00
</event>
<event>
 5      7 +6.9480500e-03 9.11880000e+01 7.81616400e-03 1.18400000e-01
      -11 -1    0    0    0    0 +0.0000000000e+00 +0.0000000000e+00 +4.5593999997e+01 4.5594000000e+01 5.1100000000e-04 0.0000e+00 1.0000e+00
       11 -1    0    0    0    0 -0.0000000000e+00 -0.0000000000e+00 -4.5593999997e+01 4.5594000000e+01 5.1100000000e-04 0.0000e+00 -1.0000e+00
       23  2    1    2    0    0 +0.0000000000e+00 +0.0000000000e+00 +0.0000000000e+00 9.1188000000e+01 9.1188000000e+01 1.3324e-13 0.0000e+00
  9900012  1    3    3    0    0 -1.8414860465e+00 +1.7155338754e+01 +7.2789045113e+00 7.2461570294e+01 7.0000000000e+01 2.6420e-05 -1.0000e+00
       12  1    3    3    0    0 +1.8414860465e+00 -1.7155338754e+01 -7.2789045113e+00 1.8726429706e+01 0.0000000000e+00 0.0000e+00 -1.0000e+00
</event>
<event>
 5      1 +6.9480500e-03 9.11880000e+01 7.81616400e-03 1.18400000e-01
      -11 -1    0    0    0    0 +0.0000000000e+00 +0.0000000000e+00 +4.5593999997e+01 4.5594000000e+01 5.1100000000e-04 0.0000e+00 -1.0000e+00
       11 -1    0    0    0    0 -0.0000000000e+00 -0.0000000000e+00 -4.5593999997e+01 4.5594000000e+01 5.1100000000e-04 0.0000e+00 1.0000e+00
       23  2    1    2    0    0 +0.0000000000e+00 +0.0000000000e+00 +0.0000000000e+00 9.1188000000e+01 9.1188000000e+01 8.7242e-14 0.0000e+00
  9900012  1    3    3    0    0 +4.4824327853e-01 +1.8380845594e+01 +3.5528527605e+00 7.2461570294e+01 7.0000000000e+01 5.0993e-05 -1.0000e+00
       12  1    3    3    0    0 -4.4824327853e-01 -1.8380845594e+01 -3.5528527605e+00 1.8726429706e+01 0.0000000000e+00 0.0000e+00 -1.0000e+00
</event>
<event>
 5      1 +6.9480500e-03 9.11880000e+01 7.81616400e-03 1.18400000e-01
      -11 -1    0    0    0    0 +0.0000000000e+00 +0.0000000000e+00 +4.5593999997e+01 4.5594000000e+01 5.1100000000e-04 0.0000e+00 1.0000e+00
       11 -1    0    0    0    0 -0.0000000000e+00 -0.0000000000e+00 -4.5593999997e+01 4.5594000000e+01 5.1100000000e-04 0.0000e+00 -1.0000e+00
       23  2    1    2    0    0 +0.0000000000e+00 +0.0000000000e+00 +0.0000000000e+00 9.1188000000e+01 9.1188000000e+01 6.0072e-14 0.0000e+00
  9900012  1    3    3    0    0 +7.2338301025e+00 +1.6978053564e+01 -3.1775098327e+00 7.2461570294e+01 7.0000000000e+01 1.3579e-04 1.0000e+00
       12  1    3    3    0    0 -7.2338301025e+00 -1.6978053564e+01 +3.1775098327e+00 1.8726429706e+01 0.0000000000e+00 0.0000e+00 -1.0000e+00
</event>
<event>
 5      4 +6.9480500e-03 9.11880000e+01 7.81616400e-03 1.18400000e-01
      -11 -1    0    0    0    0 +0.0000000000e+00 +0.0000000000e+00 +4.5593999997e+01 4.5594000000e+01 5.1100000000e-04 0.0000e+00 -1.0000e+00
       11 -1    0    0    0    0 -0.0000000000e+00 -0.0000000000e+00 -4.5593999997e+01 4.5594000000e+01 5.1100000000e-04 0.0000e+00 1.0000e+00
       23  2    1    2    0    0 +0.0000000000e+00 +0.0000000000e+00 +0.0000000000e+00 9.1188000000e+01 9.1188000000e+01 4.3207e-14 0.0000e+00
  9900012  1    3    3    0    0 -1.2668100423e+00 +6.4781590724e+00 +1.7524491915e+01 7.2461570294e+01 7.0000000000e+01 1.4810e-06 -1.0000e+00
      -12  1    3    3    0    0 +1.2668100423e+00 -6.4781590724e+00 -1.7524491915e+01 1.8726429706e+01 0.0000000000e+00 0.0000e+00 1.0000e+00
</event>
<event>
 5      8 +6.9480500e-03 9.11880000e+01 7.81616400e-03 1.18400000e-01
      -11 -1    0    0    0    0 +0.0000000000e+00 +0.0000000000e+00 +4.5593999997e+01 4.5594000000e+01 5.1100000000e-04 0.0000e+00 -1.0000e+00
       11 -1    0    0    0    0 -0.0000000000e+00 -0.0000000000e+00 -4.5593999997e+01 4.5594000000e+01 5.1100000000e-04 0.0000e+00 1.0000e+00
       23  2    1    2    0    0 +0.0000000000e+00 +0.0000000000e+00 +0.0000000000e+00 9.1188000000e+01 9.1188000000e+01 5.8933e-14 0.0000e+00
  9900012  1    3    3    0    0 -1.1156482915e+01 -9.9735281879e+00 +1.1257921388e+01 7.2461570294e+01 7.0000000000e+01 8.2963e-05 -1.0000e+00
      -12  1    3    3    0    0 +1.1156482915e+01 +9.9735281879e+00 -1.1257921388e+01 1.8726429706e+01 0.0000000000e+00 0.0000e+00 1.0000e+00
</event>
<event>
 5      1 +6.9480500e-03 9.11880000e+01 7.81616400e-03 1.18400000e-01
      -11 -1    0    0    0    0 +0.0000000000e+00 +0.0000000000e+00 +4.5593999997e+01 4.5594000000e+01 5.1100000000e-04 0.0000e+00 1.0000e+00
       11 -1    0    0    0    0 -0.0000000000e+00 -0.0000000000e+00 -4.5593999997e+01 4.5594000000e+01 5.1100000000e-04 0.0000e+00 -1.0000e+00
       23  2    1    2    0    0 +0.0000000000e+00 +0.0000000000e+00 +0.0000000000e+00 9.1188000000e+01 9.1188000000e+01 4.0825e-14 0.0000e+00
  9900012  1    3    3    0    0 +4.4004342544e+00 -1.0679755296e+01 +1.4739680279e+01 7.2461570294e+01 7.0000000000e+01 1.5921e-04 1.0000e+00
       12  1    3    3    0    0 -4.4004342544e+00 +1.0679755296e+01 -1.4739680279e+01 1.8726429706e+01 0.0000000000e+00 0.0000e+00 -1.0000e+00
</event>
<event>
 5      4 +6.9480500e-03 9.11880000e+01 7.81616400e-03 1.18400000e-01
      -11 -1    0    0    0    0 +0.0000000000e+00 +0.0000000000e+00 +4.5593999997e+01 4.5594000000e+01 5.1100000000e-04 0.0000e+00 -1.0000e+00
       11 -1    0    0    0    0 -0.0000000000e+00 -0.0000000000e+00 -4.5593999997e+01 4.5594000000e+01 5.1100000000e-04 0.0000e+00 1.0000e+00
       23  2    1    2    0    0 +0.0000000000e+00 +0.0000000000e+00 +0.0000000000e+00 9.1188000000e+01 9.1188000000e+01 2.6252e-13 0.0000e+00
  9900012  1    3    3    0    0 +7.0317737193e+00 -9.1611496900e+00 +1.4741325050e+01 7.2461570294e+01 7.0000000000e+01 3.5621e-05 -1.0000e+00
      -12  1    3    3    0    0 -7.0317737193e+00 +9.1611496900e+00 -1.4741325050e+01 1.8726429706e+01 0.0000000000e+00 0.0000e+00 1.0000e+00
</event>
<event>
 5      5 +6.9480500e-03 9.11880000e+01 7.81616400e-03 1.18400000e-01
      -11 -1    0    0    0    0 +0.0000000000e+00 +0.0000000000e+00 +4.5593999997e+01 4.5594000000e+01 5.1100000000e-04 0.0000e+00 -1.0000e+00
       11 -1    0    0    0    0 -0.0000000000e+00 -0.0000000000e+00 -4.5593999997e+01 4.5594000000e+01 5.1100000000e-04 0.0000e+00 1.0000e+00
       23  2    1    2    0    0 +0.0000000000e+00 +0.0000000000e+00 +0.0000000000e+00 9.1188000000e+01 9.1188000000e+01 1.0316e-14 0.0000e+00
  9900012  1    3    3    0    0 -8.7828730973e+00 -7.4491160771e+00 -1.4766549338e+01 7.2461570294e+01 7.0000000000e+01 3.6247e-05 1.0000e+00
       12  1    3    3    0    0 +8.7828730973e+00 +7.4491160771e+00 +1.4766549338e+01 1.8726429706e+01 0.0000000000e+00 0.0000e+00 -1.0000e+00
</event>
<event>
 5      4 +6.9480500e-03 9.11880000e+01 7.81616400e-03 1.18400000e-01
      -11 -1    0    0    0    0 +0.0000000000e+00 +0.0000000000e+00 +4.5593999997e+01 4.5594000000e+01 5.1100000000e-04 0.0000e+00 1.0000e+00
       11 -1    0    0    0    0 -0.0000000000e+00 -0.0000000000e+00 -4.5593999997e+01 4.5594000000e+01 5.1100000000e-04 0.0000e+00 -1.0000e+00
       23  2    1    2    0    0 +0.0000000000e+00 +0.0000000000e+00 +0.0000000000e+00 9.1188000000e+01 9.1188000000e+01 1.5205e-14 0.0000e+00
  9900012  1    3    3    0    0 +1.2616413504e+01 +2.5494957537e+00 -1.3601667222e+01 7.2461570294e+01 7.0000000000e+01 1.0721e-04 -1.0000e+00
      -12  1    3    3    0    0 -1.2616413504e+01 -2.5494957537e+00 +1.3601667222e+01 1.8726429706e+01 0.0000000000e+00 0.0000e+00 1.0000e+00
</event>
<event>
 5      1 +6.9480500e-03 9.11880000e+01 7.81616400e-03 1.18400000e-01
      -11 -1    0    0    0    0 +0.0000000000e+00 +0.0000000000e+00 +4.5593999997e+01 4.5594000000e+01 5.1100000000e-04 0.0000e+00 1.0000e+00
       11 -1    0    0    0    0 -0.0000000000e+00 -0.0000000000e+00 -4.5593999997e+01 4.5594000000e+01 5.1100000000e-04 0.0000e+00 -1.0000e+00
       23  2    1    2    0    0 +0.0000000000e+00 +0.0000000000e+00 +0.0000000000e+00 9.1188000000e+01 9.1188000000e+01 3.0583e-14 0.0000e+00
  9900012  1    3    3    0    0 +3.5155204763e+00 +1.2456000019e+00 +1.8351260609e+01 7.2461570294e+01 7.0000000000e+01 1.3863e-04 1.0000e+00
       12  1    3    3    0    0 -3.5155204763e+00 -1.2456000019e+00 -1.8351260609e+01 1.8726429706e+01 0.0000000000e+00 0.0000e+00 -1.0000e+00
</event>
<event>
 5      3 +6.9480500e-03 9.11880000e+01 7.81616400e-03 1.18400000e-01
      -11 -1    0    0    0    0 +0.0000000000e+00 +0.0000000000e+00 +4.5593999997e+01 4.5594000000e+01 5.1100000000e-04 0.0000e+00 1.0000e+00
       11 -1    0    0    0    0 -0.0000000000e+00 -0.0000000000e+00 -4.5593999997e+01 4.5594000000e+01 5.1100000000e-04 0.0000e+00 -1.0000e+00
       23  2    1    2    0    0 +0.0000000000e+00 +0.0000000000e+00 +0.0000000000e+00 9.1188000000e+01 9.1188000000e+01 1.1610e-13 0.0000e+00
  9900012  1    3    3    0    0 +8.1005052167e+00 -1.4202639123e+01 +9.1294045089e+00 7.2461570294e+01 7.0000000000e+01 1.5499e-05 1.0000e+00
       12  1    3    3    0    0 -8.1005052167e+00 +1.4202639123e+01 -9.1294045089e+00 1.8726429706e+01 0.0000000000e+00 0.0000e+00 -1.0000e+00
</event>
<event>
 5      3 +6.9480500e-03 9.11880000e+01 7.81616400e-03 1.18400000e-01
      -11 -1    0    0    0    0 +0.0000000000e+00 +0.0000000000e+00 +4.5593999997e+01 4.5594000000e+01 5.1100000000e-04 0.0000e+00 -1.0000e+00
       11 -1    0    0    0    0 -0.0000000000e+00 -0.0000000000e+00 -4.5593999997e+01 4.5594000000e+01 5.1100000000e-04 0.0000e+00 1.0000e+00
       23  2    1    2    0    0 +0.0000000000e+00 +0.0000000000e+00 +0.0000000000e+00 9.1188000000e+01 9.1188000000e+01 9.1028e-14 0.0000e+00
  9900012  1    3    3    0    0 -8.4295024850e+00 +1.6704132293e+01 -7.7111719379e-01 7.2461570294e+01 7.0000000000e+01 2.2353e-05 -1.0000e+00
       12  1    3    3    0    0 +8.4295024850e+00 -1.6704132293e+01 +7.7111719379e-01 1.8726429706e+01 0.0000000000e+00 0.0000e+00 -1.0000e+00
</event>
<event>
 5      4 +6.9480500e-03 9.11880000e+01 7.81616400e-03 1.18400000e-01
      -11 -1    0    0    0    0 +0.0000000000e+00 +0.0000000000e+00 +4.5593999997e+01 4.5594000000e+01 5.1100000000e-04 0.0000e+00 1.0000e+00
       11 -1    0    0    0    0 -0.0000000000e+00 -0.0000000000e+00 -4.5593999997e+01 4.5594000000e+01 5.1100000000e-04 0.0000e+00 -1.0000e+00
       23  2    1    2    0    0 +0.0000000000e+00 +0.0000000000e+00 +0.0000000000e+00 9.1188000000e+01 9.1188000000e+01 2.2731e-14 0.0000e+00
  9900012  1    3    3    0    0 +1.8793551931e+00 -1.8552319932e+01 +1.7200635839e+00 7.2461570294e+01 7.0000000000e+01 9.1978e-05 1.0000e+00
      -12  1    3    3    0    0 -1.8793551931e+00 +1.8552319932e+01 -1.7200635839e+00 1.8726429706e+01 0.0000000000e+00 0.0000e+00 1.0000e+00
</event>
<event>
 5      1 +6.9480500e-03 9.11880000e+01 7.81616400e-03 1.18400000e-01
      -11 -1    0    0    0    0 +0.0000000000e+00 +0.0000000000e+00 +4.5593999997e+01 4.5594000000e+01 5.1100000000e-04 0.0000e+00 -1.0000e+00
       11 -1    0    0    0    0 -0.0000000000e+00 -0.0000000000e+00 -4.5593999997e+01 4.5594000000e+01 5.1100000000e-04 0.0000e+00 1.0000e+00
       23  2    1    2    0    0 +0.0000000000e+00 +0.0000000000e+00 +0.0000000000e+00 9.1188000000e+01 9.1188000000e+01 3.0849e-13 0.0000e+00
  9900012  1    3    3    0    0 +5.8010192042e+00 +1.3101063038e+01 -1.2057756549e+01 7.2461570294e+01 7.0000000000e+01 2.5080e-05 1.0000e+00
       12  1    3    3    0    0 -5.8010192042e+00 -1.3101063038e+01 +1.2057756549e+01 1.8726429706e+01 0.0000000000e+00 0.0000e+00 -1.0000e+00
</event>
<event>
 5      2 +6.9480500e-03 9.11880000e+01 7.81616400e-03 1.18400000e-01
      -11 -1    0    0    0    0 +0.0000000000e+00 +0.0000000000e+00 +4.5593999997e+01 4.5594000000e+01 5.1100000000e-04 0.0000e+00 -1.0000e+00
       11 -1    0    0    0    0 -0.0000000000e+00 -0.0000000000e+00 -4.5593999997e+01 4.5594000000e+01 5.1100000000e-04 0.0000e+00 1.0000e+00
       23  2    1    2    0    0 +0.0000000000e+00 +0.0000000000e+00 +0.0000000000e+00 9.1188000000e+01 9.1188000000e+01 5.9115e-14 0.0000e+00
  9900012  1    3    3    0    0 +4.2062726344e-01 -1.3349975406e+01 +1.3125562802e+01 7.2461570294e+01 7.0000000000e+01 2.8064e-04 -1.0000e+00
      -12  1    3    3    0    0 -4.2062726344e-01 +1.3349975406e+01 -1.3125562802e+01 1.8726429706e+01 0.0000000000e+00 0.0000e+00 1.0000e+00
</event>
<event>
 5      1 +6.9480500e-03 9.11880000e+01 7.81616400e-03 1.18400000e-01
      -11 -1    0    0    0    0 +0.0000000000e+00 +0.0000000000e+00 +4.5593999997e+01 4.5594000000e+01 5.1100000000e-04 0.0000e+00 1.0000e+00
       11 -1    0    0    0    0 -0.0000000000e+00 -0.0000000000e+00 -4.5593999997e+01 4.5594000000e+01 5.1100000000e-04 0.0000e+00 -1.0000e+00
       23  2    1    2    0    0 +0.0000000000e+00 +0.0000000000e+00 +0.0000000000e+00 9.1188000000e+01 9.1188000000e+01 6.1841e-14 0.0000e+00
  9900012  1    3    3    0    0 +3.2046215333e+00 +4.9146220009e+00 +1.7783589653e+01 7.2461570294e+01 7.0000000000e+01 5.6498e-04 1.0000e+00
       12  1    3    3    0    0 -3.2046215333e+00 -4.9146220009e+00 -1.7783589653e+01 1.8726429706e+01 0.0000000000e+00 0.0000e+00 -1.0000e+00
</event>
<event>
 5      6 +6.9480500e-03 9.11880000e+01 7.81616400e-03 1.18400000e-01
      -11 -1    0    0    0    0 +0.0000000000e+00 +0.0000000000e+00 +4.5593999997e+01 4.5594000000e+01 5.1100000000e-04 0.0000e+00 -1.0000e+00
       11 -1    0    0    0    0 -0.0000000000e+00 -0.0000000000e+00 -4.5593999997e+01 4.5594000000e+01 5.1100000000e-04 0.0000e+00 1.0000e+00
       23  2    1    2    0    0 +0.0000000000e+00 +0.0000000000e+00 +0.0000000000e+00 9.1188000000e+01 9.1188000000e+01 5.7951e-14 0.0000e+00
  9900012  1    3    3    0    0 +1.7372669198e+01 -4.8311877674e+00 +5.0526388350e+00 7.2461570294e+01 7.0000000000e+01 8.8699e-05 -1.0000e+00
      -12  1    3    3    0    0 -1.7372669198e+01 +4.8311877674e+00 -5.0526388350e+00 1.8726429706e+01 0.0000000000e+00 0.0000e+00 1.0000e+00
</event>
<event>
 5      5 +6.9480500e-03 9.11880000e+01 7.81616400e-03 1.18400000e-01
      -11 -1    0    0    0    0 +0.0000000000e+00 +0.0000000000e+00 +4.5593999997e+01 4.5594000000e+01 5.1100000000e-04 0.0000e+00 -1.0000e+00
       11 -1    0    0    0    0 -0.0000000000e+00 -0.0000000000e+00 -4.5593999997e+01 4.5594000000e+01 5.1100000000e-04 0.0000e+00 1.0000e+00
       23  2    1    2    0    0 +0.0000000000e+00 +0.0000000000e+00 +0.0000000000e+00 9.1188000000e+01 9.1188000000e+01 5.6715e-14 0.0000e+00
  9900012  1    3    3    0    0 -1.5580984025e+01 +9.7966477899e+00 +3.4551119230e+00 7.2461570294e+01 7.0000000000e+01 3.6322e-05 1.0000e+00
       12  1    3    3    0    0 +1.5580984025e+01 -9.7966477899e+00 -3.4551119230e+00 1.8726429706e+01 0.0000000000e+00 0.0000e+00 -1.0000e+00
</event>
<event>
 5      3 +6.9480500e-03 9.11880000e+01 7.81616400e-03 1.18400000e-01
      -11 -1    0    0    0    0 +0.0000000000e+00 +0.0000000000e+00 +4.5593999997e+01 4.5594000000e+01 5.1100000000e-04 0.0000e+00 1.0000e+00
       11 -1    0    0    0    0 -0.0000000000e+00 -0.0000000000e+00 -4.5593999997e+01 4.5594000000e+01 5.1100000000e-04 0.0000e+00 -1.0000e+00
       23  2    1    2    0    0 +0.0000000000e+00 +0.0000000000e+00 +0.0000000000e+00 9.1188000000e+01 9.1188000000e+01 2.7915e-14 0.0000e+00
  9900012  1    3    3    0    0 +1.3088807060e+01 +9.5345745640e+00 +9.4050086206e+00 7.2461570294e+01 7.0000000000e+01 1.4827e-04 1.0000e+00
       12  1    3    3    0    0 -1.3088807060e+01 -9.5345745640e+00 -9.4050086206e+00 1.8726429706e+01 0.0000000000e+00 0.0000e+00 -1.0000e+00
</event>
<event>
 5      4 +6.9480500e-03 9.11880000e+01 7.81616400e-03 1.18400000e-01
      -11 -1    0    0    0    0 +0.0000000000e+00 +0.0000000000e+00 +4.5593999997e+01 4.5594000000e+01 5.1100000000e-04 0.0000e+00 -1.0000e+00
       11 -1    0    0    0    0 -0.0000000000e+00 -0.0000000000e+00 -4.5593999997e+01 4.5594000000e+01 5.1100000000e-04 0.0000e+00 1.0000e+00
       23  2    1    2    0    0 +0.0000000000e+00 +0.0000000000e+00 +0.0000000000e+00 9.1188000000e+01 9.1188000000e+01 2.9063e-14 0.0000e+00
  9900012  1    3    3    0    0 -3.3301399554e+00 +1.6888560663e+01 +7.3733205629e+00 7.2461570294e+01 7.0000000000e+01 1.2918e-04 -1.0000e+00
      -12  1    3    3    0    0 +3.3301399554e+00 -1.6888560663e+01 -7.3733205629e+00 1.8726429706e+01 0.0000000000e+00 0.0000e+00 1.0000e+00
</event>
<event>
 5      7 +6.9480500e-03 9.11880000e+01 7.81616400e-03 1.18400000e-01
      -11 -1    0    0    0    0 +0.0000000000e+00 +0.0000000000e+00 +4.5593999997e+01 4.5594000000e+01 5.1100000000e-04 0.0000e+00 -1.0000e+00
       11 -1    0    0    0    0 -0.0000000000e+00 -0.0000000000e+00 -4.5593999997e+01 4.5594000000e+01 5.1100000000e-04 0.0000e+00 1.0000e+00
       23  2    1    2    0    0 +0.0000000000e+00 +0.0000000000e+00 +0.0000000000e+00 9.1188000000e+01 9.1188000000e+01 8.9481e-14 0.0000e+00
  9900012  1    3    3    0    0 +2.3350382747e+00 -2.4283432411e+00 -1.8420909719e+01 7.2461570294e+01 7.0000000000e+01 3.8750e-05 1.0000e+00
       12  1    3    3    0    0 -2.3350382747e+00 +2.4283432411e+00 +1.8420909719e+01 1.8726429706e+01 0.0000000000e+00 0.0000e+00 -1.0000e+00
</event>
<event>
 5      7 +6.9480500e-03 9.11880000e+01 7.81616400e-03 1.18400000e-01
      -11 -1    0    0    0    0 +0.0000000000e+00 +0.0000000000e+00 +4.5593999997e+01 4.5594000000e+01 5.1100000000e-04 0.0000e+00 1.0000e+00
       11 -1    0    0    0    0 -0.0000000000e+00 -0.0000000000e+00 -4.5593999997e+01 4.5594000000e+01 5.1100000000e-04 0.0000e+00 -1.0000e+00
       23  2    1    2    0    0 +0.0000000000e+00 +0.0000000000e+00 +0.0000000000e+00 9.1188000000e+01 9.1188000000e+01 8.8239e-15 0.0000e+00
  9900012  1    3    3    0    0 -1.6419224477e+00 +4.7642937852e+00 +1.8035652606e+01 7.2461570294e+01 7.0000000000e+01 5.6004e-05 1.0000e+00
       12  1    3    3    0    0 +1.6419224477e+00 -4.7642937852e+00 -1.8035652606e+01 1.8726429706e+01 0.0000000000e+00 0.0000e+00 -1.0000e+00
</event>
<event>
 5      6 +6.9480500e-03 9.11880000e+01 7.81616400e-03 1.18400000e-01
      -11 -1    0    0    0    0 +0.0000000000e+00 +0.0000000000e+00 +4.5593999997e+01 4.5594000000e+01 5.1100000000e-04 0.0000e+00 -1.0000e+00
       11 -1    0    0    0    0 -0.0000000000e+00 -0.0000000000e+00 -4.5593999997e+01 4.5594000000e+01 5.1100000000e-04 0.0000e+00 1.0000e+00
       23  2    1    2    0    0 +0.0000000000e+00 +0.0000000000e+00 +0.0000000000e+00 9.1188000000e+01 9.1188000000e+01 6.1584e-15 0.0000e+00
  9900012  1    3    3    0    0 -1.6692419021e+01 -2.3614740093e+00 +8.1526533868e+00 7.2461570294e+01 7.0000000000e+01 6.1170e-05 -1.0000e+00
      -12  1    3    3    0    0 +1.6692419021e+01 +2.3614740093e+00 -8.1526533868e+00 1.8726429706e+01 0.0000000000e+00 0.0000e+00 1.0000e+00
</event>
<event>
 5      5 +6.9480500e-03 9.11880000e+01 7.81616400e-03 1.18400000e-01
      -11 -1    0    0    0    0 +0.0000000000e+00 +0.0000000000e+00 +4.5593999997e+01 4.5594000000e+01 5.1100000000e-04 0.0000e+00 -1.0000e+00
       11 -1    0    0    0    0 -0.0000000000e+00 -0.0000000000e+00 -4.5593999997e+01 4.5594000000e+01 5.1100000000e-04 0.0000e+00 1.0000e+00
       23  2    1    2    0    0 +0.0000000000e+00 +0.0000000000e+00 +0.0000000000e+00 9.1188000000e+01 9.1188000000e+01 8.5731e-16 0.0000e+00
  9900012  1    3    3    0    0 +3.1021397561e+00 -1.8324005803e+01 +2.2992846245e+00 7.2461570294e+01 7.0000000000e+01 4.8933e-05 -1.0000e+00
       12  1    3    3    0    0 -3.1021397561e+00 +1.8324005803e+01 -2.2992846245e+00 1.8726429706e+01 0.0000000000e+00 0.0000e+00 -1.0000e+00
</event>
<event>
 5      3 +6.9480500e-03 9.11880000e+01 7.81616400e-03 1.18400000e-01
      -11 -1    0    0    0    0 +0.0000000000e+00 +0.0000000000e+00 +4.5593999997e+01 4.5594000000e+01 5.1100000000e-04 0.0000e+00 -1.0000e+00
       11 -1    0    0    0    0 -0.0000000000e+00 -0.0000000000e+00 -4.5593999997e+01 4.5594000000e+01 5.1100000000e-04 0.0000e+00 1.0000e+00
       23  2    1    2    0    0 +0.0000000000e+00 +0.0000000000e+00 +0.0000000000e+00 9.1188000000e+01 9.1188000000e+01 1.9966e-14 0.0000e+00
  9900012  1    3    3    0    0 +4.4432284572e+00 +1.6995277297e+01 -6.4882540022e+00 7.2461570294e+01 7.0000000000e+01 4.9976e-05 1.0000e+00
       12  1    3    3    0    0 -4.4432284572e+00 -1.6995277297e+01 +6.4882540022e+00 1.8726429706e+01 0.0000000000e+00 0.0000e+00 -1.0000e+00
</event>
<event>
 5      2 +6.9480500e-03 9.11880000e+01 7.81616400e-03 1.18400000e-01
      -11 -1    0    0    0    0 +0.0000000000e+00 +0.0000000000e+00 +4.5593999997e+01 4.5594000000e+01 5.1100000000e-04 0.0000e+00 1.0000e+00
       11 -1    0    0    0    0 -0.0000000000e+00 -0.0000000000e+00 -4.5593999997e+01 4.5594000000e+01 5.1100000000e-04 0.0000e+00 -1.0000e+00
       23  2    1    2    0    0 +0.0000000000e+00 +0.0000000000e+00 +0.0000000000e+00 9.1188000000e+01 9.1188000000e+01 1.9826e-13 0.0000e+00
  9900012  1    3    3    0    0 +3.3383279321e+00 -1.2561022271e+01 -1.3481671100e+01 7.2461570294e+01 7.0000000000e+01 2.1019e-04 -1.0000e+00
      -12  1    3    3    0    0 -3.3383279321e+00 +1.2561022271e+01 +1.3481671100e+01 1.8726429706e+01 0.0000000000e+00 0.0000e+00 1.0000e+00
</event>
<event>
 5      6 +6.9480500e-03 9.11880000e+01 7.81616400e-03 1.18400000e-01
      -11 -1    0    0    0    0 +0.0000000000e+00 +0.0000000000e+00 +4.5593999997e+01 4.5594000000e+01 5.1100000000e-04 0.0000e+00 -1.0000e+00
       11 -1    0    0    0    0 -0.0000000000e+00 -0.0000000000e+00 -4.5593999997e+01 4.5594000000e+01 5.1100000000e-04 0.0000e+00 1.0000e+00
       23  2    1    2    0    0 +0.0000000000e+00 +0.0000000000e+00 +0.0000000000e+00 9.1188000000e+01 9.1188000000e+01 4.0922e-13 0.0000e+00
  9900012  1    3    3    0    0 +8.2543519397e+00 -7.9412328300e+00 -1.4814913591e+01 7.2461570294e+01 7.0000000000e+01 1.5694e-04 -1.0000e+00
      -12  1    3    3    0    0 -8.2543519397e+00 +7.9412328300e+00 +1.4814913591e+01 1.8726429706e+01 0.0000000000e+00 0.0000e+00 1.0000e+00
</event>
<event>
 5      2 +6.9480500e-03 9.11880000e+01 7.81616400e-03 1.18400000e-01
      -11 -1    0    0    0    0 +0.0000000000e+00 +0.0000000000e+00 +4.5593999997e+01 4.5594000000e+01 5.1100000000e-04 0.0000e+00 1.0000e+00
       11 -1    0    0    0    0 -0.0000000000e+00 -0.0000000000e+00 -4.5593999997e+01 4.5594000000e+01 5.1100000000e-04 0.0000e+00 -1.0000e+00
       23  2    1    2    0    0 +0.0000000000e+00 +0.0000000000e+00 +0.0000000000e+00 9.1188000000e+01 9.1188000000e+01 8.1771e-14 0.0000e+00
  9900012  1    3    3    0    0 +2.4518357047e+00 +8.1381867827e+00 -1.6686449205e+01 7.2461570294e+01 7.0000000000e+01 3.7429e-05 -1.0000e+00
      -12  1    3    3    0    0 -2.4518357047e+00 -8.1381867827e+00 +1.6686449205e+01 1.8726429706e+01 0.0000000000e+00 0.0000e+00 1.0000e+00
</event>
<event>
 5      8 +6.9480500e-03 9.11880000e+01 7.81616400e-03 1.18400000e-01
      -11 -1    0    0    0    0 +0.0000000000e+00 +0.0000000000e+00 +4.5593999997e+01 4.5594000000e+01 5.1100000000e-04 0.0000e+00 -1.0000e+00
       11 -1    0    0    0    0 -0.0000000000e+00 -0.0000000000e+00 -4.5593999997e+01 4.5594000000e+01 5.1100000000e-04 0.0000e+00 1.0000e+00
       23  2    1    2    0    0 +0.0000000000e+00 +0.0000000000e+00 +0.0000000000e+00 9.1188000000e+01 9.1188000000e+01 7.2398e-14 0.0000e+00
  9900012  1    3    3    0    0 -1.6425787436e+00 +1.7281686079e+01 +7.0231354002e+00 7.2461570294e+01 7.0000000000e+01 9.5960e-05 -1.0000e+00
      -12  1    3    3    0    0 +1.6425787436e+00 -1.7281686079e+01 -7.0231354002e+00 1.8726429706e+01 0.0000000000e+00 0.0000e+00 1.0000e+00
</event>
<event>
 5      1 +6.9480500e-03 9.11880000e+01 7.81616400e-03 1.18400000e-01
      -11 -1    0    0    0    0 +0.0000000000e+00 +0.0000000000e+00 +4.5593999997e+01 4.5594000000e+01 5.1100000000e-04 0.0000e+00 -1.0000e+00
       11 -1    0    0    0    0 -0.0000000000e+00 -0.0000000000e+00 -4.5593999997e+01 4.5594000000e+01 5.1100000000e-04 0.0000e+00 1.0000e+00
       23  2    1    2    0    0 +0.0000000000e+00 +0.0000000000e+00 +0.0000000000e+00 9.1188000000e+01 9.1188000000e+01 7.1082e-14 0.0000e+00
  9900012  1    3    3    0    0 -2.7446027596e+00 +1.7725423074e+01 -5.3810502755e+00 7.2461570294e+01 7.0000000000e+01 5.0041e-05 -1.0000e+00
       12  1    3    3    0    0 +2.7446027596e+00 -1.7725423074e+01 +5.3810502755e+00 1.8726429706e+01 0.0000000000e+00 0.0000e+00 -1.0000e+00
</event>
<event>
 5      5 +6.9480500e-03 9.11880000e+01 7.81616400e-03 1.18400000e-01
      -11 -1    0    0    0    0 +0.0000000000e+00 +0.0000000000e+00 +4.5593999997e+01 4.5594000000e+01 5.1100000000e-04 0.0000e+00 1.0000e+00
       11 -1    0    0    0    0 -0.0000000000e+00 -0.0000000000e+00 -4.5593999997e+01 4.5594000000e+01 5.1100000000e-04 0.0000e+00 -1.0000e+00
       23  2    1    2    0    0 +0.0000000000e+00 +0.0000000000e+00 +0.0000000000e+00 9.1188000000e+01 9.1188000000e+01 1.9097e-15 0.0000e+00
  9900012  1    3    3    0    0 +1.5731891101e+01 -8.6619468103e+00 +5.3063593320e+00 7.2461570294e+01 7.0000000000e+01 3.4609e-04 1.0000e+00
       12  1    3    3    0    0 -1.5731891101e+01 +8.6619468103e+00 -5.3063593320e+00 1.8726429706e+01 0.0000000000e+00 0.0000e+00 -1.0000e+00
</event>
<event>
 5      3 +6.9480500e-03 9.11880000e+01 7.81616400e-03 1.18400000e-01
      -11 -1    0    0    0    0 +0.0000000000e+00 +0.0000000000e+00 +4.5593999997e+01 4.5594000000e+01 5.1100000000e-04 0.0000e+00 1.0000e+00
       11 -1    0    0    0    0 -0.0000000000e+00 -0.0000000000e+00 -4.5593999997e+01 4.5594000000e+01 5.1100000000e-04 0.0000e+00 -1.0000e+00
       23  2    1    2    0    0 +0.0000000000e+00 +0.0000000000e+00 +0.0000000000e+00 9.1188000000e+01 9.1188000000e+01 3.4890e-14 0.0000e+00
  9900012  1    3    3    0    0 +2.9310644795e+00 -9.0786097829e-01 +1.8473327231e+01 7.2461570294e+01 7.0000000000e+01 4.9518e-05 1.0000e+00
       12  1    3    3    0    0 -2.9310644795e+00 +9.0786097829e-01 -1.8473327231e+01 1.8726429706e+01 0.0000000000e+00 0.0000e+00 -1.0000e+00
</event>
<event>
 5      3 +6.9480500e-03 9.11880000e+01 7.81616400e-03 1.18400000e-01
      -11 -1    0    0    0    0 +0.0000000000e+00 +0.0000000000e+00 +4.5593999997e+01 4.5594000000e+01 5.1100000000e-04 0.0000e+00 -1.0000e+00
       11 -1    0    0    0    0 -0.0000000000e+00 -0.0000000000e+00 -4.5593999997e+01 4.5594000000e+01 5.1100000000e-04 0.0000e+00 1.0000e+00
       23  2    1    2    0    0 +0.0000000000e+00 +0.0000000000e+00 +0.0000000000e+00 9.1188000000e+01 9.1188000000e+01 2.3531e-13 0.0000e+00
  9900012  1    3    3    0    0 +1.4685226153e+01 +1.1611215108e+01 -4.5053974698e-01 7.2461570294e+01 7.0000000000e+01 2.4470e-05 1.0000e+00
       12  1    3    3    0    0 -1.4685226153e+01 -1.1611215108e+01 +4.5053974698e-01 1.8726429706e+01 0.0000000000e+00 0.0000e+00 -1.0000e+00
</event>
<event>
 5      2 +6.9480500e-03 9.11880000e+01 7.81616400e-03 1.18400000e-01
      -11 -1    0    0    0    0 +0.0000000000e+00 +0.0000000000e+00 +4.5593999997e+01 4.5594000000e+01 5.1100000000e-04 0.0000e+00 1.0000e+00
       11 -1    0    0    0    0 -0.0000000000e+00 -0.0000000000e+00 -4.5593999997e+01 4.5594000000e+01 5.1100000000e-04 0.0000e+00 -1.0000e+00
       23  2    1    2    0    0 +0.0000000000e+00 +0.0000000000e+00 +0.0000000000e+00 9.1188000000e+01 9.1188000000e+01 1.6871e-13 0.0000e+00
  9900012  1    3    3    0    0 +1.8265507565e+00 +1.5697585432e+01 -1.0046327363e+01 7.2461570294e+01 7.0000000000e+01 2.9066e-04 -1.0000e+00
      -12  1    3    3    0    0 -1.8265507565e+00 -1.5697585432e+01 +1.0046327363e+01 1.8726429706e+01 0.0000000000e+00 0.0000e+00 1.0000e+00
</event>
<event>
 5      7 +6.9480500e-03 9.11880000e+01 7.81616400e-03 1.18400000e-01
      -11 -1    0    0    0    0 +0.0000000000e+00 +0.0000000000e+00 +4.5593999997e+01 4.5594000000e+01 5.1100000000e-04 0.0000e+00 -1.0000e+00
       11 -1    0    0    0    0 -0.0000000000e+00 -0.0000000000e+00 -4.5593999997e+01 4.5594000000e+01 5.1100000000e-04 0.0000e+00 1.0000e+00
       23  2    1    2    0    0 +0.0000000000e+00 +0.0000000000e+00 +0.0000000000e+00 9.1188000000e+01 9.1188000000e+01 1.2011e-13 0.0000e+00
  9900012  1    3    3    0    0 +3.3397021127e+00 +1.7651175509e+01 -5.2878693682e+00 7.2461570294e+01 7.0000000000e+01 7.7384e-05 1.0000e+00
       12  1    3    3    0    0 -3.3397021127e+00 -1.7651175509e+01 +5.2878693682e+00 1.8726429706e+01 0.0000000000e+00 0.0000e+00 -1.0000e+00
</event>
<event>
 5      3 +6.9480500e-03 9.11880000e+01 7.81616400e-03 1.18400000e-01
      -11 -1    0    0    0    0 +0.0000000000e+00 +0.0000000000e+00 +4.5593999997e+01 4.5594000000e+01 5.1100000000e-04 0.0000e+00 1.0000e+00
       11 -1    0    0    0    0 -0.0000000000e+00 -0.0000000000e+00 -4.5593999997e+01 4.5594000000e+01 5.1100000000e-04 0.0000e+00 -1.0000e+00
       23  2    1    2    0    0 +0.0000000000e+00 +0.0000000000e+00 +0.0000000000e+00 9.1188000000e+01 9.1188000000e+01 6.5974e-14 0.0000e+00
  9900012  1    3    3    0    0 +1.4775776410e+01 +3.5011796399e+00 -1.0958893289e+01 7.2461570294e+01 7.0000000000e+01 1.4186e-05 1.0000e+00
       12  1    3    3    0    0 -1.4775776410e+01 -3.5011796399e+00 +1.0958893289e+01 1.8726429706e+01 0.0000000000e+00 0.0000e+00 -1.0000e+00
</event>
<event>
 5      3 +6.9480500e-03 9.11880000e+01 7.81616400e-03 1.18400000e-01
      -11 -1    0    0    0    0 +0.0000000000e+00 +0.0000000000e+00 +4.5593999997e+01 4.5594000000e+01 5.1100000000e-04 0.0000e+00 1.0000e+00
       11 -1    0    0    0    0 -0.0000000000e+00 -0.0000000000e+00 -4.5593999997e+01 4.5594000000e+01 5.1100000000e-04 0.0000e+00 -1.0000e+00
       23  2    1    2    0    0 +0.0000000000e+00 +0.0000000000e+00 +0.0000000000e+00 9.1188000000e+01 9.1188000000e+01 1.1471e-14 0.0000e+00
  9900012  1    3    3    0    0 +1.6504486333e+01 +3.2093970916e+00 +8.2450512855e+00 7.2461570294e+01 7.0000000000e+01 2.6151e-04 1.0000e+00
       12  1    3    3    0    0 -1.6504486333e+01 -3.2093970916e+00 -8.2450512855e+00 1.8726429706e+01 0.0000000000e+00 0.0000e+00 -1.0000e+00
</event>
<event>
 5      6 +6.9480500e-03 9.11880000e+01 7.81616400e-03 1.18400000e-01
      -11 -1    0    0    0    0 +0.0000000000e+00 +0.0000000000e+00 +4.5593999997e+01 4.5594000000e+01 5.1100000000e-04 0.0000e+00 -1.0000e+00
       11 -1    0    0    0    0 -0.0000000000e+00 -0.0000000000e+00 -4.5593999997e+01 4.5594000000e+01 5.1100000000e-04 0.0000e+00 1.0000e+00
       23  2    1    2    0    0 +0.0000000000e+00 +0.0000000000e+00 +0.0000000000e+00 9.1188000000e+01 9.1188000000e+01 2.7030e-13 0.0000e+00
  9900012  1    3    3    0    0 +6.4817667067e+00 -8.6682459874e+00 +1.5281602710e+01 7.2461570294e+01 7.0000000000e+01 4.8005e-05 -1.0000e+00
      -12  1    3    3    0    0 -6.4817667067e+00 +8.6682459874e+00 -1.5281602710e+01 1.8726429706e+01 0.0000000000e+00 0.0000e+00 1.0000e+00
</event>
<event>
 5      5 +6.9480500e-03 9.11880000e+01 7.81616400e-03 1.18400000e-01
      -11 -1    0    0    0    0 +0.0000000000e+00 +0.0000000000e+00 +4.5593999997e+01 4.5594000000e+01 5.1100000000e-04 0.0000e+00 1.0000e+00
       11 -1    0    0    0    0 -0.0000000000e+00 -0.0000000000e+00 -4.5593999997e+01 4.5594000000e+01 5.1100000000e-04 0.0000e+00 -1.0000e+00
       23  2    1    2    0    0 +0.0000000000e+00 +0.0000000000e+00 +0.0000000000e+00 9.1188000000e+01 9.1188000000e+01 1.5526e-13 0.0000e+00
  9900012  1    3    3    0    0 +1.0499318593e+01 +2.3629104783e+00 -1.5325147069e+01 7.2461570294e+01 7.0000000000e+01 6.5895e-05 -1.0000e+00
       12  1    3    3    0    0 -1.0499318593e+01 -2.3629104783e+00 +1.5325147069e+01 1.8726429706e+01 0.0000000000e+00 0.0000e+00 -1.0000e+00
</event>
<event>
 5      6 +6.9480500e-03 9.11880000e+01 7.81616400e-03 1.18400000e-01
      -11 -1    0    0    0    0 +0.0000000000e+00 +0.0000000000e+00 +4.5593999997e+01 4.5594000000e+01 5.1100000000e-04 0.0000e+00 1.0000e+00
       11 -1    0    0    0    0 -0.0000000000e+00 -0.0000000000e+00 -4.5593999997e+01 4.5594000000e+01 5.1100000000e-04 0.0000e+00 -1.0000e+00
       23  2    1    2    0    0 +0.0000000000e+00 +0.0000000000e+00 +0.0000000000e+00 9.1188000000e+01 9.1188000000e+01 3.3033e-13 0.0000e+00
  9900012  1    3    3    0    0 -1.7858160006e+01 +5.3776627371e+00 -1.6870193309e+00 7.2461570294e+01 7.0000000000e+01 1.3458e-04 -1.0000e+00
      -12  1    3    3    0    0 +1.7858160006e+01 -5.3776627371e+00 +1.6870193309e+00 1.8726429706e+01 0.0000000000e+00 0.0000e+00 1.0000e+00
</event>
<event>
 5      7 +6.9480500e-03 9.11880000e+01 7.81616400e-03 1.18400000e-01
      -11 -1    0    0    0    0 +0.0000000000e+00 +0.0000000000e+00 +4.5593999997e+01 4.5594000000e+01 5.1100000000e-04 0.0000e+00 1.0000e+00
       11 -1    0    0    0    0 -0.0000000000e+00 -0.0000000000e+00 -4.5593999997e+01 4.5594000000e+01 5.1100000000e-04 0.0000e+00 -1.0000e+00
       23  2    1    2    0    0 +0.0000000000e+00 +0.0000000000e+00 +0.0000000000e+00 9.1188000000e+01 9.1188000000e+01 7.6189e-16 0.0000e+00
  9900012  1    3    3    0    0 +1.1142647063e+01 +6.2101612569e+00 +1.3709649270e+01 7.2461570294e+01 7.0000000000e+01 3.5802e-04 1.0000e+00
       12  1    3    3    0    0 -1.1142647063e+01 -6.2101612569e+00 -1.3709649270e+01 1.8726429706e+01 0.0000000000e+00 0.0000e+00 -1.0000e+00
</event>
<event>
 5      7 +6.9480500e-03 9.11880000e+01 7.81616400e-03 1.18400000e-01
      -11 -1    0    0    0    0 +0.0000000000e+00 +0.0000000000e+00 +4.5593999997e+01 4.5594000000e+01 5.1100000000e-04 0.0000e+00 1.0000e+00
       11 -1    0    0    0    0 -0.0000000000e+00 -0.0000000000e+00 -4.5593999997e+01 4.5594000000e+01 5.1100000000e-04 0.0000e+00 -1.0000e+00
       23  2    1    2    0    0 +0.0000000000e+00 +0.0000000000e+00 +0.0000000000e+00 9.1188000000e+01 9.1188000000e+01 1.1915e-13 0.0000e+00
  9900012  1    3    3    0    0 +1.3826240844e+01 +2.6685332135e+00 +1.2344762620e+01 7.2461570294e+01 7.0000000000e+01 4.4620e-05 1.0000e+00
       12  1    3    3    0    0 -1.3826240844e+01 -2.6685332135e+00 -1.2344762620e+01 1.8726429706e+01 0.0000000000e+00 0.0000e+00 -1.0000e+00
</event>
<event>
 5      2 +6.9480500e-03 9.11880000e+01 7.81616400e-03 1.18400000e-01
      -11 -1    0    0    0    0 +0.0000000000e+00 +0.0000000000e+00 +4.5593999997e+01 4.5594000000e+01 5.1100000000e-04 0.0000e+00 -1.0000e+00
       11 -1    0    0    0    0 -0.0000000000e+00 -0.0000000000e+00 -4.5593999997e+01 4.5594000000e+01 5.1100000000e-04 0.0000e+00 1.0000e+00
       23  2    1    2    0    0 +0.0000000000e+00 +0.0000000000e+00 +0.0000000000e+00 9.1188000000e+01 9.1188000000e+01 2.3816e-14 0.0000e+00
  9900012  1    3    3    0    0 +1.7971270128e+01 +4.6823961082e+00 -2.4057818264e+00 7.2461570294e+01 7.0000000000e+01 1.8774e-04 1.0000e+00
      -12  1    3    3    0    0 -1.7971270128e+01 -4.6823961082e+00 +2.4057818264e+00 1.8726429706e+01 0.0000000000e+00 0.0000e+00 1.0000e+00
</event>
<event>
 5      8 +6.9480500e-03 9.11880000e+01 7.81616400e-03 1.18400000e-01
      -11 -1    0    0    0    0 +0.0000000000e+00 +0.0000000000e+00 +4.5593999997e+01 4.5594000000e+01 5.1100000000e-04 0.0000e+00 -1.0000e+00
       11 -1    0    0    0    0 -0.0000000000e+00 -0.0000000000e+00 -4.5593999997e+01 4.5594000000e+01 5.1100000000e-04 0.0000e+00 1.0000e+00
       23  2    1    2    0    0 +0.0000000000e+00 +0.0000000000e+00 +0.0000000000e+00 9.1188000000e+01 9.1188000000e+01 9.3936e-14 0.0000e+00
  9900012  1    3    3    0    0 +1.5003555585e+01 -1.3349420629e+00 +1.1126114282e+01 7.2461570294e+01 7.0000000000e+01 1.3795e-04 -1.0000e+00
      -12  1    3    3    0    0 -1.5003555585e+01 +1.3349420629e+00 -1.1126114282e+01 1.8726429706e+01 0.0000000000e+00 0.0000e+00 1.0000e+00
</event>
<event>
 5      5 +6.9480500e-03 9.11880000e+01 7.81616400e-03 1.18400000e-01
      -11 -1    0    0    0    0 +0.0000000000e+00 +0.0000000000e+00 +4.5593999997e+01 4.5594000000e+01 5.1100000000e-04 0.0000e+00 1.0000e+00
       11 -1    0    0    0    0 -0.0000000000e+00 -0.0000000000e+00 -4.5593999997e+01 4.5594000000e+01 5.1100000000e-04 0.0000e+00 -1.0000e+00
       23  2    1    2    0    0 +0.0000000000e+00 +0.0000000000e+00 +0.0000000000e+00 9.1188000000e+01 9.1188000000e+01 5.6939e-16 0.0000e+00
  9900012  1    3    3    0    0 -1.4591543287e+01 -6.0197761519e+00 +1.0076126691e+01 7.2461570294e+01 7.0000000000e+01 1.6857e-05 1.0000e+00
       12  1    3    3    0    0 +1.4591543287e+01 +6.0197761519e+00 -1.0076126691e+01 1.8726429706e+01 0.0000000000e+00 0.0000e+00 -1.0000e+00
</event>
<event>
 5      7 +6.9480500e-03 9.11880000e+01 7.81616400e-03 1.18400000e-01
      -11 -1    0    0    0    0 +0.0000000000e+00 +0.0000000000e+00 +4.5593999997e+01 4.5594000000e+01 5.1100000000e-04 0.0000e+00 1.0000e+00
       11 -1    0    0    0    0 -0.0000000000e+00 -0.0000000000e+00 -4.5593999997e+01 4.5594000000e+01 5.1100000000e-04 0.0000e+00 -1.0000e+00
       23  2    1    2    0    0 +0.0000000000e+00 +0.0000000000e+00 +0.0000000000e+00 9.1188000000e+01 9.1188000000e+01 1.9306e-13 0.0000e+00
  9900012  1    3    3    0    0 -1.9770029684e+00 +1.8619503952e+01 +2.9103502178e-01 7.2461570294e+01 7.0000000000e+01 2.4701e-04 1.0000e+00
       12  1    3    3    0    0 +1.9770029684e+00 -1.8619503952e+01 -2.9103502178e-01 1.8726429706e+01 0.0000000000e+00 0.0000e+00 -1.0000e+00
</event>
<event>
 5      1 +6.9480500e-03 9.11880000e+01 7.81616400e-03 1.18400000e-01
      -11 -1    0    0    0    0 +0.0000000000e+00 +0.0000000000e+00 +4.5593999997e+01 4.5594000000e+01 5.1100000000e-04 0.0000e+00 1.0000e+00
       11 -1    0    0    0    0 -0.0000000000e+00 -0.0000000000e+00 -4.5593999997e+01 4.5594000000e+01 5.1100000000e-04 0.0000e+00 -1.0000e+00
       23  2    1    2    0    0 +0.0000000000e+00 +0.0000000000e+00 +0.0000000000e+00 9.1188000000e+01 9.1188000000e+01 2.3114e-15 0.0000e+00
  9900012  1    3    3    0    0 -7.1082529650e+00 -1.7294808080e+01 -1.0205502320e+00 7.2461570294e+01 7.0000000000e+01 5.4174e-05 1.0000e+00
       12  1    3    3    0    0 +7.1082529650e+00 +1.7294808080e+01 +1.0205502320e+00 1.8726429706e+01 0.0000000000e+00 0.0000e+00 -1.0000e+00
</event>
<event>
 5      5 +6.9480500e-03 9.11880000e+01 7.81616400e-03 1.18400000e-01
      -11 -1    0    0    0    0 +0.0000000000e+00 +0.0000000000e+00 +4.5593999997e+01 4.5594000000e+01 5.1100000000e-04 0.0000e+00 1.0000e+00
       11 -1    0    0    0    0 -0.0000000000e+00 -0.0000000000e+00 -4.5593999997e+01 4.5594000000e+01 5.1100000000e-04 0.0000e+00 -1.0000e+00
       23  2    1    2    0    0 +0.0000000000e+00 +0.0000000000e+00 +0.0000000000e+00 9.1188000000e+01 9.1188000000e+01 5.1306e-14 0.0000e+00
  9900012  1    3    3    0    0 +1.8157870731e+01 +2.1797721673e+00 -4.0273432106e+00 7.2461570294e+01 7.0000000000e+01 7.0164e-05 1.0000e+00
       12  1    3    3    0    0 -1.8157870731e+01 -2.1797721673e+00 +4.0273432106e+00 1.8726429706e+01 0.0000000000e+00 0.0000e+00 -1.0000e+00
</event>
<event>
 5      2 +6.9480500e-03 9.11880000e+01 7.81616400e-03 1.18400000e-01
      -11 -1    0    0    0    0 +0.0000000000e+00 +0.0000000000e+00 +4.5593999997e+01 4.5594000000e+01 5.1100000000e-04 0.0000e+00 -1.0000e+00
       11 -1    0    0    0    0 -0.0000000000e+00 -0.0000000000e+00 -4.5593999997e+01 4.5594000000e+01 5.1100000000e-04 0.0000e+00 1.0000e+00
       23  2    1    2    0    0 +0.0000000000e+00 +0.0000000000e+00 +0.0000000000e+00 9.1188000000e+01 9.1188000000e+01 2.1059e-14 0.0000e+00
  9900012  1    3    3    0    0 +1.1917995474e+01 +3.2125289743e+00 +1.4082620885e+01 7.2461570294e+01 7.0000000000e+01 1.2636e-04 -1.0000e+00
      -12  1    3    3    0    0 -1.1917995474e+01 -3.2125289743e+00 -1.4082620885e+01 1.8726429706e+01 0.0000000000e+00 0.0000e+00 1.0000e+00
</event>
<event>
 5      7 +6.9480500e-03 9.11880000e+01 7.81616400e-03 1.18400000e-01
      -11 -1    0    0    0    0 +0.0000000000e+00 +0.0000000000e+00 +4.5593999997e+01 4.5594000000e+01 5.1100000000e-04 0.0000e+00 -1.0000e+00
       11 -1    0    0    0    0 -0.0000000000e+00 -0.0000000000e+00 -4.5593999997e+01 4.5594000000e+01 5.1100000000e-04 0.0000e+00 1.0000e+00
       23  2    1    2    0    0 +0.0000000000e+00 +0.0000000000e+00 +0.0000000000e+00 9.1188000000e+01 9.1188000000e+01 7.6450e-14 0.0000e+00
  9900012  1    3    3    0    0 +7.5314994504e+00 -1.5028650671e+01 -8.2519903386e+00 7.2461570294e+01 7.0000000000e+01 1.3666e-04 -1.0000e+00
       12  1    3    3    0    0 -7.5314994504e+00 +1.5028650671e+01 +8.2519903386e+00 1.8726429706e+01 0.0000000000e+00 0.0000e+00 -1.0000e+00
</event>
<event>
 5      7 +6.9480500e-03 9.11880000e+01 7.81616400e-03 1.18400000e-01
      -11 -1    0    0    0    0 +0.0000000000e+00 +0.0000000000e+00 +4.5593999997e+01 4.5594000000e+01 5.1100000000e-04 0.0000e+00 -1.0000e+00
       11 -1    0    0    0    0 -0.0000000000e+00 -0.0000000000e+00 -4.5593999997e+01 4.5594000000e+01 5.1100000000e-04 0.0000e+00 1.0000e+00
       23  2    1    2    0    0 +0.0000000000e+00 +0.0000000000e+00 +0.0000000000e+00 9.1188000000e+01 9.1188000000e+01 1.2104e-13 0.0000e+00
  9900012  1    3    3    0    0 +1.0589596842e+01 +1.1530920648e+01 -1.0275090133e+01 7.2461570294e+01 7.0000000000e+01 2.1935e-04 -1.0000e+00
       12  1    3    3    0    0 -1.0589596842e+01 -1.1530920648e+01 +1.0275090133e+01 1.8726429706e+01 0.0000000000e+00 0.0000e+00 -1.0000e+00
</event>
<event>
 5      8 +6.9480500e-03 9.11880000e+01 7.81616400e-03 1.18400000e-01
      -11 -1    0    0    0    0 +0.0000000000e+00 +0.0000000000e+00 +4.5593999997e+01 4.5594000000e+01 5.1100000000e-04 0.0000e+00 1.0000e+00
       11 -1    0    0    0    0 -0.0000000000e+00 -0.0000000000e+00 -4.5593999997e+01 4.5594000000e+01 5.1100000000e-04 0.0000e+00 -1.0000e+00
       23  2    1    2    0    0 +0.0000000000e+00 +0.0000000000e+00 +0.0000000000e+00 9.1188000000e+01 9.1188000000e+01 9.5316e-14 0.0000e+00
  9900012  1    3    3    0    0 +1.2657485418e+01 +1.3610757921e+01 -2.2835282462e+00 7.2461570294e+01 7.0000000000e+01 2.2651e-04 -1.0000e+00
      -12  1    3    3    0    0 -1.2657485418e+01 -1.3610757921e+01 +2.2835282462e+00 1.8726429706e+01 0.0000000000e+00 0.0000e+00 1.0000e+00
</event>
<event>
 5      8 +6.9480500e-03 9.11880000e+01 7.81616400e-03 1.18400000e-01
      -11 -1    0    0    0    0 +0.0000000000e+00 +0.0000000000e+00 +4.5593999997e+01 4.5594000000e+01 5.1100000000e-04 0.0000e+00 -1.0000e+00
       11 -1    0    0    0    0 -0.0000000000e+00 -0.0000000000e+00 -4.5593999997e+01 4.5594000000e+01 5.1100000000e-04 0.0000e+00 1.0000e+00
       23  2    1    2    0    0 +0.0000000000e+00 +0.0000000000e+00 +0.0000000000e+00 9.1188000000e+01 9.1188000000e+01 9.8964e-14 0.0000e+00
  9900012  1    3    3    0    0 +6.9107805748e+00 +1.7303909938e+01 +1.8694871575e+00 7.2461570294e+01 7.0000000000e+01 4.2440e-05 1.0000e+00
      -12  1    3    3    0    0 -6.9107805748e+00 -1.7303909938e+01 -1.8694871575e+00 1.8726429706e+01 0.0000000000e+00 0.0000e+00 1.0000e+00
</event>
<event>
 5      6 +6.9480500e-03 9.11880000e+01 7.81616400e-03 1.18400000e-01
      -11 -1    0    0    0    0 +0.0000000000e+00 +0.0000000000e+00 +4.5593999997e+01 4.5594000000e+01 5.1100000000e-04 0.0000e+00 1.0000e+00
       11 -1    0    0    0    0 -0.0000000000e+00 -0.0000000000e+00 -4.5593999997e+01 4.5594000000e+01 5.1100000000e-04 0.0000e+00 -1.0000e+00
       23  2    1    2    0    0 +0.0000000000e+00 +0.0000000000e+00 +0.0000000000e+00 9.1188000000e+01 9.1188000000e+01 2.2902e-13 0.0000e+00
  9900012  1    3    3    0    0 -1.5930783627e+01 +8.6633559914e+00 -4.6728541099e+00 7.2461570294e+01 7.0000000000e+01 9.3879e-05 -1.0000e+00
      -12  1    3    3    0    0 +1.5930783627e+01 -8.6633559914e+00 +4.6728541099e+00 1.8726429706e+01 0.0000000000e+00 0.0000e+00 1.0000e+00
</event>
<event>
 5      2 +6.9480500e-03 9.11880000e+01 7.81616400e-03 1.18400000e-01
      -11 -1    0    0    0    0 +0.0000000000e+00 +0.0000000000e+00 +4.5593999997e+01 4.5594000000e+01 5.1100000000e-04 0.0000e+00 -1.0000e+00
       11 -1    0    0    0    0 -0.0000000000e+00 -0.0000000000e+00 -4.5593999997e+01 4.5594000000e+01 5.1100000000e-04 0.0000e+00 1.0000e+00
       23  2    1    2    0    0 +0.0000000000e+00 +0.0000000000e+00 +0.0000000000e+00 9.1188000000e+01 9.1188000000e+01 7.0291e-14 0.0000e+00
  9900012  1    3    3    0    0 +3.5850873484e+00 -1.1592846064e+01 +1.4262967375e+01 7.2461570294e+01 7.0000000000e+01 1.7111e-05 -1.0000e+00
      -12  1    3    3    0    0 -3.5850873484e+00 +1.1592846064e+01 -1.4262967375e+01 1.8726429706e+01 0.0000000000e+00 0.0000e+00 1.0000e+00
</event>
<event>
 5      5 +6.9480500e-03 9.11880000e+01 7.81616400e-03 1.18400000e-01
      -11 -1    0    0    0    0 +0.0000000000e+00 +0.0000000000e+00 +4.5593999997e+01 4.5594000000e+01 5.1100000000e-04 0.0000e+00 -1.0000e+00
       11 -1    0    0    0    0 -0.0000000000e+00 -0.0000000000e+00 -4.5593999997e+01 4.5594000000e+01 5.1100000000e-04 0.0000e+00 1.0000e+00
       23  2    1    2    0    0 +0.0000000000e+00 +0.0000000000e+00 +0.0000000000e+00 9.1188000000e+01 9.1188000000e+01 1.4297e-14 0.0000e+00
  9900012  1    3    3    0    0 +1.5960163880e+01 +5.2798611672e+00 -8.2507820543e+00 7.2461570294e+01 7.0000000000e+01 6.1480e-06 -1.0000e+00
       12  1    3    3    0    0 -1.5960163880e+01 -5.2798611672e+00 +8.2507820543e+00 1.8726429706e+01 0.0000000000e+00 0.0000e+00 -1.0000e+00
</event>
<event>
 5      3 +6.9480500e-03 9.11880000e+01 7.81616400e-03 1.18400000e-01
      -11 -1    0    0    0    0 +0.0000000000e+00 +0.0000000000e+00 +4.5593999997e+01 4.5594000000e+01 5.1100000000e-04 0.0000e+00 -1.0000e+00
       11 -1    0    0    0    0 -0.0000000000e+00 -0.0000000000e+00 -4.5593999997e+01 4.5594000000e+01 5.1100000000e-04 0.0000e+00 1.0000e+00
       23  2    1    2    0    0 +0.0000000000e+00 +0.0000000000e+00 +0.0000000000e+00 9.1188000000e+01 9.1188000000e+01 7.7004e-14 0.0000e+00
  9900012  1    3    3    0    0 +1.0031426128e+01 -1.1134158864e+01 -1.1228542459e+01 7.2461570294e+01 7.0000000000e+01 3.2005e-05 1.0000e+00
       12  1    3    3    0    0 -1.0031426128e+01 +1.1134158864e+01 +1.1228542459e+01 1.8726429706e+01 0.0000000000e+00 0.0000e+00 -1.0000e+00
</event>
<event>
 5      2 +6.9480500e-03 9.11880000e+01 7.81616400e-03 1.18400000e-01
      -11 -1    0    0    0    0 +0.0000000000e+00 +0.0000000000e+00 +4.5593999997e+01 4.5594000000e+01 5.1100000000e-04 0.0000e+00 1.0000e+00
       11 -1    0    0    0    0 -0.0000000000e+00 -0.0000000000e+00 -4.5593999997e+01 4.5594000000e+01 5.1100000000e-04 0.0000e+00 -1.0000e+00
       23  2    1    2    0    0 +0.0000000000e+00 +0.0000000000e+00 +0.0000000000e+00 9.1188000000e+01 9.1188000000e+01 2.0433e-14 0.0000e+00
  9900012  1    3    3    0    0 +9.6085637621e+00 +6.2567103740e-01 -1.6061233069e+01 7.2461570294e+01 7.0000000000e+01 3.9926e-05 -1.0000e+00
      -12  1    3    3    0    0 -9.6085637621e+00 -6.2567103740e-01 +1.6061233069e+01 1.8726429706e+01 0.0000000000e+00 0.0000e+00 1.0000e+00
</event>
<event>
 5      6 +6.9480500e-03 9.11880000e+01 7.81616400e-03 1.18400000e-01
      -11 -1    0    0    0    0 +0.0000000000e+00 +0.0000000000e+00 +4.5593999997e+01 4.5594000000e+01 5.1100000000e-04 0.0000e+00 -1.0000e+00
       11 -1    0    0    0    0 -0.0000000000e+00 -0.0000000000e+00 -4.5593999997e+01 4.5594000000e+01 5.1100000000e-04 0.0000e+00 1.0000e+00
       23  2    1    2    0    0 +0.0000000000e+00 +0.0000000000e+00 +0.0000000000e+00 9.1188000000e+01 9.1188000000e+01 4.1580e-14 0.0000e+00
  9900012  1    3    3    0    0 -5.5432645886e+00 +1.7792824233e+01 +1.8348822930e+00 7.2461570294e+01 7.0000000000e+01 1.0309e-04 -1.0000e+00
      -12  1    3    3    0    0 +5.5432645886e+00 -1.7792824233e+01 -1.8348822930e+00 1.8726429706e+01 0.0000000000e+00 0.0000e+00 1.0000e+00
</event>
<event>
 5      5 +6.9480500e-03 9.11880000e+01 7.81616400e-03 1.18400000e-01
      -11 -1    0    0    0    0 +0.0000000000e+00 +0.0000000000e+00 +4.5593999997e+01 4.5594000000e+01 5.1100000000e-04 0.0000e+00 -1.0000e+00
       11 -1    0    0    0    0 -0.0000000000e+00 -0.0000000000e+00 -4.5593999997e+01 4.5594000000e+01 5.1100000000e-04 0.0000e+00 1.0000e+00
       23  2    1    2    0    0 +0.0000000000e+00 +0.0000000000e+00 +0.0000000000e+00 9.1188000000e+01 9.1188000000e+01 5.4798e-14 0.0000e+00
  9900012  1    3    3    0    0 +4.5409010571e+00 -3.7862752870e+00 -1.7768610147e+01 7.2461570294e+01 7.0000000000e+01 1.4676e-04 1.0000e+00
       12  1    3    3    0    0 -4.5409010571e+00 +3.7862752870e+00 +1.7768610147e+01 1.8726429706e+01 0.0000000000e+00 0.0000e+00 -1.0000e+00
</event>
<event>
 5      1 +6.9480500e-03 9.11880000e+01 7.81616400e-03 1.18400000e-01
      -11 -1    0    0    0    0 +0.0000000000e+00 +0.0000000000e+00 +4.5593999997e+01 4.5594000000e+01 5.1100000000e-04 0.0000e+00 -1.0000e+00
       11 -1    0    0    0    0 -0.0000000000e+00 -0.0000000000e+00 -4.5593999997e+01 4.5594000000e+01 5.1100000000e-04 0.0000e+00 1.0000e+00
       23  2    1    2    0    0 +0.0000000000e+00 +0.0000000000e+00 +0.0000000000e+00 9.1188000000e+01 9.1188000000e+01 1.9010e-13 0.0000e+00
  9900012  1    3    3    0    0 -1.6765051299e+01 +8.2646525993e+00 +1.1435654209e+00 7.2461570294e+01 7.0000000000e+01 7.6666e-05 -1.0000e+00
       12  1    3    3    0    0 +1.6765051299e+01 -8.2646525993e+00 -1.1435654209e+00 1.8726429706e+01 0.0000000000e+00 0.0000e+00 -1.0000e+00
</event>
<event>
 5      2 +6.9480500e-03 9.11880000e+01 7.81616400e-03 1.18400000e-01
      -11 -1    0    0    0    0 +0.0000000000e+00 +0.0000000000e+00 +4.5593999997e+01 4.5594000000e+01 5.1100000000e-04 0.0000e+00 1.0000e+00
       11 -1    0    0    0    0 -0.0000000000e+00 -0.0000000000e+00 -4.5593999997e+01 4.5594000000e+01 5.1100000000e-04 0.0000e+00 -1.0000e+00
       23  2    1    2    0    0 +0.0000000000e+00 +0.0000000000e+00 +0.0000000000e+00 9.1188000000e+01 9.1188000000e+01 4.2523e-14 0.0000e+00
  9900012  1    3    3    0    0 +8.1636776538e-02 -1.0027316109e+01 -1.5815354457e+01 7.2461570294e+01 7.0000000000e+01 2.9701e-04 -1.0000e+00
      -12  1    3    3    0    0 -8.1636776538e-02 +1.0027316109e+01 +1.5815354457e+01 1.8726429706e+01 0.0000000000e+00 0.0000e+00 1.0000e+00
</event>
<event>
 5      4 +6.9480500e-03 9.11880000e+01 7.81616400e-03 1.18400000e-01
      -11 -1    0    0    0    0 +0.0000000000e+00 +0.0000000000e+00 +4.5593999997e+01 4.5594000000e+01 5.1100000000e-04 0.0000e+00 1.0000e+00
       11 -1    0    0    0    0 -0.0000000000e+00 -0.0000000000e+00 -4.5593999997e+01 4.5594000000e+01 5.1100000000e-04 0.0000e+00 -1.0000e+00
       23  2    1    2    0    0 +0.0000000000e+00 +0.0000000000e+00 +0.0000000000e+00 9.1188000000e+01 9.1188000000e+01 4.7772e-14 0.0000e+00
  9900012  1    3    3    0    0 -8.9926715891e+00 -1.6056006568e+01 -3.4663641323e+00 7.2461570294e+01 7.0000000000e+01 1.2923e-05 1.0000e+00
      -12  1    3    3    0    0 +8.9926715891e+00 +1.6056006568e+01 +3.4663641323e+00 1.8726429706e+01 0.0000000000e+00 0.0000e+00 1.0000e+00
</event>
<event>
 5      3 +6.9480500e-03 9.11880000e+01 7.81616400e-03 1.18400000e-01
      -11 -1    0    0    0    0 +0.0000000000e+00 +0.0000000000e+00 +4.5593999997e+01 4.5594000000e+01 5.1100000000e-04 0.0000e+00 1.0000e+00
       11 -1    0    0    0    0 -0.0000000000e+00 -0.0000000000e+00 -4.5593999997e+01 4.5594000000e+01 5.1100000000e-04 0.0000e+00 -1.0000e+00
       23  2    1    2    0    0 +0.0000000000e+00 +0.0000000000e+00 +0.0000000000e+00 9.1188000000e+01 9.1188000000e+01 4.3812e-14 0.0000e+00
  9900012  1    3    3    0    0 -5.8001850172e+00 +1.2808023487e+01 +1.2368975611e+01 7.2461570294e+01 7.0000000000e+01 1.3993e-04 1.0000e+00
       12  1    3    3    0    0 +5.8001850172e+00 -1.2808023487e+01 -1.2368975611e+01 1.8726429706e+01 0.0000000000e+00 0.0000e+00 -1.0000e+00
</event>
<event>
 5      1 +6.9480500e-03 9.11880000e+01 7.81616400e-03 1.18400000e-01
      -11 -1    0    0    0    0 +0.0000000000e+00 +0.0000000000e+00 +4.5593999997e+01 4.5594000000e+01 5.1100000000e-04 0.0000e+00 1.0000e+00
       11 -1    0    0    0    0 -0.0000000000e+00 -0.0000000000e+00 -4.5593999997e+01 4.5594000000e+01 5.1100000000e-04 0.0000e+00 -1.0000e+00
       23  2    1    2    0    0 +0.0000000000e+00 +0.0000000000e+00 +0.0000000000e+00 9.1188000000e+01 9.1188000000e+01 2.8537e-14 0.0000e+00
  9900012  1    3    3    0    0 -2.0794745500e-01 +1.7382418376e+01 +6.9632936731e+00 7.2461570294e+01 7.0000000000e+01 5.4675e-05 1.0000e+00
       12  1    3    3    0    0 +2.0794745500e-01 -1.7382418376e+01 -6.9632936731e+00 1.8726429706e+01 0.0000000000e+00 0.0000e+00 -1.0000e+00
</event>
<event>
 5      6 +6.9480500e-03 9.11880000e+01 7.81616400e-03 1.18400000e-01
      -11 -1    0    0    0    0 +0.0000000000e+00 +0.0000000000e+00 +4.5593999997e+01 4.5594000000e+01 5.1100000000e-04 0.0000e+00 1.0000e+00
       11 -1    0    0    0    0 -0.0000000000e+00 -0.0000000000e+00 -4.5593999997e+01 4.5594000000e+01 5.1100000000e-04 0.0000e+00 -1.0000e+00
       23  2    1    2    0    0 +0.0000000000e+00 +0.0000000000e+00 +0.0000000000e+00 9.1188000000e+01 9.1188000000e+01 1.8772e-14 0.0000e+00
  9900012  1    3    3    0    0 +1.2421187058e+01 +6.9118309867e+00 -1.2190975104e+01 7.2461570294e+01 7.0000000000e+01 2.0430e-04 -1.0000e+00
      -12  1    3    3    0    0 -1.2421187058e+01 -6.9118309867e+00 +1.2190975104e+01 1.8726429706e+01 0.0000000000e+00 0.0000e+00 1.0000e+00
</event>
<event>
 5      8 +6.9480500e-03 9.11880000e+01 7.81616400e-03 1.18400000e-01
      -11 -1    0    0    0    0 +0.0000000000e+00 +0.0000000000e+00 +4.5593999997e+01 4.5594000000e+01 5.1100000000e-04 0.0000e+00 -1.0000e+00
       11 -1    0    0    0    0 -0.0000000000e+00 -0.0000000000e+00 -4.5593999997e+01 4.5594000000e+01 5.1100000000e-04 0.0000e+00 1.0000e+00
       23  2    1    2    0    0 +0.0000000000e+00 +0.0000000000e+00 +0.0000000000e+00 9.1188000000e+01 9.1188000000e+01 8.6896e-14 0.0000e+00
  9900012  1    3    3    0    0 +1.6796302526e+01 -4.4261773883e+00 -6.9980243419e+00 7.2461570294e+01 7.0000000000e+01 1.3356e-06 -1.0000e+00
      -12  1    3    3    0    0 -1.6796302526e+01 +4.4261773883e+00 +6.9980243419e+00 1.8726429706e+01 0.0000000000e+00 0.0000e+00 1.0000e+00
</event>
<event>
 5      5 +6.9480500e-03 9.11880000e+01 7.81616400e-03 1.18400000e-01
      -11 -1    0    0    0    0 +0.0000000000e+00 +0.0000000000e+00 +4.5593999997e+01 4.5594000000e+01 5.1100000000e-04 0.0000e+00 1.0000e+00
       11 -1    0    0    0    0 -0.0000000000e+00 -0.0000000000e+00 -4.5593999997e+01 4.5594000000e+01 5.1100000000e-04 0.0000e+00 -1.0000e+00
       23  2    1    2    0    0 +0.0000000000e+00 +0.0000000000e+00 +0.0000000000e+00 9.1188000000e+01 9.1188000000e+01 6.2561e-14 0.0000e+00
  9900012  1    3    3    0    0 +1.0192710337e+01 -1.4207021933e+01 +6.7043533094e+00 7.2461570294e+01 7.0000000000e+01 1.9630e-06 1.0000e+00
       12  1    3    3    0    0 -1.0192710337e+01 +1.4207021933e+01 -6.7043533094e+00 1.8726429706e+01 0.0000000000e+00 0.0000e+00 -1.0000e+00
</event>
<event>
 5      1 +6.9480500e-03 9.11880000e+01 7.81616400e-03 1.18400000e-01
      -11 -1    0    0    0    0 +0.0000000000e+00 +0.0000000000e+00 +4.5593999997e+01 4.5594000000e+01 5.1100000000e-04 0.0000e+00 1.0000e+00
       11 -1    0    0    0    0 -0.0000000000e+00 -0.0000000000e+00 -4.5593999997e+01 4.5594000000e+01 5.1100000000e-04 0.0000e+00 -1.0000e+00
       23  2    1    2    0    0 +0.0000000000e+00 +0.0000000000e+00 +0.0000000000e+00 9.1188000000e+01 9.1188000000e+01 3.3364e-14 0.0000e+00
  9900012  1    3    3    0    0 +1.2499391229e+01 +1.3471004914e+01 -3.6022791460e+00 7.2461570294e+01 7.0000000000e+01 8.8109e-06 -1.0000e+00
       12  1    3    3    0    0 -1.2499391229e+01 -1.3471004914e+01 +3.6022791460e+00 1.8726429706e+01 0.0000000000e+00 0.0000e+00 -1.0000e+00
</event>
<event>
 5      4 +6.9480500e-03 9.11880000e+01 7.81616400e-03 1.18400000e-01
      -11 -1    0    0    0    0 +0.0000000000e+00 +0.0000000000e+00 +4.5593999997e+01 4.5594000000e+01 5.1100000000e-04 0.0000e+00 1.0000e+00
       11 -1    0    0    0    0 -0.0000000000e+00 -0.0000000000e+00 -4.5593999997e+01 4.5594000000e+01 5.1100000000e-04 0.0000e+00 -1.0000e+00
       23  2    1    2    0    0 +0.0000000000e+00 +0.0000000000e+00 +0.0000000000e+00 9.1188000000e+01 9.1188000000e+01 1.2520e-13 0.0000e+00
  9900012  1    3    3    0    0 -6.0163771164e-01 -4.4110319233e+00 -1.8189557415e+01 7.2461570294e+01 7.0000000000e+01 6.0610e-05 -1.0000e+00
      -12  1    3    3    0    0 +6.0163771164e-01 +4.4110319233e+00 +1.8189557415e+01 1.8726429706e+01 0.0000000000e+00 0.0000e+00 1.0000e+00
</event>
<event>
 5      2 +6.9480500e-03 9.11880000e+01 7.81616400e-03 1.18400000e-01
      -11 -1    0    0    0    0 +0.0000000000e+00 +0.0000000000e+00 +4.5593999997e+01 4.5594000000e+01 5.1100000000e-04 0.0000e+00 1.0000e+00
       11 -1    0    0    0    0 -0.0000000000e+00 -0.0000000000e+00 -4.5593999997e+01 4.5594000000e+01 5.1100000000e-04 0.0000e+00 -1.0000e+00
       23  2    1    2    0    0 +0.0000000000e+00 +0.0000000000e+00 +0.0000000000e+00 9.1188000000e+01 9.1188000000e+01 4.1751e-14 0.0000e+00
  9900012  1    3    3    0    0 -1.4209693083e+01 -1.2085257961e+01 -1.6463086038e+00 7.2461570294e+01 7.0000000000e+01 1.4637e-04 -1.0000e+00
      -12  1    3    3    0    0 +1.4209693083e+01 +1.2085257961e+01 +1.6463086038e+00 1.8726429706e+01 0.0000000000e+00 0.0000e+00 1.0000e+00
</event>
<event>
 5      3 +6.9480500e-03 9.11880000e+01 7.81616400e-03 1.18400000e-01
      -11 -1    0    0    0    0 +0.0000000000e+00 +0.0000000000e+00 +4.5593999997e+01 4.5594000000e+01 5.1100000000e-04 0.0000e+00 -1.0000e+00
       11 -1    0    0    0    0 -0.0000000000e+00 -0.0000000000e+00 -4.5593999997e+01 4.5594000000e+01 5.1100000000e-04 0.0000e+00 1.0000e+00
       23  2    1    2    0    0 +0.0000000000e+00 +0.0000000000e+00 +0.0000000000e+00 9.1188000000e+01 9.1188000000e+01 9.9053e-15 0.0000e+00
  9900012  1    3    3    0    0 -5.4384116747e+00 +1.6067787799e+01 +7.9327828165e+00 7.2461570294e+01 7.0000000000e+01 1.7138e-04 -1.0000e+00
       12  1    3    3    0    0 +5.4384116747e+00 -1.6067787799e+01 -7.9327828165e+00 1.8726429706e+01 0.0000000000e+00 0.0000e+00 -1.0000e+00
</event>
<event>
 5      5 +6.9480500e-03 9.11880000e+01 7.81616400e-03 1.18400000e-01
      -11 -1    0    0    0    0 +0.0000000000e+00 +0.0000000000e+00 +4.5593999997e+01 4.5594000000e+01 5.1100000000e-04 0.0000e+00 1.0000e+00
       11 -1    0    0    0    0 -0.0000000000e+00 -0.0000000000e+00 -4.5593999997e+01 4.5594000000e+01 5.1100000000e-04 0.0000e+00 -1.0000e+00
       23  2    1    2    0    0 +0.0000000000e+00 +0.0000000000e+00 +0.0000000000e+00 9.1188000000e+01 9.1188000000e+01 2.9762e-14 0.0000e+00
  9900012  1    3    3    0    0 +1.3423281103e+01 +3.6153762446e+00 -1.2546862100e+01 7.2461570294e+01 7.0000000000e+01 1.6267e-04 1.0000e+00
       12  1    3    3    0    0 -1.3423281103e+01 -3.6153762446e+00 +1.2546862100e+01 1.8726429706e+01 0.0000000000e+00 0.0000e+00 -1.0000e+00
</event>
<event>
 5      1 +6.9480500e-03 9.11880000e+01 7.81616400e-03 1.18400000e-01
      -11 -1    0    0    0    0 +0.0000000000e+00 +0.0000000000e+00 +4.5593999997e+01 4.5594000000e+01 5.1100000000e-04 0.0000e+00 -1.0000e+00
       11 -1    0    0    0    0 -0.0000000000e+00 -0.0000000000e+00 -4.5593999997e+01 4.5594000000e+01 5.1100000000e-04 0.0000e+00 1.0000e+00
       23  2    1    2    0    0 +0.0000000000e+00 +0.0000000000e+00 +0.0000000000e+00 9.1188000000e+01 9.1188000000e+01 3.3209e-15 0.0000e+00
  9900012  1    3    3    0    0 +3.6873820528e+00 +1.8347511107e+01 +6.7172860123e-01 7.2461570294e+01 7.0000000000e+01 1.6523e-05 1.0000e+00
       12  1    3    3    0    0 -3.6873820528e+00 -1.8347511107e+01 -6.7172860123e-01 1.8726429706e+01 0.0000000000e+00 0.0000e+00 -1.0000e+00
</event>
<event>
 5      1 +6.9480500e-03 9.11880000e+01 7.81616400e-03 1.18400000e-01
      -11 -1    0    0    0    0 +0.0000000000e+00 +0.0000000000e+00 +4.5593999997e+01 4.5594000000e+01 5.1100000000e-04 0.0000e+00 1.0000e+00
       11 -1    0    0    0    0 -0.0000000000e+00 -0.0000000000e+00 -4.5593999997e+01 4.5594000000e+01 5.1100000000e-04 0.0000e+00 -1.0000e+00
       23  2    1    2    0    0 +0.0000000000e+00 +0.0000000000e+00 +0.0000000000e+00 9.1188000000e+01 9.1188000000e+01 2.9868e-13 0.0000e+00
  9900012  1    3    3    0    0 -1.0575924726e+01 +6.6011991675e+00 +1.3973301516e+01 7.2461570294e+01 7.0000000000e+01 6.6693e-05 1.0000e+00
       12  1    3    3    0    0 +1.0575924726e+01 -6.6011991675e+00 -1.3973301516e+01 1.8726429706e+01 0.0000000000e+00 0.0000e+00 -1.0000e+00
</event>
<event>
 5      4 +6.9480500e-03 9.11880000e+01 7.81616400e-03 1.18400000e-01
      -11 -1    0    0    0    0 +0.0000000000e+00 +0.0000000000e+00 +4.5593999997e+01 4.5594000000e+01 5.1100000000e-04 0.0000e+00 -1.0000e+00
       11 -1    0    0    0    0 -0.0000000000e+00 -0.0000000000e+00 -4.5593999997e+01 4.5594000000e+01 5.1100000000e-04 0.0000e+00 1.0000e+00
       23  2    1    2    0    0 +0.0000000000e+00 +0.0000000000e+00 +0.0000000000e+00 9.1188000000e+01 9.1188000000e+01 1.3324e-13 0.0000e+00
  9900012  1    3    3    0    0 +2.6812446807e+00 +2.3059269671e+00 +1.8389475178e+01 7.2461570294e+01 7.0000000000e+01 6.5920e-05 -1.0000e+00
      -12  1    3    3    0    0 -2.6812446807e+00 -2.3059269671e+00 -1.8389475178e+01 1.8726429706e+01 0.0000000000e+00 0.0000e+00 1.0000e+00
</event>
<event>
 5      3 +6.9480500e-03 9.11880000e+01 7.81616400e-03 1.18400000e-01
      -11 -1    0    0    0    0 +0.0000000000e+00 +0.0000000000e+00 +4.5593999997e+01 4.5594000000e+01 5.1100000000e-04 0.0000e+00 -1.0000e+00
       11 -1    0    0    0    0 -0.0000000000e+00 -0.0000000000e+00 -4.5593999997e+01 4.5594000000e+01 5.1100000000e-04 0.0000e+00 1.0000e+00
       23  2    1    2    0    0 +0.0000000000e+00 +0.0000000000e+00 +0.0000000000e+00 9.1188000000e+01 9.1188000000e+01 5.5996e-14 0.0000e+00
  9900012  1    3    3    0    0 -5.3820484106e+00 -1.5615981304e+01 -8.8234830057e+00 7.2461570294e+01 7.0000000000e+01 3.4289e-05 1.0000e+00
       12  1    3    3    0    0 +5.3820484106e+00 +1.5615981304e+01 +8.8234830057e+00 1.8726429706e+01 0.0000000000e+00 0.0000e+00 -1.0000e+00
</event>
<event>
 5      2 +6.9480500e-03 9.11880000e+01 7.81616400e-03 1.18400000e-01
      -11 -1    0    0    0    0 +0.0000000000e+00 +0.0000000000e+00 +4.5593999997e+01 4.5594000000e+01 5.1100000000e-04 0.0000e+00 1.0000e+00
       11 -1    0    0    0    0 -0.0000000000e+00 -0.0000000000e+00 -4.5593999997e+01 4.5594000000e+01 5.1100000000e-04 0.0000e+00 -1.0000e+00
       23  2    1    2    0    0 +0.0000000000e+00 +0.0000000000e+00 +0.0000000000e+00 9.1188000000e+01 9.1188000000e+01 1.3070e-13 0.0000e+00
  9900012  1    3    3    0    0 +1.0060868787e+01 +1.4141295888e+01 +7.0343329009e+00 7.2461570294e+01 7.0000000000e+01 6.3422e-05 -1.0000e+00
      -12  1    3    3    0    0 -1.0060868787e+01 -1.4141295888e+01 -7.0343329009e+00 1.8726429706e+01 0.0000000000e+00 0.0000e+00 1.0000e+00
</event>
<event>
 5      1 +6.9480500e-03 9.11880000e+01 7.81616400e-03 1.18400000e-01
      -11 -1    0    0    0    0 +0.0000000000e+00 +0.0000000000e+00 +4.5593999997e+01 4.5594000000e+01 5.1100000000e-04 0.0000e+00 1.0000e+00
       11 -1    0    0    0    0 -0.0000000000e+00 -0.0000000000e+00 -4.5593999997e+01 4.5594000000e+01 5.1100000000e-04 0.0000e+00 -1.0000e+00
       23  2    1    2    0    0 +0.0000000000e+00 +0.0000000000e+00 +0.0000000000e+00 9.1188000000e+01 9.1188000000e+01 9.3664e-15 0.0000e+00
  9900012  1    3    3    0    0 +6.0431951664e+00 +1.4061106638e+01 +1.0790933315e+01 7.2461570294e+01 7.0000000000e+01 1.4824e-06 -1.0000e+00
       12  1    3    3    0    0 -6.0431951664e+00 -1.4061106638e+01 -1.0790933315e+01 1.8726429706e+01 0.0000000000e+00 0.0000e+00 -1.0000e+00
</event>
<event>
 5      3 +6.9480500e-03 9.11880000e+01 7.81616400e-03 1.18400000e-01
      -11 -1    0    0    0    0 +0.0000000000e+00 +0.0000000000e+00 +4.5593999997e+01 4.5594000000e+01 5.1100000000e-04 0.0000e+00 -1.0000e+00
       11 -1    0    0    0    0 -0.0000000000e+00 -0.0000000000e+00 -4.5593999997e+01 4.5594000000e+01 5.1100000000e-04 0.0000e+00 1.0000e+00
       23  2    1    2    0    0 +0.0000000000e+00 +0.0000000000e+00 +0.0000000000e+00 9.1188000000e+01 9.1188000000e+01 3.1944e-14 0.0000e+00
  9900012  1    3    3    0    0 +1.1026508643e+01 +4.0085664594e+00 -1.4595433245e+01 7.2461570294e+01 7.0000000000e+01 4.7593e-05 1.0000e+00
       12  1    3    3    0    0 -1.1026508643e+01 -4.0085664594e+00 +1.4595433245e+01 1.8726429706e+01 0.0000000000e+00 0.0000e+00 -1.0000e+00
</event>
<event>
 5      4 +6.9480500e-03 9.11880000e+01 7.81616400e-03 1.18400000e-01
      -11 -1    0    0    0    0 +0.0000000000e+00 +0.0000000000e+00 +4.5593999997e+01 4.5594000000e+01 5.1100000000e-04 0.0000e+00 1.0000e+00
       11 -1    0    0    0    0 -0.0000000000e+00 -0.0000000000e+00 -4.5593999997e+01 4.5594000000e+01 5.1100000000e-04 0.0000e+00 -1.0000e+00
       23  2    1    2    0    0 +0.0000000000e+00 +0.0000000000e+00 +0.0000000000e+00 9.1188000000e+01 9.1188000000e+01 6.7596e-14 0.0000e+00
  9900012  1    3    3    0    0 -7.0702436732e+00 -1.7020683604e+01 -3.3146875544e+00 7.2461570294e+01 7.0000000000e+01 8.9197e-05 -1.0000e+00
      -12  1    3    3    0    0 +7.0702436732e+00 +1.7020683604e+01 +3.3146875544e+00 1.8726429706e+01 0.0000000000e+00 0.0000e+00 1.0000e+00
</event>
<event>
 5      6 +6.9480500e-03 9.11880000e+01 7.81616400e-03 1.18400000e-01
      -11 -1    0    0    0    0 +0.0000000000e+00 +0.0000000000e+00 +4.5593999997e+01 4.5594000000e+01 5.1100000000e-04 0.0000e+00 -1.0000e+00
       11 -1    0    0    0    0 -0.0000000000e+00 -0.0000000000e+00 -4.5593999997e+01 4.5594000000e+01 5.1100000000e-04 0.0000e+00 1.0000e+00
       23  2    1    2    0    0 +0.0000000000e+00 +0.0000000000e+00 +0.0000000000e+00 9.1188000000e+01 9.1188000000e+01 1.3664e-13 0.0000e+00
  9900012  1    3    3    0    0 +1.3019734608e+01 +1.4936254607e+00 +1.3376649926e+01 7.2461570294e+01 7.0000000000e+01 1.1939e-04 -1.0000e+00
      -12  1    3    3    0    0 -1.3019734608e+01 -1.4936254607e+00 -1.3376649926e+01 1.8726429706e+01 0.0000000000e+00 0.0000e+00 1.0000e+00
</event>
<event>
 5      4 +6.9480500e-03 9.11880000e+01 7.81616400e-03 1.18400000e-01
      -11 -1    0    0    0    0 +0.0000000000e+00 +0.0000000000e+00 +4.5593999997e+01 4.5594000000e+01 5.1100000000e-04 0.0000e+00 -1.0000e+00
       11 -1    0    0    0    0 -0.0000000000e+00 -0.0000000000e+00 -4.5593999997e+01 4.5594000000e+01 5.1100000000e-04 0.0000e+00 1.0000e+00
       23  2    1    2    0    0 +0.0000000000e+00 +0.0000000000e+00 +0.0000000000e+00 9.1188000000e+01 9.1188000000e+01 4.6749e-14 0.0000e+00
  9900012  1    3    3    0    0 +1.7132006482e+01 +6.1930300978e+00 +4.3381910545e+00 7.2461570294e+01 7.0000000000e+01 2.4640e-05 -1.0000e+00
      -12  1    3    3    0    0 -1.7132006482e+01 -6.1930300978e+00 -4.3381910545e+00 1.8726429706e+01 0.0000000000e+00 0.0000e+00 1.0000e+00
</event>
<event>
 5      8 +6.9480500e-03 9.11880000e+01 7.81616400e-03 1.18400000e-01
      -11 -1    0    0    0    0 +0.0000000000e+00 +0.0000000000e+00 +4.5593999997e+01 4.5594000000e+01 5.1100000000e-04 0.0000e+00 1.0000e+00
       11 -1    0    0    0    0 -0.0000000000e+00 -0.0000000000e+00 -4.5593999997e+01 4.5594000000e+01 5.1100000000e-04 0.0000e+00 -1.0000e+00
       23  2    1    2    0    0 +0.0000000000e+00 +0.0000000000e+00 +0.0000000000e+00 9.1188000000e+01 9.1188000000e+01 1.1620e-13 0.0000e+00
  9900012  1    3    3    0    0 +7.9227231496e+00 +1.3693119517e+01 -1.0020384489e+01 7.2461570294e+01 7.0000000000e+01 4.1570e-05 -1.0000e+00
      -12  1    3    3    0    0 -7.9227231496e+00 -1.3693119517e+01 +1.0020384489e+01 1.8726429706e+01 0.0000000000e+00 0.0000e+00 1.0000e+00
</event>
<event>
 5      1 +6.9480500e-03 9.11880000e+01 7.81616400e-03 1.18400000e-01
      -11 -1    0    0    0    0 +0.0000000000e+00 +0.0000000000e+00 +4.5593999997e+01 4.5594000000e+01 5.1100000000e-04 0.0000e+00 1.0000e+00
       11 -1    0    0    0    0 -0.0000000000e+00 -0.0000000000e+00 -4.5593999997e+01 4.5594000000e+01 5.1100000000e-04 0.0000e+00 -1.0000e+00
       23  2    1    2    0    0 +0.0000000000e+00 +0.0000000000e+00 +0.0000000000e+00 9.1188000000e+01 9.1188000000e+01 2.9346e-14 0.0000e+00
  9900012  1    3    3    0    0 -3.0214536224e+00 +8.9988178587e+00 -1.6142219943e+01 7.2461570294e+01 7.0000000000e+01 1.2707e-05 -1.0000e+00
       12  1    3    3    0    0 +3.0214536224e+00 -8.9988178587e+00 +1.6142219943e+01 1.8726429706e+01 0.0000000000e+00 0.0000e+00 -1.0000e+00
</event>
<event>
 5      6 +6.9480500e-03 9.11880000e+01 7.81616400e-03 1.18400000e-01
      -11 -1    0    0    0    0 +0.0000000000e+00 +0.0000000000e+00 +4.5593999997e+01 4.5594000000e+01 5.1100000000e-04 0.0000e+00 1.0000e+00
       11 -1    0    0    0    0 -0.0000000000e+00 -0.0000000000e+00 -4.5593999997e+01 4.5594000000e+01 5.1100000000e-04 0.0000e+00 -1.0000e+00
       23  2    1    2    0    0 +0.0000000000e+00 +0.0000000000e+00 +0.0000000000e+00 9.1188000000e+01 9.1188000000e+01 4.2569e-14 0.0000e+00
  9900012  1    3    3    0    0 -1.3777807387e+01 -9.3121721156e+00 -8.6101477111e+00 7.2461570294e+01 7.0000000000e+01 4.9695e-06 -1.0000e+00
      -12  1    3    3    0    0 +1.3777807387e+01 +9.3121721156e+00 +8.6101477111e+00 1.8726429706e+01 0.0000000000e+00 0.0000e+00 1.0000e+00
</event>
<event>
 5      8 +6.9480500e-03 9.11880000e+01 7.81616400e-03 1.18400000e-01
      -11 -1    0    0    0    0 +0.0000000000e+00 +0.0000000000e+00 +4.5593999997e+01 4.5594000000e+01 5.1100000000e-04 0.0000e+00 -1.0000e+00
       11 -1    0    0    0    0 -0.0000000000e+00 -0.0000000000e+00 -4.5593999997e+01 4.5594000000e+01 5.1100000000e-04 0.0000e+00 1.0000e+00
       23  2    1    2    0    0 +0.0000000000e+00 +0.0000000000e+00 +0.0000000000e+00 9.1188000000e+01 9.1188000000e+01 5.4349e-14 0.0000e+00
  9900012  1    3    3    0    0 +3.1325969474e-01 +1.6218499140e+01 +9.3563520413e+00 7.2461570294e+01 7.0000000000e+01 1.3117e-04 -1.0000e+00
      -12  1    3    3    0    0 -3.1325969474e-01 -1.6218499140e+01 -9.3563520413e+00 1.8726429706e+01 0.0000000000e+00 0.0000e+00 1.0000e+00
</event>
<event>
 5      7 +6.9480500e-03 9.11880000e+01 7.81616400e-03 1.18400000e-01
      -11 -1    0    0    0    0 +0.0000000000e+00 +0.0000000000e+00 +4.5593999997e+01 4.5594000000e+01 5.1100000000e-04 0.0000e+00 1.0000e+00
       11 -1    0    0    0    0 -0.0000000000e+00 -0.0000000000e+00 -4.5593999997e+01 4.5594000000e+01 5.1100000000e-04 0.0000e+00 -1.0000e+00
       23  2    1    2    0    0 +0.0000000000e+00 +0.0000000000e+00 +0.0000000000e+00 9.1188000000e+01 9.1188000000e+01 2.2408e-13 0.0000e+00
  9900012  1    3    3    0    0 +1.4101294093e+01 +1.1710792106e+01 +3.8327565383e+00 7.2461570294e+01 7.0000000000e+01 2.5145e-04 -1.0000e+00
       12  1    3    3    0    0 -1.4101294093e+01 -1.1710792106e+01 -3.8327565383e+00 1.8726429706e+01 0.0000000000e+00 0.0000e+00 -1.0000e+00
</event>
<event>
 5      4 +6.9480500e-03 9.11880000e+01 7.81616400e-03 1.18400000e-01
      -11 -1    0    0    0    0 +0.0000000000e+00 +0.0000000000e+00 +4.5593999997e+01 4.5594000000e+01 5.1100000000e-04 0.0000e+00 1.0000e+00
       11 -1    0    0    0    0 -0.0000000000e+00 -0.0000000000e+00 -4.5593999997e+01 4.5594000000e+01 5.1100000000e-04 0.0000e+00 -1.0000e+00
       23  2    1    2    0    0 +0.0000000000e+00 +0.0000000000e+00 +0.0000000000e+00 9.1188000000e+01 9.1188000000e+01 1.9761e-13 0.0000e+00
  9900012  1    3    3    0    0 +1.8282674204e+00 +6.4829558881e+00 -1.7473061859e+01 7.2461570294e+01 7.0000000000e+01 1.0333e-05 -1.0000e+00
      -12  1    3    3    0    0 -1.8282674204e+00 -6.4829558881e+00 +1.7473061859e+01 1.8726429706e+01 0.0000000000e+00 0.0000e+00 1.0000e+00
</event>
<event>
 5      6 +6.9480500e-03 9.11880000e+01 7.81616400e-03 1.18400000e-01
      -11 -1    0    0    0    0 +0.0000000000e+00 +0.0000000000e+00 +4.5593999997e+01 4.5594000000e+01 5.1100000000e-04 0.0000e+00 1.0000e+00
       11 -1    0    0    0    0 -0.0000000000e+00 -0.0000000000e+00 -4.5593999997e+01 4.5594000000e+01 5.1100000000e-04 0.0000e+00 -1.0000e+00
       23  2    1    2    0    0 +0.0000000000e+00 +0.0000000000e+00 +0.0000000000e+00 9.1188000000e+01 9.1188000000e+01 3.6938e-13 0.0000e+00
  9900012  1    3    3    0    0 +8.8774717926e+00 -7.5094934350e+00 -1.4679140726e+01 7.2461570294e+01 7.0000000000e+01 1.0829e-04 -1.0000e+00
      -12  1    3    3    0    0 -8.8774717926e+00 +7.5094934350e+00 +1.4679140726e+01 1.8726429706e+01 0.0000000000e+00 0.0000e+00 1.0000e+00
</event>
<event>
 5      8 +6.9480500e-03 9.11880000e+01 7.81616400e-03 1.18400000e-01
      -11 -1    0    0    0    0 +0.0000000000e+00 +0.0000000000e+00 +4.5593999997e+01 4.5594000000e+01 5.1100000000e-04 0.0000e+00 -1.0000e+00
       11 -1    0    0    0    0 -0.0000000000e+00 -0.0000000000e+00 -4.5593999997e+01 4.5594000000e+01 5.1100000000e-04 0.0000e+00 1.0000e+00
       23  2    1    2    0    0 +0.0000000000e+00 +0.0000000000e+00 +0.0000000000e+00 9.1188000000e+01 9.1188000000e+01 4.1701e-13 0.0000e+00
  9900012  1    3    3    0    0 +6.4435822926e+00 +1.7190404273e+01 -3.6945118344e+00 7.2461570294e+01 7.0000000000e+01 1.9883e-04 1.0000e+00
      -12  1    3    3    0    0 -6.4435822926e+00 -1.7190404273e+01 +3.6945118344e+00 1.8726429706e+01 0.0000000000e+00 0.0000e+00 1.0000e+00
</event>
<event>
 5      4 +6.9480500e-03 9.11880000e+01 7.81616400e-03 1.18400000e-01
      -11 -1    0    0    0    0 +0.0000000000e+00 +0.0000000000e+00 +4.5593999997e+01 4.5594000000e+01 5.1100000000e-04 0.0000e+00 1.0000e+00
       11 -1    0    0    0    0 -0.0000000000e+00 -0.0000000000e+00 -4.5593999997e+01 4.5594000000e+01 5.1100000000e-04 0.0000e+00 -1.0000e+00
       23  2    1    2    0    0 +0.0000000000e+00 +0.0000000000e+00 +0.0000000000e+00 9.1188000000e+01 9.1188000000e+01 1.3000e-13 0.0000e+00
  9900012  1    3    3    0    0 -1.0035952679e+01 +7.8597290367e+00 -1.3717998499e+01 7.2461570294e+01 7.0000000000e+01 2.0910e-05 -1.0000e+00
      -12  1    3    3    0    0 +1.0035952679e+01 -7.8597290367e+00 +1.3717998499e+01 1.8726429706e+01 0.0000000000e+00 0.0000e+00 1.0000e+00
</event>
<event>
 5      4 +6.9480500e-03 9.11880000e+01 7.81616400e-03 1.18400000e-01
      -11 -1    0    0    0    0 +0.0000000000e+00 +0.0000000000e+00 +4.5593999997e+01 4.5594000000e+01 5.1100000000e-04 0.0000e+00 -1.0000e+00
       11 -1    0    0    0    0 -0.0000000000e+00 -0.0000000000e+00 -4.5593999997e+01 4.5594000000e+01 5.1100000000e-04 0.0000e+00 1.0000e+00
       23  2    1    2    0    0 +0.0000000000e+00 +0.0000000000e+00 +0.0000000000e+00 9.1188000000e+01 9.1188000000e+01 6.1974e-14 0.0000e+00
  9900012  1    3    3    0    0 -8.1992015388e+00 +1.3688629216e+01 +9.8017189218e+00 7.2461570294e+01 7.0000000000e+01 1.0834e-04 -1.0000e+00
      -12  1    3    3    0    0 +8.1992015388e+00 -1.3688629216e+01 -9.8017189218e+00 1.8726429706e+01 0.0000000000e+00 0.0000e+00 1.0000e+00
</event>
<event>
 5      3 +6.9480500e-03 9.11880000e+01 7.81616400e-03 1.18400000e-01
      -11 -1    0    0    0    0 +0.0000000000e+00 +0.0000000000e+00 +4.5593999997e+01 4.5594000000e+01 5.1100000000e-04 0.0000e+00 1.0000e+00
       11 -1    0    0    0    0 -0.0000000000e+00 -0.0000000000e+00 -4.5593999997e+01 4.5594000000e+01 5.1100000000e-04 0.0000e+00 -1.0000e+00
       23  2    1    2    0    0 +0.0000000000e+00 +0.0000000000e+00 +0.0000000000e+00 9.1188000000e+01 9.1188000000e+01 6.0543e-14 0.0000e+00
  9900012  1    3    3    0    0 +8.1433888706e+00 +1.2467630222e+00 +1.6816954813e+01 7.2461570294e+01 7.0000000000e+01 4.0777e-05 1.0000e+00
       12  1    3    3    0    0 -8.1433888706e+00 -1.2467630222e+00 -1.6816954813e+01 1.8726429706e+01 0.0000000000e+00 0.0000e+00 -1.0000e+00
</event>
<event>
 5      2 +6.9480500e-03 9.11880000e+01 7.81616400e-03 1.18400000e-01
      -11 -1    0    0    0    0 +0.0000000000e+00 +0.0000000000e+00 +4.5593999997e+01 4.5594000000e+01 5.1100000000e-04 0.0000e+00 1.0000e+00
       11 -1    0    0    0    0 -0.0000000000e+00 -0.0000000000e+00 -4.5593999997e+01 4.5594000000e+01 5.1100000000e-04 0.0000e+00 -1.0000e+00
       23  2    1    2    0    0 +0.0000000000e+00 +0.0000000000e+00 +0.0000000000e+00 9.1188000000e+01 9.1188000000e+01 5.4665e-14 0.0000e+00
  9900012  1    3    3    0    0 +1.5247534082e+01 -1.0635721745e+01 +2.2523980373e+00 7.2461570294e+01 7.0000000000e+01 6.8039e-05 1.0000e+00
      -12  1    3    3    0    0 -1.5247534082e+01 +1.0635721745e+01 -2.2523980373e+00 1.8726429706e+01 0.0000000000e+00 0.0000e+00 1.0000e+00
</event>
<event>
 5      3 +6.9480500e-03 9.11880000e+01 7.81616400e-03 1.18400000e-01
      -11 -1    0    0    0    0 +0.0000000000e+00 +0.0000000000e+00 +4.5593999997e+01 4.5594000000e+01 5.1100000000e-04 0.0000e+00 1.0000e+00
       11 -1    0    0    0    0 -0.0000000000e+00 -0.0000000000e+00 -4.5593999997e+01 4.5594000000e+01 5.1100000000e-04 0.0000e+00 -1.0000e+00
       23  2    1    2    0    0 +0.0000000000e+00 +0.0000000000e+00 +0.0000000000e+00 9.1188000000e+01 9.1188000000e+01 3.1925e-14 0.0000e+00
  9900012  1    3    3    0    0 +9.8144282803e+00 -1.2557151474e+01 +9.8322995224e+00 7.2461570294e+01 7.0000000000e+01 1.1572e-04 1.0000e+00
       12  1    3    3    0    0 -9.8144282803e+00 +1.2557151474e+01 -9.8322995224e+00 1.8726429706e+01 0.0000000000e+00 0.0000e+00 -1.0000e+00
</event>
<event>
 5      1 +6.9480500e-03 9.11880000e+01 7.81616400e-03 1.18400000e-01
      -11 -1    0    0    0    0 +0.0000000000e+00 +0.0000000000e+00 +4.5593999997e+01 4.5594000000e+01 5.1100000000e-04 0.0000e+00 1.0000e+00
       11 -1    0    0    0    0 -0.0000000000e+00 -0.0000000000e+00 -4.5593999997e+01 4.5594000000e+01 5.1100000000e-04 0.0000e+00 -1.0000e+00
       23  2    1    2    0    0 +0.0000000000e+00 +0.0000000000e+00 +0.0000000000e+00 9.1188000000e+01 9.1188000000e+01 1.5741e-13 0.0000e+00
  9900012  1    3    3    0    0 -1.4707921574e+01 -2.9973268991e+00 -1.1196974768e+01 7.2461570294e+01 7.0000000000e+01 2.8744e-04 1.0000e+00
       12  1    3    3    0    0 +1.4707921574e+01 +2.9973268991e+00 +1.1196974768e+01 1.8726429706e+01 0.0000000000e+00 0.0000e+00 -1.0000e+00
</event>
<event>
 5      6 +6.9480500e-03 9.11880000e+01 7.81616400e-03 1.18400000e-01
      -11 -1    0    0    0    0 +0.0000000000e+00 +0.0000000000e+00 +4.5593999997e+01 4.5594000000e+01 5.1100000000e-04 0.0000e+00 1.0000e+00
       11 -1    0    0    0    0 -0.0000000000e+00 -0.0000000000e+00 -4.5593999997e+01 4.5594000000e+01 5.1100000000e-04 0.0000e+00 -1.0000e+00
       23  2    1    2    0    0 +0.0000000000e+00 +0.0000000000e+00 +0.0000000000e+00 9.1188000000e+01 9.1188000000e+01 8.1633e-14 0.0000e+00
  9900012  1    3    3    0    0 +1.1995319695e+01 +3.1960632186e+00 -1.4020579690e+01 7.2461570294e+01 7.0000000000e+01 2.9451e-05 -1.0000e+00
      -12  1    3    3    0    0 -1.1995319695e+01 -3.1960632186e+00 +1.4020579690e+01 1.8726429706e+01 0.0000000000e+00 0.0000e+00 1.0000e+00
</event>
<event>
 5      1 +6.9480500e-03 9.11880000e+01 7.81616400e-03 1.18400000e-01
      -11 -1    0    0    0    0 +0.0000000000e+00 +0.0000000000e+00 +4.5593999997e+01 4.5594000000e+01 5.1100000000e-04 0.0000e+00 -1.0000e+00
       11 -1    0    0    0    0 -0.0000000000e+00 -0.0000000000e+00 -4.5593999997e+01 4.5594000000e+01 5.1100000000e-04 0.0000e+00 1.0000e+00
       23  2    1    2    0    0 +0.0000000000e+00 +0.0000000000e+00 +0.0000000000e+00 9.1188000000e+01 9.1188000000e+01 1.9420e-14 0.0000e+00
  9900012  1    3    3    0    0 +3.1709153630e+00 -3.8563780900e+00 -1.8048623585e+01 7.2461570294e+01 7.0000000000e+01 1.0140e-04 1.0000e+00
       12  1    3    3    0    0 -3.1709153630e+00 +3.8563780900e+00 +1.8048623585e+01 1.8726429706e+01 0.0000000000e+00 0.0000e+00 -1.0000e+00
</event>
<event>
 5      5 +6.9480500e-03 9.11880000e+01 7.81616400e-03 1.18400000e-01
      -11 -1    0    0    0    0 +0.0000000000e+00 +0.0000000000e+00 +4.5593999997e+01 4.5594000000e+01 5.1100000000e-04 0.0000e+00 1.0000e+00
       11 -1    0    0    0    0 -0.0000000000e+00 -0.0000000000e+00 -4.5593999997e+01 4.5594000000e+01 5.1100000000e-04 0.0000e+00 -1.0000e+00
       23  2    1    2    0    0 +0.0000000000e+00 +0.0000000000e+00 +0.0000000000e+00 9.1188000000e+01 9.1188000000e+01 6.2722e-14 0.0000e+00
  9900012  1    3    3    0    0 -1.0967972769e+01 +1.5161022222e+01 +7.2536063238e-01 7.2461570294e+01 7.0000000000e+01 5.4707e-06 1.0000e+00
       12  1    3    3    0    0 +1.0967972769e+01 -1.5161022222e+01 -7.2536063238e-01 1.8726429706e+01 0.0000000000e+00 0.0000e+00 -1.0000e+00
</event>
<event>
 5      4 +6.9480500e-03 9.11880000e+01 7.81616400e-03 1.18400000e-01
      -11 -1    0    0    0    0 +0.0000000000e+00 +0.0000000000e+00 +4.5593999997e+01 4.5594000000e+01 5.1100000000e-04 0.0000e+00 -1.0000e+00
       11 -1    0    0    0    0 -0.0000000000e+00 -0.0000000000e+00 -4.5593999997e+01 4.5594000000e+01 5.1100000000e-04 0.0000e+00 1.0000e+00
       23  2    1    2    0    0 +0.0000000000e+00 +0.0000000000e+00 +0.0000000000e+00 9.1188000000e+01 9.1188000000e+01 1.5758e-15 0.0000e+00
  9900012  1    3    3    0    0 -8.4703664566e+00 +1.2698011990e+01 +1.0848619871e+01 7.2461570294e+01 7.0000000000e+01 3.0897e-05 -1.0000e+00
      -12  1    3    3    0    0 +8.4703664566e+00 -1.2698011990e+01 -1.0848619871e+01 1.8726429706e+01 0.0000000000e+00 0.0000e+00 1.0000e+00
</event>
<event>
 5      8 +6.9480500e-03 9.11880000e+01 7.81616400e-03 1.18400000e-01
      -11 -1    0    0    0    0 +0.0000000000e+00 +0.0000000000e+00 +4.5593999997e+01 4.5594000000e+01 5.1100000000e-04 0.0000e+00 1.0000e+00
       11 -1    0    0    0    0 -0.0000000000e+00 -0.0000000000e+00 -4.5593999997e+01 4.5594000000e+01 5.1100000000e-04 0.0000e+00 -1.0000e+00
       23  2    1    2    0    0 +0.0000000000e+00 +0.0000000000e+00 +0.0000000000e+00 9.1188000000e+01 9.1188000000e+01 3.9083e-14 0.0000e+00
  9900012  1    3    3    0    0 +7.4282984698e+00 +4.4398788394e+00 -1.6606836762e+01 7.2461570294e+01 7.0000000000e+01 2.0789e-04 -1.0000e+00
      -12  1    3    3    0    0 -7.4282984698e+00 -4.4398788394e+00 +1.6606836762e+01 1.8726429706e+01 0.0000000000e+00 0.0000e+00 1.0000e+00
</event>
<event>
 5      1 +6.9480500e-03 9.11880000e+01 7.81616400e-03 1.18400000e-01
      -11 -1    0    0    0    0 +0.0000000000e+00 +0.0000000000e+00 +4.5593999997e+01 4.5594000000e+01 5.1100000000e-04 0.0000e+00 1.0000e+00
       11 -1    0    0    0    0 -0.0000000000e+00 -0.0000000000e+00 -4.5593999997e+01 4.5594000000e+01 5.1100000000e-04 0.0000e+00 -1.0000e+00
       23  2    1    2    0    0 +0.0000000000e+00 +0.0000000000e+00 +0.0000000000e+00 9.1188000000e+01 9.1188000000e+01 3.8335e-15 0.0000e+00
  9900012  1    3    3    0    0 +5.0088841606e+00 -6.8212564060e+00 +1.6705110297e+01 7.2461570294e+01 7.0000000000e+01 2.4056e-05 1.0000e+00
       12  1    3    3    0    0 -5.0088841606e+00 +6.8212564060e+00 -1.6705110297e+01 1.8726429706e+01 0.0000000000e+00 0.0000e+00 -1.0000e+00
</event>
<event>
 5      3 +6.9480500e-03 9.11880000e+01 7.81616400e-03 1.18400000e-01
      -11 -1    0    0    0    0 +0.0000000000e+00 +0.0000000000e+00 +4.5593999997e+01 4.5594000000e+01 5.1100000000e-04 0.0000e+00 -1.0000e+00
       11 -1    0    0    0    0 -0.0000000000e+00 -0.0000000000e+00 -4.5593999997e+01 4.5594000000e+01 5.1100000000e-04 0.0000e+00 1.0000e+00
       23  2    1    2    0    0 +0.0000000000e+00 +0.0000000000e+00 +0.0000000000e+00 9.1188000000e+01 9.1188000000e+01 3.9944e-15 0.0000e+00
  9900012  1    3    3    0    0 +2.5485200984e+00 +2.7836732569e+00 +1.8342174845e+01 7.2461570294e+01 7.0000000000e+01 8.7280e-05 -1.0000e+00
       12  1    3    3    0    0 -2.5485200984e+00 -2.7836732569e+00 -1.8342174845e+01 1.8726429706e+01 0.0000000000e+00 0.0000e+00 -1.0000e+00
</event>
<event>
 5      4 +6.9480500e-03 9.11880000e+01 7.81616400e-03 1.18400000e-01
      -11 -1    0    0    0    0 +0.0000000000e+00 +0.0000000000e+00 +4.5593999997e+01 4.5594000000e+01 5.1100000000e-04 0.0000e+00 1.0000e+00
       11 -1    0    0    0    0 -0.0000000000e+00 -0.0000000000e+00 -4.5593999997e+01 4.5594000000e+01 5.1100000000e-04 0.0000e+00 -1.0000e+00
       23  2    1    2    0    0 +0.0000000000e+00 +0.0000000000e+00 +0.0000000000e+00 9.1188000000e+01 9.1188000000e+01 1.5197e-13 0.0000e+00
  9900012  1    3    3    0    0 -1.1791761214e+01 +2.0883895112e+00 -1.4396949894e+01 7.2461570294e+01 7.0000000000e+01 1.9474e-05 -1.0000e+00
      -12  1    3    3    0    0 +1.1791761214e+01 -2.0883895112e+00 +1.4396949894e+01 1.8726429706e+01 0.0000000000e+00 0.0000e+00 1.0000e+00
</event>
<event>
 5      6 +6.9480500e-03 9.11880000e+01 7.81616400e-03 1.18400000e-01
      -11 -1    0    0    0    0 +0.0000000000e+00 +0.0000000000e+00 +4.5593999997e+01 4.5594000000e+01 5.1100000000e-04 0.0000e+00 1.0000e+00
       11 -1    0    0    0    0 -0.0000000000e+00 -0.0000000000e+00 -4.5593999997e+01 4.5594000000e+01 5.1100000000e-04 0.0000e+00 -1.0000e+00
       23  2    1    2    0    0 +0.0000000000e+00 +0.0000000000e+00 +0.0000000000e+00 9.1188000000e+01 9.1188000000e+01 2.3030e-13 0.0000e+00
  9900012  1    3    3    0    0 +7.3914080209e-01 -1.8110493795e+01 -4.7056195019e+00 7.2461570294e+01 7.0000000000e+01 1.4145e-04 -1.0000e+00
      -12  1    3    3    0    0 -7.3914080209e-01 +1.8110493795e+01 +4.7056195019e+00 1.8726429706e+01 0.0000000000e+00 0.0000e+00 1.0000e+00
</event>
<event>
 5      4 +6.9480500e-03 9.11880000e+01 7.81616400e-03 1.18400000e-01
      -11 -1    0    0    0    0 +0.0000000000e+00 +0.0000000000e+00 +4.5593999997e+01 4.5594000000e+01 5.1100000000e-04 0.0000e+00 1.0000e+00
       11 -1    0    0    0    0 -0.0000000000e+00 -0.0000000000e+00 -4.5593999997e+01 4.5594000000e+01 5.1100000000e-04 0.0000e+00 -1.0000e+00
       23  2    1    2    0    0 +0.0000000000e+00 +0.0000000000e+00 +0.0000000000e+00 9.1188000000e+01 9.1188000000e+01 4.0538e-14 0.0000e+00
  9900012  1    3    3    0    0 -1.3997078823e+00 -1.4500235907e+01 -1.1767036415e+01 7.2461570294e+01 7.0000000000e+01 1.3430e-05 -1.0000e+00
      -12  1    3    3    0    0 +1.3997078823e+00 +1.4500235907e+01 +1.1767036415e+01 1.8726429706e+01 0.0000000000e+00 0.0000e+00 1.0000e+00
</event>
<event>
 5      4 +6.9480500e-03 9.11880000e+01 7.81616400e-03 1.18400000e-01
      -11 -1    0    0    0    0 +0.0000000000e+00 +0.0000000000e+00 +4.5593999997e+01 4.5594000000e+01 5.1100000000e-04 0.0000e+00 1.0000e+00
       11 -1    0    0    0    0 -0.0000000000e+00 -0.0000000000e+00 -4.5593999997e+01 4.5594000000e+01 5.1100000000e-04 0.0000e+00 -1.0000e+00
       23  2    1    2    0    0 +0.0000000000e+00 +0.0000000000e+00 +0.0000000000e+00 9.1188000000e+01 9.1188000000e+01 8.2659e-14 0.0000e+00
  9900012  1    3    3    0    0 +1.5850535450e+01 +8.7065417235e+00 +4.8616691242e+00 7.2461570294e+01 7.0000000000e+01 3.0889e-05 -1.0000e+00
      -12  1    3    3    0    0 -1.5850535450e+01 -8.7065417235e+00 -4.8616691242e+00 1.8726429706e+01 0.0000000000e+00 0.0000e+00 1.0000e+00
</event>
<event>
 5      2 +6.9480500e-03 9.11880000e+01 7.81616400e-03 1.18400000e-01
      -11 -1    0    0    0    0 +0.0000000000e+00 +0.0000000000e+00 +4.5593999997e+01 4.5594000000e+01 5.1100000000e-04 0.0000e+00 -1.0000e+00
       11 -1    0    0    0    0 -0.0000000000e+00 -0.0000000000e+00 -4.5593999997e+01 4.5594000000e+01 5.1100000000e-04 0.0000e+00 1.0000e+00
       23  2    1    2    0    0 +0.0000000000e+00 +0.0000000000e+00 +0.0000000000e+00 9.1188000000e+01 9.1188000000e+01 3.7339e-14 0.0000e+00
  9900012  1    3    3    0    0 -1.1411967064e+01 +1.4507509683e+01 -3.1588510639e+00 7.2461570294e+01 7.0000000000e+01 1.6884e-04 1.0000e+00
      -12  1    3    3    0    0 +1.1411967064e+01 -1.4507509683e+01 +3.1588510639e+00 1.8726429706e+01 0.0000000000e+00 0.0000e+00 1.0000e+00
</event>
<event>
 5      6 +6.9480500e-03 9.11880000e+01 7.81616400e-03 1.18400000e-01
      -11 -1    0    0    0    0 +0.0000000000e+00 +0.0000000000e+00 +4.5593999997e+01 4.5594000000e+01 5.1100000000e-04 0.0000e+00 1.0000e+00
       11 -1    0    0    0    0 -0.0000000000e+00 -0.0000000000e+00 -4.5593999997e+01 4.5594000000e+01 5.1100000000e-04 0.0000e+00 -1.0000e+00
       23  2    1    2    0    0 +0.0000000000e+00 +0.0000000000e+00 +0.0000000000e+00 9.1188000000e+01 9.1188000000e+01 1.1668e-13 0.0000e+00
  9900012  1    3    3    0    0 +1.4850983564e+01 -8.8511866212e+00 +7.1961067322e+00 7.2461570294e+01 7.0000000000e+01 2.9466e-05 1.0000e+00
      -12  1    3    3    0    0 -1.4850983564e+01 +8.8511866212e+00 -7.1961067322e+00 1.8726429706e+01 0.0000000000e+00 0.0000e+00 1.0000e+00
</event>
<event>
 5      1 +6.9480500e-03 9.11880000e+01 7.81616400e-03 1.18400000e-01
      -11 -1    0    0    0    0 +0.0000000000e+00 +0.0000000000e+00 +4.5593999997e+01 4.5594000000e+01 5.1100000000e-04 0.0000e+00 1.0000e+00
       11 -1    0    0    0    0 -0.0000000000e+00 -0.0000000000e+00 -4.5593999997e+01 4.5594000000e+01 5.1100000000e-04 0.0000e+00 -1.0000e+00
       23  2    1    2    0    0 +0.0000000000e+00 +0.0000000000e+00 +0.0000000000e+00 9.1188000000e+01 9.1188000000e+01 3.4189e-14 0.0000e+00
  9900012  1    3    3    0    0 -1.4363195936e+01 +1.1872640103e+01 +1.8488344982e+00 7.2461570294e+01 7.0000000000e+01 1.9822e-04 1.0000e+00
       12  1    3    3    0    0 +1.4363195936e+01 -1.1872640103e+01 -1.8488344982e+00 1.8726429706e+01 0.0000000000e+00 0.0000e+00 -1.0000e+00
</event>
<event>
 5      8 +6.9480500e-03 9.11880000e+01 7.81616400e-03 1.18400000e-01
      -11 -1    0    0    0    0 +0.0000000000e+00 +0.0000000000e+00 +4.5593999997e+01 4.5594000000e+01 5.1100000000e-04 0.0000e+00 -1.0000e+00
       11 -1    0    0    0    0 -0.0000000000e+00 -0.0000000000e+00 -4.5593999997e+01 4.5594000000e+01 5.1100000000e-04 0.0000e+00 1.0000e+00
       23  2    1    2    0    0 +0.0000000000e+00 +0.0000000000e+00 +0.0000000000e+00 9.1188000000e+01 9.1188000000e+01 4.5766e-14 0.0000e+00
  9900012  1    3    3    0    0 -1.3069011620e+01 -1.3018887290e+01 -3.2231473015e+00 7.2461570294e+01 7.0000000000e+01 3.5183e-04 -1.0000e+00
      -12  1    3    3    0    0 +1.3069011620e+01 +1.3018887290e+01 +3.2231473015e+00 1.8726429706e+01 0.0000000000e+00 0.0000e+00 1.0000e+00
</event>
<event>
 5      1 +6.9480500e-03 9.11880000e+01 7.81616400e-03 1.18400000e-01
      -11 -1    0    0    0    0 +0.0000000000e+00 +0.0000000000e+00 +4.5593999997e+01 4.5594000000e+01 5.1100000000e-04 0.0000e+00 -1.0000e+00
       11 -1    0    0    0    0 -0.0000000000e+00 -0.0000000000e+00 -4.5593999997e+01 4.5594000000e+01 5.1100000000e-04 0.0000e+00 1.0000e+00
       23  2    1    2    0    0 +0.0000000000e+00 +0.0000000000e+00 +0.0000000000e+00 9.1188000000e+01 9.1188000000e+01 4.0355e-14 0.0000e+00
  9900012  1    3    3    0    0 -1.2879509291e+01 -1.2414499153e+01 -5.5387381885e+00 7.2461570294e+01 7.0000000000e+01 1.2535e-04 1.0000e+00
       12  1    3    3    0    0 +1.2879509291e+01 +1.2414499153e+01 +5.5387381885e+00 1.8726429706e+01 0.0000000000e+00 0.0000e+00 -1.0000e+00
</event>
<event>
 5      8 +6.9480500e-03 9.11880000e+01 7.81616400e-03 1.18400000e-01
      -11 -1    0    0    0    0 +0.0000000000e+00 +0.0000000000e+00 +4.5593999997e+01 4.5594000000e+01 5.1100000000e-04 0.0000e+00 1.0000e+00
       11 -1    0    0    0    0 -0.0000000000e+00 -0.0000000000e+00 -4.5593999997e+01 4.5594000000e+01 5.1100000000e-04 0.0000e+00 -1.0000e+00
       23  2    1    2    0    0 +0.0000000000e+00 +0.0000000000e+00 +0.0000000000e+00 9.1188000000e+01 9.1188000000e+01 3.0686e-13 0.0000e+00
  9900012  1    3    3    0    0 +1.6661052377e+01 +7.8681464716e+00 -3.3437664837e+00 7.2461570294e+01 7.0000000000e+01 7.6478e-05 -1.0000e+00
      -12  1    3    3    0    0 -1.6661052377e+01 -7.8681464716e+00 +3.3437664837e+00 1.8726429706e+01 0.0000000000e+00 0.0000e+00 1.0000e+00
</event>
<event>
 5      3 +6.9480500e-03 9.11880000e+01 7.81616400e-03 1.18400000e-01
      -11 -1    0    0    0    0 +0.0000000000e+00 +0.0000000000e+00 +4.5593999997e+01 4.5594000000e+01 5.1100000000e-04 0.0000e+00 -1.0000e+00
       11 -1    0    0    0    0 -0.0000000000e+00 -0.0000000000e+00 -4.5593999997e+01 4.5594000000e+01 5.1100000000e-04 0.0000e+00 1.0000e+00
       23  2    1    2    0    0 +0.0000000000e+00 +0.0000000000e+00 +0.0000000000e+00 9.1188000000e+01 9.1188000000e+01 2.6330e-15 0.0000e+00
  9900012  1    3    3    0    0 -5.0896742565e+00 +1.7171006254e+01 -5.4709167146e+00 7.2461570294e+01 7.0000000000e+01 1.6046e-05 1.0000e+00
       12  1    3    3    0    0 +5.0896742565e+00 -1.7171006254e+01 +5.4709167146e+00 1.8726429706e+01 0.0000000000e+00 0.0000e+00 -1.0000e+00
</event>
<event>
 5      6 +6.9480500e-03 9.11880000e+01 7.81616400e-03 1.18400000e-01
      -11 -1    0    0    0    0 +0.0000000000e+00 +0.0000000000e+00 +4.5593999997e+01 4.5594000000e+01 5.1100000000e-04 0.0000e+00 1.0000e+00
       11 -1    0    0    0    0 -0.0000000000e+00 -0.0000000000e+00 -4.5593999997e+01 4.5594000000e+01 5.1100000000e-04 0.0000e+00 -1.0000e+00
       23  2    1    2    0    0 +0.0000000000e+00 +0.0000000000e+00 +0.0000000000e+00 9.1188000000e+01 9.1188000000e+01 3.3168e-14 0.0000e+00
  9900012  1    3    3    0    0 +6.7884295463e+00 +1.2655016025e+01 -1.2018609039e+01 7.2461570294e+01 7.0000000000e+01 1.7201e-04 -1.0000e+00
      -12  1    3    3    0    0 -6.7884295463e+00 -1.2655016025e+01 +1.2018609039e+01 1.8726429706e+01 0.0000000000e+00 0.0000e+00 1.0000e+00
</event>
<event>
 5      7 +6.9480500e-03 9.11880000e+01 7.81616400e-03 1.18400000e-01
      -11 -1    0    0    0    0 +0.0000000000e+00 +0.0000000000e+00 +4.5593999997e+01 4.5594000000e+01 5.1100000000e-04 0.0000e+00 1.0000e+00
       11 -1    0    0    0    0 -0.0000000000e+00 -0.0000000000e+00 -4.5593999997e+01 4.5594000000e+01 5.1100000000e-04 0.0000e+00 -1.0000e+00
       23  2    1    2    0    0 +0.0000000000e+00 +0.0000000000e+00 +0.0000000000e+00 9.1188000000e+01 9.1188000000e+01 8.0452e-16 0.0000e+00
  9900012  1    3    3    0    0 -1.5766555604e+01 +1.2957535772e+00 +1.0020774250e+01 7.2461570294e+01 7.0000000000e+01 1.2853e-04 1.0000e+00
       12  1    3    3    0    0 +1.5766555604e+01 -1.2957535772e+00 -1.0020774250e+01 1.8726429706e+01 0.0000000000e+00 0.0000e+00 -1.0000e+00
</event>
<event>
 5      5 +6.9480500e-03 9.11880000e+01 7.81616400e-03 1.18400000e-01
      -11 -1    0    0    0    0 +0.0000000000e+00 +0.0000000000e+00 +4.5593999997e+01 4.5594000000e+01 5.1100000000e-04 0.0000e+00 -1.0000e+00
       11 -1    0    0    0    0 -0.0000000000e+00 -0.0000000000e+00 -4.5593999997e+01 4.5594000000e+01 5.1100000000e-04 0.0000e+00 1.0000e+00
       23  2    1    2    0    0 +0.0000000000e+00 +0.0000000000e+00 +0.0000000000e+00 9.1188000000e+01 9.1188000000e+01 5.9881e-14 0.0000e+00
  9900012  1    3    3    0    0 +5.1829210777e+00 +8.2955180822e+00 -1.5968746926e+01 7.2461570294e+01 7.0000000000e+01 1.2366e-04 1.0000e+00
       12  1    3    3    0    0 -5.1829210777e+00 -8.2955180822e+00 +1.5968746926e+01 1.8726429706e+01 0.0000000000e+00 0.0000e+00 -1.0000e+00
</event>
<event>
 5      7 +6.9480500e-03 9.11880000e+01 7.81616400e-03 1.18400000e-01
      -11 -1    0    0    0    0 +0.0000000000e+00 +0.0000000000e+00 +4.5593999997e+01 4.5594000000e+01 5.1100000000e-04 0.0000e+00 1.0000e+00
       11 -1    0    0    0    0 -0.0000000000e+00 -0.0000000000e+00 -4.5593999997e+01 4.5594000000e+01 5.1100000000e-04 0.0000e+00 -1.0000e+00
       23  2    1    2    0    0 +0.0000000000e+00 +0.0000000000e+00 +0.0000000000e+00 9.1188000000e+01 9.1188000000e+01 5.4367e-14 0.0000e+00
  9900012  1    3    3    0    0 -1.7745814722e+01 +9.4637234315e-01 -5.9050494293e+00 7.2461570294e+01 7.0000000000e+01 1.0249e-04 1.0000e+00
       12  1    3    3    0    0 +1.7745814722e+01 -9.4637234315e-01 +5.9050494293e+00 1.8726429706e+01 0.0000000000e+00 0.0000e+00 -1.0000e+00
</event>
<event>
 5      7 +6.9480500e-03 9.11880000e+01 7.81616400e-03 1.18400000e-01
      -11 -1    0    0    0    0 +0.0000000000e+00 +0.0000000000e+00 +4.5593999997e+01 4.5594000000e+01 5.1100000000e-04 0.0000e+00 1.0000e+00
       11 -1    0    0    0    0 -0.0000000000e+00 -0.0000000000e+00 -4.5593999997e+01 4.5594000000e+01 5.1100000000e-04 0.0000e+00 -1.0000e+00
       23  2    1    2    0    0 +0.0000000000e+00 +0.0000000000e+00 +0.0000000000e+00 9.1188000000e+01 9.1188000000e+01 3.6489e-14 0.0000e+00
  9900012  1    3    3    0    0 -1.0279694596e+01 -8.1139300860e+00 +1.3385484194e+01 7.2461570294e+01 7.0000000000e+01 2.6567e-04 1.0000e+00
       12  1    3    3    0    0 +1.0279694596e+01 +8.1139300860e+00 -1.3385484194e+01 1.8726429706e+01 0.0000000000e+00 0.0000e+00 -1.0000e+00
</event>
<event>
 5      4 +6.9480500e-03 9.11880000e+01 7.81616400e-03 1.18400000e-01
      -11 -1    0    0    0    0 +0.0000000000e+00 +0.0000000000e+00 +4.5593999997e+01 4.5594000000e+01 5.1100000000e-04 0.0000e+00 1.0000e+00
       11 -1    0    0    0    0 -0.0000000000e+00 -0.0000000000e+00 -4.5593999997e+01 4.5594000000e+01 5.1100000000e-04 0.0000e+00 -1.0000e+00
       23  2    1    2    0    0 +0.0000000000e+00 +0.0000000000e+00 +0.0000000000e+00 9.1188000000e+01 9.1188000000e+01 8.7356e-14 0.0000e+00
  9900012  1    3    3    0    0 -2.2308359440e+00 -1.8326818645e+01 +3.1353243643e+00 7.2461570294e+01 7.0000000000e+01 2.0705e-05 -1.0000e+00
      -12  1    3    3    0    0 +2.2308359440e+00 +1.8326818645e+01 -3.1353243643e+00 1.8726429706e+01 0.0000000000e+00 0.0000e+00 1.0000e+00
</event>
<event>
 5      8 +6.9480500e-03 9.11880000e+01 7.81616400e-03 1.18400000e-01
      -11 -1    0    0    0    0 +0.0000000000e+00 +0.0000000000e+00 +4.5593999997e+01 4.5594000000e+01 5.1100000000e-04 0.0000e+00 -1.0000e+00
       11 -1    0    0    0    0 -0.0000000000e+00 -0.0000000000e+00 -4.5593999997e+01 4.5594000000e+01 5.1100000000e-04 0.0000e+00 1.0000e+00
       23  2    1    2    0    0 +0.0000000000e+00 +0.0000000000e+00 +0.0000000000e+00 9.1188000000e+01 9.1188000000e+01 1.6897e-14 0.0000e+00
  9900012  1    3    3    0    0 +5.0082935739e+00 +1.4806837214e+01 +1.0312794807e+01 7.2461570294e+01 7.0000000000e+01 2.7900e-04 -1.0000e+00
      -12  1    3    3    0    0 -5.0082935739e+00 -1.4806837214e+01 -1.0312794807e+01 1.8726429706e+01 0.0000000000e+00 0.0000e+00 1.0000e+00
</event>
<event>
 5      4 +6.9480500e-03 9.11880000e+01 7.81616400e-03 1.18400000e-01
      -11 -1    0    0    0    0 +0.0000000000e+00 +0.0000000000e+00 +4.5593999997e+01 4.5594000000e+01 5.1100000000e-04 0.0000e+00 1.0000e+00
       11 -1    0    0    0    0 -0.0000000000e+00 -0.0000000000e+00 -4.5593999997e+01 4.5594000000e+01 5.1100000000e-04 0.0000e+00 -1.0000e+00
       23  2    1    2    0    0 +0.0000000000e+00 +0.0000000000e+00 +0.0000000000e+00 9.1188000000e+01 9.1188000000e+01 1.2720e-13 0.0000e+00
  9900012  1    3    3    0    0 -1.5946614936e+01 -4.5331103746e+00 -8.7083610366e+00 7.2461570294e+01 7.0000000000e+01 3.1827e-04 -1.0000e+00
      -12  1    3    3    0    0 +1.5946614936e+01 +4.5331103746e+00 +8.7083610366e+00 1.8726429706e+01 0.0000000000e+00 0.0000e+00 1.0000e+00
</event>
<event>
 5      3 +6.9480500e-03 9.11880000e+01 7.81616400e-03 1.18400000e-01
      -11 -1    0    0    0    0 +0.0000000000e+00 +0.0000000000e+00 +4.5593999997e+01 4.5594000000e+01 5.1100000000e-04 0.0000e+00 1.0000e+00
       11 -1    0    0    0    0 -0.0000000000e+00 -0.0000000000e+00 -4.5593999997e+01 4.5594000000e+01 5.1100000000e-04 0.0000e+00 -1.0000e+00
       23  2    1    2    0    0 +0.0000000000e+00 +0.0000000000e+00 +0.0000000000e+00 9.1188000000e+01 9.1188000000e+01 4.7786e-14 0.0000e+00
  9900012  1    3    3    0    0 -5.6778719453e+00 +2.4313262993e+00 +1.7678506501e+01 7.2461570294e+01 7.0000000000e+01 1.2907e-04 1.0000e+00
       12  1    3    3    0    0 +5.6778719453e+00 -2.4313262993e+00 -1.7678506501e+01 1.8726429706e+01 0.0000000000e+00 0.0000e+00 -1.0000e+00
</event>
<event>
 5      1 +6.9480500e-03 9.11880000e+01 7.81616400e-03 1.18400000e-01
      -11 -1    0    0    0    0 +0.0000000000e+00 +0.0000000000e+00 +4.5593999997e+01 4.5594000000e+01 5.1100000000e-04 0.0000e+00 -1.0000e+00
       11 -1    0    0    0    0 -0.0000000000e+00 -0.0000000000e+00 -4.5593999997e+01 4.5594000000e+01 5.1100000000e-04 0.0000e+00 1.0000e+00
       23  2    1    2    0    0 +0.0000000000e+00 +0.0000000000e+00 +0.0000000000e+00 9.1188000000e+01 9.1188000000e+01 3.9701e-14 0.0000e+00
  9900012  1    3    3    0    0 -1.4582690762e+01 -1.0655618253e+01 +4.9479388952e+00 7.2461570294e+01 7.0000000000e+01 4.1557e-06 1.0000e+00
       12  1    3    3    0    0 +1.4582690762e+01 +1.0655618253e+01 -4.9479388952e+00 1.8726429706e+01 0.0000000000e+00 0.0000e+00 -1.0000e+00
</event>
<event>
 5      8 +6.9480500e-03 9.11880000e+01 7.81616400e-03 1.18400000e-01
      -11 -1    0    0    0    0 +0.0000000000e+00 +0.0000000000e+00 +4.5593999997e+01 4.5594000000e+01 5.1100000000e-04 0.0000e+00 1.0000e+00
       11 -1    0    0    0    0 -0.0000000000e+00 -0.0000000000e+00 -4.5593999997e+01 4.5594000000e+01 5.1100000000e-04 0.0000e+00 -1.0000e+00
       23  2    1    2    0    0 +0.0000000000e+00 +0.0000000000e+00 +0.0000000000e+00 9.1188000000e+01 9.1188000000e+01 1.5555e-14 0.0000e+00
  9900012  1    3    3    0    0 +1.2133350167e+01 +1.6595573754e+00 -1.4167104593e+01 7.2461570294e+01 7.0000000000e+01 1.3701e-04 -1.0000e+00
      -12  1    3    3    0    0 -1.2133350167e+01 -1.6595573754e+00 +1.4167104593e+01 1.8726429706e+01 0.0000000000e+00 0.0000e+00 1.0000e+00
</event>
<event>
 5      3 +6.9480500e-03 9.11880000e+01 7.81616400e-03 1.18400000e-01
      -11 -1    0    0    0    0 +0.0000000000e+00 +0.0000000000e+00 +4.5593999997e+01 4.5594000000e+01 5.1100000000e-04 0.0000e+00 1.0000e+00
       11 -1    0    0    0    0 -0.0000000000e+00 -0.0000000000e+00 -4.5593999997e+01 4.5594000000e+01 5.1100000000e-04 0.0000e+00 -1.0000e+00
       23  2    1    2    0    0 +0.0000000000e+00 +0.0000000000e+00 +0.0000000000e+00 9.1188000000e+01 9.1188000000e+01 2.5412e-14 0.0000e+00
  9900012  1    3    3    0    0 +9.9365595288e+00 -1.5650207108e+01 +2.6485791896e+00 7.2461570294e+01 7.0000000000e+01 6.9175e-05 -1.0000e+00
       12  1    3    3    0    0 -9.9365595288e+00 +1.5650207108e+01 -2.6485791896e+00 1.8726429706e+01 0.0000000000e+00 0.0000e+00 -1.0000e+00
</event>
<event>
 5      1 +6.9480500e-03 9.11880000e+01 7.81616400e-03 1.18400000e-01
      -11 -1    0    0    0    0 +0.0000000000e+00 +0.0000000000e+00 +4.5593999997e+01 4.5594000000e+01 5.1100000000e-04 0.0000e+00 -1.0000e+00
       11 -1    0    0    0    0 -0.0000000000e+00 -0.0000000000e+00 -4.5593999997e+01 4.5594000000e+01 5.1100000000e-04 0.0000e+00 1.0000e+00
       23  2    1    2    0    0 +0.0000000000e+00 +0.0000000000e+00 +0.0000000000e+00 9.1188000000e+01 9.1188000000e+01 1.7737e-14 0.0000e+00
  9900012  1    3    3    0    0 -3.7963855520e+00 +1.7444821804e+01 -5.6519747424e+00 7.2461570294e+01 7.0000000000e+01 1.3486e-04 -1.0000e+00
       12  1    3    3    0    0 +3.7963855520e+00 -1.7444821804e+01 +5.6519747424e+00 1.8726429706e+01 0.0000000000e+00 0.0000e+00 -1.0000e+00
</event>
<event>
 5      1 +6.9480500e-03 9.11880000e+01 7.81616400e-03 1.18400000e-01
      -11 -1    0    0    0    0 +0.0000000000e+00 +0.0000000000e+00 +4.5593999997e+01 4.5594000000e+01 5.1100000000e-04 0.0000e+00 1.0000e+00
       11 -1    0    0    0    0 -0.0000000000e+00 -0.0000000000e+00 -4.5593999997e+01 4.5594000000e+01 5.1100000000e-04 0.0000e+00 -1.0000e+00
       23  2    1    2    0    0 +0.0000000000e+00 +0.0000000000e+00 +0.0000000000e+00 9.1188000000e+01 9.1188000000e+01 4.8638e-14 0.0000e+00
  9900012  1    3    3    0    0 -1.8119497363e+01 +4.5440278797e+00 -1.3095019856e+00 7.2461570294e+01 7.0000000000e+01 2.7914e-04 -1.0000e+00
       12  1    3    3    0    0 +1.8119497363e+01 -4.5440278797e+00 +1.3095019856e+00 1.8726429706e+01 0.0000000000e+00 0.0000e+00 -1.0000e+00
</event>
<event>
 5      1 +6.9480500e-03 9.11880000e+01 7.81616400e-03 1.18400000e-01
      -11 -1    0    0    0    0 +0.0000000000e+00 +0.0000000000e+00 +4.5593999997e+01 4.5594000000e+01 5.1100000000e-04 0.0000e+00 1.0000e+00
       11 -1    0    0    0    0 -0.0000000000e+00 -0.0000000000e+00 -4.5593999997e+01 4.5594000000e+01 5.1100000000e-04 0.0000e+00 -1.0000e+00
       23  2    1    2    0    0 +0.0000000000e+00 +0.0000000000e+00 +0.0000000000e+00 9.1188000000e+01 9.1188000000e+01 3.3043e-14 0.0000e+00
  9900012  1    3    3    0    0 +4.4403591174e+00 -1.4322498586e+01 +1.1217326539e+01 7.2461570294e+01 7.0000000000e+01 2.2142e-05 1.0000e+00
       12  1    3    3    0    0 -4.4403591174e+00 +1.4322498586e+01 -1.1217326539e+01 1.8726429706e+01 0.0000000000e+00 0.0000e+00 -1.0000e+00
</event>
<event>
 5      6 +6.9480500e-03 9.11880000e+01 7.81616400e-03 1.18400000e-01
      -11 -1    0    0    0    0 +0.0000000000e+00 +0.0000000000e+00 +4.5593999997e+01 4.5594000000e+01 5.1100000000e-04 0.0000e+00 -1.0000e+00
       11 -1    0    0    0    0 -0.0000000000e+00 -0.0000000000e+00 -4.5593999997e+01 4.5594000000e+01 5.1100000000e-04 0.0000e+00 1.0000e+00
       23  2    1    2    0    0 +0.0000000000e+00 +0.0000000000e+00 +0.0000000000e+00 9.1188000000e+01 9.1188000000e+01 6.4879e-14 0.0000e+00
  9900012  1    3    3    0    0 +1.2020350125e+01 -3.5166780696e+00 +1.3922044669e+01 7.2461570294e+01 7.0000000000e+01 1.6546e-04 1.0000e+00
      -12  1    3    3    0    0 -1.2020350125e+01 +3.5166780696e+00 -1.3922044669e+01 1.8726429706e+01 0.0000000000e+00 0.0000e+00 1.0000e+00
</event>
<event>
 5      5 +6.9480500e-03 9.11880000e+01 7.81616400e-03 1.18400000e-01
      -11 -1    0    0    0    0 +0.0000000000e+00 +0.0000000000e+00 +4.5593999997e+01 4.5594000000e+01 5.1100000000e-04 0.0000e+00 -1.0000e+00
       11 -1    0    0    0    0 -0.0000000000e+00 -0.0000000000e+00 -4.5593999997e+01 4.5594000000e+01 5.1100000000e-04 0.0000e+00 1.0000e+00
       23  2    1    2    0    0 +0.0000000000e+00 +0.0000000000e+00 +0.0000000000e+00 9.1188000000e+01 9.1188000000e+01 3.4125e-14 0.0000e+00
  9900012  1    3    3    0    0 +6.3043870766e+00 -1.6929925434e+01 -4.9306691153e+00 7.2461570294e+01 7.0000000000e+01 3.4434e-04 -1.0000e+00
       12  1    3    3    0    0 -6.3043870766e+00 +1.6929925434e+01 +4.9306691153e+00 1.8726429706e+01 0.0000000000e+00 0.0000e+00 -1.0000e+00
</event>
<event>
 5      4 +6.9480500e-03 9.11880000e+01 7.81616400e-03 1.18400000e-01
      -11 -1    0    0    0    0 +0.0000000000e+00 +0.0000000000e+00 +4.5593999997e+01 4.5594000000e+01 5.1100000000e-04 0.0000e+00 1.0000e+00
       11 -1    0    0    0    0 -0.0000000000e+00 -0.0000000000e+00 -4.5593999997e+01 4.5594000000e+01 5.1100000000e-04 0.0000e+00 -1.0000e+00
       23  2    1    2    0    0 +0.0000000000e+00 +0.0000000000e+00 +0.0000000000e+00 9.1188000000e+01 9.1188000000e+01 1.9230e-13 0.0000e+00
  9900012  1    3    3    0    0 +7.6549014219e+00 +6.2871898949e+00 -1.5891912942e+01 7.2461570294e+01 7.0000000000e+01 1.2484e-04 -1.0000e+00
      -12  1    3    3    0    0 -7.6549014219e+00 -6.2871898949e+00 +1.5891912942e+01 1.8726429706e+01 0.0000000000e+00 0.0000e+00 1.0000e+00
</event>
<event>
 5      6 +6.9480500e-03 9.11880000e+01 7.81616400e-03 1.18400000e-01
      -11 -1    0    0    0    0 +0.0000000000e+00 +0.0000000000e+00 +4.5593999997e+01 4.5594000000e+01 5.1100000000e-04 0.0000e+00 1.0000e+00
       11 -1    0    0    0    0 -0.0000000000e+00 -0.0000000000e+00 -4.5593999997e+01 4.5594000000e+01 5.1100000000e-04 0.0000e+00 -1.0000e+00
       23  2    1    2    0    0 +0.0000000000e+00 +0.0000000000e+00 +0.0000000000e+00 9.1188000000e+01 9.1188000000e+01 3.0345e-14 0.0000e+00
  9900012  1    3    3    0    0 -2.9179900793e-01 +8.5179578188e+00 -1.6674484024e+01 7.2461570294e+01 7.0000000000e+01 8.8865e-05 -1.0000e+00
      -12  1    3    3    0    0 +2.9179900793e-01 -8.5179578188e+00 +1.6674484024e+01 1.8726429706e+01 0.0000000000e+00 0.0000e+00 1.0000e+00
</event>
<event>
 5      8 +6.9480500e-03 9.11880000e+01 7.81616400e-03 1.18400000e-01
      -11 -1    0    0    0    0 +0.0000000000e+00 +0.0000000000e+00 +4.5593999997e+01 4.5594000000e+01 5.1100000000e-04 0.0000e+00 -1.0000e+00
       11 -1    0    0    0    0 -0.0000000000e+00 -0.0000000000e+00 -4.5593999997e+01 4.5594000000e+01 5.1100000000e-04 0.0000e+00 1.0000e+00
       23  2    1    2    0    0 +0.0000000000e+00 +0.0000000000e+00 +0.0000000000e+00 9.1188000000e+01 9.1188000000e+01 1.4554e-13 0.0000e+00
  9900012  1    3    3    0    0 +1.0418957916e+01 -6.9819637383e+00 +1.3905993953e+01 7.2461570294e+01 7.0000000000e+01 2.1160e-05 1.0000e+00
      -12  1    3    3    0    0 -1.0418957916e+01 +6.9819637383e+00 -1.3905993953e+01 1.8726429706e+01 0.0000000000e+00 0.0000e+00 1.0000e+00
</event>
<event>
 5      8 +6.9480500e-03 9.11880000e+01 7.81616400e-03 1.18400000e-01
      -11 -1    0    0    0    0 +0.0000000000e+00 +0.0000000000e+00 +4.5593999997e+01 4.5594000000e+01 5.1100000000e-04 0.0000e+00 -1.0000e+00
       11 -1    0    0    0    0 -0.0000000000e+00 -0.0000000000e+00 -4.5593999997e+01 4.5594000000e+01 5.1100000000e-04 0.0000e+00 1.0000e+00
       23  2    1    2    0    0 +0.0000000000e+00 +0.0000000000e+00 +0.0000000000e+00 9.1188000000e+01 9.1188000000e+01 2.0193e-13 0.0000e+00
  9900012  1    3    3    0    0 +4.3671251813e+00 -5.1852445795e+00 +1.7456248905e+01 7.2461570294e+01 7.0000000000e+01 2.8641e-05 -1.0000e+00
      -12  1    3    3    0    0 -4.3671251813e+00 +5.1852445795e+00 -1.7456248905e+01 1.8726429706e+01 0.0000000000e+00 0.0000e+00 1.0000e+00
</event>
<event>
 5      3 +6.9480500e-03 9.11880000e+01 7.81616400e-03 1.18400000e-01
      -11 -1    0    0    0    0 +0.0000000000e+00 +0.0000000000e+00 +4.5593999997e+01 4.5594000000e+01 5.1100000000e-04 0.0000e+00 -1.0000e+00
       11 -1    0    0    0    0 -0.0000000000e+00 -0.0000000000e+00 -4.5593999997e+01 4.5594000000e+01 5.1100000000e-04 0.0000e+00 1.0000e+00
       23  2    1    2    0    0 +0.0000000000e+00 +0.0000000000e+00 +0.0000000000e+00 9.1188000000e+01 9.1188000000e+01 1.4996e-14 0.0000e+00
  9900012  1    3    3    0    0 +4.2711121190e+00 -1.4699697319e+01 -1.0786828520e+01 7.2461570294e+01 7.0000000000e+01 6.1549e-05 1.0000e+00
       12  1    3    3    0    0 -4.2711121190e+00 +1.4699697319e+01 +1.0786828520e+01 1.8726429706e+01 0.0000000000e+00 0.0000e+00 -1.0000e+00
</event>
<event>
 5      6 +6.9480500e-03 9.11880000e+01 7.81616400e-03 1.18400000e-01
      -11 -1    0    0    0    0 +0.0000000000e+00 +0.0000000000e+00 +4.5593999997e+01 4.5594000000e+01 5.1100000000e-04 0.0000e+00 1.0000e+00
       11 -1    0    0    0    0 -0.0000000000e+00 -0.0000000000e+00 -4.5593999997e+01 4.5594000000e+01 5.1100000000e-04 0.0000e+00 -1.0000e+00
       23  2    1    2    0    0 +0.0000000000e+00 +0.0000000000e+00 +0.0000000000e+00 9.1188000000e+01 9.1188000000e+01 2.2309e-14 0.0000e+00
  9900012  1    3    3    0    0 +1.2109089189e+01 -1.0412169542e+01 +9.7793585661e+00 7.2461570294e+01 7.0000000000e+01 5.7123e-05 1.0000e+00
      -12  1    3    3    0    0 -1.2109089189e+01 +1.0412169542e+01 -9.7793585661e+00 1.8726429706e+01 0.0000000000e+00 0.0000e+00 1.0000e+00
</event>
<event>
 5      8 +6.9480500e-03 9.11880000e+01 7.81616400e-03 1.18400000e-01
      -11 -1    0    0    0    0 +0.0000000000e+00 +0.0000000000e+00 +4.5593999997e+01 4.5594000000e+01 5.1100000000e-04 0.0000e+00 -1.0000e+00
       11 -1    0    0    0    0 -0.0000000000e+00 -0.0000000000e+00 -4.5593999997e+01 4.5594000000e+01 5.1100000000e-04 0.0000e+00 1.0000e+00
       23  2    1    2    0    0 +0.0000000000e+00 +0.0000000000e+00 +0.0000000000e+00 9.1188000000e+01 9.1188000000e+01 7.0600e-14 0.0000e+00
  9900012  1    3    3    0    0 -1.6289288174e+01 +9.2377160844e+00 +5.3496322311e-02 7.2461570294e+01 7.0000000000e+01 5.4741e-05 -1.0000e+00
      -12  1    3    3    0    0 +1.6289288174e+01 -9.2377160844e+00 -5.3496322311e-02 1.8726429706e+01 0.0000000000e+00 0.0000e+00 1.0000e+00
</event>
<event>
 5      8 +6.9480500e-03 9.11880000e+01 7.81616400e-03 1.18400000e-01
      -11 -1    0    0    0    0 +0.0000000000e+00 +0.0000000000e+00 +4.5593999997e+01 4.5594000000e+01 5.1100000000e-04 0.0000e+00 1.0000e+00
       11 -1    0    0    0    0 -0.0000000000e+00 -0.0000000000e+00 -4.5593999997e+01 4.5594000000e+01 5.1100000000e-04 0.0000e+00 -1.0000e+00
       23  2    1    2    0    0 +0.0000000000e+00 +0.0000000000e+00 +0.0000000000e+00 9.1188000000e+01 9.1188000000e+01 3.9823e-15 0.0000e+00
  9900012  1    3    3    0    0 -5.1889185782e+00 +4.8390438928e+00 -1.7330261040e+01 7.2461570294e+01 7.0000000000e+01 3.7266e-05 -1.0000e+00
      -12  1    3    3    0    0 +5.1889185782e+00 -4.8390438928e+00 +1.7330261040e+01 1.8726429706e+01 0.0000000000e+00 0.0000e+00 1.0000e+00
</event>
<event>
 5      2 +6.9480500e-03 9.11880000e+01 7.81616400e-03 1.18400000e-01
      -11 -1    0    0    0    0 +0.0000000000e+00 +0.0000000000e+00 +4.5593999997e+01 4.5594000000e+01 5.1100000000e-04 0.0000e+00 1.0000e+00
       11 -1    0    0    0    0 -0.0000000000e+00 -0.0000000000e+00 -4.5593999997e+01 4.5594000000e+01 5.1100000000e-04 0.0000e+00 -1.0000e+00
       23  2    1    2    0    0 +0.0000000000e+00 +0.0000000000e+00 +0.0000000000e+00 9.1188000000e+01 9.1188000000e+01 1.8554e-14 0.0000e+00
  9900012  1    3    3    0    0 +6.9538419341e+00 -1.7076465476e+01 -3.2737713305e+00 7.2461570294e+01 7.0000000000e+01 4.5358e-05 -1.0000e+00
      -12  1    3    3    0    0 -6.9538419341e+00 +1.7076465476e+01 +3.2737713305e+00 1.8726429706e+01 0.0000000000e+00 0.0000e+00 1.0000e+00
</event>
<event>
 5      7 +6.9480500e-03 9.11880000e+01 7.81616400e-03 1.18400000e-01
      -11 -1    0    0    0    0 +0.0000000000e+00 +0.0000000000e+00 +4.5593999997e+01 4.5594000000e+01 5.1100000000e-04 0.0000e+00 1.0000e+00
       11 -1    0    0    0    0 -0.0000000000e+00 -0.0000000000e+00 -4.5593999997e+01 4.5594000000e+01 5.1100000000e-04 0.0000e+00 -1.0000e+00
       23  2    1    2    0    0 +0.0000000000e+00 +0.0000000000e+00 +0.0000000000e+00 9.1188000000e+01 9.1188000000e+01 4.8653e-15 0.0000e+00
  9900012  1    3    3    0    0 +8.9245818738e+00 +7.1167933803e+00 +1.4845277360e+01 7.2461570294e+01 7.0000000000e+01 3.5456e-07 1.0000e+00
       12  1    3    3    0    0 -8.9245818738e+00 -7.1167933803e+00 -1.4845277360e+01 1.8726429706e+01 0.0000000000e+00 0.0000e+00 -1.0000e+00
</event>
<event>
 5      3 +6.9480500e-03 9.11880000e+01 7.81616400e-03 1.18400000e-01
      -11 -1    0    0    0    0 +0.0000000000e+00 +0.0000000000e+00 +4.5593999997e+01 4.5594000000e+01 5.1100000000e-04 0.0000e+00 -1.0000e+00
       11 -1    0    0    0    0 -0.0000000000e+00 -0.0000000000e+00 -4.5593999997e+01 4.5594000000e+01 5.1100000000e-04 0.0000e+00 1.0000e+00
       23  2    1    2    0    0 +0.0000000000e+00 +0.0000000000e+00 +0.0000000000e+00 9.1188000000e+01 9.1188000000e+01 3.2252e-13 0.0000e+00
  9900012  1    3    3    0    0 +5.3055671055e+00 +9.7869865505e+00 -1.5058055036e+01 7.2461570294e+01 7.0000000000e+01 9.9293e-05 1.0000e+00
       12  1    3    3    0    0 -5.3055671055e+00 -9.7869865505e+00 +1.5058055036e+01 1.8726429706e+01 0.0000000000e+00 0.0000e+00 -1.0000e+00
</event>
<event>
 5      5 +6.9480500e-03 9.11880000e+01 7.81616400e-03 1.18400000e-01
      -11 -1    0    0    0    0 +0.0000000000e+00 +0.0000000000e+00 +4.5593999997e+01 4.5594000000e+01 5.1100000000e-04 0.0000e+00 1.0000e+00
       11 -1    0    0    0    0 -0.0000000000e+00 -0.0000000000e+00 -4.5593999997e+01 4.5594000000e+01 5.1100000000e-04 0.0000e+00 -1.0000e+00
       23  2    1    2    0    0 +0.0000000000e+00 +0.0000000000e+00 +0.0000000000e+00 9.1188000000e+01 9.1188000000e+01 3.0000e-13 0.0000e+00
  9900012  1    3    3    0    0 +9.3732879196e-01 -1.7677305832e+01 +6.1084730315e+00 7.2461570294e+01 7.0000000000e+01 3.8248e-04 -1.0000e+00
       12  1    3    3    0    0 -9.3732879196e-01 +1.7677305832e+01 -6.1084730315e+00 1.8726429706e+01 0.0000000000e+00 0.0000e+00 -1.0000e+00
</event>
<event>
 5      8 +6.9480500e-03 9.11880000e+01 7.81616400e-03 1.18400000e-01
      -11 -1    0    0    0    0 +0.0000000000e+00 +0.0000000000e+00 +4.5593999997e+01 4.5594000000e+01 5.1100000000e-04 0.0000e+00 1.0000e+00
       11 -1    0    0    0    0 -0.0000000000e+00 -0.0000000000e+00 -4.5593999997e+01 4.5594000000e+01 5.1100000000e-04 0.0000e+00 -1.0000e+00
       23  2    1    2    0    0 +0.0000000000e+00 +0.0000000000e+00 +0.0000000000e+00 9.1188000000e+01 9.1188000000e+01 4.3088e-14 0.0000e+00
  9900012  1    3    3    0    0 -1.6076773929e+01 +9.5810476220e+00 -6.4810187264e-01 7.2461570294e+01 7.0000000000e+01 2.2071e-04 1.0000e+00
      -12  1    3    3    0    0 +1.6076773929e+01 -9.5810476220e+00 +6.4810187264e-01 1.8726429706e+01 0.0000000000e+00 0.0000e+00 1.0000e+00
</event>
<event>
 5      4 +6.9480500e-03 9.11880000e+01 7.81616400e-03 1.18400000e-01
      -11 -1    0    0    0    0 +0.0000000000e+00 +0.0000000000e+00 +4.5593999997e+01 4.5594000000e+01 5.1100000000e-04 0.0000e+00 -1.0000e+00
       11 -1    0    0    0    0 -0.0000000000e+00 -0.0000000000e+00 -4.5593999997e+01 4.5594000000e+01 5.1100000000e-04 0.0000e+00 1.0000e+00
       23  2    1    2    0    0 +0.0000000000e+00 +0.0000000000e+00 +0.0000000000e+00 9.1188000000e+01 9.1188000000e+01 5.4711e-15 0.0000e+00
  9900012  1    3    3    0    0 +1.6856026220e+01 +3.3849557008e+00 +7.4226426885e+00 7.2461570294e+01 7.0000000000e+01 2.1482e-05 -1.0000e+00
      -12  1    3    3    0    0 -1.6856026220e+01 -3.3849557008e+00 -7.4226426885e+00 1.8726429706e+01 0.0000000000e+00 0.0000e+00 1.0000e+00
</event>
<event>
 5      2 +6.9480500e-03 9.11880000e+01 7.81616400e-03 1.18400000e-01
      -11 -1    0    0    0    0 +0.0000000000e+00 +0.0000000000e+00 +4.5593999997e+01 4.5594000000e+01 5.1100000000e-04 0.0000e+00 1.0000e+00
       11 -1    0    0    0    0 -0.0000000000e+00 -0.0000000000e+00 -4.5593999997e+01 4.5594000000e+01 5.1100000000e-04 0.0000e+00 -1.0000e+00
       23  2    1    2    0    0 +0.0000000000e+00 +0.0000000000e+00 +0.0000000000e+00 9.1188000000e+01 9.1188000000e+01 1.8411e-13 0.0000e+00
  9900012  1    3    3    0    0 +1.6915152651e+00 -8.1398291505e+00 -1.6779783283e+01 7.2461570294e+01 7.0000000000e+01 8.2487e-05 -1.0000e+00
      -12  1    3    3    0    0 -1.6915152651e+00 +8.1398291505e+00 +1.6779783283e+01 1.8726429706e+01 0.0000000000e+00 0.0000e+00 1.0000e+00
</event>
<event>
 5      3 +6.9480500e-03 9.11880000e+01 7.81616400e-03 1.18400000e-01
      -11 -1    0    0    0    0 +0.0000000000e+00 +0.0000000000e+00 +4.5593999997e+01 4.5594000000e+01 5.1100000000e-04 0.0000e+00 -1.0000e+00
       11 -1    0    0    0    0 -0.0000000000e+00 -0.0000000000e+00 -4.5593999997e+01 4.5594000000e+01 5.1100000000e-04 0.0000e+00 1.0000e+00
       23  2    1    2    0    0 +0.0000000000e+00 +0.0000000000e+00 +0.0000000000e+00 9.1188000000e+01 9.1188000000e+01 1.1695e-14 0.0000e+00
  9900012  1    3    3    0    0 -9.7867921275e+00 +6.1443620322e+00 -1.4735829959e+01 7.2461570294e+01 7.0000000000e+01 1.5429e-05 1.0000e+00
       12  1    3    3    0    0 +9.7867921275e+00 -6.1443620322e+00 +1.4735829959e+01 1.8726429706e+01 0.0000000000e+00 0.0000e+00 -1.0000e+00
</event>
<event>
 5      8 +6.9480500e-03 9.11880000e+01 7.81616400e-03 1.18400000e-01
      -11 -1    0    0    0    0 +0.0000000000e+00 +0.0000000000e+00 +4.5593999997e+01 4.5594000000e+01 5.1100000000e-04 0.0000e+00 -1.0000e+00
       11 -1    0    0    0    0 -0.0000000000e+00 -0.0000000000e+00 -4.5593999997e+01 4.5594000000e+01 5.1100000000e-04 0.0000e+00 1.0000e+00
       23  2    1    2    0    0 +0.0000000000e+00 +0.0000000000e+00 +0.0000000000e+00 9.1188000000e+01 9.1188000000e+01 3.3966e-15 0.0000e+00
  9900012  1    3    3    0    0 +4.5020848062e+00 -1.4942222541e+01 +1.0350864092e+01 7.2461570294e+01 7.0000000000e+01 8.8054e-05 -1.0000e+00
      -12  1    3    3    0    0 -4.5020848062e+00 +1.4942222541e+01 -1.0350864092e+01 1.8726429706e+01 0.0000000000e+00 0.0000e+00 1.0000e+00
</event>
<event>
 5      6 +6.9480500e-03 9.11880000e+01 7.81616400e-03 1.18400000e-01
      -11 -1    0    0    0    0 +0.0000000000e+00 +0.0000000000e+00 +4.5593999997e+01 4.5594000000e+01 5.1100000000e-04 0.0000e+00 -1.0000e+00
       11 -1    0    0    0    0 -0.0000000000e+00 -0.0000000000e+00 -4.5593999997e+01 4.5594000000e+01 5.1100000000e-04 0.0000e+00 1.0000e+00
       23  2    1    2    0    0 +0.0000000000e+00 +0.0000000000e+00 +0.0000000000e+00 9.1188000000e+01 9.1188000000e+01 9.9023e-14 0.0000e+00
  9900012  1    3    3    0    0 +8.5923672988e+00 +1.3950214139e+01 -9.0687330532e+00 7.2461570294e+01 7.0000000000e+01 1.1111e-04 -1.0000e+00
      -12  1    3    3    0    0 -8.5923672988e+00 -1.3950214139e+01 +9.0687330532e+00 1.8726429706e+01 0.0000000000e+00 0.0000e+00 1.0000e+00
</event>
<event>
 5      3 +6.9480500e-03 9.11880000e+01 7.81616400e-03 1.18400000e-01
      -11 -1    0    0    0    0 +0.0000000000e+00 +0.0000000000e+00 +4.5593999997e+01 4.5594000000e+01 5.1100000000e-04 0.0000e+00 1.0000e+00
       11 -1    0    0    0    0 -0.0000000000e+00 -0.0000000000e+00 -4.5593999997e+01 4.5594000000e+01 5.1100000000e-04 0.0000e+00 -1.0000e+00
       23  2    1    2    0    0 +0.0000000000e+00 +0.0000000000e+00 +0.0000000000e+00 9.1188000000e+01 9.1188000000e+01 5.3445e-14 0.0000e+00
  9900012  1    3    3    0    0 -1.0804889237e+00 +1.7183931653e+01 +7.3637087220e+00 7.2461570294e+01 7.0000000000e+01 1.2814e-04 1.0000e+00
       12  1    3    3    0    0 +1.0804889237e+00 -1.7183931653e+01 -7.3637087220e+00 1.8726429706e+01 0.0000000000e+00 0.0000e+00 -1.0000e+00
</event>
<event>
 5      3 +6.9480500e-03 9.11880000e+01 7.81616400e-03 1.18400000e-01
      -11 -1    0    0    0    0 +0.0000000000e+00 +0.0000000000e+00 +4.5593999997e+01 4.5594000000e+01 5.1100000000e-04 0.0000e+00 -1.0000e+00
       11 -1    0    0    0    0 -0.0000000000e+00 -0.0000000000e+00 -4.5593999997e+01 4.5594000000e+01 5.1100000000e-04 0.0000e+00 1.0000e+00
       23  2    1    2    0    0 +0.0000000000e+00 +0.0000000000e+00 +0.0000000000e+00 9.1188000000e+01 9.1188000000e+01 3.4638e-14 0.0000e+00
  9900012  1    3    3    0    0 +9.6143919572e-01 -1.4353316077e+00 -1.8646571464e+01 7.2461570294e+01 7.0000000000e+01 6.8904e-06 1.0000e+00
       12  1    3    3    0    0 -9.6143919572e-01 +1.4353316077e+00 +1.8646571464e+01 1.8726429706e+01 0.0000000000e+00 0.0000e+00 -1.0000e+00
</event>
<event>
 5      6 +6.9480500e-03 9.11880000e+01 7.81616400e-03 1.18400000e-01
      -11 -1    0    0    0    0 +0.0000000000e+00 +0.0000000000e+00 +4.5593999997e+01 4.5594000000e+01 5.1100000000e-04 0.0000e+00 -1.0000e+00
       11 -1    0    0    0    0 -0.0000000000e+00 -0.0000000000e+00 -4.5593999997e+01 4.5594000000e+01 5.1100000000e-04 0.0000e+00 1.0000e+00
       23  2    1    2    0    0 +0.0000000000e+00 +0.0000000000e+00 +0.0000000000e+00 9.1188000000e+01 9.1188000000e+01 9.4099e-14 0.0000e+00
  9900012  1    3    3    0    0 +1.2585369754e+01 -1.1874006698e+01 +7.1620948483e+00 7.2461570294e+01 7.0000000000e+01 1.1284e-04 -1.0000e+00
      -12  1    3    3    0    0 -1.2585369754e+01 +1.1874006698e+01 -7.1620948483e+00 1.8726429706e+01 0.0000000000e+00 0.0000e+00 1.0000e+00
</event>
<event>
 5      7 +6.9480500e-03 9.11880000e+01 7.81616400e-03 1.18400000e-01
      -11 -1    0    0    0    0 +0.0000000000e+00 +0.0000000000e+00 +4.5593999997e+01 4.5594000000e+01 5.1100000000e-04 0.0000e+00 1.0000e+00
       11 -1    0    0    0    0 -0.0000000000e+00 -0.0000000000e+00 -4.5593999997e+01 4.5594000000e+01 5.1100000000e-04 0.0000e+00 -1.0000e+00
       23  2    1    2    0    0 +0.0000000000e+00 +0.0000000000e+00 +0.0000000000e+00 9.1188000000e+01 9.1188000000e+01 1.1510e-13 0.0000e+00
  9900012  1    3    3    0    0 +1.2916756916e+01 -2.9845735792e+00 +1.3226068231e+01 7.2461570294e+01 7.0000000000e+01 8.4888e-05 1.0000e+00
       12  1    3    3    0    0 -1.2916756916e+01 +2.9845735792e+00 -1.3226068231e+01 1.8726429706e+01 0.0000000000e+00 0.0000e+00 -1.0000e+00
</event>
<event>
 5      1 +6.9480500e-03 9.11880000e+01 7.81616400e-03 1.18400000e-01
      -11 -1    0    0    0    0 +0.0000000000e+00 +0.0000000000e+00 +4.5593999997e+01 4.5594000000e+01 5.1100000000e-04 0.0000e+00 -1.0000e+00
       11 -1    0    0    0    0 -0.0000000000e+00 -0.0000000000e+00 -4.5593999997e+01 4.5594000000e+01 5.1100000000e-04 0.0000e+00 1.0000e+00
       23  2    1    2    0    0 +0.0000000000e+00 +0.0000000000e+00 +0.0000000000e+00 9.1188000000e+01 9.1188000000e+01 4.6078e-14 0.0000e+00
  9900012  1    3    3    0    0 -2.7466895185e+00 -8.0417341091e+00 -1.6687281945e+01 7.2461570294e+01 7.0000000000e+01 1.4780e-04 1.0000e+00
       12  1    3    3    0    0 +2.7466895185e+00 +8.0417341091e+00 +1.6687281945e+01 1.8726429706e+01 0.0000000000e+00 0.0000e+00 -1.0000e+00
</event>
<event>
 5      3 +6.9480500e-03 9.11880000e+01 7.81616400e-03 1.18400000e-01
      -11 -1    0    0    0    0 +0.0000000000e+00 +0.0000000000e+00 +4.5593999997e+01 4.5594000000e+01 5.1100000000e-04 0.0000e+00 1.0000e+00
       11 -1    0    0    0    0 -0.0000000000e+00 -0.0000000000e+00 -4.5593999997e+01 4.5594000000e+01 5.1100000000e-04 0.0000e+00 -1.0000e+00
       23  2    1    2    0    0 +0.0000000000e+00 +0.0000000000e+00 +0.0000000000e+00 9.1188000000e+01 9.1188000000e+01 1.2352e-15 0.0000e+00
  9900012  1    3    3    0    0 +1.4582806850e+01 -6.7408321958e+00 +9.6219590115e+00 7.2461570294e+01 7.0000000000e+01 4.7313e-05 1.0000e+00
       12  1    3    3    0    0 -1.4582806850e+01 +6.7408321958e+00 -9.6219590115e+00 1.8726429706e+01 0.0000000000e+00 0.0000e+00 -1.0000e+00
</event>
<event>
 5      6 +6.9480500e-03 9.11880000e+01 7.81616400e-03 1.18400000e-01
      -11 -1    0    0    0    0 +0.0000000000e+00 +0.0000000000e+00 +4.5593999997e+01 4.5594000000e+01 5.1100000000e-04 0.0000e+00 1.0000e+00
       11 -1    0    0    0    0 -0.0000000000e+00 -0.0000000000e+00 -4.5593999997e+01 4.5594000000e+01 5.1100000000e-04 0.0000e+00 -1.0000e+00
       23  2    1    2    0    0 +0.0000000000e+00 +0.0000000000e+00 +0.0000000000e+00 9.1188000000e+01 9.1188000000e+01 3.2922e-14 0.0000e+00
  9900012  1    3    3    0    0 +3.7882872168e+00 -9.5465639683e+00 -1.5658581222e+01 7.2461570294e+01 7.0000000000e+01 9.4656e-06 -1.0000e+00
      -12  1    3    3    0    0 -3.7882872168e+00 +9.5465639683e+00 +1.5658581222e+01 1.8726429706e+01 0.0000000000e+00 0.0000e+00 1.0000e+00
</event>
<event>
 5      7 +6.9480500e-03 9.11880000e+01 7.81616400e-03 1.18400000e-01
      -11 -1    0    0    0    0 +0.0000000000e+00 +0.0000000000e+00 +4.5593999997e+01 4.5594000000e+01 5.1100000000e-04 0.0000e+00 -1.0000e+00
       11 -1    0    0    0    0 -0.0000000000e+00 -0.0000000000e+00 -4.5593999997e+01 4.5594000000e+01 5.1100000000e-04 0.0000e+00 1.0000e+00
       23  2    1    2    0    0 +0.0000000000e+00 +0.0000000000e+00 +0.0000000000e+00 9.1188000000e+01 9.1188000000e+01 3.5664e-14 0.0000e+00
  9900012  1    3    3    0    0 +1.8547896114e+01 -2.4845966473e+00 +6.9390111222e-01 7.2461570294e+01 7.0000000000e+01 9.2733e-06 1.0000e+00
       12  1    3    3    0    0 -1.8547896114e+01 +2.4845966473e+00 -6.9390111222e-01 1.8726429706e+01 0.0000000000e+00 0.0000e+00 -1.0000e+00
</event>
<event>
 5      8 +6.9480500e-03 9.11880000e+01 7.81616400e-03 1.18400000e-01
      -11 -1    0    0    0    0 +0.0000000000e+00 +0.0000000000e+00 +4.5593999997e+01 4.5594000000e+01 5.1100000000e-04 0.0000e+00 -1.0000e+00
       11 -1    0    0    0    0 -0.0000000000e+00 -0.0000000000e+00 -4.5593999997e+01 4.5594000000e+01 5.1100000000e-04 0.0000e+00 1.0000e+00
       23  2    1    2    0    0 +0.0000000000e+00 +0.0000000000e+00 +0.0000000000e+00 9.1188000000e+01 9.1188000000e+01 3.7690e-16 0.0000e+00
  9900012  1    3    3    0    0 -1.5004069983e-01 +1.1355056809e+01 +1.4890243187e+01 7.2461570294e+01 7.0000000000e+01 2.1688e-04 -1.0000e+00
      -12  1    3    3    0    0 +1.5004069983e-01 -1.1355056809e+01 -1.4890243187e+01 1.8726429706e+01 0.0000000000e+00 0.0000e+00 1.0000e+00
</event>
<event>
 5      7 +6.9480500e-03 9.11880000e+01 7.81616400e-03 1.18400000e-01
      -11 -1    0    0    0    0 +0.0000000000e+00 +0.0000000000e+00 +4.5593999997e+01 4.5594000000e+01 5.1100000000e-04 0.0000e+00 -1.0000e+00
       11 -1    0    0    0    0 -0.0000000000e+00 -0.0000000000e+00 -4.5593999997e+01 4.5594000000e+01 5.1100000000e-04 0.0000e+00 1.0000e+00
       23  2    1    2    0    0 +0.0000000000e+00 +0.0000000000e+00 +0.0000000000e+00 9.1188000000e+01 9.1188000000e+01 2.2737e-13 0.0000e+00
  9900012  1    3    3    0    0 -5.6908280413e-01 -2.7981631829e+00 -1.8507447071e+01 7.2461570294e+01 7.0000000000e+01 8.2790e-05 1.0000e+00
       12  1    3    3    0    0 +5.6908280413e-01 +2.7981631829e+00 +1.8507447071e+01 1.8726429706e+01 0.0000000000e+00 0.0000e+00 -1.0000e+00
</event>
<event>
 5      7 +6.9480500e-03 9.11880000e+01 7.81616400e-03 1.18400000e-01
      -11 -1    0    0    0    0 +0.0000000000e+00 +0.0000000000e+00 +4.5593999997e+01 4.5594000000e+01 5.1100000000e-04 0.0000e+00 1.0000e+00
       11 -1    0    0    0    0 -0.0000000000e+00 -0.0000000000e+00 -4.5593999997e+01 4.5594000000e+01 5.1100000000e-04 0.0000e+00 -1.0000e+00
       23  2    1    2    0    0 +0.0000000000e+00 +0.0000000000e+00 +0.0000000000e+00 9.1188000000e+01 9.1188000000e+01 1.6407e-13 0.0000e+00
  9900012  1    3    3    0    0 +1.4867492590e+01 +4.2173962101e+00 +1.0575935081e+01 7.2461570294e+01 7.0000000000e+01 6.1412e-07 -1.0000e+00
       12  1    3    3    0    0 -1.4867492590e+01 -4.2173962101e+00 -1.0575935081e+01 1.8726429706e+01 0.0000000000e+00 0.0000e+00 -1.0000e+00
</event>
<event>
 5      2 +6.9480500e-03 9.11880000e+01 7.81616400e-03 1.18400000e-01
      -11 -1    0    0    0    0 +0.0000000000e+00 +0.0000000000e+00 +4.5593999997e+01 4.5594000000e+01 5.1100000000e-04 0.0000e+00 -1.0000e+00
       11 -1    0    0    0    0 -0.0000000000e+00 -0.0000000000e+00 -4.5593999997e+01 4.5594000000e+01 5.1100000000e-04 0.0000e+00 1.0000e+00
       23  2    1    2    0    0 +0.0000000000e+00 +0.0000000000e+00 +0.0000000000e+00 9.1188000000e+01 9.1188000000e+01 3.6707e-14 0.0000e+00
  9900012  1    3    3    0    0 +1.5588510036e+01 -2.9692217962e+00 +9.9428992901e+00 7.2461570294e+01 7.0000000000e+01 7.7116e-05 -1.0000e+00
      -12  1    3    3    0    0 -1.5588510036e+01 +2.9692217962e+00 -9.9428992901e+00 1.8726429706e+01 0.0000000000e+00 0.0000e+00 1.0000e+00
</event>
<event>
 5      6 +6.9480500e-03 9.11880000e+01 7.81616400e-03 1.18400000e-01
      -11 -1    0    0    0    0 +0.0000000000e+00 +0.0000000000e+00 +4.5593999997e+01 4.5594000000e+01 5.1100000000e-04 0.0000e+00 -1.0000e+00
       11 -1    0    0    0    0 -0.0000000000e+00 -0.0000000000e+00 -4.5593999997e+01 4.5594000000e+01 5.1100000000e-04 0.0000e+00 1.0000e+00
       23  2    1    2    0    0 +0.0000000000e+00 +0.0000000000e+00 +0.0000000000e+00 9.1188000000e+01 9.1188000000e+01 5.8564e-14 0.0000e+00
  9900012  1    3    3    0    0 -1.1685361056e+01 -1.3381882606e+01 +5.9208719316e+00 7.2461570294e+01 7.0000000000e+01 9.8068e-05 -1.0000e+00
      -12  1    3    3    0    0 +1.1685361056e+01 +1.3381882606e+01 -5.9208719316e+00 1.8726429706e+01 0.0000000000e+00 0.0000e+00 1.0000e+00
</event>
<event>
 5      6 +6.9480500e-03 9.11880000e+01 7.81616400e-03 1.18400000e-01
      -11 -1    0    0    0    0 +0.0000000000e+00 +0.0000000000e+00 +4.5593999997e+01 4.5594000000e+01 5.1100000000e-04 0.0000e+00 -1.0000e+00
       11 -1    0    0    0    0 -0.0000000000e+00 -0.0000000000e+00 -4.5593999997e+01 4.5594000000e+01 5.1100000000e-04 0.0000e+00 1.0000e+00
       23  2    1    2    0    0 +0.0000000000e+00 +0.0000000000e+00 +0.0000000000e+00 9.1188000000e+01 9.1188000000e+01 2.8917e-14 0.0000e+00
  9900012  1    3    3    0    0 +7.1669998570e+00 +1.6312826568e+01 +5.7623755462e+00 7.2461570294e+01 7.0000000000e+01 2.7211e-04 -1.0000e+00
      -12  1    3    3    0    0 -7.1669998570e+00 -1.6312826568e+01 -5.7623755462e+00 1.8726429706e+01 0.0000000000e+00 0.0000e+00 1.0000e+00
</event>
<event>
 5      7 +6.9480500e-03 9.11880000e+01 7.81616400e-03 1.18400000e-01
      -11 -1    0    0    0    0 +0.0000000000e+00 +0.0000000000e+00 +4.5593999997e+01 4.5594000000e+01 5.1100000000e-04 0.0000e+00 1.0000e+00
       11 -1    0    0    0    0 -0.0000000000e+00 -0.0000000000e+00 -4.5593999997e+01 4.5594000000e+01 5.1100000000e-04 0.0000e+00 -1.0000e+00
       23  2    1    2    0    0 +0.0000000000e+00 +0.0000000000e+00 +0.0000000000e+00 9.1188000000e+01 9.1188000000e+01 2.0488e-13 0.0000e+00
  9900012  1    3    3    0    0 +5.1956538195e+00 -1.4112114576e+01 +1.1159416343e+01 7.2461570294e+01 7.0000000000e+01 1.3496e-04 1.0000e+00
       12  1    3    3    0    0 -5.1956538195e+00 +1.4112114576e+01 -1.1159416343e+01 1.8726429706e+01 0.0000000000e+00 0.0000e+00 -1.0000e+00
</event>
<event>
 5      8 +6.9480500e-03 9.11880000e+01 7.81616400e-03 1.18400000e-01
      -11 -1    0    0    0    0 +0.0000000000e+00 +0.0000000000e+00 +4.5593999997e+01 4.5594000000e+01 5.1100000000e-04 0.0000e+00 1.0000e+00
       11 -1    0    0    0    0 -0.0000000000e+00 -0.0000000000e+00 -4.5593999997e+01 4.5594000000e+01 5.1100000000e-04 0.0000e+00 -1.0000e+00
       23  2    1    2    0    0 +0.0000000000e+00 +0.0000000000e+00 +0.0000000000e+00 9.1188000000e+01 9.1188000000e+01 4.7685e-14 0.0000e+00
  9900012  1    3    3    0    0 -1.5023528383e+01 -5.7588779702e+00 +9.5816537703e+00 7.2461570294e+01 7.0000000000e+01 2.3117e-04 1.0000e+00
      -12  1    3    3    0    0 +1.5023528383e+01 +5.7588779702e+00 -9.5816537703e+00 1.8726429706e+01 0.0000000000e+00 0.0000e+00 1.0000e+00
</event>
<event>
 5      1 +6.9480500e-03 9.11880000e+01 7.81616400e-03 1.18400000e-01
      -11 -1    0    0    0    0 +0.0000000000e+00 +0.0000000000e+00 +4.5593999997e+01 4.5594000000e+01 5.1100000000e-04 0.0000e+00 1.0000e+00
       11 -1    0    0    0    0 -0.0000000000e+00 -0.0000000000e+00 -4.5593999997e+01 4.5594000000e+01 5.1100000000e-04 0.0000e+00 -1.0000e+00
       23  2    1    2    0    0 +0.0000000000e+00 +0.0000000000e+00 +0.0000000000e+00 9.1188000000e+01 9.1188000000e+01 5.0700e-14 0.0000e+00
  9900012  1    3    3    0    0 +1.5100820250e+01 +1.0118309990e+00 +1.1028172800e+01 7.2461570294e+01 7.0000000000e+01 6.6592e-05 1.0000e+00
       12  1    3    3    0    0 -1.5100820250e+01 -1.0118309990e+00 -1.1028172800e+01 1.8726429706e+01 0.0000000000e+00 0.0000e+00 -1.0000e+00
</event>
<event>
 5      6 +6.9480500e-03 9.11880000e+01 7.81616400e-03 1.18400000e-01
      -11 -1    0    0    0    0 +0.0000000000e+00 +0.0000000000e+00 +4.5593999997e+01 4.5594000000e+01 5.1100000000e-04 0.0000e+00 1.0000e+00
       11 -1    0    0    0    0 -0.0000000000e+00 -0.0000000000e+00 -4.5593999997e+01 4.5594000000e+01 5.1100000000e-04 0.0000e+00 -1.0000e+00
       23  2    1    2    0    0 +0.0000000000e+00 +0.0000000000e+00 +0.0000000000e+00 9.1188000000e+01 9.1188000000e+01 3.8807e-14 0.0000e+00
  9900012  1    3    3    0    0 +7.4042336895e+00 -8.6583815942e+00 -1.4862332292e+01 7.2461570294e+01 7.0000000000e+01 9.0647e-05 -1.0000e+00
      -12  1    3    3    0    0 -7.4042336895e+00 +8.6583815942e+00 +1.4862332292e+01 1.8726429706e+01 0.0000000000e+00 0.0000e+00 1.0000e+00
</event>
<event>
 5      8 +6.9480500e-03 9.11880000e+01 7.81616400e-03 1.18400000e-01
      -11 -1    0    0    0    0 +0.0000000000e+00 +0.0000000000e+00 +4.5593999997e+01 4.5594000000e+01 5.1100000000e-04 0.0000e+00 1.0000e+00
       11 -1    0    0    0    0 -0.0000000000e+00 -0.0000000000e+00 -4.5593999997e+01 4.5594000000e+01 5.1100000000e-04 0.0000e+00 -1.0000e+00
       23  2    1    2    0    0 +0.0000000000e+00 +0.0000000000e+00 +0.0000000000e+00 9.1188000000e+01 9.1188000000e+01 3.3935e-14 0.0000e+00
  9900012  1    3    3    0    0 +1.6897463839e+01 +7.9512794656e+00 -1.3899784872e+00 7.2461570294e+01 7.0000000000e+01 4.3826e-04 -1.0000e+00
      -12  1    3    3    0    0 -1.6897463839e+01 -7.9512794656e+00 +1.3899784872e+00 1.8726429706e+01 0.0000000000e+00 0.0000e+00 1.0000e+00
</event>
<event>
 5      8 +6.9480500e-03 9.11880000e+01 7.81616400e-03 1.18400000e-01
      -11 -1    0    0    0    0 +0.0000000000e+00 +0.0000000000e+00 +4.5593999997e+01 4.5594000000e+01 5.1100000000e-04 0.0000e+00 1.0000e+00
       11 -1    0    0    0    0 -0.0000000000e+00 -0.0000000000e+00 -4.5593999997e+01 4.5594000000e+01 5.1100000000e-04 0.0000e+00 -1.0000e+00
       23  2    1    2    0    0 +0.0000000000e+00 +0.0000000000e+00 +0.0000000000e+00 9.1188000000e+01 9.1188000000e+01 9.4229e-14 0.0000e+00
  9900012  1    3    3    0    0 -7.5396298826e+00 -1.5744790163e+01 -6.7775167643e+00 7.2461570294e+01 7.0000000000e+01 1.0553e-04 -1.0000e+00
      -12  1    3    3    0    0 +7.5396298826e+00 +1.5744790163e+01 +6.7775167643e+00 1.8726429706e+01 0.0000000000e+00 0.0000e+00 1.0000e+00
</event>
<event>
 5      4 +6.9480500e-03 9.11880000e+01 7.81616400e-03 1.18400000e-01
      -11 -1    0    0    0    0 +0.0000000000e+00 +0.0000000000e+00 +4.5593999997e+01 4.5594000000e+01 5.1100000000e-04 0.0000e+00 1.0000e+00
       11 -1    0    0    0    0 -0.0000000000e+00 -0.0000000000e+00 -4.5593999997e+01 4.5594000000e+01 5.1100000000e-04 0.0000e+00 -1.0000e+00
       23  2    1    2    0    0 +0.0000000000e+00 +0.0000000000e+00 +0.0000000000e+00 9.1188000000e+01 9.1188000000e+01 5.0208e-15 0.0000e+00
  9900012  1    3    3    0    0 -6.5177417221e-01 +1.6193972537e+00 -1.8644889715e+01 7.2461570294e+01 7.0000000000e+01 1.3431e-04 -1.0000e+00
      -12  1    3    3    0    0 +6.5177417221e-01 -1.6193972537e+00 +1.8644889715e+01 1.8726429706e+01 0.0000000000e+00 0.0000e+00 1.0000e+00
</event>
<event>
 5      6 +6.9480500e-03 9.11880000e+01 7.81616400e-03 1.18400000e-01
      -11 -1    0    0    0    0 +0.0000000000e+00 +0.0000000000e+00 +4.5593999997e+01 4.5594000000e+01 5.1100000000e-04 0.0000e+00 -1.0000e+00
       11 -1    0    0    0    0 -0.0000000000e+00 -0.0000000000e+00 -4.5593999997e+01 4.5594000000e+01 5.1100000000e-04 0.0000e+00 1.0000e+00
       23  2    1    2    0    0 +0.0000000000e+00 +0.0000000000e+00 +0.0000000000e+00 9.1188000000e+01 9.1188000000e+01 5.3682e-15 0.0000e+00
  9900012  1    3    3    0    0 -1.3729955915e+01 -8.5463937630e+00 +9.4406903210e+00 7.2461570294e+01 7.0000000000e+01 1.2271e-04 -1.0000e+00
      -12  1    3    3    0    0 +1.3729955915e+01 +8.5463937630e+00 -9.4406903210e+00 1.8726429706e+01 0.0000000000e+00 0.0000e+00 1.0000e+00
</event>
<event>
 5      4 +6.9480500e-03 9.11880000e+01 7.81616400e-03 1.18400000e-01
      -11 -1    0    0    0    0 +0.0000000000e+00 +0.0000000000e+00 +4.5593999997e+01 4.5594000000e+01 5.1100000000e-04 0.0000e+00 -1.0000e+00
       11 -1    0    0    0    0 -0.0000000000e+00 -0.0000000000e+00 -4.5593999997e+01 4.5594000000e+01 5.1100000000e-04 0.0000e+00 1.0000e+00
       23  2    1    2    0    0 +0.0000000000e+00 +0.0000000000e+00 +0.0000000000e+00 9.1188000000e+01 9.1188000000e+01 9.4737e-14 0.0000e+00
  9900012  1    3    3    0    0 +1.5074286653e+01 -1.0126208314e+01 -4.5721938523e+00 7.2461570294e+01 7.0000000000e+01 5.0777e-05 1.0000e+00
      -12  1    3    3    0    0 -1.5074286653e+01 +1.0126208314e+01 +4.5721938523e+00 1.8726429706e+01 0.0000000000e+00 0.0000e+00 1.0000e+00
</event>
<event>
 5      5 +6.9480500e-03 9.11880000e+01 7.81616400e-03 1.18400000e-01
      -11 -1    0    0    0    0 +0.0000000000e+00 +0.0000000000e+00 +4.5593999997e+01 4.5594000000e+01 5.1100000000e-04 0.0000e+00 -1.0000e+00
       11 -1    0    0    0    0 -0.0000000000e+00 -0.0000000000e+00 -4.5593999997e+01 4.5594000000e+01 5.1100000000e-04 0.0000e+00 1.0000e+00
       23  2    1    2    0    0 +0.0000000000e+00 +0.0000000000e+00 +0.0000000000e+00 9.1188000000e+01 9.1188000000e+01 7.5313e-14 0.0000e+00
  9900012  1    3    3    0    0 +1.5079375461e+01 +1.0741124752e+01 +2.8142217924e+00 7.2461570294e+01 7.0000000000e+01 2.4950e-05 1.0000e+00
       12  1    3    3    0    0 -1.5079375461e+01 -1.0741124752e+01 -2.8142217924e+00 1.8726429706e+01 0.0000000000e+00 0.0000e+00 -1.0000e+00
</event>
<event>
 5      2 +6.9480500e-03 9.11880000e+01 7.81616400e-03 1.18400000e-01
      -11 -1    0    0    0    0 +0.0000000000e+00 +0.0000000000e+00 +4.5593999997e+01 4.5594000000e+01 5.1100000000e-04 0.0000e+00 -1.0000e+00
       11 -1    0    0    0    0 -0.0000000000e+00 -0.0000000000e+00 -4.5593999997e+01 4.5594000000e+01 5.1100000000e-04 0.0000e+00 1.0000e+00
       23  2    1    2    0    0 +0.0000000000e+00 +0.0000000000e+00 +0.0000000000e+00 9.1188000000e+01 9.1188000000e+01 1.0504e-13 0.0000e+00
  9900012  1    3    3    0    0 -7.5093326395e+00 +1.4181344398e+01 +9.6529044275e+00 7.2461570294e+01 7.0000000000e+01 3.8864e-05 -1.0000e+00
      -12  1    3    3    0    0 +7.5093326395e+00 -1.4181344398e+01 -9.6529044275e+00 1.8726429706e+01 0.0000000000e+00 0.0000e+00 1.0000e+00
</event>
<event>
 5      5 +6.9480500e-03 9.11880000e+01 7.81616400e-03 1.18400000e-01
      -11 -1    0    0    0    0 +0.0000000000e+00 +0.0000000000e+00 +4.5593999997e+01 4.5594000000e+01 5.1100000000e-04 0.0000e+00 1.0000e+00
       11 -1    0    0    0    0 -0.0000000000e+00 -0.0000000000e+00 -4.5593999997e+01 4.5594000000e+01 5.1100000000e-04 0.0000e+00 -1.0000e+00
       23  2    1    2    0    0 +0.0000000000e+00 +0.0000000000e+00 +0.0000000000e+00 9.1188000000e+01 9.1188000000e+01 1.0404e-14 0.0000e+00
  9900012  1    3    3    0    0 +1.2495633653e+01 -1.3813025720e+01 -1.9335536170e+00 7.2461570294e+01 7.0000000000e+01 2.1202e-04 -1.0000e+00
       12  1    3    3    0    0 -1.2495633653e+01 +1.3813025720e+01 +1.9335536170e+00 1.8726429706e+01 0.0000000000e+00 0.0000e+00 -1.0000e+00
</event>
<event>
 5      7 +6.9480500e-03 9.11880000e+01 7.81616400e-03 1.18400000e-01
      -11 -1    0    0    0    0 +0.0000000000e+00 +0.0000000000e+00 +4.5593999997e+01 4.5594000000e+01 5.1100000000e-04 0.0000e+00 1.0000e+00
       11 -1    0    0    0    0 -0.0000000000e+00 -0.0000000000e+00 -4.5593999997e+01 4.5594000000e+01 5.1100000000e-04 0.0000e+00 -1.0000e+00
       23  2    1    2    0    0 +0.0000000000e+00 +0.0000000000e+00 +0.0000000000e+00 9.1188000000e+01 9.1188000000e+01 1.2445e-13 0.0000e+00
  9900012  1    3    3    0    0 +9.7658608087e+00 -1.2837533690e+01 +9.5134042777e+00 7.2461570294e+01 7.0000000000e+01 4.6224e-05 1.0000e+00
       12  1    3    3    0    0 -9.7658608087e+00 +1.2837533690e+01 -9.5134042777e+00 1.8726429706e+01 0.0000000000e+00 0.0000e+00 -1.0000e+00
</event>
<event>
 5      1 +6.9480500e-03 9.11880000e+01 7.81616400e-03 1.18400000e-01
      -11 -1    0    0    0    0 +0.0000000000e+00 +0.0000000000e+00 +4.5593999997e+01 4.5594000000e+01 5.1100000000e-04 0.0000e+00 -1.0000e+00
       11 -1    0    0    0    0 -0.0000000000e+00 -0.0000000000e+00 -4.5593999997e+01 4.5594000000e+01 5.1100000000e-04 0.0000e+00 1.0000e+00
       23  2    1    2    0    0 +0.0000000000e+00 +0.0000000000e+00 +0.0000000000e+00 9.1188000000e+01 9.1188000000e+01 1.9119e-13 0.0000e+00
  9900012  1    3    3    0    0 +1.5126470357e+01 +1.0731935690e+01 +2.5873964557e+00 7.2461570294e+01 7.0000000000e+01 3.9941e-05 -1.0000e+00
       12  1    3    3    0    0 -1.5126470357e+01 -1.0731935690e+01 -2.5873964557e+00 1.8726429706e+01 0.0000000000e+00 0.0000e+00 -1.0000e+00
</event>
<event>
 5      4 +6.9480500e-03 9.11880000e+01 7.81616400e-03 1.18400000e-01
      -11 -1    0    0    0    0 +0.0000000000e+00 +0.0000000000e+00 +4.5593999997e+01 4.5594000000e+01 5.1100000000e-04 0.0000e+00 -1.0000e+00
       11 -1    0    0    0    0 -0.0000000000e+00 -0.0000000000e+00 -4.5593999997e+01 4.5594000000e+01 5.1100000000e-04 0.0000e+00 1.0000e+00
       23  2    1    2    0    0 +0.0000000000e+00 +0.0000000000e+00 +0.0000000000e+00 9.1188000000e+01 9.1188000000e+01 3.3481e-13 0.0000e+00
  9900012  1    3    3    0    0 -1.6768940166e+01 +8.3141316926e+00 -5.9751939182e-01 7.2461570294e+01 7.0000000000e+01 1.7004e-04 1.0000e+00
      -12  1    3    3    0    0 +1.6768940166e+01 -8.3141316926e+00 +5.9751939182e-01 1.8726429706e+01 0.0000000000e+00 0.0000e+00 1.0000e+00
</event>
<event>
 5      2 +6.9480500e-03 9.11880000e+01 7.81616400e-03 1.18400000e-01
      -11 -1    0    0    0    0 +0.0000000000e+00 +0.0000000000e+00 +4.5593999997e+01 4.5594000000e+01 5.1100000000e-04 0.0000e+00 1.0000e+00
       11 -1    0    0    0    0 -0.0000000000e+00 -0.0000000000e+00 -4.5593999997e+01 4.5594000000e+01 5.1100000000e-04 0.0000e+00 -1.0000e+00
       23  2    1    2    0    0 +0.0000000000e+00 +0.0000000000e+00 +0.0000000000e+00 9.1188000000e+01 9.1188000000e+01 5.8736e-14 0.0000e+00
  9900012  1    3    3    0    0 +1.6370172147e+01 +8.9365739050e+00 -1.6835320717e+00 7.2461570294e+01 7.0000000000e+01 2.1976e-04 -1.0000e+00
      -12  1    3    3    0    0 -1.6370172147e+01 -8.9365739050e+00 +1.6835320717e+00 1.8726429706e+01 0.0000000000e+00 0.0000e+00 1.0000e+00
</event>
<event>
 5      1 +6.9480500e-03 9.11880000e+01 7.81616400e-03 1.18400000e-01
      -11 -1    0    0    0    0 +0.0000000000e+00 +0.0000000000e+00 +4.5593999997e+01 4.5594000000e+01 5.1100000000e-04 0.0000e+00 1.0000e+00
       11 -1    0    0    0    0 -0.0000000000e+00 -0.0000000000e+00 -4.5593999997e+01 4.5594000000e+01 5.1100000000e-04 0.0000e+00 -1.0000e+00
       23  2    1    2    0    0 +0.0000000000e+00 +0.0000000000e+00 +0.0000000000e+00 9.1188000000e+01 9.1188000000e+01 2.5156e-14 0.0000e+00
  9900012  1    3    3    0    0 -5.4850688358e+00 +1.7482060657e+01 +3.8692046444e+00 7.2461570294e+01 7.0000000000e+01 2.0661e-04 1.0000e+00
       12  1    3    3    0    0 +5.4850688358e+00 -1.7482060657e+01 -3.8692046444e+00 1.8726429706e+01 0.0000000000e+00 0.0000e+00 -1.0000e+00
</event>
<event>
 5      7 +6.9480500e-03 9.11880000e+01 7.81616400e-03 1.18400000e-01
      -11 -1    0    0    0    0 +0.0000000000e+00 +0.0000000000e+00 +4.5593999997e+01 4.5594000000e+01 5.1100000000e-04 0.0000e+00 -1.0000e+00
       11 -1    0    0    0    0 -0.0000000000e+00 -0.0000000000e+00 -4.5593999997e+01 4.5594000000e+01 5.1100000000e-04 0.0000e+00 1.0000e+00
       23  2    1    2    0    0 +0.0000000000e+00 +0.0000000000e+00 +0.0000000000e+00 9.1188000000e+01 9.1188000000e+01 1.2203e-13 0.0000e+00
  9900012  1    3    3    0    0 +2.8424437963e+00 -8.8434499275e+00 -1.6260168393e+01 7.2461570294e+01 7.0000000000e+01 6.4797e-05 1.0000e+00
       12  1    3    3    0    0 -2.8424437963e+00 +8.8434499275e+00 +1.6260168393e+01 1.8726429706e+01 0.0000000000e+00 0.0000e+00 -1.0000e+00
</event>
<event>
 5      4 +6.9480500e-03 9.11880000e+01 7.81616400e-03 1.18400000e-01
      -11 -1    0    0    0    0 +0.0000000000e+00 +0.0000000000e+00 +4.5593999997e+01 4.5594000000e+01 5.1100000000e-04 0.0000e+00 1.0000e+00
       11 -1    0    0    0    0 -0.0000000000e+00 -0.0000000000e+00 -4.5593999997e+01 4.5594000000e+01 5.1100000000e-04 0.0000e+00 -1.0000e+00
       23  2    1    2    0    0 +0.0000000000e+00 +0.0000000000e+00 +0.0000000000e+00 9.1188000000e+01 9.1188000000e+01 9.9950e-14 0.0000e+00
  9900012  1    3    3    0    0 -7.4931127798e+00 -1.0346132862e+01 -1.3692697513e+01 7.2461570294e+01 7.0000000000e+01 7.8436e-05 -1.0000e+00
      -12  1    3    3    0    0 +7.4931127798e+00 +1.0346132862e+01 +1.3692697513e+01 1.8726429706e+01 0.0000000000e+00 0.0000e+00 1.0000e+00
</event>
<event>
 5      8 +6.9480500e-03 9.11880000e+01 7.81616400e-03 1.18400000e-01
      -11 -1    0    0    0    0 +0.0000000000e+00 +0.0000000000e+00 +4.5593999997e+01 4.5594000000e+01 5.1100000000e-04 0.0000e+00 1.0000e+00
       11 -1    0    0    0    0 -0.0000000000e+00 -0.0000000000e+00 -4.5593999997e+01 4.5594000000e+01 5.1100000000e-04 0.0000e+00 -1.0000e+00
       23  2    1    2    0    0 +0.0000000000e+00 +0.0000000000e+00 +0.0000000000e+00 9.1188000000e+01 9.1188000000e+01 8.7729e-14 0.0000e+00
  9900012  1    3    3    0    0 -4.8128240648e-01 -9.4193326893e+00 -1.6177877131e+01 7.2461570294e+01 7.0000000000e+01 1.2127e-05 -1.0000e+00
      -12  1    3    3    0    0 +4.8128240648e-01 +9.4193326893e+00 +1.6177877131e+01 1.8726429706e+01 0.0000000000e+00 0.0000e+00 1.0000e+00
</event>
<event>
 5      1 +6.9480500e-03 9.11880000e+01 7.81616400e-03 1.18400000e-01
      -11 -1    0    0    0    0 +0.0000000000e+00 +0.0000000000e+00 +4.5593999997e+01 4.5594000000e+01 5.1100000000e-04 0.0000e+00 -1.0000e+00
       11 -1    0    0    0    0 -0.0000000000e+00 -0.0000000000e+00 -4.5593999997e+01 4.5594000000e+01 5.1100000000e-04 0.0000e+00 1.0000e+00
       23  2    1    2    0    0 +0.0000000000e+00 +0.0000000000e+00 +0.0000000000e+00 9.1188000000e+01 9.1188000000e+01 7.3556e-14 0.0000e+00
  9900012  1    3    3    0    0 -6.9265186462e+00 -1.7019786786e+01 -3.6096214093e+00 7.2461570294e+01 7.0000000000e+01 4.7269e-05 1.0000e+00
       12  1    3    3    0    0 +6.9265186462e+00 +1.7019786786e+01 +3.6096214093e+00 1.8726429706e+01 0.0000000000e+00 0.0000e+00 -1.0000e+00
</event>
<event>
 5      2 +6.9480500e-03 9.11880000e+01 7.81616400e-03 1.18400000e-01
      -11 -1    0    0    0    0 +0.0000000000e+00 +0.0000000000e+00 +4.5593999997e+01 4.5594000000e+01 5.1100000000e-04 0.0000e+00 1.0000e+00
       11 -1    0    0    0    0 -0.0000000000e+00 -0.0000000000e+00 -4.5593999997e+01 4.5594000000e+01 5.1100000000e-04 0.0000e+00 -1.0000e+00
       23  2    1    2    0    0 +0.0000000000e+00 +0.0000000000e+00 +0.0000000000e+00 9.1188000000e+01 9.1188000000e+01 3.2184e-14 0.0000e+00
  9900012  1    3    3    0    0 -1.5750480262e+01 -9.4923385720e+00 +3.5351166140e+00 7.2461570294e+01 7.0000000000e+01 9.5976e-05 -1.0000e+00
      -12  1    3    3    0    0 +1.5750480262e+01 +9.4923385720e+00 -3.5351166140e+00 1.8726429706e+01 0.0000000000e+00 0.0000e+00 1.0000e+00
</event>
<event>
 5      1 +6.9480500e-03 9.11880000e+01 7.81616400e-03 1.18400000e-01
      -11 -1    0    0    0    0 +0.0000000000e+00 +0.0000000000e+00 +4.5593999997e+01 4.5594000000e+01 5.1100000000e-04 0.0000e+00 -1.0000e+00
       11 -1    0    0    0    0 -0.0000000000e+00 -0.0000000000e+00 -4.5593999997e+01 4.5594000000e+01 5.1100000000e-04 0.0000e+00 1.0000e+00
       23  2    1    2    0    0 +0.0000000000e+00 +0.0000000000e+00 +0.0000000000e+00 9.1188000000e+01 9.1188000000e+01 4.0008e-14 0.0000e+00
  9900012  1    3    3    0    0 -7.2235264588e+00 +1.6618485967e+01 +4.7250142006e+00 7.2461570294e+01 7.0000000000e+01 2.1083e-05 -1.0000e+00
       12  1    3    3    0    0 +7.2235264588e+00 -1.6618485967e+01 -4.7250142006e+00 1.8726429706e+01 0.0000000000e+00 0.0000e+00 -1.0000e+00
</event>
<event>
 5      7 +6.9480500e-03 9.11880000e+01 7.81616400e-03 1.18400000e-01
      -11 -1    0    0    0    0 +0.0000000000e+00 +0.0000000000e+00 +4.5593999997e+01 4.5594000000e+01 5.1100000000e-04 0.0000e+00 -1.0000e+00
       11 -1    0    0    0    0 -0.0000000000e+00 -0.0000000000e+00 -4.5593999997e+01 4.5594000000e+01 5.1100000000e-04 0.0000e+00 1.0000e+00
       23  2    1    2    0    0 +0.0000000000e+00 +0.0000000000e+00 +0.0000000000e+00 9.1188000000e+01 9.1188000000e+01 7.5967e-14 0.0000e+00
  9900012  1    3    3    0    0 -1.6728637309e+01 -3.3701013669e+00 -7.7119569554e+00 7.2461570294e+01 7.0000000000e+01 4.8294e-07 1.0000e+00
       12  1    3    3    0    0 +1.6728637309e+01 +3.3701013669e+00 +7.7119569554e+00 1.8726429706e+01 0.0000000000e+00 0.0000e+00 -1.0000e+00
</event>
<event>
 5      8 +6.9480500e-03 9.11880000e+01 7.81616400e-03 1.18400000e-01
      -11 -1    0    0    0    0 +0.0000000000e+00 +0.0000000000e+00 +4.5593999997e+01 4.5594000000e+01 5.1100000000e-04 0.0000e+00 -1.0000e+00
       11 -1    0    0    0    0 -0.0000000000e+00 -0.0000000000e+00 -4.5593999997e+01 4.5594000000e+01 5.1100000000e-04 0.0000e+00 1.0000e+00
       23  2    1    2    0    0 +0.0000000000e+00 +0.0000000000e+00 +0.0000000000e+00 9.1188000000e+01 9.1188000000e+01 2.4265e-13 0.0000e+00
  9900012  1    3    3    0    0 +1.0430353793e+01 +1.0309366074e+01 +1.1644907060e+01 7.2461570294e+01 7.0000000000e+01 9.6302e-05 1.0000e+00
      -12  1    3    3    0    0 -1.0430353793e+01 -1.0309366074e+01 -1.1644907060e+01 1.8726429706e+01 0.0000000000e+00 0.0000e+00 1.0000e+00
</event>
<event>
 5      5 +6.9480500e-03 9.11880000e+01 7.81616400e-03 1.18400000e-01
      -11 -1    0    0    0    0 +0.0000000000e+00 +0.0000000000e+00 +4.5593999997e+01 4.5594000000e+01 5.1100000000e-04 0.0000e+00 -1.0000e+00
       11 -1    0    0    0    0 -0.0000000000e+00 -0.0000000000e+00 -4.5593999997e+01 4.5594000000e+01 5.1100000000e-04 0.0000e+00 1.0000e+00
       23  2    1    2    0    0 +0.0000000000e+00 +0.0000000000e+00 +0.0000000000e+00 9.1188000000e+01 9.1188000000e+01 6.4717e-14 0.0000e+00
  9900012  1    3    3    0    0 -5.9293047667e+00 +9.8264493060e+00 -1.4797412225e+01 7.2461570294e+01 7.0000000000e+01 6.0372e-05 1.0000e+00
       12  1    3    3    0    0 +5.9293047667e+00 -9.8264493060e+00 +1.4797412225e+01 1.8726429706e+01 0.0000000000e+00 0.0000e+00 -1.0000e+00
</event>
<event>
 5      8 +6.9480500e-03 9.11880000e+01 7.81616400e-03 1.18400000e-01
      -11 -1    0    0    0    0 +0.0000000000e+00 +0.0000000000e+00 +4.5593999997e+01 4.5594000000e+01 5.1100000000e-04 0.0000e+00 1.0000e+00
       11 -1    0    0    0    0 -0.0000000000e+00 -0.0000000000e+00 -4.5593999997e+01 4.5594000000e+01 5.1100000000e-04 0.0000e+00 -1.0000e+00
       23  2    1    2    0    0 +0.0000000000e+00 +0.0000000000e+00 +0.0000000000e+00 9.1188000000e+01 9.1188000000e+01 2.8049e-14 0.0000e+00
  9900012  1    3    3    0    0 +1.4467923495e+01 +1.0442341300e+01 -5.6847046937e+00 7.2461570294e+01 7.0000000000e+01 3.5167e-04 -1.0000e+00
      -12  1    3    3    0    0 -1.4467923495e+01 -1.0442341300e+01 +5.6847046937e+00 1.8726429706e+01 0.0000000000e+00 0.0000e+00 1.0000e+00
</event>
<event>
 5      6 +6.9480500e-03 9.11880000e+01 7.81616400e-03 1.18400000e-01
      -11 -1    0    0    0    0 +0.0000000000e+00 +0.0000000000e+00 +4.5593999997e+01 4.5594000000e+01 5.1100000000e-04 0.0000e+00 1.0000e+00
       11 -1    0    0    0    0 -0.0000000000e+00 -0.0000000000e+00 -4.5593999997e+01 4.5594000000e+01 5.1100000000e-04 0.0000e+00 -1.0000e+00
       23  2    1    2    0    0 +0.0000000000e+00 +0.0000000000e+00 +0.0000000000e+00 9.1188000000e+01 9.1188000000e+01 8.2327e-14 0.0000e+00
  9900012  1    3    3    0    0 -1.8975165952e+00 -6.5546981190e+00 -1.7438879920e+01 7.2461570294e+01 7.0000000000e+01 2.0884e-05 -1.0000e+00
      -12  1    3    3    0    0 +1.8975165952e+00 +6.5546981190e+00 +1.7438879920e+01 1.8726429706e+01 0.0000000000e+00 0.0000e+00 1.0000e+00
</event>
<event>
 5      4 +6.9480500e-03 9.11880000e+01 7.81616400e-03 1.18400000e-01
      -11 -1    0    0    0    0 +0.0000000000e+00 +0.0000000000e+00 +4.5593999997e+01 4.5594000000e+01 5.1100000000e-04 0.0000e+00 -1.0000e+00
       11 -1    0    0    0    0 -0.0000000000e+00 -0.0000000000e+00 -4.5593999997e+01 4.5594000000e+01 5.1100000000e-04 0.0000e+00 1.0000e+00
       23  2    1    2    0    0 +0.0000000000e+00 +0.0000000000e+00 +0.0000000000e+00 9.1188000000e+01 9.1188000000e+01 9.7198e-16 0.0000e+00
  9900012  1    3    3    0    0 -1.3533785675e+00 -1.7886364429e+01 -5.3782435323e+00 7.2461570294e+01 7.0000000000e+01 6.1608e-04 1.0000e+00
      -12  1    3    3    0    0 +1.3533785675e+00 +1.7886364429e+01 +5.3782435323e+00 1.8726429706e+01 0.0000000000e+00 0.0000e+00 1.0000e+00
</event>
<event>
 5      6 +6.9480500e-03 9.11880000e+01 7.81616400e-03 1.18400000e-01
      -11 -1    0    0    0    0 +0.0000000000e+00 +0.0000000000e+00 +4.5593999997e+01 4.5594000000e+01 5.1100000000e-04 0.0000e+00 -1.0000e+00
       11 -1    0    0    0    0 -0.0000000000e+00 -0.0000000000e+00 -4.5593999997e+01 4.5594000000e+01 5.1100000000e-04 0.0000e+00 1.0000e+00
       23  2    1    2    0    0 +0.0000000000e+00 +0.0000000000e+00 +0.0000000000e+00 9.1188000000e+01 9.1188000000e+01 2.7327e-14 0.0000e+00
  9900012  1    3    3    0    0 -5.8408217829e+00 -1.6553790212e+01 +6.5219628967e+00 7.2461570294e+01 7.0000000000e+01 3.0444e-04 -1.0000e+00
      -12  1    3    3    0    0 +5.8408217829e+00 +1.6553790212e+01 -6.5219628967e+00 1.8726429706e+01 0.0000000000e+00 0.0000e+00 1.0000e+00
</event>
<event>
 5      4 +6.9480500e-03 9.11880000e+01 7.81616400e-03 1.18400000e-01
      -11 -1    0    0    0    0 +0.0000000000e+00 +0.0000000000e+00 +4.5593999997e+01 4.5594000000e+01 5.1100000000e-04 0.0000e+00 -1.0000e+00
       11 -1    0    0    0    0 -0.0000000000e+00 -0.0000000000e+00 -4.5593999997e+01 4.5594000000e+01 5.1100000000e-04 0.0000e+00 1.0000e+00
       23  2    1    2    0    0 +0.0000000000e+00 +0.0000000000e+00 +0.0000000000e+00 9.1188000000e+01 9.1188000000e+01 2.8951e-14 0.0000e+00
  9900012  1    3    3    0    0 -1.5097026860e+00 +4.9899253745e-01 +1.8658804189e+01 7.2461570294e+01 7.0000000000e+01 6.7565e-05 -1.0000e+00
      -12  1    3    3    0    0 +1.5097026860e+00 -4.9899253745e-01 -1.8658804189e+01 1.8726429706e+01 0.0000000000e+00 0.0000e+00 1.0000e+00
</event>
<event>
 5      7 +6.9480500e-03 9.11880000e+01 7.81616400e-03 1.18400000e-01
      -11 -1    0    0    0    0 +0.0000000000e+00 +0.0000000000e+00 +4.5593999997e+01 4.5594000000e+01 5.1100000000e-04 0.0000e+00 1.0000e+00
       11 -1    0    0    0    0 -0.0000000000e+00 -0.0000000000e+00 -4.5593999997e+01 4.5594000000e+01 5.1100000000e-04 0.0000e+00 -1.0000e+00
       23  2    1    2    0    0 +0.0000000000e+00 +0.0000000000e+00 +0.0000000000e+00 9.1188000000e+01 9.1188000000e+01 1.0391e-13 0.0000e+00
  9900012  1    3    3    0    0 +1.8372692669e+01 -1.9464260982e+00 -3.0552837914e+00 7.2461570294e+01 7.0000000000e+01 1.1136e-06 -1.0000e+00
       12  1    3    3    0    0 -1.8372692669e+01 +1.9464260982e+00 +3.0552837914e+00 1.8726429706e+01 0.0000000000e+00 0.0000e+00 -1.0000e+00
</event>
<event>
 5      1 +6.9480500e-03 9.11880000e+01 7.81616400e-03 1.18400000e-01
      -11 -1    0    0    0    0 +0.0000000000e+00 +0.0000000000e+00 +4.5593999997e+01 4.5594000000e+01 5.1100000000e-04 0.0000e+00 1.0000e+00
       11 -1    0    0    0    0 -0.0000000000e+00 -0.0000000000e+00 -4.5593999997e+01 4.5594000000e+01 5.1100000000e-04 0.0000e+00 -1.0000e+00
       23  2    1    2    0    0 +0.0000000000e+00 +0.0000000000e+00 +0.0000000000e+00 9.1188000000e+01 9.1188000000e+01 2.3728e-14 0.0000e+00
  9900012  1    3    3    0    0 -8.7727605314e+00 -1.4597024883e+01 -7.7874711384e+00 7.2461570294e+01 7.0000000000e+01 1.5823e-04 -1.0000e+00
       12  1    3    3    0    0 +8.7727605314e+00 +1.4597024883e+01 +7.7874711384e+00 1.8726429706e+01 0.0000000000e+00 0.0000e+00 -1.0000e+00
</event>
<event>
 5      3 +6.9480500e-03 9.11880000e+01 7.81616400e-03 1.18400000e-01
      -11 -1    0    0    0    0 +0.0000000000e+00 +0.0000000000e+00 +4.5593999997e+01 4.5594000000e+01 5.1100000000e-04 0.0000e+00 -1.0000e+00
       11 -1    0    0    0    0 -0.0000000000e+00 -0.0000000000e+00 -4.5593999997e+01 4.5594000000e+01 5.1100000000e-04 0.0000e+00 1.0000e+00
       23  2    1    2    0    0 +0.0000000000e+00 +0.0000000000e+00 +0.0000000000e+00 9.1188000000e+01 9.1188000000e+01 1.6613e-14 0.0000e+00
  9900012  1    3    3    0    0 -6.1633644861e+00 +1.6339277858e+01 -6.7616645010e+00 7.2461570294e+01 7.0000000000e+01 1.1049e-04 1.0000e+00
       12  1    3    3    0    0 +6.1633644861e+00 -1.6339277858e+01 +6.7616645010e+00 1.8726429706e+01 0.0000000000e+00 0.0000e+00 -1.0000e+00
</event>
<event>
 5      1 +6.9480500e-03 9.11880000e+01 7.81616400e-03 1.18400000e-01
      -11 -1    0    0    0    0 +0.0000000000e+00 +0.0000000000e+00 +4.5593999997e+01 4.5594000000e+01 5.1100000000e-04 0.0000e+00 -1.0000e+00
       11 -1    0    0    0    0 -0.0000000000e+00 -0.0000000000e+00 -4.5593999997e+01 4.5594000000e+01 5.1100000000e-04 0.0000e+00 1.0000e+00
       23  2    1    2    0    0 +0.0000000000e+00 +0.0000000000e+00 +0.0000000000e+00 9.1188000000e+01 9.1188000000e+01 3.6458e-15 0.0000e+00
  9900012  1    3    3    0    0 -3.2088432797e+00 +8.1530238639e+00 -1.6550247618e+01 7.2461570294e+01 7.0000000000e+01 4.9857e-07 1.0000e+00
       12  1    3    3    0    0 +3.2088432797e+00 -8.1530238639e+00 +1.6550247618e+01 1.8726429706e+01 0.0000000000e+00 0.0000e+00 -1.0000e+00
</event>
<event>
 5      2 +6.9480500e-03 9.11880000e+01 7.81616400e-03 1.18400000e-01
      -11 -1    0    0    0    0 +0.0000000000e+00 +0.0000000000e+00 +4.5593999997e+01 4.5594000000e+01 5.1100000000e-04 0.0000e+00 1.0000e+00
       11 -1    0    0    0    0 -0.0000000000e+00 -0.0000000000e+00 -4.5593999997e+01 4.5594000000e+01 5.1100000000e-04 0.0000e+00 -1.0000e+00
       23  2    1    2    0    0 +0.0000000000e+00 +0.0000000000e+00 +0.0000000000e+00 9.1188000000e+01 9.1188000000e+01 1.0121e-13 0.0000e+00
  9900012  1    3    3    0    0 -6.9419602351e+00 -1.7756086639e+00 -1.7301317045e+01 7.2461570294e+01 7.0000000000e+01 3.6788e-04 -1.0000e+00
      -12  1    3    3    0    0 +6.9419602351e+00 +1.7756086639e+00 +1.7301317045e+01 1.8726429706e+01 0.0000000000e+00 0.0000e+00 1.0000e+00
</event>
<event>
 5      7 +6.9480500e-03 9.11880000e+01 7.81616400e-03 1.18400000e-01
      -11 -1    0    0    0    0 +0.0000000000e+00 +0.0000000000e+00 +4.5593999997e+01 4.5594000000e+01 5.1100000000e-04 0.0000e+00 -1.0000e+00
       11 -1    0    0    0    0 -0.0000000000e+00 -0.0000000000e+00 -4.5593999997e+01 4.5594000000e+01 5.1100000000e-04 0.0000e+00 1.0000e+00
       23  2    1    2    0    0 +0.0000000000e+00 +0.0000000000e+00 +0.0000000000e+00 9.1188000000e+01 9.1188000000e+01 1.0498e-13 0.0000e+00
  9900012  1    3    3    0    0 +8.3728751074e+00 -1.5322822794e+01 -6.7664786681e+00 7.2461570294e+01 7.0000000000e+01 2.5047e-05 -1.0000e+00
       12  1    3    3    0    0 -8.3728751074e+00 +1.5322822794e+01 +6.7664786681e+00 1.8726429706e+01 0.0000000000e+00 0.0000e+00 -1.0000e+00
</event>
<event>
 5      2 +6.9480500e-03 9.11880000e+01 7.81616400e-03 1.18400000e-01
      -11 -1    0    0    0    0 +0.0000000000e+00 +0.0000000000e+00 +4.5593999997e+01 4.5594000000e+01 5.1100000000e-04 0.0000e+00 1.0000e+00
       11 -1    0    0    0    0 -0.0000000000e+00 -0.0000000000e+00 -4.5593999997e+01 4.5594000000e+01 5.1100000000e-04 0.0000e+00 -1.0000e+00
       23  2    1    2    0    0 +0.0000000000e+00 +0.0000000000e+00 +0.0000000000e+00 9.1188000000e+01 9.1188000000e+01 1.3472e-13 0.0000e+00
  9900012  1    3    3    0    0 +8.2880740019e+00 -1.3802864974e+01 +9.5638861024e+00 7.2461570294e+01 7.0000000000e+01 3.9212e-05 -1.0000e+00
      -12  1    3    3    0    0 -8.2880740019e+00 +1.3802864974e+01 -9.5638861024e+00 1.8726429706e+01 0.0000000000e+00 0.0000e+00 1.0000e+00
</event>
<event>
 5      8 +6.9480500e-03 9.11880000e+01 7.81616400e-03 1.18400000e-01
      -11 -1    0    0    0    0 +0.0000000000e+00 +0.0000000000e+00 +4.5593999997e+01 4.5594000000e+01 5.1100000000e-04 0.0000e+00 -1.0000e+00
       11 -1    0    0    0    0 -0.0000000000e+00 -0.0000000000e+00 -4.5593999997e+01 4.5594000000e+01 5.1100000000e-04 0.0000e+00 1.0000e+00
       23  2    1    2    0    0 +0.0000000000e+00 +0.0000000000e+00 +0.0000000000e+00 9.1188000000e+01 9.1188000000e+01 4.5216e-14 0.0000e+00
  9900012  1    3    3    0    0 -1.4442672608e+01 -4.3393904977e+00 +1.1102164995e+01 7.2461570294e+01 7.0000000000e+01 4.3254e-05 -1.0000e+00
      -12  1    3    3    0    0 +1.4442672608e+01 +4.3393904977e+00 -1.1102164995e+01 1.8726429706e+01 0.0000000000e+00 0.0000e+00 1.0000e+00
</event>
<event>
 5      2 +6.9480500e-03 9.11880000e+01 7.81616400e-03 1.18400000e-01
      -11 -1    0    0    0    0 +0.0000000000e+00 +0.0000000000e+00 +4.5593999997e+01 4.5594000000e+01 5.1100000000e-04 0.0000e+00 1.0000e+00
       11 -1    0    0    0    0 -0.0000000000e+00 -0.0000000000e+00 -4.5593999997e+01 4.5594000000e+01 5.1100000000e-04 0.0000e+00 -1.0000e+00
       23  2    1    2    0    0 +0.0000000000e+00 +0.0000000000e+00 +0.0000000000e+00 9.1188000000e+01 9.1188000000e+01 1.3628e-13 0.0000e+00
  9900012  1    3    3    0    0 +1.0760455951e-01 -1.2608323940e+01 -1.3845495954e+01 7.2461570294e+01 7.0000000000e+01 1.0657e-04 1.0000e+00
      -12  1    3    3    0    0 -1.0760455951e-01 +1.2608323940e+01 +1.3845495954e+01 1.8726429706e+01 0.0000000000e+00 0.0000e+00 1.0000e+00
</event>
<event>
 5      7 +6.9480500e-03 9.11880000e+01 7.81616400e-03 1.18400000e-01
      -11 -1    0    0    0    0 +0.0000000000e+00 +0.0000000000e+00 +4.5593999997e+01 4.5594000000e+01 5.1100000000e-04 0.0000e+00 1.0000e+00
       11 -1    0    0    0    0 -0.0000000000e+00 -0.0000000000e+00 -4.5593999997e+01 4.5594000000e+01 5.1100000000e-04 0.0000e+00 -1.0000e+00
       23  2    1    2    0    0 +0.0000000000e+00 +0.0000000000e+00 +0.0000000000e+00 9.1188000000e+01 9.1188000000e+01 6.9711e-15 0.0000e+00
  9900012  1    3    3    0    0 -1.4049522583e+01 -7.0778312462e+00 +1.0158463937e+01 7.2461570294e+01 7.0000000000e+01 9.7861e-06 1.0000e+00
       12  1    3    3    0    0 +1.4049522583e+01 +7.0778312462e+00 -1.0158463937e+01 1.8726429706e+01 0.0000000000e+00 0.0000e+00 -1.0000e+00
</event>
<event>
 5      1 +6.9480500e-03 9.11880000e+01 7.81616400e-03 1.18400000e-01
      -11 -1    0    0    0    0 +0.0000000000e+00 +0.0000000000e+00 +4.5593999997e+01 4.5594000000e+01 5.1100000000e-04 0.0000e+00 -1.0000e+00
       11 -1    0    0    0    0 -0.0000000000e+00 -0.0000000000e+00 -4.5593999997e+01 4.5594000000e+01 5.1100000000e-04 0.0000e+00 1.0000e+00
       23  2    1    2    0    0 +0.0000000000e+00 +0.0000000000e+00 +0.0000000000e+00 9.1188000000e+01 9.1188000000e+01 1.0497e-14 0.0000e+00
  9900012  1    3    3    0    0 -1.1298280411e+01 -1.3309989451e+01 -6.7729026342e+00 7.2461570294e+01 7.0000000000e+01 6.7135e-06 -1.0000e+00
       12  1    3    3    0    0 +1.1298280411e+01 +1.3309989451e+01 +6.7729026342e+00 1.8726429706e+01 0.0000000000e+00 0.0000e+00 -1.0000e+00
</event>
<event>
 5      6 +6.9480500e-03 9.11880000e+01 7.81616400e-03 1.18400000e-01
      -11 -1    0    0    0    0 +0.0000000000e+00 +0.0000000000e+00 +4.5593999997e+01 4.5594000000e+01 5.1100000000e-04 0.0000e+00 1.0000e+00
       11 -1    0    0    0    0 -0.0000000000e+00 -0.0000000000e+00 -4.5593999997e+01 4.5594000000e+01 5.1100000000e-04 0.0000e+00 -1.0000e+00
       23  2    1    2    0    0 +0.0000000000e+00 +0.0000000000e+00 +0.0000000000e+00 9.1188000000e+01 9.1188000000e+01 6.0741e-14 0.0000e+00
  9900012  1    3    3    0    0 -1.8296413785e+01 +2.9245128278e+00 -2.7143391162e+00 7.2461570294e+01 7.0000000000e+01 1.1145e-04 -1.0000e+00
      -12  1    3    3    0    0 +1.8296413785e+01 -2.9245128278e+00 +2.7143391162e+00 1.8726429706e+01 0.0000000000e+00 0.0000e+00 1.0000e+00
</event>
<event>
 5      7 +6.9480500e-03 9.11880000e+01 7.81616400e-03 1.18400000e-01
      -11 -1    0    0    0    0 +0.0000000000e+00 +0.0000000000e+00 +4.5593999997e+01 4.5594000000e+01 5.1100000000e-04 0.0000e+00 1.0000e+00
       11 -1    0    0    0    0 -0.0000000000e+00 -0.0000000000e+00 -4.5593999997e+01 4.5594000000e+01 5.1100000000e-04 0.0000e+00 -1.0000e+00
       23  2    1    2    0    0 +0.0000000000e+00 +0.0000000000e+00 +0.0000000000e+00 9.1188000000e+01 9.1188000000e+01 6.9963e-14 0.0000e+00
  9900012  1    3    3    0    0 +5.7517715208e+00 +3.4166873534e+00 +1.7490641538e+01 7.2461570294e+01 7.0000000000e+01 1.5073e-04 1.0000e+00
       12  1    3    3    0    0 -5.7517715208e+00 -3.4166873534e+00 -1.7490641538e+01 1.8726429706e+01 0.0000000000e+00 0.0000e+00 -1.0000e+00
</event>
<event>
 5      1 +6.9480500e-03 9.11880000e+01 7.81616400e-03 1.18400000e-01
      -11 -1    0    0    0    0 +0.0000000000e+00 +0.0000000000e+00 +4.5593999997e+01 4.5594000000e+01 5.1100000000e-04 0.0000e+00 -1.0000e+00
       11 -1    0    0    0    0 -0.0000000000e+00 -0.0000000000e+00 -4.5593999997e+01 4.5594000000e+01 5.1100000000e-04 0.0000e+00 1.0000e+00
       23  2    1    2    0    0 +0.0000000000e+00 +0.0000000000e+00 +0.0000000000e+00 9.1188000000e+01 9.1188000000e+01 1.7579e-13 0.0000e+00
  9900012  1    3    3    0    0 +1.3109118250e+01 +1.0484770326e+01 -8.3005891020e+00 7.2461570294e+01 7.0000000000e+01 1.5882e-05 1.0000e+00
       12  1    3    3    0    0 -1.3109118250e+01 -1.0484770326e+01 +8.3005891020e+00 1.8726429706e+01 0.0000000000e+00 0.0000e+00 -1.0000e+00
</event>
<event>
 5      8 +6.9480500e-03 9.11880000e+01 7.81616400e-03 1.18400000e-01
      -11 -1    0    0    0    0 +0.0000000000e+00 +0.0000000000e+00 +4.5593999997e+01 4.5594000000e+01 5.1100000000e-04 0.0000e+00 -1.0000e+00
       11 -1    0    0    0    0 -0.0000000000e+00 -0.0000000000e+00 -4.5593999997e+01 4.5594000000e+01 5.1100000000e-04 0.0000e+00 1.0000e+00
       23  2    1    2    0    0 +0.0000000000e+00 +0.0000000000e+00 +0.0000000000e+00 9.1188000000e+01 9.1188000000e+01 3.0946e-15 0.0000e+00
  9900012  1    3    3    0    0 -4.8272633120e+00 +3.2775613328e-01 +1.8090585241e+01 7.2461570294e+01 7.0000000000e+01 9.2905e-05 -1.0000e+00
      -12  1    3    3    0    0 +4.8272633120e+00 -3.2775613328e-01 -1.8090585241e+01 1.8726429706e+01 0.0000000000e+00 0.0000e+00 1.0000e+00
</event>
<event>
 5      7 +6.9480500e-03 9.11880000e+01 7.81616400e-03 1.18400000e-01
      -11 -1    0    0    0    0 +0.0000000000e+00 +0.0000000000e+00 +4.5593999997e+01 4.5594000000e+01 5.1100000000e-04 0.0000e+00 1.0000e+00
       11 -1    0    0    0    0 -0.0000000000e+00 -0.0000000000e+00 -4.5593999997e+01 4.5594000000e+01 5.1100000000e-04 0.0000e+00 -1.0000e+00
       23  2    1    2    0    0 +0.0000000000e+00 +0.0000000000e+00 +0.0000000000e+00 9.1188000000e+01 9.1188000000e+01 5.0414e-14 0.0000e+00
  9900012  1    3    3    0    0 -7.2649863644e+00 -1.2977124835e+01 +1.1379515528e+01 7.2461570294e+01 7.0000000000e+01 6.4933e-05 1.0000e+00
       12  1    3    3    0    0 +7.2649863644e+00 +1.2977124835e+01 -1.1379515528e+01 1.8726429706e+01 0.0000000000e+00 0.0000e+00 -1.0000e+00
</event>
<event>
 5      6 +6.9480500e-03 9.11880000e+01 7.81616400e-03 1.18400000e-01
      -11 -1    0    0    0    0 +0.0000000000e+00 +0.0000000000e+00 +4.5593999997e+01 4.5594000000e+01 5.1100000000e-04 0.0000e+00 1.0000e+00
       11 -1    0    0    0    0 -0.0000000000e+00 -0.0000000000e+00 -4.5593999997e+01 4.5594000000e+01 5.1100000000e-04 0.0000e+00 -1.0000e+00
       23  2    1    2    0    0 +0.0000000000e+00 +0.0000000000e+00 +0.0000000000e+00 9.1188000000e+01 9.1188000000e+01 2.4319e-14 0.0000e+00
  9900012  1    3    3    0    0 +5.7804082783e+00 +1.7192281001e+01 -4.6574159835e+00 7.2461570294e+01 7.0000000000e+01 1.5427e-04 -1.0000e+00
      -12  1    3    3    0    0 -5.7804082783e+00 -1.7192281001e+01 +4.6574159835e+00 1.8726429706e+01 0.0000000000e+00 0.0000e+00 1.0000e+00
</event>
<event>
 5      1 +6.9480500e-03 9.11880000e+01 7.81616400e-03 1.18400000e-01
      -11 -1    0    0    0    0 +0.0000000000e+00 +0.0000000000e+00 +4.5593999997e+01 4.5594000000e+01 5.1100000000e-04 0.0000e+00 -1.0000e+00
       11 -1    0    0    0    0 -0.0000000000e+00 -0.0000000000e+00 -4.5593999997e+01 4.5594000000e+01 5.1100000000e-04 0.0000e+00 1.0000e+00
       23  2    1    2    0    0 +0.0000000000e+00 +0.0000000000e+00 +0.0000000000e+00 9.1188000000e+01 9.1188000000e+01 6.8824e-14 0.0000e+00
  9900012  1    3    3    0    0 -3.4134991282e+00 +1.1756254744e+01 -1.4171015052e+01 7.2461570294e+01 7.0000000000e+01 6.4410e-05 1.0000e+00
       12  1    3    3    0    0 +3.4134991282e+00 -1.1756254744e+01 +1.4171015052e+01 1.8726429706e+01 0.0000000000e+00 0.0000e+00 -1.0000e+00
</event>
<event>
 5      6 +6.9480500e-03 9.11880000e+01 7.81616400e-03 1.18400000e-01
      -11 -1    0    0    0    0 +0.0000000000e+00 +0.0000000000e+00 +4.5593999997e+01 4.5594000000e+01 5.1100000000e-04 0.0000e+00 1.0000e+00
       11 -1    0    0    0    0 -0.0000000000e+00 -0.0000000000e+00 -4.5593999997e+01 4.5594000000e+01 5.1100000000e-04 0.0000e+00 -1.0000e+00
       23  2    1    2    0    0 +0.0000000000e+00 +0.0000000000e+00 +0.0000000000e+00 9.1188000000e+01 9.1188000000e+01 9.3787e-14 0.0000e+00
  9900012  1    3    3    0    0 -1.0477646623e+01 +3.5933422122e+00 -1.5099204698e+01 7.2461570294e+01 7.0000000000e+01 3.8630e-05 -1.0000e+00
      -12  1    3    3    0    0 +1.0477646623e+01 -3.5933422122e+00 +1.5099204698e+01 1.8726429706e+01 0.0000000000e+00 0.0000e+00 1.0000e+00
</event>
<event>
 5      5 +6.9480500e-03 9.11880000e+01 7.81616400e-03 1.18400000e-01
      -11 -1    0    0    0    0 +0.0000000000e+00 +0.0000000000e+00 +4.5593999997e+01 4.5594000000e+01 5.1100000000e-04 0.0000e+00 -1.0000e+00
       11 -1    0    0    0    0 -0.0000000000e+00 -0.0000000000e+00 -4.5593999997e+01 4.5594000000e+01 5.1100000000e-04 0.0000e+00 1.0000e+00
       23  2    1    2    0    0 +0.0000000000e+00 +0.0000000000e+00 +0.0000000000e+00 9.1188000000e+01 9.1188000000e+01 9.3871e-14 0.0000e+00
  9900012  1    3    3    0    0 +5.0193758107e+00 -1.4902074120e+01 -1.0169229220e+01 7.2461570294e+01 7.0000000000e+01 2.7059e-04 1.0000e+00
       12  1    3    3    0    0 -5.0193758107e+00 +1.4902074120e+01 +1.0169229220e+01 1.8726429706e+01 0.0000000000e+00 0.0000e+00 -1.0000e+00
</event>
<event>
 5      5 +6.9480500e-03 9.11880000e+01 7.81616400e-03 1.18400000e-01
      -11 -1    0    0    0    0 +0.0000000000e+00 +0.0000000000e+00 +4.5593999997e+01 4.5594000000e+01 5.1100000000e-04 0.0000e+00 1.0000e+00
       11 -1    0    0    0    0 -0.0000000000e+00 -0.0000000000e+00 -4.5593999997e+01 4.5594000000e+01 5.1100000000e-04 0.0000e+00 -1.0000e+00
       23  2    1    2    0    0 +0.0000000000e+00 +0.0000000000e+00 +0.0000000000e+00 9.1188000000e+01 9.1188000000e+01 3.9042e-14 0.0000e+00
  9900012  1    3    3    0    0 +4.5039693781e+00 +4.7703299460e+00 +1.7539594681e+01 7.2461570294e+01 7.0000000000e+01 7.7886e-05 1.0000e+00
       12  1    3    3    0    0 -4.5039693781e+00 -4.7703299460e+00 -1.7539594681e+01 1.8726429706e+01 0.0000000000e+00 0.0000e+00 -1.0000e+00
</event>
<event>
 5      5 +6.9480500e-03 9.11880000e+01 7.81616400e-03 1.18400000e-01
      -11 -1    0    0    0    0 +0.0000000000e+00 +0.0000000000e+00 +4.5593999997e+01 4.5594000000e+01 5.1100000000e-04 0.0000e+00 1.0000e+00
       11 -1    0    0    0    0 -0.0000000000e+00 -0.0000000000e+00 -4.5593999997e+01 4.5594000000e+01 5.1100000000e-04 0.0000e+00 -1.0000e+00
       23  2    1    2    0    0 +0.0000000000e+00 +0.0000000000e+00 +0.0000000000e+00 9.1188000000e+01 9.1188000000e+01 1.8201e-13 0.0000e+00
  9900012  1    3    3    0    0 -1.3090366642e+01 +5.3780670102e+00 +1.2263680766e+01 7.2461570294e+01 7.0000000000e+01 1.8319e-04 1.0000e+00
       12  1    3    3    0    0 +1.3090366642e+01 -5.3780670102e+00 -1.2263680766e+01 1.8726429706e+01 0.0000000000e+00 0.0000e+00 -1.0000e+00
</event>
<event>
 5      7 +6.9480500e-03 9.11880000e+01 7.81616400e-03 1.18400000e-01
      -11 -1    0    0    0    0 +0.0000000000e+00 +0.0000000000e+00 +4.5593999997e+01 4.5594000000e+01 5.1100000000e-04 0.0000e+00 1.0000e+00
       11 -1    0    0    0    0 -0.0000000000e+00 -0.0000000000e+00 -4.5593999997e+01 4.5594000000e+01 5.1100000000e-04 0.0000e+00 -1.0000e+00
       23  2    1    2    0    0 +0.0000000000e+00 +0.0000000000e+00 +0.0000000000e+00 9.1188000000e+01 9.1188000000e+01 2.4580e-15 0.0000e+00
  9900012  1    3    3    0    0 +1.9443314560e+00 -4.4629557443e+00 +1.8082609622e+01 7.2461570294e+01 7.0000000000e+01 1.4301e-04 1.0000e+00
       12  1    3    3    0    0 -1.9443314560e+00 +4.4629557443e+00 -1.8082609622e+01 1.8726429706e+01 0.0000000000e+00 0.0000e+00 -1.0000e+00
</event>
<event>
 5      7 +6.9480500e-03 9.11880000e+01 7.81616400e-03 1.18400000e-01
      -11 -1    0    0    0    0 +0.0000000000e+00 +0.0000000000e+00 +4.5593999997e+01 4.5594000000e+01 5.1100000000e-04 0.0000e+00 -1.0000e+00
       11 -1    0    0    0    0 -0.0000000000e+00 -0.0000000000e+00 -4.5593999997e+01 4.5594000000e+01 5.1100000000e-04 0.0000e+00 1.0000e+00
       23  2    1    2    0    0 +0.0000000000e+00 +0.0000000000e+00 +0.0000000000e+00 9.1188000000e+01 9.1188000000e+01 2.2327e-14 0.0000e+00
  9900012  1    3    3    0    0 -9.0082784713e+00 -8.7175650087e+00 -1.3911655143e+01 7.2461570294e+01 7.0000000000e+01 7.9914e-05 1.0000e+00
       12  1    3    3    0    0 +9.0082784713e+00 +8.7175650087e+00 +1.3911655143e+01 1.8726429706e+01 0.0000000000e+00 0.0000e+00 -1.0000e+00
</event>
<event>
 5      3 +6.9480500e-03 9.11880000e+01 7.81616400e-03 1.18400000e-01
      -11 -1    0    0    0    0 +0.0000000000e+00 +0.0000000000e+00 +4.5593999997e+01 4.5594000000e+01 5.1100000000e-04 0.0000e+00 1.0000e+00
       11 -1    0    0    0    0 -0.0000000000e+00 -0.0000000000e+00 -4.5593999997e+01 4.5594000000e+01 5.1100000000e-04 0.0000e+00 -1.0000e+00
       23  2    1    2    0    0 +0.0000000000e+00 +0.0000000000e+00 +0.0000000000e+00 9.1188000000e+01 9.1188000000e+01 1.1154e-13 0.0000e+00
  9900012  1    3    3    0    0 -1.1945085318e+01 -1.0070083554e-01 +1.4421649198e+01 7.2461570294e+01 7.0000000000e+01 7.6229e-05 1.0000e+00
       12  1    3    3    0    0 +1.1945085318e+01 +1.0070083554e-01 -1.4421649198e+01 1.8726429706e+01 0.0000000000e+00 0.0000e+00 -1.0000e+00
</event>
<event>
 5      6 +6.9480500e-03 9.11880000e+01 7.81616400e-03 1.18400000e-01
      -11 -1    0    0    0    0 +0.0000000000e+00 +0.0000000000e+00 +4.5593999997e+01 4.5594000000e+01 5.1100000000e-04 0.0000e+00 -1.0000e+00
       11 -1    0    0    0    0 -0.0000000000e+00 -0.0000000000e+00 -4.5593999997e+01 4.5594000000e+01 5.1100000000e-04 0.0000e+00 1.0000e+00
       23  2    1    2    0    0 +0.0000000000e+00 +0.0000000000e+00 +0.0000000000e+00 9.1188000000e+01 9.1188000000e+01 6.5645e-14 0.0000e+00
  9900012  1    3    3    0    0 +1.2754949422e+01 -1.2206053772e+00 +1.3656520687e+01 7.2461570294e+01 7.0000000000e+01 2.9189e-05 -1.0000e+00
      -12  1    3    3    0    0 -1.2754949422e+01 +1.2206053772e+00 -1.3656520687e+01 1.8726429706e+01 0.0000000000e+00 0.0000e+00 1.0000e+00
</event>
<event>
 5      3 +6.9480500e-03 9.11880000e+01 7.81616400e-03 1.18400000e-01
      -11 -1    0    0    0    0 +0.0000000000e+00 +0.0000000000e+00 +4.5593999997e+01 4.5594000000e+01 5.1100000000e-04 0.0000e+00 -1.0000e+00
       11 -1    0    0    0    0 -0.0000000000e+00 -0.0000000000e+00 -4.5593999997e+01 4.5594000000e+01 5.1100000000e-04 0.0000e+00 1.0000e+00
       23  2    1    2    0    0 +0.0000000000e+00 +0.0000000000e+00 +0.0000000000e+00 9.1188000000e+01 9.1188000000e+01 1.1457e-14 0.0000e+00
  9900012  1    3    3    0    0 +4.5868991701e+00 -8.0891795863e+00 -1.6254374769e+01 7.2461570294e+01 7.0000000000e+01 1.9709e-04 1.0000e+00
       12  1    3    3    0    0 -4.5868991701e+00 +8.0891795863e+00 +1.6254374769e+01 1.8726429706e+01 0.0000000000e+00 0.0000e+00 -1.0000e+00
</event>
<event>
 5      3 +6.9480500e-03 9.11880000e+01 7.81616400e-03 1.18400000e-01
      -11 -1    0    0    0    0 +0.0000000000e+00 +0.0000000000e+00 +4.5593999997e+01 4.5594000000e+01 5.1100000000e-04 0.0000e+00 -1.0000e+00
       11 -1    0    0    0    0 -0.0000000000e+00 -0.0000000000e+00 -4.5593999997e+01 4.5594000000e+01 5.1100000000e-04 0.0000e+00 1.0000e+00
       23  2    1    2    0    0 +0.0000000000e+00 +0.0000000000e+00 +0.0000000000e+00 9.1188000000e+01 9.1188000000e+01 7.7384e-14 0.0000e+00
  9900012  1    3    3    0    0 +8.1199759622e+00 +1.2337854459e+01 -1.1511842043e+01 7.2461570294e+01 7.0000000000e+01 2.6296e-05 1.0000e+00
       12  1    3    3    0    0 -8.1199759622e+00 -1.2337854459e+01 +1.1511842043e+01 1.8726429706e+01 0.0000000000e+00 0.0000e+00 -1.0000e+00
</event>
<event>
 5      7 +6.9480500e-03 9.11880000e+01 7.81616400e-03 1.18400000e-01
      -11 -1    0    0    0    0 +0.0000000000e+00 +0.0000000000e+00 +4.5593999997e+01 4.5594000000e+01 5.1100000000e-04 0.0000e+00 1.0000e+00
       11 -1    0    0    0    0 -0.0000000000e+00 -0.0000000000e+00 -4.5593999997e+01 4.5594000000e+01 5.1100000000e-04 0.0000e+00 -1.0000e+00
       23  2    1    2    0    0 +0.0000000000e+00 +0.0000000000e+00 +0.0000000000e+00 9.1188000000e+01 9.1188000000e+01 9.1235e-14 0.0000e+00
  9900012  1    3    3    0    0 -5.4434325940e+00 -9.8155396301e+00 -1.4990109836e+01 7.2461570294e+01 7.0000000000e+01 1.7553e-04 1.0000e+00
       12  1    3    3    0    0 +5.4434325940e+00 +9.8155396301e+00 +1.4990109836e+01 1.8726429706e+01 0.0000000000e+00 0.0000e+00 -1.0000e+00
</event>
<event>
 5      5 +6.9480500e-03 9.11880000e+01 7.81616400e-03 1.18400000e-01
      -11 -1    0    0    0    0 +0.0000000000e+00 +0.0000000000e+00 +4.5593999997e+01 4.5594000000e+01 5.1100000000e-04 0.0000e+00 1.0000e+00
       11 -1    0    0    0    0 -0.0000000000e+00 -0.0000000000e+00 -4.5593999997e+01 4.5594000000e+01 5.1100000000e-04 0.0000e+00 -1.0000e+00
       23  2    1    2    0    0 +0.0000000000e+00 +0.0000000000e+00 +0.0000000000e+00 9.1188000000e+01 9.1188000000e+01 1.6192e-13 0.0000e+00
  9900012  1    3    3    0    0 +6.0807077652e+00 +9.8418196224e+00 +1.4725581453e+01 7.2461570294e+01 7.0000000000e+01 1.2538e-04 1.0000e+00
       12  1    3    3    0    0 -6.0807077652e+00 -9.8418196224e+00 -1.4725581453e+01 1.8726429706e+01 0.0000000000e+00 0.0000e+00 -1.0000e+00
</event>
<event>
 5      2 +6.9480500e-03 9.11880000e+01 7.81616400e-03 1.18400000e-01
      -11 -1    0    0    0    0 +0.0000000000e+00 +0.0000000000e+00 +4.5593999997e+01 4.5594000000e+01 5.1100000000e-04 0.0000e+00 -1.0000e+00
       11 -1    0    0    0    0 -0.0000000000e+00 -0.0000000000e+00 -4.5593999997e+01 4.5594000000e+01 5.1100000000e-04 0.0000e+00 1.0000e+00
       23  2    1    2    0    0 +0.0000000000e+00 +0.0000000000e+00 +0.0000000000e+00 9.1188000000e+01 9.1188000000e+01 6.8331e-15 0.0000e+00
  9900012  1    3    3    0    0 +3.7379023227e+00 +1.6092190897e+01 +8.8175193729e+00 7.2461570294e+01 7.0000000000e+01 1.7556e-04 -1.0000e+00
      -12  1    3    3    0    0 -3.7379023227e+00 -1.6092190897e+01 -8.8175193729e+00 1.8726429706e+01 0.0000000000e+00 0.0000e+00 1.0000e+00
</event>
<event>
 5      4 +6.9480500e-03 9.11880000e+01 7.81616400e-03 1.18400000e-01
      -11 -1    0    0    0    0 +0.0000000000e+00 +0.0000000000e+00 +4.5593999997e+01 4.5594000000e+01 5.1100000000e-04 0.0000e+00 -1.0000e+00
       11 -1    0    0    0    0 -0.0000000000e+00 -0.0000000000e+00 -4.5593999997e+01 4.5594000000e+01 5.1100000000e-04 0.0000e+00 1.0000e+00
       23  2    1    2    0    0 +0.0000000000e+00 +0.0000000000e+00 +0.0000000000e+00 9.1188000000e+01 9.1188000000e+01 4.8137e-15 0.0000e+00
  9900012  1    3    3    0    0 +1.6201841207e+01 -9.2841368100e+00 -1.4086570607e+00 7.2461570294e+01 7.0000000000e+01 7.2625e-05 -1.0000e+00
      -12  1    3    3    0    0 -1.6201841207e+01 +9.2841368100e+00 +1.4086570607e+00 1.8726429706e+01 0.0000000000e+00 0.0000e+00 1.0000e+00
</event>
<event>
 5      6 +6.9480500e-03 9.11880000e+01 7.81616400e-03 1.18400000e-01
      -11 -1    0    0    0    0 +0.0000000000e+00 +0.0000000000e+00 +4.5593999997e+01 4.5594000000e+01 5.1100000000e-04 0.0000e+00 1.0000e+00
       11 -1    0    0    0    0 -0.0000000000e+00 -0.0000000000e+00 -4.5593999997e+01 4.5594000000e+01 5.1100000000e-04 0.0000e+00 -1.0000e+00
       23  2    1    2    0    0 +0.0000000000e+00 +0.0000000000e+00 +0.0000000000e+00 9.1188000000e+01 9.1188000000e+01 2.6205e-14 0.0000e+00
  9900012  1    3    3    0    0 -1.6715006987e+01 +6.4101299842e-01 -8.4188368122e+00 7.2461570294e+01 7.0000000000e+01 2.9033e-05 -1.0000e+00
      -12  1    3    3    0    0 +1.6715006987e+01 -6.4101299842e-01 +8.4188368122e+00 1.8726429706e+01 0.0000000000e+00 0.0000e+00 1.0000e+00
</event>
<event>
 5      1 +6.9480500e-03 9.11880000e+01 7.81616400e-03 1.18400000e-01
      -11 -1    0    0    0    0 +0.0000000000e+00 +0.0000000000e+00 +4.5593999997e+01 4.5594000000e+01 5.1100000000e-04 0.0000e+00 -1.0000e+00
       11 -1    0    0    0    0 -0.0000000000e+00 -0.0000000000e+00 -4.5593999997e+01 4.5594000000e+01 5.1100000000e-04 0.0000e+00 1.0000e+00
       23  2    1    2    0    0 +0.0000000000e+00 +0.0000000000e+00 +0.0000000000e+00 9.1188000000e+01 9.1188000000e+01 2.7519e-14 0.0000e+00
  9900012  1    3    3    0    0 +1.7876964577e+01 +5.5136963075e+00 +8.3214184418e-01 7.2461570294e+01 7.0000000000e+01 1.1280e-04 1.0000e+00
       12  1    3    3    0    0 -1.7876964577e+01 -5.5136963075e+00 -8.3214184418e-01 1.8726429706e+01 0.0000000000e+00 0.0000e+00 -1.0000e+00
</event>
<event>
 5      3 +6.9480500e-03 9.11880000e+01 7.81616400e-03 1.18400000e-01
      -11 -1    0    0    0    0 +0.0000000000e+00 +0.0000000000e+00 +4.5593999997e+01 4.5594000000e+01 5.1100000000e-04 0.0000e+00 1.0000e+00
       11 -1    0    0    0    0 -0.0000000000e+00 -0.0000000000e+00 -4.5593999997e+01 4.5594000000e+01 5.1100000000e-04 0.0000e+00 -1.0000e+00
       23  2    1    2    0    0 +0.0000000000e+00 +0.0000000000e+00 +0.0000000000e+00 9.1188000000e+01 9.1188000000e+01 9.3473e-14 0.0000e+00
  9900012  1    3    3    0    0 +1.8619803457e+01 -1.2857936652e+00 -1.5260482956e+00 7.2461570294e+01 7.0000000000e+01 3.5680e-05 1.0000e+00
       12  1    3    3    0    0 -1.8619803457e+01 +1.2857936652e+00 +1.5260482956e+00 1.8726429706e+01 0.0000000000e+00 0.0000e+00 -1.0000e+00
</event>
<event>
 5      1 +6.9480500e-03 9.11880000e+01 7.81616400e-03 1.18400000e-01
      -11 -1    0    0    0    0 +0.0000000000e+00 +0.0000000000e+00 +4.5593999997e+01 4.5594000000e+01 5.1100000000e-04 0.0000e+00 1.0000e+00
       11 -1    0    0    0    0 -0.0000000000e+00 -0.0000000000e+00 -4.5593999997e+01 4.5594000000e+01 5.1100000000e-04 0.0000e+00 -1.0000e+00
       23  2    1    2    0    0 +0.0000000000e+00 +0.0000000000e+00 +0.0000000000e+00 9.1188000000e+01 9.1188000000e+01 1.0375e-13 0.0000e+00
  9900012  1    3    3    0    0 -1.8563094463e+01 +1.8167710881e+00 +1.6703401753e+00 7.2461570294e+01 7.0000000000e+01 3.5179e-04 1.0000e+00
       12  1    3    3    0    0 +1.8563094463e+01 -1.8167710881e+00 -1.6703401753e+00 1.8726429706e+01 0.0000000000e+00 0.0000e+00 -1.0000e+00
</event>
<event>
 5      3 +6.9480500e-03 9.11880000e+01 7.81616400e-03 1.18400000e-01
      -11 -1    0    0    0    0 +0.0000000000e+00 +0.0000000000e+00 +4.5593999997e+01 4.5594000000e+01 5.1100000000e-04 0.0000e+00 1.0000e+00
       11 -1    0    0    0    0 -0.0000000000e+00 -0.0000000000e+00 -4.5593999997e+01 4.5594000000e+01 5.1100000000e-04 0.0000e+00 -1.0000e+00
       23  2    1    2    0    0 +0.0000000000e+00 +0.0000000000e+00 +0.0000000000e+00 9.1188000000e+01 9.1188000000e+01 2.6032e-14 0.0000e+00
  9900012  1    3    3    0    0 +5.1200031735e+00 +1.5509281706e+01 +9.1611635723e+00 7.2461570294e+01 7.0000000000e+01 5.0719e-05 1.0000e+00
       12  1    3    3    0    0 -5.1200031735e+00 -1.5509281706e+01 -9.1611635723e+00 1.8726429706e+01 0.0000000000e+00 0.0000e+00 -1.0000e+00
</event>
<event>
 5      6 +6.9480500e-03 9.11880000e+01 7.81616400e-03 1.18400000e-01
      -11 -1    0    0    0    0 +0.0000000000e+00 +0.0000000000e+00 +4.5593999997e+01 4.5594000000e+01 5.1100000000e-04 0.0000e+00 1.0000e+00
       11 -1    0    0    0    0 -0.0000000000e+00 -0.0000000000e+00 -4.5593999997e+01 4.5594000000e+01 5.1100000000e-04 0.0000e+00 -1.0000e+00
       23  2    1    2    0    0 +0.0000000000e+00 +0.0000000000e+00 +0.0000000000e+00 9.1188000000e+01 9.1188000000e+01 3.6705e-15 0.0000e+00
  9900012  1    3    3    0    0 -9.4419590841e-02 -1.8317548491e+01 +3.8907160956e+00 7.2461570294e+01 7.0000000000e+01 1.3619e-04 -1.0000e+00
      -12  1    3    3    0    0 +9.4419590841e-02 +1.8317548491e+01 -3.8907160956e+00 1.8726429706e+01 0.0000000000e+00 0.0000e+00 1.0000e+00
</event>
<event>
 5      8 +6.9480500e-03 9.11880000e+01 7.81616400e-03 1.18400000e-01
      -11 -1    0    0    0    0 +0.0000000000e+00 +0.0000000000e+00 +4.5593999997e+01 4.5594000000e+01 5.1100000000e-04 0.0000e+00 1.0000e+00
       11 -1    0    0    0    0 -0.0000000000e+00 -0.0000000000e+00 -4.5593999997e+01 4.5594000000e+01 5.1100000000e-04 0.0000e+00 -1.0000e+00
       23  2    1    2    0    0 +0.0000000000e+00 +0.0000000000e+00 +0.0000000000e+00 9.1188000000e+01 9.1188000000e+01 5.6289e-14 0.0000e+00
  9900012  1    3    3    0    0 -8.8178381392e+00 -1.2673712026e+01 -1.0597260191e+01 7.2461570294e+01 7.0000000000e+01 3.7755e-05 -1.0000e+00
      -12  1    3    3    0    0 +8.8178381392e+00 +1.2673712026e+01 +1.0597260191e+01 1.8726429706e+01 0.0000000000e+00 0.0000e+00 1.0000e+00
</event>
<event>
 5      4 +6.9480500e-03 9.11880000e+01 7.81616400e-03 1.18400000e-01
      -11 -1    0    0    0    0 +0.0000000000e+00 +0.0000000000e+00 +4.5593999997e+01 4.5594000000e+01 5.1100000000e-04 0.0000e+00 1.0000e+00
       11 -1    0    0    0    0 -0.0000000000e+00 -0.0000000000e+00 -4.5593999997e+01 4.5594000000e+01 5.1100000000e-04 0.0000e+00 -1.0000e+00
       23  2    1    2    0    0 +0.0000000000e+00 +0.0000000000e+00 +0.0000000000e+00 9.1188000000e+01 9.1188000000e+01 3.2423e-15 0.0000e+00
  9900012  1    3    3    0    0 +6.2229773176e-01 +1.7822623583e+01 -5.7136681444e+00 7.2461570294e+01 7.0000000000e+01 3.4921e-05 1.0000e+00
      -12  1    3    3    0    0 -6.2229773176e-01 -1.7822623583e+01 +5.7136681444e+00 1.8726429706e+01 0.0000000000e+00 0.0000e+00 1.0000e+00
</event>
<event>
 5      4 +6.9480500e-03 9.11880000e+01 7.81616400e-03 1.18400000e-01
      -11 -1    0    0    0    0 +0.0000000000e+00 +0.0000000000e+00 +4.5593999997e+01 4.5594000000e+01 5.1100000000e-04 0.0000e+00 -1.0000e+00
       11 -1    0    0    0    0 -0.0000000000e+00 -0.0000000000e+00 -4.5593999997e+01 4.5594000000e+01 5.1100000000e-04 0.0000e+00 1.0000e+00
       23  2    1    2    0    0 +0.0000000000e+00 +0.0000000000e+00 +0.0000000000e+00 9.1188000000e+01 9.1188000000e+01 2.2923e-14 0.0000e+00
  9900012  1    3    3    0    0 -1.5472460072e+01 -1.0459334156e+01 +1.3727628479e+00 7.2461570294e+01 7.0000000000e+01 7.4398e-05 -1.0000e+00
      -12  1    3    3    0    0 +1.5472460072e+01 +1.0459334156e+01 -1.3727628479e+00 1.8726429706e+01 0.0000000000e+00 0.0000e+00 1.0000e+00
</event>
<event>
 5      6 +6.9480500e-03 9.11880000e+01 7.81616400e-03 1.18400000e-01
      -11 -1    0    0    0    0 +0.0000000000e+00 +0.0000000000e+00 +4.5593999997e+01 4.5594000000e+01 5.1100000000e-04 0.0000e+00 1.0000e+00
       11 -1    0    0    0    0 -0.0000000000e+00 -0.0000000000e+00 -4.5593999997e+01 4.5594000000e+01 5.1100000000e-04 0.0000e+00 -1.0000e+00
       23  2    1    2    0    0 +0.0000000000e+00 +0.0000000000e+00 +0.0000000000e+00 9.1188000000e+01 9.1188000000e+01 1.5482e-14 0.0000e+00
  9900012  1    3    3    0    0 -1.1343510272e+00 +1.6446857138e+01 +8.8821904708e+00 7.2461570294e+01 7.0000000000e+01 5.5483e-06 1.0000e+00
      -12  1    3    3    0    0 +1.1343510272e+00 -1.6446857138e+01 -8.8821904708e+00 1.8726429706e+01 0.0000000000e+00 0.0000e+00 1.0000e+00
</event>
<event>
 5      8 +6.9480500e-03 9.11880000e+01 7.81616400e-03 1.18400000e-01
      -11 -1    0    0    0    0 +0.0000000000e+00 +0.0000000000e+00 +4.5593999997e+01 4.5594000000e+01 5.1100000000e-04 0.0000e+00 -1.0000e+00
       11 -1    0    0    0    0 -0.0000000000e+00 -0.0000000000e+00 -4.5593999997e+01 4.5594000000e+01 5.1100000000e-04 0.0000e+00 1.0000e+00
       23  2    1    2    0    0 +0.0000000000e+00 +0.0000000000e+00 +0.0000000000e+00 9.1188000000e+01 9.1188000000e+01 1.0458e-14 0.0000e+00
  9900012  1    3    3    0    0 -3.9889497745e+00 +1.6796495898e+01 +7.2556994667e+00 7.2461570294e+01 7.0000000000e+01 5.0753e-06 -1.0000e+00
      -12  1    3    3    0    0 +3.9889497745e+00 -1.6796495898e+01 -7.2556994667e+00 1.8726429706e+01 0.0000000000e+00 0.0000e+00 1.0000e+00
</event>
<event>
 5      3 +6.9480500e-03 9.11880000e+01 7.81616400e-03 1.18400000e-01
      -11 -1    0    0    0    0 +0.0000000000e+00 +0.0000000000e+00 +4.5593999997e+01 4.5594000000e+01 5.1100000000e-04 0.0000e+00 -1.0000e+00
       11 -1    0    0    0    0 -0.0000000000e+00 -0.0000000000e+00 -4.5593999997e+01 4.5594000000e+01 5.1100000000e-04 0.0000e+00 1.0000e+00
       23  2    1    2    0    0 +0.0000000000e+00 +0.0000000000e+00 +0.0000000000e+00 9.1188000000e+01 9.1188000000e+01 2.5133e-14 0.0000e+00
  9900012  1    3    3    0    0 -1.1283553577e+01 -1.4938024354e+01 -4.6477584278e-01 7.2461570294e+01 7.0000000000e+01 8.4403e-05 1.0000e+00
       12  1    3    3    0    0 +1.1283553577e+01 +1.4938024354e+01 +4.6477584278e-01 1.8726429706e+01 0.0000000000e+00 0.0000e+00 -1.0000e+00
</event>
<event>
 5      5 +6.9480500e-03 9.11880000e+01 7.81616400e-03 1.18400000e-01
      -11 -1    0    0    0    0 +0.0000000000e+00 +0.0000000000e+00 +4.5593999997e+01 4.5594000000e+01 5.1100000000e-04 0.0000e+00 -1.0000e+00
       11 -1    0    0    0    0 -0.0000000000e+00 -0.0000000000e+00 -4.5593999997e+01 4.5594000000e+01 5.1100000000e-04 0.0000e+00 1.0000e+00
       23  2    1    2    0    0 +0.0000000000e+00 +0.0000000000e+00 +0.0000000000e+00 9.1188000000e+01 9.1188000000e+01 1.0262e-13 0.0000e+00
  9900012  1    3    3    0    0 -1.1809873130e+00 +1.8535090289e+01 -2.3947581199e+00 7.2461570294e+01 7.0000000000e+01 8.5942e-05 1.0000e+00
       12  1    3    3    0    0 +1.1809873130e+00 -1.8535090289e+01 +2.3947581199e+00 1.8726429706e+01 0.0000000000e+00 0.0000e+00 -1.0000e+00
</event>
<event>
 5      5 +6.9480500e-03 9.11880000e+01 7.81616400e-03 1.18400000e-01
      -11 -1    0    0    0    0 +0.0000000000e+00 +0.0000000000e+00 +4.5593999997e+01 4.5594000000e+01 5.1100000000e-04 0.0000e+00 -1.0000e+00
       11 -1    0    0    0    0 -0.0000000000e+00 -0.0000000000e+00 -4.5593999997e+01 4.5594000000e+01 5.1100000000e-04 0.0000e+00 1.0000e+00
       23  2    1    2    0    0 +0.0000000000e+00 +0.0000000000e+00 +0.0000000000e+00 9.1188000000e+01 9.1188000000e+01 1.9019e-14 0.0000e+00
  9900012  1    3    3    0    0 -1.7581976270e+01 -8.7668773680e-01 +6.3862898922e+00 7.2461570294e+01 7.0000000000e+01 2.5088e-04 1.0000e+00
       12  1    3    3    0    0 +1.7581976270e+01 +8.7668773680e-01 -6.3862898922e+00 1.8726429706e+01 0.0000000000e+00 0.0000e+00 -1.0000e+00
</event>
<event>
 5      6 +6.9480500e-03 9.11880000e+01 7.81616400e-03 1.18400000e-01
      -11 -1    0    0    0    0 +0.0000000000e+00 +0.0000000000e+00 +4.5593999997e+01 4.5594000000e+01 5.1100000000e-04 0.0000e+00 -1.0000e+00
       11 -1    0    0    0    0 -0.0000000000e+00 -0.0000000000e+00 -4.5593999997e+01 4.5594000000e+01 5.1100000000e-04 0.0000e+00 1.0000e+00
       23  2    1    2    0    0 +0.0000000000e+00 +0.0000000000e+00 +0.0000000000e+00 9.1188000000e+01 9.1188000000e+01 2.6995e-16 0.0000e+00
  9900012  1    3    3    0    0 +1.7671523478e+01 -2.5037466399e+00 -5.6681284618e+00 7.2461570294e+01 7.0000000000e+01 7.4373e-05 -1.0000e+00
      -12  1    3    3    0    0 -1.7671523478e+01 +2.5037466399e+00 +5.6681284618e+00 1.8726429706e+01 0.0000000000e+00 0.0000e+00 1.0000e+00
</event>
<event>
 5      2 +6.9480500e-03 9.11880000e+01 7.81616400e-03 1.18400000e-01
      -11 -1    0    0    0    0 +0.0000000000e+00 +0.0000000000e+00 +4.5593999997e+01 4.5594000000e+01 5.1100000000e-04 0.0000e+00 1.0000e+00
       11 -1    0    0    0    0 -0.0000000000e+00 -0.0000000000e+00 -4.5593999997e+01 4.5594000000e+01 5.1100000000e-04 0.0000e+00 -1.0000e+00
       23  2    1    2    0    0 +0.0000000000e+00 +0.0000000000e+00 +0.0000000000e+00 9.1188000000e+01 9.1188000000e+01 3.8748e-14 0.0000e+00
  9900012  1    3    3    0    0 -5.7862112543e+00 -9.0602972854e+00 -1.5333295208e+01 7.2461570294e+01 7.0000000000e+01 4.8073e-05 -1.0000e+00
      -12  1    3    3    0    0 +5.7862112543e+00 +9.0602972854e+00 +1.5333295208e+01 1.8726429706e+01 0.0000000000e+00 0.0000e+00 1.0000e+00
</event>
<event>
 5      4 +6.9480500e-03 9.11880000e+01 7.81616400e-03 1.18400000e-01
      -11 -1    0    0    0    0 +0.0000000000e+00 +0.0000000000e+00 +4.5593999997e+01 4.5594000000e+01 5.1100000000e-04 0.0000e+00 -1.0000e+00
       11 -1    0    0    0    0 -0.0000000000e+00 -0.0000000000e+00 -4.5593999997e+01 4.5594000000e+01 5.1100000000e-04 0.0000e+00 1.0000e+00
       23  2    1    2    0    0 +0.0000000000e+00 +0.0000000000e+00 +0.0000000000e+00 9.1188000000e+01 9.1188000000e+01 2.0215e-13 0.0000e+00
  9900012  1    3    3    0    0 +6.3892825143e+00 -1.0796786900e+01 +1.3902720278e+01 7.2461570294e+01 7.0000000000e+01 9.5827e-05 -1.0000e+00
      -12  1    3    3    0    0 -6.3892825143e+00 +1.0796786900e+01 -1.3902720278e+01 1.8726429706e+01 0.0000000000e+00 0.0000e+00 1.0000e+00
</event>
<event>
 5      3 +6.9480500e-03 9.11880000e+01 7.81616400e-03 1.18400000e-01
      -11 -1    0    0    0    0 +0.0000000000e+00 +0.0000000000e+00 +4.5593999997e+01 4.5594000000e+01 5.1100000000e-04 0.0000e+00 -1.0000e+00
       11 -1    0    0    0    0 -0.0000000000e+00 -0.0000000000e+00 -4.5593999997e+01 4.5594000000e+01 5.1100000000e-04 0.0000e+00 1.0000e+00
       23  2    1    2    0    0 +0.0000000000e+00 +0.0000000000e+00 +0.0000000000e+00 9.1188000000e+01 9.1188000000e+01 1.2070e-13 0.0000e+00
  9900012  1    3    3    0    0 -1.6060065294e+01 +4.6267492756e+00 -8.4466954133e+00 7.2461570294e+01 7.0000000000e+01 1.9281e-05 1.0000e+00
       12  1    3    3    0    0 +1.6060065294e+01 -4.6267492756e+00 +8.4466954133e+00 1.8726429706e+01 0.0000000000e+00 0.0000e+00 -1.0000e+00
</event>
<event>
 5      1 +6.9480500e-03 9.11880000e+01 7.81616400e-03 1.18400000e-01
      -11 -1    0    0    0    0 +0.0000000000e+00 +0.0000000000e+00 +4.5593999997e+01 4.5594000000e+01 5.1100000000e-04 0.0000e+00 1.0000e+00
       11 -1    0    0    0    0 -0.0000000000e+00 -0.0000000000e+00 -4.5593999997e+01 4.5594000000e+01 5.1100000000e-04 0.0000e+00 -1.0000e+00
       23  2    1    2    0    0 +0.0000000000e+00 +0.0000000000e+00 +0.0000000000e+00 9.1188000000e+01 9.1188000000e+01 2.5007e-13 0.0000e+00
  9900012  1    3    3    0    0 -7.3534558155e+00 +1.5639706996e+01 -7.2114785017e+00 7.2461570294e+01 7.0000000000e+01 9.2059e-06 -1.0000e+00
       12  1    3    3    0    0 +7.3534558155e+00 -1.5639706996e+01 +7.2114785017e+00 1.8726429706e+01 0.0000000000e+00 0.0000e+00 -1.0000e+00
</event>
<event>
 5      2 +6.9480500e-03 9.11880000e+01 7.81616400e-03 1.18400000e-01
      -11 -1    0    0    0    0 +0.0000000000e+00 +0.0000000000e+00 +4.5593999997e+01 4.5594000000e+01 5.1100000000e-04 0.0000e+00 1.0000e+00
       11 -1    0    0    0    0 -0.0000000000e+00 -0.0000000000e+00 -4.5593999997e+01 4.5594000000e+01 5.1100000000e-04 0.0000e+00 -1.0000e+00
       23  2    1    2    0    0 +0.0000000000e+00 +0.0000000000e+00 +0.0000000000e+00 9.1188000000e+01 9.1188000000e+01 1.6578e-14 0.0000e+00
  9900012  1    3    3    0    0 -1.0473124824e+01 -1.5453194460e+01 -1.4804076919e+00 7.2461570294e+01 7.0000000000e+01 5.2469e-06 -1.0000e+00
      -12  1    3    3    0    0 +1.0473124824e+01 +1.5453194460e+01 +1.4804076919e+00 1.8726429706e+01 0.0000000000e+00 0.0000e+00 1.0000e+00
</event>
<event>
 5      5 +6.9480500e-03 9.11880000e+01 7.81616400e-03 1.18400000e-01
      -11 -1    0    0    0    0 +0.0000000000e+00 +0.0000000000e+00 +4.5593999997e+01 4.5594000000e+01 5.1100000000e-04 0.0000e+00 1.0000e+00
       11 -1    0    0    0    0 -0.0000000000e+00 -0.0000000000e+00 -4.5593999997e+01 4.5594000000e+01 5.1100000000e-04 0.0000e+00 -1.0000e+00
       23  2    1    2    0    0 +0.0000000000e+00 +0.0000000000e+00 +0.0000000000e+00 9.1188000000e+01 9.1188000000e+01 2.4693e-13 0.0000e+00
  9900012  1    3    3    0    0 -1.1256276545e+01 -1.4965807846e+01 +1.8324865019e-03 7.2461570294e+01 7.0000000000e+01 2.3769e-05 1.0000e+00
       12  1    3    3    0    0 +1.1256276545e+01 +1.4965807846e+01 -1.8324865019e-03 1.8726429706e+01 0.0000000000e+00 0.0000e+00 -1.0000e+00
</event>
<event>
 5      4 +6.9480500e-03 9.11880000e+01 7.81616400e-03 1.18400000e-01
      -11 -1    0    0    0    0 +0.0000000000e+00 +0.0000000000e+00 +4.5593999997e+01 4.5594000000e+01 5.1100000000e-04 0.0000e+00 -1.0000e+00
       11 -1    0    0    0    0 -0.0000000000e+00 -0.0000000000e+00 -4.5593999997e+01 4.5594000000e+01 5.1100000000e-04 0.0000e+00 1.0000e+00
       23  2    1    2    0    0 +0.0000000000e+00 +0.0000000000e+00 +0.0000000000e+00 9.1188000000e+01 9.1188000000e+01 8.2148e-14 0.0000e+00
  9900012  1    3    3    0    0 -6.8810734106e-01 +6.8113701196e+00 +1.7430172544e+01 7.2461570294e+01 7.0000000000e+01 9.5839e-05 -1.0000e+00
      -12  1    3    3    0    0 +6.8810734106e-01 -6.8113701196e+00 -1.7430172544e+01 1.8726429706e+01 0.0000000000e+00 0.0000e+00 1.0000e+00
</event>
<event>
 5      2 +6.9480500e-03 9.11880000e+01 7.81616400e-03 1.18400000e-01
      -11 -1    0    0    0    0 +0.0000000000e+00 +0.0000000000e+00 +4.5593999997e+01 4.5594000000e+01 5.1100000000e-04 0.0000e+00 -1.0000e+00
       11 -1    0    0    0    0 -0.0000000000e+00 -0.0000000000e+00 -4.5593999997e+01 4.5594000000e+01 5.1100000000e-04 0.0000e+00 1.0000e+00
       23  2    1    2    0    0 +0.0000000000e+00 +0.0000000000e+00 +0.0000000000e+00 9.1188000000e+01 9.1188000000e+01 3.5996e-13 0.0000e+00
  9900012  1    3    3    0    0 +6.6950977343e+00 -2.9094277971e+00 +1.7245001181e+01 7.2461570294e+01 7.0000000000e+01 4.5020e-05 -1.0000e+00
      -12  1    3    3    0    0 -6.6950977343e+00 +2.9094277971e+00 -1.7245001181e+01 1.8726429706e+01 0.0000000000e+00 0.0000e+00 1.0000e+00
</event>
<event>
 5      6 +6.9480500e-03 9.11880000e+01 7.81616400e-03 1.18400000e-01
      -11 -1    0    0    0    0 +0.0000000000e+00 +0.0000000000e+00 +4.5593999997e+01 4.5594000000e+01 5.1100000000e-04 0.0000e+00 -1.0000e+00
       11 -1    0    0    0    0 -0.0000000000e+00 -0.0000000000e+00 -4.5593999997e+01 4.5594000000e+01 5.1100000000e-04 0.0000e+00 1.0000e+00
       23  2    1    2    0    0 +0.0000000000e+00 +0.0000000000e+00 +0.0000000000e+00 9.1188000000e+01 9.1188000000e+01 1.2106e-14 0.0000e+00
  9900012  1    3    3    0    0 -7.2094682035e+00 -1.3308772428e+01 +1.1026301021e+01 7.2461570294e+01 7.0000000000e+01 1.2339e-04 -1.0000e+00
      -12  1    3    3    0    0 +7.2094682035e+00 +1.3308772428e+01 -1.1026301021e+01 1.8726429706e+01 0.0000000000e+00 0.0000e+00 1.0000e+00
</event>
<event>
 5      7 +6.9480500e-03 9.11880000e+01 7.81616400e-03 1.18400000e-01
      -11 -1    0    0    0    0 +0.0000000000e+00 +0.0000000000e+00 +4.5593999997e+01 4.5594000000e+01 5.1100000000e-04 0.0000e+00 1.0000e+00
       11 -1    0    0    0    0 -0.0000000000e+00 -0.0000000000e+00 -4.5593999997e+01 4.5594000000e+01 5.1100000000e-04 0.0000e+00 -1.0000e+00
       23  2    1    2    0    0 +0.0000000000e+00 +0.0000000000e+00 +0.0000000000e+00 9.1188000000e+01 9.1188000000e+01 1.4623e-14 0.0000e+00
  9900012  1    3    3    0    0 +9.1691607368e+00 -6.5544455263e+00 +1.4954761942e+01 7.2461570294e+01 7.0000000000e+01 2.3013e-04 1.0000e+00
       12  1    3    3    0    0 -9.1691607368e+00 +6.5544455263e+00 -1.4954761942e+01 1.8726429706e+01 0.0000000000e+00 0.0000e+00 -1.0000e+00
</event>
<event>
 5      4 +6.9480500e-03 9.11880000e+01 7.81616400e-03 1.18400000e-01
      -11 -1    0    0    0    0 +0.0000000000e+00 +0.0000000000e+00 +4.5593999997e+01 4.5594000000e+01 5.1100000000e-04 0.0000e+00 -1.0000e+00
       11 -1    0    0    0    0 -0.0000000000e+00 -0.0000000000e+00 -4.5593999997e+01 4.5594000000e+01 5.1100000000e-04 0.0000e+00 1.0000e+00
       23  2    1    2    0    0 +0.0000000000e+00 +0.0000000000e+00 +0.0000000000e+00 9.1188000000e+01 9.1188000000e+01 1.8195e-14 0.0000e+00
  9900012  1    3    3    0    0 +7.2679930238e+00 -1.2715908522e+01 +1.1668809595e+01 7.2461570294e+01 7.0000000000e+01 2.2358e-04 -1.0000e+00
      -12  1    3    3    0    0 -7.2679930238e+00 +1.2715908522e+01 -1.1668809595e+01 1.8726429706e+01 0.0000000000e+00 0.0000e+00 1.0000e+00
</event>
<event>
 5      3 +6.9480500e-03 9.11880000e+01 7.81616400e-03 1.18400000e-01
      -11 -1    0    0    0    0 +0.0000000000e+00 +0.0000000000e+00 +4.5593999997e+01 4.5594000000e+01 5.1100000000e-04 0.0000e+00 -1.0000e+00
       11 -1    0    0    0    0 -0.0000000000e+00 -0.0000000000e+00 -4.5593999997e+01 4.5594000000e+01 5.1100000000e-04 0.0000e+00 1.0000e+00
       23  2    1    2    0    0 +0.0000000000e+00 +0.0000000000e+00 +0.0000000000e+00 9.1188000000e+01 9.1188000000e+01 1.6315e-13 0.0000e+00
  9900012  1    3    3    0    0 -6.5194822600e+00 +4.5222887926e+00 -1.6962441589e+01 7.2461570294e+01 7.0000000000e+01 3.0105e-05 1.0000e+00
       12  1    3    3    0    0 +6.5194822600e+00 -4.5222887926e+00 +1.6962441589e+01 1.8726429706e+01 0.0000000000e+00 0.0000e+00 -1.0000e+00
</event>
<event>
 5      2 +6.9480500e-03 9.11880000e+01 7.81616400e-03 1.18400000e-01
      -11 -1    0    0    0    0 +0.0000000000e+00 +0.0000000000e+00 +4.5593999997e+01 4.5594000000e+01 5.1100000000e-04 0.0000e+00 -1.0000e+00
       11 -1    0    0    0    0 -0.0000000000e+00 -0.0000000000e+00 -4.5593999997e+01 4.5594000000e+01 5.1100000000e-04 0.0000e+00 1.0000e+00
       23  2    1    2    0    0 +0.0000000000e+00 +0.0000000000e+00 +0.0000000000e+00 9.1188000000e+01 9.1188000000e+01 7.4368e-14 0.0000e+00
  9900012  1    3    3    0    0 +2.9459110421e+00 +1.7262107001e+01 +6.6347900890e+00 7.2461570294e+01 7.0000000000e+01 1.5161e-05 -1.0000e+00
      -12  1    3    3    0    0 -2.9459110421e+00 -1.7262107001e+01 -6.6347900890e+00 1.8726429706e+01 0.0000000000e+00 0.0000e+00 1.0000e+00
</event>
<event>
 5      1 +6.9480500e-03 9.11880000e+01 7.81616400e-03 1.18400000e-01
      -11 -1    0    0    0    0 +0.0000000000e+00 +0.0000000000e+00 +4.5593999997e+01 4.5594000000e+01 5.1100000000e-04 0.0000e+00 1.0000e+00
       11 -1    0    0    0    0 -0.0000000000e+00 -0.0000000000e+00 -4.5593999997e+01 4.5594000000e+01 5.1100000000e-04 0.0000e+00 -1.0000e+00
       23  2    1    2    0    0 +0.0000000000e+00 +0.0000000000e+00 +0.0000000000e+00 9.1188000000e+01 9.1188000000e+01 6.4350e-14 0.0000e+00
  9900012  1    3    3    0    0 +5.3749686879e+00 -5.9381428532e-01 +1.7928643722e+01 7.2461570294e+01 7.0000000000e+01 5.0766e-05 1.0000e+00
       12  1    3    3    0    0 -5.3749686879e+00 +5.9381428532e-01 -1.7928643722e+01 1.8726429706e+01 0.0000000000e+00 0.0000e+00 -1.0000e+00
</event>
<event>
 5      5 +6.9480500e-03 9.11880000e+01 7.81616400e-03 1.18400000e-01
      -11 -1    0    0    0    0 +0.0000000000e+00 +0.0000000000e+00 +4.5593999997e+01 4.5594000000e+01 5.1100000000e-04 0.0000e+00 1.0000e+00
       11 -1    0    0    0    0 -0.0000000000e+00 -0.0000000000e+00 -4.5593999997e+01 4.5594000000e+01 5.1100000000e-04 0.0000e+00 -1.0000e+00
       23  2    1    2    0    0 +0.0000000000e+00 +0.0000000000e+00 +0.0000000000e+00 9.1188000000e+01 9.1188000000e+01 1.7653e-14 0.0000e+00
  9900012  1    3    3    0    0 -1.3132761315e+01 -1.3053351162e+01 -2.7963857413e+00 7.2461570294e+01 7.0000000000e+01 8.0713e-05 -1.0000e+00
       12  1    3    3    0    0 +1.3132761315e+01 +1.3053351162e+01 +2.7963857413e+00 1.8726429706e+01 0.0000000000e+00 0.0000e+00 -1.0000e+00
</event>
<event>
 5      8 +6.9480500e-03 9.11880000e+01 7.81616400e-03 1.18400000e-01
      -11 -1    0    0    0    0 +0.0000000000e+00 +0.0000000000e+00 +4.5593999997e+01 4.5594000000e+01 5.1100000000e-04 0.0000e+00 1.0000e+00
       11 -1    0    0    0    0 -0.0000000000e+00 -0.0000000000e+00 -4.5593999997e+01 4.5594000000e+01 5.1100000000e-04 0.0000e+00 -1.0000e+00
       23  2    1    2    0    0 +0.0000000000e+00 +0.0000000000e+00 +0.0000000000e+00 9.1188000000e+01 9.1188000000e+01 1.4201e-13 0.0000e+00
  9900012  1    3    3    0    0 +1.6848494359e+01 +7.8665638741e+00 +2.2191395104e+00 7.2461570294e+01 7.0000000000e+01 4.6332e-04 1.0000e+00
      -12  1    3    3    0    0 -1.6848494359e+01 -7.8665638741e+00 -2.2191395104e+00 1.8726429706e+01 0.0000000000e+00 0.0000e+00 1.0000e+00
</event>
<event>
 5      6 +6.9480500e-03 9.11880000e+01 7.81616400e-03 1.18400000e-01
      -11 -1    0    0    0    0 +0.0000000000e+00 +0.0000000000e+00 +4.5593999997e+01 4.5594000000e+01 5.1100000000e-04 0.0000e+00 1.0000e+00
       11 -1    0    0    0    0 -0.0000000000e+00 -0.0000000000e+00 -4.5593999997e+01 4.5594000000e+01 5.1100000000e-04 0.0000e+00 -1.0000e+00
       23  2    1    2    0    0 +0.0000000000e+00 +0.0000000000e+00 +0.0000000000e+00 9.1188000000e+01 9.1188000000e+01 2.4696e-15 0.0000e+00
  9900012  1    3    3    0    0 -6.3713753425e+00 -1.6911120349e+01 -4.9090482093e+00 7.2461570294e+01 7.0000000000e+01 1.9162e-04 -1.0000e+00
      -12  1    3    3    0    0 +6.3713753425e+00 +1.6911120349e+01 +4.9090482093e+00 1.8726429706e+01 0.0000000000e+00 0.0000e+00 1.0000e+00
</event>
<event>
 5      7 +6.9480500e-03 9.11880000e+01 7.81616400e-03 1.18400000e-01
      -11 -1    0    0    0    0 +0.0000000000e+00 +0.0000000000e+00 +4.5593999997e+01 4.5594000000e+01 5.1100000000e-04 0.0000e+00 -1.0000e+00
       11 -1    0    0    0    0 -0.0000000000e+00 -0.0000000000e+00 -4.5593999997e+01 4.5594000000e+01 5.1100000000e-04 0.0000e+00 1.0000e+00
       23  2    1    2    0    0 +0.0000000000e+00 +0.0000000000e+00 +0.0000000000e+00 9.1188000000e+01 9.1188000000e+01 3.0935e-13 0.0000e+00
  9900012  1    3    3    0    0 +6.0038572861e+00 +1.6758804286e+01 -5.8116560562e+00 7.2461570294e+01 7.0000000000e+01 3.3922e-05 -1.0000e+00
       12  1    3    3    0    0 -6.0038572861e+00 -1.6758804286e+01 +5.8116560562e+00 1.8726429706e+01 0.0000000000e+00 0.0000e+00 -1.0000e+00
</event>
<event>
 5      6 +6.9480500e-03 9.11880000e+01 7.81616400e-03 1.18400000e-01
      -11 -1    0    0    0    0 +0.0000000000e+00 +0.0000000000e+00 +4.5593999997e+01 4.5594000000e+01 5.1100000000e-04 0.0000e+00 1.0000e+00
       11 -1    0    0    0    0 -0.0000000000e+00 -0.0000000000e+00 -4.5593999997e+01 4.5594000000e+01 5.1100000000e-04 0.0000e+00 -1.0000e+00
       23  2    1    2    0    0 +0.0000000000e+00 +0.0000000000e+00 +0.0000000000e+00 9.1188000000e+01 9.1188000000e+01 9.6962e-15 0.0000e+00
  9900012  1    3    3    0    0 +1.7430698206e+01 -6.4773481054e+00 -2.2122140736e+00 7.2461570294e+01 7.0000000000e+01 4.4600e-06 1.0000e+00
      -12  1    3    3    0    0 -1.7430698206e+01 +6.4773481054e+00 +2.2122140736e+00 1.8726429706e+01 0.0000000000e+00 0.0000e+00 1.0000e+00
</event>
<event>
 5      3 +6.9480500e-03 9.11880000e+01 7.81616400e-03 1.18400000e-01
      -11 -1    0    0    0    0 +0.0000000000e+00 +0.0000000000e+00 +4.5593999997e+01 4.5594000000e+01 5.1100000000e-04 0.0000e+00 1.0000e+00
       11 -1    0    0    0    0 -0.0000000000e+00 -0.0000000000e+00 -4.5593999997e+01 4.5594000000e+01 5.1100000000e-04 0.0000e+00 -1.0000e+00
       23  2    1    2    0    0 +0.0000000000e+00 +0.0000000000e+00 +0.0000000000e+00 9.1188000000e+01 9.1188000000e+01 1.0861e-13 0.0000e+00
  9900012  1    3    3    0    0 +1.2303416354e+01 -7.0399988340e+00 +1.2236973971e+01 7.2461570294e+01 7.0000000000e+01 1.0313e-05 1.0000e+00
       12  1    3    3    0    0 -1.2303416354e+01 +7.0399988340e+00 -1.2236973971e+01 1.8726429706e+01 0.0000000000e+00 0.0000e+00 -1.0000e+00
</event>
<event>
 5      1 +6.9480500e-03 9.11880000e+01 7.81616400e-03 1.18400000e-01
      -11 -1    0    0    0    0 +0.0000000000e+00 +0.0000000000e+00 +4.5593999997e+01 4.5594000000e+01 5.1100000000e-04 0.0000e+00 1.0000e+00
       11 -1    0    0    0    0 -0.0000000000e+00 -0.0000000000e+00 -4.5593999997e+01 4.5594000000e+01 5.1100000000e-04 0.0000e+00 -1.0000e+00
       23  2    1    2    0    0 +0.0000000000e+00 +0.0000000000e+00 +0.0000000000e+00 9.1188000000e+01 9.1188000000e+01 6.2000e-15 0.0000e+00
  9900012  1    3    3    0    0 -8.3343401007e+00 +6.1969425557e+00 +1.5582549457e+01 7.2461570294e+01 7.0000000000e+01 2.7194e-05 -1.0000e+00
       12  1    3    3    0    0 +8.3343401007e+00 -6.1969425557e+00 -1.5582549457e+01 1.8726429706e+01 0.0000000000e+00 0.0000e+00 -1.0000e+00
</event>
<event>
 5      8 +6.9480500e-03 9.11880000e+01 7.81616400e-03 1.18400000e-01
      -11 -1    0    0    0    0 +0.0000000000e+00 +0.0000000000e+00 +4.5593999997e+01 4.5594000000e+01 5.1100000000e-04 0.0000e+00 1.0000e+00
       11 -1    0    0    0    0 -0.0000000000e+00 -0.0000000000e+00 -4.5593999997e+01 4.5594000000e+01 5.1100000000e-04 0.0000e+00 -1.0000e+00
       23  2    1    2    0    0 +0.0000000000e+00 +0.0000000000e+00 +0.0000000000e+00 9.1188000000e+01 9.1188000000e+01 2.3034e-14 0.0000e+00
  9900012  1    3    3    0    0 -1.0981925071e+01 +1.1692985718e+01 +9.6618101948e+00 7.2461570294e+01 7.0000000000e+01 9.5211e-06 1.0000e+00
      -12  1    3    3    0    0 +1.0981925071e+01 -1.1692985718e+01 -9.6618101948e+00 1.8726429706e+01 0.0000000000e+00 0.0000e+00 1.0000e+00
</event>
<event>
 5      2 +6.9480500e-03 9.11880000e+01 7.81616400e-03 1.18400000e-01
      -11 -1    0    0    0    0 +0.0000000000e+00 +0.0000000000e+00 +4.5593999997e+01 4.5594000000e+01 5.1100000000e-04 0.0000e+00 1.0000e+00
       11 -1    0    0    0    0 -0.0000000000e+00 -0.0000000000e+00 -4.5593999997e+01 4.5594000000e+01 5.1100000000e-04 0.0000e+00 -1.0000e+00
       23  2    1    2    0    0 +0.0000000000e+00 +0.0000000000e+00 +0.0000000000e+00 9.1188000000e+01 9.1188000000e+01 9.9431e-15 0.0000e+00
  9900012  1    3    3    0    0 +3.5201603962e+00 +5.8918429328e-01 -1.8383158112e+01 7.2461570294e+01 7.0000000000e+01 1.9899e-05 -1.0000e+00
      -12  1    3    3    0    0 -3.5201603962e+00 -5.8918429328e-01 +1.8383158112e+01 1.8726429706e+01 0.0000000000e+00 0.0000e+00 1.0000e+00
</event>
<event>
 5      2 +6.9480500e-03 9.11880000e+01 7.81616400e-03 1.18400000e-01
      -11 -1    0    0    0    0 +0.0000000000e+00 +0.0000000000e+00 +4.5593999997e+01 4.5594000000e+01 5.1100000000e-04 0.0000e+00 1.0000e+00
       11 -1    0    0    0    0 -0.0000000000e+00 -0.0000000000e+00 -4.5593999997e+01 4.5594000000e+01 5.1100000000e-04 0.0000e+00 -1.0000e+00
       23  2    1    2    0    0 +0.0000000000e+00 +0.0000000000e+00 +0.0000000000e+00 9.1188000000e+01 9.1188000000e+01 2.3235e-14 0.0000e+00
  9900012  1    3    3    0    0 -1.8506568659e+01 -1.0894321330e+00 +2.6456045826e+00 7.2461570294e+01 7.0000000000e+01 5.6952e-05 -1.0000e+00
      -12  1    3    3    0    0 +1.8506568659e+01 +1.0894321330e+00 -2.6456045826e+00 1.8726429706e+01 0.0000000000e+00 0.0000e+00 1.0000e+00
</event>
<event>
 5      3 +6.9480500e-03 9.11880000e+01 7.81616400e-03 1.18400000e-01
      -11 -1    0    0    0    0 +0.0000000000e+00 +0.0000000000e+00 +4.5593999997e+01 4.5594000000e+01 5.1100000000e-04 0.0000e+00 1.0000e+00
       11 -1    0    0    0    0 -0.0000000000e+00 -0.0000000000e+00 -4.5593999997e+01 4.5594000000e+01 5.1100000000e-04 0.0000e+00 -1.0000e+00
       23  2    1    2    0    0 +0.0000000000e+00 +0.0000000000e+00 +0.0000000000e+00 9.1188000000e+01 9.1188000000e+01 3.8931e-14 0.0000e+00
  9900012  1    3    3    0    0 +4.3532465350e+00 +1.1409611388e+01 +1.4196801826e+01 7.2461570294e+01 7.0000000000e+01 9.2830e-05 1.0000e+00
       12  1    3    3    0    0 -4.3532465350e+00 -1.1409611388e+01 -1.4196801826e+01 1.8726429706e+01 0.0000000000e+00 0.0000e+00 -1.0000e+00
</event>
<event>
 5      1 +6.9480500e-03 9.11880000e+01 7.81616400e-03 1.18400000e-01
      -11 -1    0    0    0    0 +0.0000000000e+00 +0.0000000000e+00 +4.5593999997e+01 4.5594000000e+01 5.1100000000e-04 0.0000e+00 -1.0000e+00
       11 -1    0    0    0    0 -0.0000000000e+00 -0.0000000000e+00 -4.5593999997e+01 4.5594000000e+01 5.1100000000e-04 0.0000e+00 1.0000e+00
       23  2    1    2    0    0 +0.0000000000e+00 +0.0000000000e+00 +0.0000000000e+00 9.1188000000e+01 9.1188000000e+01 2.5680e-14 0.0000e+00
  9900012  1    3    3    0    0 +6.6529303878e+00 +8.6591114728e+00 -1.5213069226e+01 7.2461570294e+01 7.0000000000e+01 8.1087e-05 1.0000e+00
       12  1    3    3    0    0 -6.6529303878e+00 -8.6591114728e+00 +1.5213069226e+01 1.8726429706e+01 0.0000000000e+00 0.0000e+00 -1.0000e+00
</event>
<event>
 5      4 +6.9480500e-03 9.11880000e+01 7.81616400e-03 1.18400000e-01
      -11 -1    0    0    0    0 +0.0000000000e+00 +0.0000000000e+00 +4.5593999997e+01 4.5594000000e+01 5.1100000000e-04 0.0000e+00 1.0000e+00
       11 -1    0    0    0    0 -0.0000000000e+00 -0.0000000000e+00 -4.5593999997e+01 4.5594000000e+01 5.1100000000e-04 0.0000e+00 -1.0000e+00
       23  2    1    2    0    0 +0.0000000000e+00 +0.0000000000e+00 +0.0000000000e+00 9.1188000000e+01 9.1188000000e+01 3.9899e-16 0.0000e+00
  9900012  1    3    3    0    0 +6.8542986547e+00 -1.2844838002e+01 -1.1777431646e+01 7.2461570294e+01 7.0000000000e+01 1.0076e-04 -1.0000e+00
      -12  1    3    3    0    0 -6.8542986547e+00 +1.2844838002e+01 +1.1777431646e+01 1.8726429706e+01 0.0000000000e+00 0.0000e+00 1.0000e+00
</event>
<event>
 5      1 +6.9480500e-03 9.11880000e+01 7.81616400e-03 1.18400000e-01
      -11 -1    0    0    0    0 +0.0000000000e+00 +0.0000000000e+00 +4.5593999997e+01 4.5594000000e+01 5.1100000000e-04 0.0000e+00 1.0000e+00
       11 -1    0    0    0    0 -0.0000000000e+00 -0.0000000000e+00 -4.5593999997e+01 4.5594000000e+01 5.1100000000e-04 0.0000e+00 -1.0000e+00
       23  2    1    2    0    0 +0.0000000000e+00 +0.0000000000e+00 +0.0000000000e+00 9.1188000000e+01 9.1188000000e+01 8.1027e-14 0.0000e+00
  9900012  1    3    3    0    0 +1.0405111824e+01 +1.4031360937e+01 +6.7478683826e+00 7.2461570294e+01 7.0000000000e+01 6.8435e-05 1.0000e+00
       12  1    3    3    0    0 -1.0405111824e+01 -1.4031360937e+01 -6.7478683826e+00 1.8726429706e+01 0.0000000000e+00 0.0000e+00 -1.0000e+00
</event>
<event>
 5      2 +6.9480500e-03 9.11880000e+01 7.81616400e-03 1.18400000e-01
      -11 -1    0    0    0    0 +0.0000000000e+00 +0.0000000000e+00 +4.5593999997e+01 4.5594000000e+01 5.1100000000e-04 0.0000e+00 1.0000e+00
       11 -1    0    0    0    0 -0.0000000000e+00 -0.0000000000e+00 -4.5593999997e+01 4.5594000000e+01 5.1100000000e-04 0.0000e+00 -1.0000e+00
       23  2    1    2    0    0 +0.0000000000e+00 +0.0000000000e+00 +0.0000000000e+00 9.1188000000e+01 9.1188000000e+01 2.3896e-14 0.0000e+00
  9900012  1    3    3    0    0 -4.8326531187e+00 +1.3663510993e+01 -1.1858882776e+01 7.2461570294e+01 7.0000000000e+01 3.6391e-06 -1.0000e+00
      -12  1    3    3    0    0 +4.8326531187e+00 -1.3663510993e+01 +1.1858882776e+01 1.8726429706e+01 0.0000000000e+00 0.0000e+00 1.0000e+00
</event>
<event>
 5      8 +6.9480500e-03 9.11880000e+01 7.81616400e-03 1.18400000e-01
      -11 -1    0    0    0    0 +0.0000000000e+00 +0.0000000000e+00 +4.5593999997e+01 4.5594000000e+01 5.1100000000e-04 0.0000e+00 -1.0000e+00
       11 -1    0    0    0    0 -0.0000000000e+00 -0.0000000000e+00 -4.5593999997e+01 4.5594000000e+01 5.1100000000e-04 0.0000e+00 1.0000e+00
       23  2    1    2    0    0 +0.0000000000e+00 +0.0000000000e+00 +0.0000000000e+00 9.1188000000e+01 9.1188000000e+01 1.5222e-14 0.0000e+00
  9900012  1    3    3    0    0 +3.6557364514e+00 +1.0190230151e+01 +1.5279855038e+01 7.2461570294e+01 7.0000000000e+01 1.2788e-05 -1.0000e+00
      -12  1    3    3    0    0 -3.6557364514e+00 -1.0190230151e+01 -1.5279855038e+01 1.8726429706e+01 0.0000000000e+00 0.0000e+00 1.0000e+00
</event>
<event>
 5      5 +6.9480500e-03 9.11880000e+01 7.81616400e-03 1.18400000e-01
      -11 -1    0    0    0    0 +0.0000000000e+00 +0.0000000000e+00 +4.5593999997e+01 4.5594000000e+01 5.1100000000e-04 0.0000e+00 1.0000e+00
       11 -1    0    0    0    0 -0.0000000000e+00 -0.0000000000e+00 -4.5593999997e+01 4.5594000000e+01 5.1100000000e-04 0.0000e+00 -1.0000e+00
       23  2    1    2    0    0 +0.0000000000e+00 +0.0000000000e+00 +0.0000000000e+00 9.1188000000e+01 9.1188000000e+01 1.0266e-14 0.0000e+00
  9900012  1    3    3    0    0 +1.1732217748e+01 +9.7693226699e+00 +1.0844103043e+01 7.2461570294e+01 7.0000000000e+01 1.4942e-04 1.0000e+00
       12  1    3    3    0    0 -1.1732217748e+01 -9.7693226699e+00 -1.0844103043e+01 1.8726429706e+01 0.0000000000e+00 0.0000e+00 -1.0000e+00
</event>
<event>
 5      4 +6.9480500e-03 9.11880000e+01 7.81616400e-03 1.18400000e-01
      -11 -1    0    0    0    0 +0.0000000000e+00 +0.0000000000e+00 +4.5593999997e+01 4.5594000000e+01 5.1100000000e-04 0.0000e+00 1.0000e+00
       11 -1    0    0    0    0 -0.0000000000e+00 -0.0000000000e+00 -4.5593999997e+01 4.5594000000e+01 5.1100000000e-04 0.0000e+00 -1.0000e+00
       23  2    1    2    0    0 +0.0000000000e+00 +0.0000000000e+00 +0.0000000000e+00 9.1188000000e+01 9.1188000000e+01 2.3145e-13 0.0000e+00
  9900012  1    3    3    0    0 -3.5803398212e+00 -3.2943981883e+00 -1.8083342525e+01 7.2461570294e+01 7.0000000000e+01 1.1752e-04 -1.0000e+00
      -12  1    3    3    0    0 +3.5803398212e+00 +3.2943981883e+00 +1.8083342525e+01 1.8726429706e+01 0.0000000000e+00 0.0000e+00 1.0000e+00
</event>
<event>
 5      1 +6.9480500e-03 9.11880000e+01 7.81616400e-03 1.18400000e-01
      -11 -1    0    0    0    0 +0.0000000000e+00 +0.0000000000e+00 +4.5593999997e+01 4.5594000000e+01 5.1100000000e-04 0.0000e+00 1.0000e+00
       11 -1    0    0    0    0 -0.0000000000e+00 -0.0000000000e+00 -4.5593999997e+01 4.5594000000e+01 5.1100000000e-04 0.0000e+00 -1.0000e+00
       23  2    1    2    0    0 +0.0000000000e+00 +0.0000000000e+00 +0.0000000000e+00 9.1188000000e+01 9.1188000000e+01 9.8868e-14 0.0000e+00
  9900012  1    3    3    0    0 -3.8715248356e-01 -1.8686412401e+01 -1.1607213441e+00 7.2461570294e+01 7.0000000000e+01 1.4723e-04 1.0000e+00
       12  1    3    3    0    0 +3.8715248356e-01 +1.8686412401e+01 +1.1607213441e+00 1.8726429706e+01 0.0000000000e+00 0.0000e+00 -1.0000e+00
</event>
<event>
 5      3 +6.9480500e-03 9.11880000e+01 7.81616400e-03 1.18400000e-01
      -11 -1    0    0    0    0 +0.0000000000e+00 +0.0000000000e+00 +4.5593999997e+01 4.5594000000e+01 5.1100000000e-04 0.0000e+00 -1.0000e+00
       11 -1    0    0    0    0 -0.0000000000e+00 -0.0000000000e+00 -4.5593999997e+01 4.5594000000e+01 5.1100000000e-04 0.0000e+00 1.0000e+00
       23  2    1    2    0    0 +0.0000000000e+00 +0.0000000000e+00 +0.0000000000e+00 9.1188000000e+01 9.1188000000e+01 1.2666e-13 0.0000e+00
  9900012  1    3    3    0    0 +5.4297201088e+00 -8.5647958841e-01 -1.7901501383e+01 7.2461570294e+01 7.0000000000e+01 3.4273e-04 1.0000e+00
       12  1    3    3    0    0 -5.4297201088e+00 +8.5647958841e-01 +1.7901501383e+01 1.8726429706e+01 0.0000000000e+00 0.0000e+00 -1.0000e+00
</event>
<event>
 5      2 +6.9480500e-03 9.11880000e+01 7.81616400e-03 1.18400000e-01
      -11 -1    0    0    0    0 +0.0000000000e+00 +0.0000000000e+00 +4.5593999997e+01 4.5594000000e+01 5.1100000000e-04 0.0000e+00 1.0000e+00
       11 -1    0    0    0    0 -0.0000000000e+00 -0.0000000000e+00 -4.5593999997e+01 4.5594000000e+01 5.1100000000e-04 0.0000e+00 -1.0000e+00
       23  2    1    2    0    0 +0.0000000000e+00 +0.0000000000e+00 +0.0000000000e+00 9.1188000000e+01 9.1188000000e+01 1.7170e-14 0.0000e+00
  9900012  1    3    3    0    0 -1.1226297017e+00 -1.2536431977e+01 -1.3865667866e+01 7.2461570294e+01 7.0000000000e+01 1.8715e-05 -1.0000e+00
      -12  1    3    3    0    0 +1.1226297017e+00 +1.2536431977e+01 +1.3865667866e+01 1.8726429706e+01 0.0000000000e+00 0.0000e+00 1.0000e+00
</event>
<event>
 5      2 +6.9480500e-03 9.11880000e+01 7.81616400e-03 1.18400000e-01
      -11 -1    0    0    0    0 +0.0000000000e+00 +0.0000000000e+00 +4.5593999997e+01 4.5594000000e+01 5.1100000000e-04 0.0000e+00 -1.0000e+00
       11 -1    0    0    0    0 -0.0000000000e+00 -0.0000000000e+00 -4.5593999997e+01 4.5594000000e+01 5.1100000000e-04 0.0000e+00 1.0000e+00
       23  2    1    2    0    0 +0.0000000000e+00 +0.0000000000e+00 +0.0000000000e+00 9.1188000000e+01 9.1188000000e+01 2.1406e-13 0.0000e+00
  9900012  1    3    3    0    0 -5.1413779034e+00 +1.3001618777e+01 +1.2458062127e+01 7.2461570294e+01 7.0000000000e+01 6.8879e-05 1.0000e+00
      -12  1    3    3    0    0 +5.1413779034e+00 -1.3001618777e+01 -1.2458062127e+01 1.8726429706e+01 0.0000000000e+00 0.0000e+00 1.0000e+00
</event>
<event>
 5      5 +6.9480500e-03 9.11880000e+01 7.81616400e-03 1.18400000e-01
      -11 -1    0    0    0    0 +0.0000000000e+00 +0.0000000000e+00 +4.5593999997e+01 4.5594000000e+01 5.1100000000e-04 0.0000e+00 -1.0000e+00
       11 -1    0    0    0    0 -0.0000000000e+00 -0.0000000000e+00 -4.5593999997e+01 4.5594000000e+01 5.1100000000e-04 0.0000e+00 1.0000e+00
       23  2    1    2    0    0 +0.0000000000e+00 +0.0000000000e+00 +0.0000000000e+00 9.1188000000e+01 9.1188000000e+01 6.3718e-14 0.0000e+00
  9900012  1    3    3    0    0 -2.0100084954e+00 +1.6855042668e+01 -7.9086390754e+00 7.2461570294e+01 7.0000000000e+01 1.1486e-04 1.0000e+00
       12  1    3    3    0    0 +2.0100084954e+00 -1.6855042668e+01 +7.9086390754e+00 1.8726429706e+01 0.0000000000e+00 0.0000e+00 -1.0000e+00
</event>
<event>
 5      5 +6.9480500e-03 9.11880000e+01 7.81616400e-03 1.18400000e-01
      -11 -1    0    0    0    0 +0.0000000000e+00 +0.0000000000e+00 +4.5593999997e+01 4.5594000000e+01 5.1100000000e-04 0.0000e+00 -1.0000e+00
       11 -1    0    0    0    0 -0.0000000000e+00 -0.0000000000e+00 -4.5593999997e+01 4.5594000000e+01 5.1100000000e-04 0.0000e+00 1.0000e+00
       23  2    1    2    0    0 +0.0000000000e+00 +0.0000000000e+00 +0.0000000000e+00 9.1188000000e+01 9.1188000000e+01 7.7384e-16 0.0000e+00
  9900012  1    3    3    0    0 -7.1936636205e+00 -1.6520146549e+01 -5.1005030359e+00 7.2461570294e+01 7.0000000000e+01 7.7416e-06 1.0000e+00
       12  1    3    3    0    0 +7.1936636205e+00 +1.6520146549e+01 +5.1005030359e+00 1.8726429706e+01 0.0000000000e+00 0.0000e+00 -1.0000e+00
</event>
<event>
 5      2 +6.9480500e-03 9.11880000e+01 7.81616400e-03 1.18400000e-01
      -11 -1    0    0    0    0 +0.0000000000e+00 +0.0000000000e+00 +4.5593999997e+01 4.5594000000e+01 5.1100000000e-04 0.0000e+00 -1.0000e+00
       11 -1    0    0    0    0 -0.0000000000e+00 -0.0000000000e+00 -4.5593999997e+01 4.5594000000e+01 5.1100000000e-04 0.0000e+00 1.0000e+00
       23  2    1    2    0    0 +0.0000000000e+00 +0.0000000000e+00 +0.0000000000e+00 9.1188000000e+01 9.1188000000e+01 2.0049e-13 0.0000e+00
  9900012  1    3    3    0    0 -8.6290517498e+00 +1.3697390862e+01 +9.4127636216e+00 7.2461570294e+01 7.0000000000e+01 1.2599e-04 1.0000e+00
      -12  1    3    3    0    0 +8.6290517498e+00 -1.3697390862e+01 -9.4127636216e+00 1.8726429706e+01 0.0000000000e+00 0.0000e+00 1.0000e+00
</event>
<event>
 5      3 +6.9480500e-03 9.11880000e+01 7.81616400e-03 1.18400000e-01
      -11 -1    0    0    0    0 +0.0000000000e+00 +0.0000000000e+00 +4.5593999997e+01 4.5594000000e+01 5.1100000000e-04 0.0000e+00 -1.0000e+00
       11 -1    0    0    0    0 -0.0000000000e+00 -0.0000000000e+00 -4.5593999997e+01 4.5594000000e+01 5.1100000000e-04 0.0000e+00 1.0000e+00
       23  2    1    2    0    0 +0.0000000000e+00 +0.0000000000e+00 +0.0000000000e+00 9.1188000000e+01 9.1188000000e+01 5.2129e-14 0.0000e+00
  9900012  1    3    3    0    0 -1.3629168845e+01 +1.0342838648e+01 -7.6125301200e+00 7.2461570294e+01 7.0000000000e+01 6.9539e-05 -1.0000e+00
       12  1    3    3    0    0 +1.3629168845e+01 -1.0342838648e+01 +7.6125301200e+00 1.8726429706e+01 0.0000000000e+00 0.0000e+00 -1.0000e+00
</event>
<event>
 5      2 +6.9480500e-03 9.11880000e+01 7.81616400e-03 1.18400000e-01
      -11 -1    0    0    0    0 +0.0000000000e+00 +0.0000000000e+00 +4.5593999997e+01 4.5594000000e+01 5.1100000000e-04 0.0000e+00 -1.0000e+00
       11 -1    0    0    0    0 -0.0000000000e+00 -0.0000000000e+00 -4.5593999997e+01 4.5594000000e+01 5.1100000000e-04 0.0000e+00 1.0000e+00
       23  2    1    2    0    0 +0.0000000000e+00 +0.0000000000e+00 +0.0000000000e+00 9.1188000000e+01 9.1188000000e+01 2.1372e-14 0.0000e+00
  9900012  1    3    3    0    0 -8.2503861058e+00 +6.5290094715e+00 +1.5491363205e+01 7.2461570294e+01 7.0000000000e+01 7.7722e-05 -1.0000e+00
      -12  1    3    3    0    0 +8.2503861058e+00 -6.5290094715e+00 -1.5491363205e+01 1.8726429706e+01 0.0000000000e+00 0.0000e+00 1.0000e+00
</event>
<event>
 5      3 +6.9480500e-03 9.11880000e+01 7.81616400e-03 1.18400000e-01
      -11 -1    0    0    0    0 +0.0000000000e+00 +0.0000000000e+00 +4.5593999997e+01 4.5594000000e+01 5.1100000000e-04 0.0000e+00 -1.0000e+00
       11 -1    0    0    0    0 -0.0000000000e+00 -0.0000000000e+00 -4.5593999997e+01 4.5594000000e+01 5.1100000000e-04 0.0000e+00 1.0000e+00
       23  2    1    2    0    0 +0.0000000000e+00 +0.0000000000e+00 +0.0000000000e+00 9.1188000000e+01 9.1188000000e+01 3.5545e-14 0.0000e+00
  9900012  1    3    3    0    0 +1.4943561692e+01 +7.8362179794e-01 -1.1258555429e+01 7.2461570294e+01 7.0000000000e+01 2.8467e-04 1.0000e+00
       12  1    3    3    0    0 -1.4943561692e+01 -7.8362179794e-01 +1.1258555429e+01 1.8726429706e+01 0.0000000000e+00 0.0000e+00 -1.0000e+00
</event>
<event>
 5      4 +6.9480500e-03 9.11880000e+01 7.81616400e-03 1.18400000e-01
      -11 -1    0    0    0    0 +0.0000000000e+00 +0.0000000000e+00 +4.5593999997e+01 4.5594000000e+01 5.1100000000e-04 0.0000e+00 -1.0000e+00
       11 -1    0    0    0    0 -0.0000000000e+00 -0.0000000000e+00 -4.5593999997e+01 4.5594000000e+01 5.1100000000e-04 0.0000e+00 1.0000e+00
       23  2    1    2    0    0 +0.0000000000e+00 +0.0000000000e+00 +0.0000000000e+00 9.1188000000e+01 9.1188000000e+01 2.5636e-14 0.0000e+00
  9900012  1    3    3    0    0 -1.2359818158e+01 +1.1898161902e+01 -7.5065176994e+00 7.2461570294e+01 7.0000000000e+01 1.3885e-05 1.0000e+00
      -12  1    3    3    0    0 +1.2359818158e+01 -1.1898161902e+01 +7.5065176994e+00 1.8726429706e+01 0.0000000000e+00 0.0000e+00 1.0000e+00
</event>
<event>
 5      1 +6.9480500e-03 9.11880000e+01 7.81616400e-03 1.18400000e-01
      -11 -1    0    0    0    0 +0.0000000000e+00 +0.0000000000e+00 +4.5593999997e+01 4.5594000000e+01 5.1100000000e-04 0.0000e+00 -1.0000e+00
       11 -1    0    0    0    0 -0.0000000000e+00 -0.0000000000e+00 -4.5593999997e+01 4.5594000000e+01 5.1100000000e-04 0.0000e+00 1.0000e+00
       23  2    1    2    0    0 +0.0000000000e+00 +0.0000000000e+00 +0.0000000000e+00 9.1188000000e+01 9.1188000000e+01 4.0206e-14 0.0000e+00
  9900012  1    3    3    0    0 +5.4690452156e+00 +1.7849437733e+01 +1.4718310287e+00 7.2461570294e+01 7.0000000000e+01 2.7414e-04 1.0000e+00
       12  1    3    3    0    0 -5.4690452156e+00 -1.7849437733e+01 -1.4718310287e+00 1.8726429706e+01 0.0000000000e+00 0.0000e+00 -1.0000e+00
</event>
<event>
 5      2 +6.9480500e-03 9.11880000e+01 7.81616400e-03 1.18400000e-01
      -11 -1    0    0    0    0 +0.0000000000e+00 +0.0000000000e+00 +4.5593999997e+01 4.5594000000e+01 5.1100000000e-04 0.0000e+00 1.0000e+00
       11 -1    0    0    0    0 -0.0000000000e+00 -0.0000000000e+00 -4.5593999997e+01 4.5594000000e+01 5.1100000000e-04 0.0000e+00 -1.0000e+00
       23  2    1    2    0    0 +0.0000000000e+00 +0.0000000000e+00 +0.0000000000e+00 9.1188000000e+01 9.1188000000e+01 1.0246e-13 0.0000e+00
  9900012  1    3    3    0    0 -9.4912416945e+00 -3.2109267745e+00 -1.5820412443e+01 7.2461570294e+01 7.0000000000e+01 9.2573e-05 -1.0000e+00
      -12  1    3    3    0    0 +9.4912416945e+00 +3.2109267745e+00 +1.5820412443e+01 1.8726429706e+01 0.0000000000e+00 0.0000e+00 1.0000e+00
</event>
<event>
 5      4 +6.9480500e-03 9.11880000e+01 7.81616400e-03 1.18400000e-01
      -11 -1    0    0    0    0 +0.0000000000e+00 +0.0000000000e+00 +4.5593999997e+01 4.5594000000e+01 5.1100000000e-04 0.0000e+00 1.0000e+00
       11 -1    0    0    0    0 -0.0000000000e+00 -0.0000000000e+00 -4.5593999997e+01 4.5594000000e+01 5.1100000000e-04 0.0000e+00 -1.0000e+00
       23  2    1    2    0    0 +0.0000000000e+00 +0.0000000000e+00 +0.0000000000e+00 9.1188000000e+01 9.1188000000e+01 4.2226e-14 0.0000e+00
  9900012  1    3    3    0    0 -5.8108804940e+00 +1.6408283943e+01 -6.9051470271e+00 7.2461570294e+01 7.0000000000e+01 2.0349e-04 -1.0000e+00
      -12  1    3    3    0    0 +5.8108804940e+00 -1.6408283943e+01 +6.9051470271e+00 1.8726429706e+01 0.0000000000e+00 0.0000e+00 1.0000e+00
</event>
<event>
 5      6 +6.9480500e-03 9.11880000e+01 7.81616400e-03 1.18400000e-01
      -11 -1    0    0    0    0 +0.0000000000e+00 +0.0000000000e+00 +4.5593999997e+01 4.5594000000e+01 5.1100000000e-04 0.0000e+00 -1.0000e+00
       11 -1    0    0    0    0 -0.0000000000e+00 -0.0000000000e+00 -4.5593999997e+01 4.5594000000e+01 5.1100000000e-04 0.0000e+00 1.0000e+00
       23  2    1    2    0    0 +0.0000000000e+00 +0.0000000000e+00 +0.0000000000e+00 9.1188000000e+01 9.1188000000e+01 1.3427e-13 0.0000e+00
  9900012  1    3    3    0    0 +1.8372020068e+01 +6.9290375891e-01 -3.5592039157e+00 7.2461570294e+01 7.0000000000e+01 7.3586e-05 -1.0000e+00
      -12  1    3    3    0    0 -1.8372020068e+01 -6.9290375891e-01 +3.5592039157e+00 1.8726429706e+01 0.0000000000e+00 0.0000e+00 1.0000e+00
</event>
<event>
 5      1 +6.9480500e-03 9.11880000e+01 7.81616400e-03 1.18400000e-01
      -11 -1    0    0    0    0 +0.0000000000e+00 +0.0000000000e+00 +4.5593999997e+01 4.5594000000e+01 5.1100000000e-04 0.0000e+00 -1.0000e+00
       11 -1    0    0    0    0 -0.0000000000e+00 -0.0000000000e+00 -4.5593999997e+01 4.5594000000e+01 5.1100000000e-04 0.0000e+00 1.0000e+00
       23  2    1    2    0    0 +0.0000000000e+00 +0.0000000000e+00 +0.0000000000e+00 9.1188000000e+01 9.1188000000e+01 1.2792e-13 0.0000e+00
  9900012  1    3    3    0    0 -1.5250970964e+01 +9.8210010869e+00 -4.6513430139e+00 7.2461570294e+01 7.0000000000e+01 6.1102e-06 1.0000e+00
       12  1    3    3    0    0 +1.5250970964e+01 -9.8210010869e+00 +4.6513430139e+00 1.8726429706e+01 0.0000000000e+00 0.0000e+00 -1.0000e+00
</event>
<event>
 5      3 +6.9480500e-03 9.11880000e+01 7.81616400e-03 1.18400000e-01
      -11 -1    0    0    0    0 +0.0000000000e+00 +0.0000000000e+00 +4.5593999997e+01 4.5594000000e+01 5.1100000000e-04 0.0000e+00 1.0000e+00
       11 -1    0    0    0    0 -0.0000000000e+00 -0.0000000000e+00 -4.5593999997e+01 4.5594000000e+01 5.1100000000e-04 0.0000e+00 -1.0000e+00
       23  2    1    2    0    0 +0.0000000000e+00 +0.0000000000e+00 +0.0000000000e+00 9.1188000000e+01 9.1188000000e+01 1.1800e-13 0.0000e+00
  9900012  1    3    3    0    0 -1.0398223930e+00 +1.7258790940e+01 +7.1925012471e+00 7.2461570294e+01 7.0000000000e+01 2.3278e-04 1.0000e+00
       12  1    3    3    0    0 +1.0398223930e+00 -1.7258790940e+01 -7.1925012471e+00 1.8726429706e+01 0.0000000000e+00 0.0000e+00 -1.0000e+00
</event>
<event>
 5      8 +6.9480500e-03 9.11880000e+01 7.81616400e-03 1.18400000e-01
      -11 -1    0    0    0    0 +0.0000000000e+00 +0.0000000000e+00 +4.5593999997e+01 4.5594000000e+01 5.1100000000e-04 0.0000e+00 1.0000e+00
       11 -1    0    0    0    0 -0.0000000000e+00 -0.0000000000e+00 -4.5593999997e+01 4.5594000000e+01 5.1100000000e-04 0.0000e+00 -1.0000e+00
       23  2    1    2    0    0 +0.0000000000e+00 +0.0000000000e+00 +0.0000000000e+00 9.1188000000e+01 9.1188000000e+01 2.2916e-14 0.0000e+00
  9900012  1    3    3    0    0 +1.2732368942e+01 -1.2063069766e+01 -6.5611202153e+00 7.2461570294e+01 7.0000000000e+01 5.2468e-05 -1.0000e+00
      -12  1    3    3    0    0 -1.2732368942e+01 +1.2063069766e+01 +6.5611202153e+00 1.8726429706e+01 0.0000000000e+00 0.0000e+00 1.0000e+00
</event>
<event>
 5      3 +6.9480500e-03 9.11880000e+01 7.81616400e-03 1.18400000e-01
      -11 -1    0    0    0    0 +0.0000000000e+00 +0.0000000000e+00 +4.5593999997e+01 4.5594000000e+01 5.1100000000e-04 0.0000e+00 1.0000e+00
       11 -1    0    0    0    0 -0.0000000000e+00 -0.0000000000e+00 -4.5593999997e+01 4.5594000000e+01 5.1100000000e-04 0.0000e+00 -1.0000e+00
       23  2    1    2    0    0 +0.0000000000e+00 +0.0000000000e+00 +0.0000000000e+00 9.1188000000e+01 9.1188000000e+01 1.0066e-13 0.0000e+00
  9900012  1    3    3    0    0 +9.2637360789e+00 +1.6273937381e+01 -1.4603254402e-01 7.2461570294e+01 7.0000000000e+01 2.2536e-05 -1.0000e+00
       12  1    3    3    0    0 -9.2637360789e+00 -1.6273937381e+01 +1.4603254402e-01 1.8726429706e+01 0.0000000000e+00 0.0000e+00 -1.0000e+00
</event>
<event>
 5      5 +6.9480500e-03 9.11880000e+01 7.81616400e-03 1.18400000e-01
      -11 -1    0    0    0    0 +0.0000000000e+00 +0.0000000000e+00 +4.5593999997e+01 4.5594000000e+01 5.1100000000e-04 0.0000e+00 1.0000e+00
       11 -1    0    0    0    0 -0.0000000000e+00 -0.0000000000e+00 -4.5593999997e+01 4.5594000000e+01 5.1100000000e-04 0.0000e+00 -1.0000e+00
       23  2    1    2    0    0 +0.0000000000e+00 +0.0000000000e+00 +0.0000000000e+00 9.1188000000e+01 9.1188000000e+01 2.6026e-13 0.0000e+00
  9900012  1    3    3    0    0 +1.0778841749e+01 +1.5301105103e+01 -6.0985465892e-01 7.2461570294e+01 7.0000000000e+01 1.7142e-04 1.0000e+00
       12  1    3    3    0    0 -1.0778841749e+01 -1.5301105103e+01 +6.0985465892e-01 1.8726429706e+01 0.0000000000e+00 0.0000e+00 -1.0000e+00
</event>
<event>
 5      8 +6.9480500e-03 9.11880000e+01 7.81616400e-03 1.18400000e-01
      -11 -1    0    0    0    0 +0.0000000000e+00 +0.0000000000e+00 +4.5593999997e+01 4.5594000000e+01 5.1100000000e-04 0.0000e+00 1.0000e+00
       11 -1    0    0    0    0 -0.0000000000e+00 -0.0000000000e+00 -4.5593999997e+01 4.5594000000e+01 5.1100000000e-04 0.0000e+00 -1.0000e+00
       23  2    1    2    0    0 +0.0000000000e+00 +0.0000000000e+00 +0.0000000000e+00 9.1188000000e+01 9.1188000000e+01 4.9042e-15 0.0000e+00
  9900012  1    3    3    0    0 -3.5615759822e+00 -1.2849343600e+01 -1.3148715340e+01 7.2461570294e+01 7.0000000000e+01 1.9379e-04 -1.0000e+00
      -12  1    3    3    0    0 +3.5615759822e+00 +1.2849343600e+01 +1.3148715340e+01 1.8726429706e+01 0.0000000000e+00 0.0000e+00 1.0000e+00
</event>
<event>
 5      4 +6.9480500e-03 9.11880000e+01 7.81616400e-03 1.18400000e-01
      -11 -1    0    0    0    0 +0.0000000000e+00 +0.0000000000e+00 +4.5593999997e+01 4.5594000000e+01 5.1100000000e-04 0.0000e+00 -1.0000e+00
       11 -1    0    0    0    0 -0.0000000000e+00 -0.0000000000e+00 -4.5593999997e+01 4.5594000000e+01 5.1100000000e-04 0.0000e+00 1.0000e+00
       23  2    1    2    0    0 +0.0000000000e+00 +0.0000000000e+00 +0.0000000000e+00 9.1188000000e+01 9.1188000000e+01 6.6132e-14 0.0000e+00
  9900012  1    3    3    0    0 -7.4491973692e+00 +1.4949195780e+01 +8.4681859686e+00 7.2461570294e+01 7.0000000000e+01 2.0432e-04 -1.0000e+00
      -12  1    3    3    0    0 +7.4491973692e+00 -1.4949195780e+01 -8.4681859686e+00 1.8726429706e+01 0.0000000000e+00 0.0000e+00 1.0000e+00
</event>
<event>
 5      8 +6.9480500e-03 9.11880000e+01 7.81616400e-03 1.18400000e-01
      -11 -1    0    0    0    0 +0.0000000000e+00 +0.0000000000e+00 +4.5593999997e+01 4.5594000000e+01 5.1100000000e-04 0.0000e+00 1.0000e+00
       11 -1    0    0    0    0 -0.0000000000e+00 -0.0000000000e+00 -4.5593999997e+01 4.5594000000e+01 5.1100000000e-04 0.0000e+00 -1.0000e+00
       23  2    1    2    0    0 +0.0000000000e+00 +0.0000000000e+00 +0.0000000000e+00 9.1188000000e+01 9.1188000000e+01 3.7475e-14 0.0000e+00
  9900012  1    3    3    0    0 +1.8511404738e+00 -1.6778141869e+01 -8.1084156213e+00 7.2461570294e+01 7.0000000000e+01 1.2202e-05 1.0000e+00
      -12  1    3    3    0    0 -1.8511404738e+00 +1.6778141869e+01 +8.1084156213e+00 1.8726429706e+01 0.0000000000e+00 0.0000e+00 1.0000e+00
</event>
<event>
 5      4 +6.9480500e-03 9.11880000e+01 7.81616400e-03 1.18400000e-01
      -11 -1    0    0    0    0 +0.0000000000e+00 +0.0000000000e+00 +4.5593999997e+01 4.5594000000e+01 5.1100000000e-04 0.0000e+00 1.0000e+00
       11 -1    0    0    0    0 -0.0000000000e+00 -0.0000000000e+00 -4.5593999997e+01 4.5594000000e+01 5.1100000000e-04 0.0000e+00 -1.0000e+00
       23  2    1    2    0    0 +0.0000000000e+00 +0.0000000000e+00 +0.0000000000e+00 9.1188000000e+01 9.1188000000e+01 1.1682e-13 0.0000e+00
  9900012  1    3    3    0    0 -1.3250580291e+01 +1.1262558380e+01 +6.9466589227e+00 7.2461570294e+01 7.0000000000e+01 9.3467e-05 1.0000e+00
      -12  1    3    3    0    0 +1.3250580291e+01 -1.1262558380e+01 -6.9466589227e+00 1.8726429706e+01 0.0000000000e+00 0.0000e+00 1.0000e+00
</event>
<event>
 5      6 +6.9480500e-03 9.11880000e+01 7.81616400e-03 1.18400000e-01
      -11 -1    0    0    0    0 +0.0000000000e+00 +0.0000000000e+00 +4.5593999997e+01 4.5594000000e+01 5.1100000000e-04 0.0000e+00 -1.0000e+00
       11 -1    0    0    0    0 -0.0000000000e+00 -0.0000000000e+00 -4.5593999997e+01 4.5594000000e+01 5.1100000000e-04 0.0000e+00 1.0000e+00
       23  2    1    2    0    0 +0.0000000000e+00 +0.0000000000e+00 +0.0000000000e+00 9.1188000000e+01 9.1188000000e+01 7.4635e-14 0.0000e+00
  9900012  1    3    3    0    0 -4.0617571765e+00 -1.6669345327e+01 -7.5042804134e+00 7.2461570294e+01 7.0000000000e+01 2.1907e-05 -1.0000e+00
      -12  1    3    3    0    0 +4.0617571765e+00 +1.6669345327e+01 +7.5042804134e+00 1.8726429706e+01 0.0000000000e+00 0.0000e+00 1.0000e+00
</event>
<event>
 5      2 +6.9480500e-03 9.11880000e+01 7.81616400e-03 1.18400000e-01
      -11 -1    0    0    0    0 +0.0000000000e+00 +0.0000000000e+00 +4.5593999997e+01 4.5594000000e+01 5.1100000000e-04 0.0000e+00 -1.0000e+00
       11 -1    0    0    0    0 -0.0000000000e+00 -0.0000000000e+00 -4.5593999997e+01 4.5594000000e+01 5.1100000000e-04 0.0000e+00 1.0000e+00
       23  2    1    2    0    0 +0.0000000000e+00 +0.0000000000e+00 +0.0000000000e+00 9.1188000000e+01 9.1188000000e+01 1.1109e-13 0.0000e+00
  9900012  1    3    3    0    0 +7.2487337789e+00 -7.3152651036e+00 +1.5640394004e+01 7.2461570294e+01 7.0000000000e+01 6.9472e-05 -1.0000e+00
      -12  1    3    3    0    0 -7.2487337789e+00 +7.3152651036e+00 -1.5640394004e+01 1.8726429706e+01 0.0000000000e+00 0.0000e+00 1.0000e+00
</event>
<event>
 5      8 +6.9480500e-03 9.11880000e+01 7.81616400e-03 1.18400000e-01
      -11 -1    0    0    0    0 +0.0000000000e+00 +0.0000000000e+00 +4.5593999997e+01 4.5594000000e+01 5.1100000000e-04 0.0000e+00 1.0000e+00
       11 -1    0    0    0    0 -0.0000000000e+00 -0.0000000000e+00 -4.5593999997e+01 4.5594000000e+01 5.1100000000e-04 0.0000e+00 -1.0000e+00
       23  2    1    2    0    0 +0.0000000000e+00 +0.0000000000e+00 +0.0000000000e+00 9.1188000000e+01 9.1188000000e+01 5.7624e-14 0.0000e+00
  9900012  1    3    3    0    0 +9.0976931539e+00 -7.8405550580e+00 -1.4367910258e+01 7.2461570294e+01 7.0000000000e+01 1.3843e-04 -1.0000e+00
      -12  1    3    3    0    0 -9.0976931539e+00 +7.8405550580e+00 +1.4367910258e+01 1.8726429706e+01 0.0000000000e+00 0.0000e+00 1.0000e+00
</event>
<event>
 5      7 +6.9480500e-03 9.11880000e+01 7.81616400e-03 1.18400000e-01
      -11 -1    0    0    0    0 +0.0000000000e+00 +0.0000000000e+00 +4.5593999997e+01 4.5594000000e+01 5.1100000000e-04 0.0000e+00 1.0000e+00
       11 -1    0    0    0    0 -0.0000000000e+00 -0.0000000000e+00 -4.5593999997e+01 4.5594000000e+01 5.1100000000e-04 0.0000e+00 -1.0000e+00
       23  2    1    2    0    0 +0.0000000000e+00 +0.0000000000e+00 +0.0000000000e+00 9.1188000000e+01 9.1188000000e+01 1.1832e-13 0.0000e+00
  9900012  1    3    3    0    0 +3.5180431848e+00 -1.5858770013e+01 -9.3167566964e+00 7.2461570294e+01 7.0000000000e+01 4.1544e-05 -1.0000e+00
       12  1    3    3    0    0 -3.5180431848e+00 +1.5858770013e+01 +9.3167566964e+00 1.8726429706e+01 0.0000000000e+00 0.0000e+00 -1.0000e+00
</event>
<event>
 5      8 +6.9480500e-03 9.11880000e+01 7.81616400e-03 1.18400000e-01
      -11 -1    0    0    0    0 +0.0000000000e+00 +0.0000000000e+00 +4.5593999997e+01 4.5594000000e+01 5.1100000000e-04 0.0000e+00 1.0000e+00
       11 -1    0    0    0    0 -0.0000000000e+00 -0.0000000000e+00 -4.5593999997e+01 4.5594000000e+01 5.1100000000e-04 0.0000e+00 -1.0000e+00
       23  2    1    2    0    0 +0.0000000000e+00 +0.0000000000e+00 +0.0000000000e+00 9.1188000000e+01 9.1188000000e+01 9.2758e-14 0.0000e+00
  9900012  1    3    3    0    0 +9.3078661467e+00 +1.6034570764e+01 +2.6335029379e+00 7.2461570294e+01 7.0000000000e+01 1.6253e-05 -1.0000e+00
      -12  1    3    3    0    0 -9.3078661467e+00 -1.6034570764e+01 -2.6335029379e+00 1.8726429706e+01 0.0000000000e+00 0.0000e+00 1.0000e+00
</event>
<event>
 5      1 +6.9480500e-03 9.11880000e+01 7.81616400e-03 1.18400000e-01
      -11 -1    0    0    0    0 +0.0000000000e+00 +0.0000000000e+00 +4.5593999997e+01 4.5594000000e+01 5.1100000000e-04 0.0000e+00 1.0000e+00
       11 -1    0    0    0    0 -0.0000000000e+00 -0.0000000000e+00 -4.5593999997e+01 4.5594000000e+01 5.1100000000e-04 0.0000e+00 -1.0000e+00
       23  2    1    2    0    0 +0.0000000000e+00 +0.0000000000e+00 +0.0000000000e+00 9.1188000000e+01 9.1188000000e+01 2.8164e-14 0.0000e+00
  9900012  1    3    3    0    0 -8.5070955445e+00 -1.0542862202e+01 -1.2928903724e+01 7.2461570294e+01 7.0000000000e+01 2.6317e-04 -1.0000e+00
       12  1    3    3    0    0 +8.5070955445e+00 +1.0542862202e+01 +1.2928903724e+01 1.8726429706e+01 0.0000000000e+00 0.0000e+00 -1.0000e+00
</event>
<event>
 5      3 +6.9480500e-03 9.11880000e+01 7.81616400e-03 1.18400000e-01
      -11 -1    0    0    0    0 +0.0000000000e+00 +0.0000000000e+00 +4.5593999997e+01 4.5594000000e+01 5.1100000000e-04 0.0000e+00 1.0000e+00
       11 -1    0    0    0    0 -0.0000000000e+00 -0.0000000000e+00 -4.5593999997e+01 4.5594000000e+01 5.1100000000e-04 0.0000e+00 -1.0000e+00
       23  2    1    2    0    0 +0.0000000000e+00 +0.0000000000e+00 +0.0000000000e+00 9.1188000000e+01 9.1188000000e+01 4.0214e-13 0.0000e+00
  9900012  1    3    3    0    0 +8.5140966779e-01 +1.8692063594e+01 -7.4901914497e-01 7.2461570294e+01 7.0000000000e+01 5.6102e-05 1.0000e+00
       12  1    3    3    0    0 -8.5140966779e-01 -1.8692063594e+01 +7.4901914497e-01 1.8726429706e+01 0.0000000000e+00 0.0000e+00 -1.0000e+00
</event>
<event>
 5      6 +6.9480500e-03 9.11880000e+01 7.81616400e-03 1.18400000e-01
      -11 -1    0    0    0    0 +0.0000000000e+00 +0.0000000000e+00 +4.5593999997e+01 4.5594000000e+01 5.1100000000e-04 0.0000e+00 -1.0000e+00
       11 -1    0    0    0    0 -0.0000000000e+00 -0.0000000000e+00 -4.5593999997e+01 4.5594000000e+01 5.1100000000e-04 0.0000e+00 1.0000e+00
       23  2    1    2    0    0 +0.0000000000e+00 +0.0000000000e+00 +0.0000000000e+00 9.1188000000e+01 9.1188000000e+01 3.0612e-14 0.0000e+00
  9900012  1    3    3    0    0 -1.0436607621e+01 +1.1492306273e+00 +1.5505987871e+01 7.2461570294e+01 7.0000000000e+01 3.9071e-04 -1.0000e+00
      -12  1    3    3    0    0 +1.0436607621e+01 -1.1492306273e+00 -1.5505987871e+01 1.8726429706e+01 0.0000000000e+00 0.0000e+00 1.0000e+00
</event>
<event>
 5      6 +6.9480500e-03 9.11880000e+01 7.81616400e-03 1.18400000e-01
      -11 -1    0    0    0    0 +0.0000000000e+00 +0.0000000000e+00 +4.5593999997e+01 4.5594000000e+01 5.1100000000e-04 0.0000e+00 1.0000e+00
       11 -1    0    0    0    0 -0.0000000000e+00 -0.0000000000e+00 -4.5593999997e+01 4.5594000000e+01 5.1100000000e-04 0.0000e+00 -1.0000e+00
       23  2    1    2    0    0 +0.0000000000e+00 +0.0000000000e+00 +0.0000000000e+00 9.1188000000e+01 9.1188000000e+01 1.2905e-13 0.0000e+00
  9900012  1    3    3    0    0 -1.0314358573e+01 -1.2282205970e+01 -9.6664674653e+00 7.2461570294e+01 7.0000000000e+01 1.1972e-04 -1.0000e+00
      -12  1    3    3    0    0 +1.0314358573e+01 +1.2282205970e+01 +9.6664674653e+00 1.8726429706e+01 0.0000000000e+00 0.0000e+00 1.0000e+00
</event>
<event>
 5      2 +6.9480500e-03 9.11880000e+01 7.81616400e-03 1.18400000e-01
      -11 -1    0    0    0    0 +0.0000000000e+00 +0.0000000000e+00 +4.5593999997e+01 4.5594000000e+01 5.1100000000e-04 0.0000e+00 1.0000e+00
       11 -1    0    0    0    0 -0.0000000000e+00 -0.0000000000e+00 -4.5593999997e+01 4.5594000000e+01 5.1100000000e-04 0.0000e+00 -1.0000e+00
       23  2    1    2    0    0 +0.0000000000e+00 +0.0000000000e+00 +0.0000000000e+00 9.1188000000e+01 9.1188000000e+01 3.2070e-14 0.0000e+00
  9900012  1    3    3    0    0 +8.8166288633e+00 +1.2875453253e+01 -1.0352242682e+01 7.2461570294e+01 7.0000000000e+01 2.6962e-04 -1.0000e+00
      -12  1    3    3    0    0 -8.8166288633e+00 -1.2875453253e+01 +1.0352242682e+01 1.8726429706e+01 0.0000000000e+00 0.0000e+00 1.0000e+00
</event>
<event>
 5      3 +6.9480500e-03 9.11880000e+01 7.81616400e-03 1.18400000e-01
      -11 -1    0    0    0    0 +0.0000000000e+00 +0.0000000000e+00 +4.5593999997e+01 4.5594000000e+01 5.1100000000e-04 0.0000e+00 -1.0000e+00
       11 -1    0    0    0    0 -0.0000000000e+00 -0.0000000000e+00 -4.5593999997e+01 4.5594000000e+01 5.1100000000e-04 0.0000e+00 1.0000e+00
       23  2    1    2    0    0 +0.0000000000e+00 +0.0000000000e+00 +0.0000000000e+00 9.1188000000e+01 9.1188000000e+01 2.3551e-14 0.0000e+00
  9900012  1    3    3    0    0 -1.6093199452e+01 -6.7079875790e+00 +6.8330815568e+00 7.2461570294e+01 7.0000000000e+01 1.6036e-04 -1.0000e+00
       12  1    3    3    0    0 +1.6093199452e+01 +6.7079875790e+00 -6.8330815568e+00 1.8726429706e+01 0.0000000000e+00 0.0000e+00 -1.0000e+00
</event>
<event>
 5      1 +6.9480500e-03 9.11880000e+01 7.81616400e-03 1.18400000e-01
      -11 -1    0    0    0    0 +0.0000000000e+00 +0.0000000000e+00 +4.5593999997e+01 4.5594000000e+01 5.1100000000e-04 0.0000e+00 1.0000e+00
       11 -1    0    0    0    0 -0.0000000000e+00 -0.0000000000e+00 -4.5593999997e+01 4.5594000000e+01 5.1100000000e-04 0.0000e+00 -1.0000e+00
       23  2    1    2    0    0 +0.0000000000e+00 +0.0000000000e+00 +0.0000000000e+00 9.1188000000e+01 9.1188000000e+01 8.1491e-14 0.0000e+00
  9900012  1    3    3    0    0 +1.4101818753e+01 +2.2627555829e-01 +1.2319361865e+01 7.2461570294e+01 7.0000000000e+01 8.9201e-05 1.0000e+00
       12  1    3    3    0    0 -1.4101818753e+01 -2.2627555829e-01 -1.2319361865e+01 1.8726429706e+01 0.0000000000e+00 0.0000e+00 -1.0000e+00
</event>
<event>
 5      5 +6.9480500e-03 9.11880000e+01 7.81616400e-03 1.18400000e-01
      -11 -1    0    0    0    0 +0.0000000000e+00 +0.0000000000e+00 +4.5593999997e+01 4.5594000000e+01 5.1100000000e-04 0.0000e+00 1.0000e+00
       11 -1    0    0    0    0 -0.0000000000e+00 -0.0000000000e+00 -4.5593999997e+01 4.5594000000e+01 5.1100000000e-04 0.0000e+00 -1.0000e+00
       23  2    1    2    0    0 +0.0000000000e+00 +0.0000000000e+00 +0.0000000000e+00 9.1188000000e+01 9.1188000000e+01 2.6075e-14 0.0000e+00
  9900012  1    3    3    0    0 -4.6875912473e+00 +1.3754556060e+01 +1.1811767243e+01 7.2461570294e+01 7.0000000000e+01 1.5639e-04 1.0000e+00
       12  1    3    3    0    0 +4.6875912473e+00 -1.3754556060e+01 -1.1811767243e+01 1.8726429706e+01 0.0000000000e+00 0.0000e+00 -1.0000e+00
</event>
<event>
 5      7 +6.9480500e-03 9.11880000e+01 7.81616400e-03 1.18400000e-01
      -11 -1    0    0    0    0 +0.0000000000e+00 +0.0000000000e+00 +4.5593999997e+01 4.5594000000e+01 5.1100000000e-04 0.0000e+00 -1.0000e+00
       11 -1    0    0    0    0 -0.0000000000e+00 -0.0000000000e+00 -4.5593999997e+01 4.5594000000e+01 5.1100000000e-04 0.0000e+00 1.0000e+00
       23  2    1    2    0    0 +0.0000000000e+00 +0.0000000000e+00 +0.0000000000e+00 9.1188000000e+01 9.1188000000e+01 1.1628e-13 0.0000e+00
  9900012  1    3    3    0    0 -3.1875350681e+00 +9.8291069255e+00 -1.5617536514e+01 7.2461570294e+01 7.0000000000e+01 5.6513e-05 1.0000e+00
       12  1    3    3    0    0 +3.1875350681e+00 -9.8291069255e+00 +1.5617536514e+01 1.8726429706e+01 0.0000000000e+00 0.0000e+00 -1.0000e+00
</event>
<event>
 5      4 +6.9480500e-03 9.11880000e+01 7.81616400e-03 1.18400000e-01
      -11 -1    0    0    0    0 +0.0000000000e+00 +0.0000000000e+00 +4.5593999997e+01 4.5594000000e+01 5.1100000000e-04 0.0000e+00 1.0000e+00
       11 -1    0    0    0    0 -0.0000000000e+00 -0.0000000000e+00 -4.5593999997e+01 4.5594000000e+01 5.1100000000e-04 0.0000e+00 -1.0000e+00
       23  2    1    2    0    0 +0.0000000000e+00 +0.0000000000e+00 +0.0000000000e+00 9.1188000000e+01 9.1188000000e+01 1.5739e-13 0.0000e+00
  9900012  1    3    3    0    0 -2.4417837032e+00 -1.0612199058e+01 -1.5234765933e+01 7.2461570294e+01 7.0000000000e+01 2.0254e-05 -1.0000e+00
      -12  1    3    3    0    0 +2.4417837032e+00 +1.0612199058e+01 +1.5234765933e+01 1.8726429706e+01 0.0000000000e+00 0.0000e+00 1.0000e+00
</event>
<event>
 5      5 +6.9480500e-03 9.11880000e+01 7.81616400e-03 1.18400000e-01
      -11 -1    0    0    0    0 +0.0000000000e+00 +0.0000000000e+00 +4.5593999997e+01 4.5594000000e+01 5.1100000000e-04 0.0000e+00 -1.0000e+00
       11 -1    0    0    0    0 -0.0000000000e+00 -0.0000000000e+00 -4.5593999997e+01 4.5594000000e+01 5.1100000000e-04 0.0000e+00 1.0000e+00
       23  2    1    2    0    0 +0.0000000000e+00 +0.0000000000e+00 +0.0000000000e+00 9.1188000000e+01 9.1188000000e+01 9.0647e-14 0.0000e+00
  9900012  1    3    3    0    0 -1.7638754286e+01 -6.6553154284e-01 +6.2538455796e+00 7.2461570294e+01 7.0000000000e+01 3.9449e-04 -1.0000e+00
       12  1    3    3    0    0 +1.7638754286e+01 +6.6553154284e-01 -6.2538455796e+00 1.8726429706e+01 0.0000000000e+00 0.0000e+00 -1.0000e+00
</event>
<event>
 5      3 +6.9480500e-03 9.11880000e+01 7.81616400e-03 1.18400000e-01
      -11 -1    0    0    0    0 +0.0000000000e+00 +0.0000000000e+00 +4.5593999997e+01 4.5594000000e+01 5.1100000000e-04 0.0000e+00 -1.0000e+00
       11 -1    0    0    0    0 -0.0000000000e+00 -0.0000000000e+00 -4.5593999997e+01 4.5594000000e+01 5.1100000000e-04 0.0000e+00 1.0000e+00
       23  2    1    2    0    0 +0.0000000000e+00 +0.0000000000e+00 +0.0000000000e+00 9.1188000000e+01 9.1188000000e+01 3.2609e-14 0.0000e+00
  9900012  1    3    3    0    0 -1.1377720785e+01 +1.3277829367e+00 -1.4814304970e+01 7.2461570294e+01 7.0000000000e+01 1.6188e-04 1.0000e+00
       12  1    3    3    0    0 +1.1377720785e+01 -1.3277829367e+00 +1.4814304970e+01 1.8726429706e+01 0.0000000000e+00 0.0000e+00 -1.0000e+00
</event>
<event>
 5      1 +6.9480500e-03 9.11880000e+01 7.81616400e-03 1.18400000e-01
      -11 -1    0    0    0    0 +0.0000000000e+00 +0.0000000000e+00 +4.5593999997e+01 4.5594000000e+01 5.1100000000e-04 0.0000e+00 1.0000e+00
       11 -1    0    0    0    0 -0.0000000000e+00 -0.0000000000e+00 -4.5593999997e+01 4.5594000000e+01 5.1100000000e-04 0.0000e+00 -1.0000e+00
       23  2    1    2    0    0 +0.0000000000e+00 +0.0000000000e+00 +0.0000000000e+00 9.1188000000e+01 9.1188000000e+01 3.1714e-14 0.0000e+00
  9900012  1    3    3    0    0 +5.6727512733e+00 -5.7762465253e+00 +1.6885912430e+01 7.2461570294e+01 7.0000000000e+01 1.5580e-04 1.0000e+00
       12  1    3    3    0    0 -5.6727512733e+00 +5.7762465253e+00 -1.6885912430e+01 1.8726429706e+01 0.0000000000e+00 0.0000e+00 -1.0000e+00
</event>
<event>
 5      4 +6.9480500e-03 9.11880000e+01 7.81616400e-03 1.18400000e-01
      -11 -1    0    0    0    0 +0.0000000000e+00 +0.0000000000e+00 +4.5593999997e+01 4.5594000000e+01 5.1100000000e-04 0.0000e+00 1.0000e+00
       11 -1    0    0    0    0 -0.0000000000e+00 -0.0000000000e+00 -4.5593999997e+01 4.5594000000e+01 5.1100000000e-04 0.0000e+00 -1.0000e+00
       23  2    1    2    0    0 +0.0000000000e+00 +0.0000000000e+00 +0.0000000000e+00 9.1188000000e+01 9.1188000000e+01 8.5398e-14 0.0000e+00
  9900012  1    3    3    0    0 -1.2210367724e+01 -7.7642203090e+00 -1.1887092687e+01 7.2461570294e+01 7.0000000000e+01 1.2060e-04 1.0000e+00
      -12  1    3    3    0    0 +1.2210367724e+01 +7.7642203090e+00 +1.1887092687e+01 1.8726429706e+01 0.0000000000e+00 0.0000e+00 1.0000e+00
</event>
<event>
 5      1 +6.9480500e-03 9.11880000e+01 7.81616400e-03 1.18400000e-01
      -11 -1    0    0    0    0 +0.0000000000e+00 +0.0000000000e+00 +4.5593999997e+01 4.5594000000e+01 5.1100000000e-04 0.0000e+00 1.0000e+00
       11 -1    0    0    0    0 -0.0000000000e+00 -0.0000000000e+00 -4.5593999997e+01 4.5594000000e+01 5.1100000000e-04 0.0000e+00 -1.0000e+00
       23  2    1    2    0    0 +0.0000000000e+00 +0.0000000000e+00 +0.0000000000e+00 9.1188000000e+01 9.1188000000e+01 1.7897e-14 0.0000e+00
  9900012  1    3    3    0    0 +1.1923497557e+01 +1.3652078493e+01 -4.7042670353e+00 7.2461570294e+01 7.0000000000e+01 1.0544e-04 -1.0000e+00
       12  1    3    3    0    0 -1.1923497557e+01 -1.3652078493e+01 +4.7042670353e+00 1.8726429706e+01 0.0000000000e+00 0.0000e+00 -1.0000e+00
</event>
<event>
 5      7 +6.9480500e-03 9.11880000e+01 7.81616400e-03 1.18400000e-01
      -11 -1    0    0    0    0 +0.0000000000e+00 +0.0000000000e+00 +4.5593999997e+01 4.5594000000e+01 5.1100000000e-04 0.0000e+00 -1.0000e+00
       11 -1    0    0    0    0 -0.0000000000e+00 -0.0000000000e+00 -4.5593999997e+01 4.5594000000e+01 5.1100000000e-04 0.0000e+00 1.0000e+00
       23  2    1    2    0    0 +0.0000000000e+00 +0.0000000000e+00 +0.0000000000e+00 9.1188000000e+01 9.1188000000e+01 2.9342e-14 0.0000e+00
  9900012  1    3    3    0    0 +1.1334746599e+01 +8.6646362139e+00 -1.2129582365e+01 7.2461570294e+01 7.0000000000e+01 3.5820e-04 1.0000e+00
       12  1    3    3    0    0 -1.1334746599e+01 -8.6646362139e+00 +1.2129582365e+01 1.8726429706e+01 0.0000000000e+00 0.0000e+00 -1.0000e+00
</event>
<event>
 5      1 +6.9480500e-03 9.11880000e+01 7.81616400e-03 1.18400000e-01
      -11 -1    0    0    0    0 +0.0000000000e+00 +0.0000000000e+00 +4.5593999997e+01 4.5594000000e+01 5.1100000000e-04 0.0000e+00 -1.0000e+00
       11 -1    0    0    0    0 -0.0000000000e+00 -0.0000000000e+00 -4.5593999997e+01 4.5594000000e+01 5.1100000000e-04 0.0000e+00 1.0000e+00
       23  2    1    2    0    0 +0.0000000000e+00 +0.0000000000e+00 +0.0000000000e+00 9.1188000000e+01 9.1188000000e+01 4.3050e-14 0.0000e+00
  9900012  1    3    3    0    0 +7.8385910469e+00 +1.6246501456e+01 -5.0286032219e+00 7.2461570294e+01 7.0000000000e+01 4.2558e-04 1.0000e+00
       12  1    3    3    0    0 -7.8385910469e+00 -1.6246501456e+01 +5.0286032219e+00 1.8726429706e+01 0.0000000000e+00 0.0000e+00 -1.0000e+00
</event>
<event>
 5      5 +6.9480500e-03 9.11880000e+01 7.81616400e-03 1.18400000e-01
      -11 -1    0    0    0    0 +0.0000000000e+00 +0.0000000000e+00 +4.5593999997e+01 4.5594000000e+01 5.1100000000e-04 0.0000e+00 1.0000e+00
       11 -1    0    0    0    0 -0.0000000000e+00 -0.0000000000e+00 -4.5593999997e+01 4.5594000000e+01 5.1100000000e-04 0.0000e+00 -1.0000e+00
       23  2    1    2    0    0 +0.0000000000e+00 +0.0000000000e+00 +0.0000000000e+00 9.1188000000e+01 9.1188000000e+01 2.6563e-14 0.0000e+00
  9900012  1    3    3    0    0 -4.4551947480e+00 -1.7545904071e+01 +4.7928759221e+00 7.2461570294e+01 7.0000000000e+01 2.5532e-06 -1.0000e+00
       12  1    3    3    0    0 +4.4551947480e+00 +1.7545904071e+01 -4.7928759221e+00 1.8726429706e+01 0.0000000000e+00 0.0000e+00 -1.0000e+00
</event>
<event>
 5      6 +6.9480500e-03 9.11880000e+01 7.81616400e-03 1.18400000e-01
      -11 -1    0    0    0    0 +0.0000000000e+00 +0.0000000000e+00 +4.5593999997e+01 4.5594000000e+01 5.1100000000e-04 0.0000e+00 -1.0000e+00
       11 -1    0    0    0    0 -0.0000000000e+00 -0.0000000000e+00 -4.5593999997e+01 4.5594000000e+01 5.1100000000e-04 0.0000e+00 1.0000e+00
       23  2    1    2    0    0 +0.0000000000e+00 +0.0000000000e+00 +0.0000000000e+00 9.1188000000e+01 9.1188000000e+01 1.0849e-13 0.0000e+00
  9900012  1    3    3    0    0 +1.9860332083e+00 +1.2921893947e+01 +1.3407441906e+01 7.2461570294e+01 7.0000000000e+01 2.3326e-04 -1.0000e+00
      -12  1    3    3    0    0 -1.9860332083e+00 -1.2921893947e+01 -1.3407441906e+01 1.8726429706e+01 0.0000000000e+00 0.0000e+00 1.0000e+00
</event>
<event>
 5      3 +6.9480500e-03 9.11880000e+01 7.81616400e-03 1.18400000e-01
      -11 -1    0    0    0    0 +0.0000000000e+00 +0.0000000000e+00 +4.5593999997e+01 4.5594000000e+01 5.1100000000e-04 0.0000e+00 -1.0000e+00
       11 -1    0    0    0    0 -0.0000000000e+00 -0.0000000000e+00 -4.5593999997e+01 4.5594000000e+01 5.1100000000e-04 0.0000e+00 1.0000e+00
       23  2    1    2    0    0 +0.0000000000e+00 +0.0000000000e+00 +0.0000000000e+00 9.1188000000e+01 9.1188000000e+01 7.1141e-14 0.0000e+00
  9900012  1    3    3    0    0 -1.7771279768e+01 +8.5156812665e-01 -5.8425693534e+00 7.2461570294e+01 7.0000000000e+01 4.4149e-05 1.0000e+00
       12  1    3    3    0    0 +1.7771279768e+01 -8.5156812665e-01 +5.8425693534e+00 1.8726429706e+01 0.0000000000e+00 0.0000e+00 -1.0000e+00
</event>
<event>
 5      4 +6.9480500e-03 9.11880000e+01 7.81616400e-03 1.18400000e-01
      -11 -1    0    0    0    0 +0.0000000000e+00 +0.0000000000e+00 +4.5593999997e+01 4.5594000000e+01 5.1100000000e-04 0.0000e+00 1.0000e+00
       11 -1    0    0    0    0 -0.0000000000e+00 -0.0000000000e+00 -4.5593999997e+01 4.5594000000e+01 5.1100000000e-04 0.0000e+00 -1.0000e+00
       23  2    1    2    0    0 +0.0000000000e+00 +0.0000000000e+00 +0.0000000000e+00 9.1188000000e+01 9.1188000000e+01 1.1657e-15 0.0000e+00
  9900012  1    3    3    0    0 +1.8134186635e+01 +1.3512134629e+00 +4.4726576882e+00 7.2461570294e+01 7.0000000000e+01 3.5345e-05 1.0000e+00
      -12  1    3    3    0    0 -1.8134186635e+01 -1.3512134629e+00 -4.4726576882e+00 1.8726429706e+01 0.0000000000e+00 0.0000e+00 1.0000e+00
</event>
<event>
 5      6 +6.9480500e-03 9.11880000e+01 7.81616400e-03 1.18400000e-01
      -11 -1    0    0    0    0 +0.0000000000e+00 +0.0000000000e+00 +4.5593999997e+01 4.5594000000e+01 5.1100000000e-04 0.0000e+00 1.0000e+00
       11 -1    0    0    0    0 -0.0000000000e+00 -0.0000000000e+00 -4.5593999997e+01 4.5594000000e+01 5.1100000000e-04 0.0000e+00 -1.0000e+00
       23  2    1    2    0    0 +0.0000000000e+00 +0.0000000000e+00 +0.0000000000e+00 9.1188000000e+01 9.1188000000e+01 5.3835e-13 0.0000e+00
  9900012  1    3    3    0    0 -5.6084923448e+00 -8.9652848268e+00 +1.5454696733e+01 7.2461570294e+01 7.0000000000e+01 3.2707e-04 1.0000e+00
      -12  1    3    3    0    0 +5.6084923448e+00 +8.9652848268e+00 -1.5454696733e+01 1.8726429706e+01 0.0000000000e+00 0.0000e+00 1.0000e+00
</event>
<event>
 5      8 +6.9480500e-03 9.11880000e+01 7.81616400e-03 1.18400000e-01
      -11 -1    0    0    0    0 +0.0000000000e+00 +0.0000000000e+00 +4.5593999997e+01 4.5594000000e+01 5.1100000000e-04 0.0000e+00 -1.0000e+00
       11 -1    0    0    0    0 -0.0000000000e+00 -0.0000000000e+00 -4.5593999997e+01 4.5594000000e+01 5.1100000000e-04 0.0000e+00 1.0000e+00
       23  2    1    2    0    0 +0.0000000000e+00 +0.0000000000e+00 +0.0000000000e+00 9.1188000000e+01 9.1188000000e+01 1.0203e-13 0.0000e+00
  9900012  1    3    3    0    0 +1.8292400331e+01 +4.0081836397e+00 -4.1515867962e-02 7.2461570294e+01 7.0000000000e+01 3.1925e-05 -1.0000e+00
      -12  1    3    3    0    0 -1.8292400331e+01 -4.0081836397e+00 +4.1515867962e-02 1.8726429706e+01 0.0000000000e+00 0.0000e+00 1.0000e+00
</event>
<event>
 5      2 +6.9480500e-03 9.11880000e+01 7.81616400e-03 1.18400000e-01
      -11 -1    0    0    0    0 +0.0000000000e+00 +0.0000000000e+00 +4.5593999997e+01 4.5594000000e+01 5.1100000000e-04 0.0000e+00 1.0000e+00
       11 -1    0    0    0    0 -0.0000000000e+00 -0.0000000000e+00 -4.5593999997e+01 4.5594000000e+01 5.1100000000e-04 0.0000e+00 -1.0000e+00
       23  2    1    2    0    0 +0.0000000000e+00 +0.0000000000e+00 +0.0000000000e+00 9.1188000000e+01 9.1188000000e+01 1.6482e-15 0.0000e+00
  9900012  1    3    3    0    0 -3.3725942868e+00 -9.0229282308e+00 -1.6059001944e+01 7.2461570294e+01 7.0000000000e+01 2.8547e-04 -1.0000e+00
      -12  1    3    3    0    0 +3.3725942868e+00 +9.0229282308e+00 +1.6059001944e+01 1.8726429706e+01 0.0000000000e+00 0.0000e+00 1.0000e+00
</event>
<event>
 5      5 +6.9480500e-03 9.11880000e+01 7.81616400e-03 1.18400000e-01
      -11 -1    0    0    0    0 +0.0000000000e+00 +0.0000000000e+00 +4.5593999997e+01 4.5594000000e+01 5.1100000000e-04 0.0000e+00 -1.0000e+00
       11 -1    0    0    0    0 -0.0000000000e+00 -0.0000000000e+00 -4.5593999997e+01 4.5594000000e+01 5.1100000000e-04 0.0000e+00 1.0000e+00
       23  2    1    2    0    0 +0.0000000000e+00 +0.0000000000e+00 +0.0000000000e+00 9.1188000000e+01 9.1188000000e+01 4.6870e-14 0.0000e+00
  9900012  1    3    3    0    0 -1.8063222187e+01 -4.9251707042e+00 -3.7665271706e-01 7.2461570294e+01 7.0000000000e+01 3.5451e-04 1.0000e+00
       12  1    3    3    0    0 +1.8063222187e+01 +4.9251707042e+00 +3.7665271706e-01 1.8726429706e+01 0.0000000000e+00 0.0000e+00 -1.0000e+00
</event>
<event>
 5      8 +6.9480500e-03 9.11880000e+01 7.81616400e-03 1.18400000e-01
      -11 -1    0    0    0    0 +0.0000000000e+00 +0.0000000000e+00 +4.5593999997e+01 4.5594000000e+01 5.1100000000e-04 0.0000e+00 1.0000e+00
       11 -1    0    0    0    0 -0.0000000000e+00 -0.0000000000e+00 -4.5593999997e+01 4.5594000000e+01 5.1100000000e-04 0.0000e+00 -1.0000e+00
       23  2    1    2    0    0 +0.0000000000e+00 +0.0000000000e+00 +0.0000000000e+00 9.1188000000e+01 9.1188000000e+01 8.3939e-14 0.0000e+00
  9900012  1    3    3    0    0 +1.3130036316e+01 +8.0682169511e+00 -1.0638852903e+01 7.2461570294e+01 7.0000000000e+01 1.1256e-05 -1.0000e+00
      -12  1    3    3    0    0 -1.3130036316e+01 -8.0682169511e+00 +1.0638852903e+01 1.8726429706e+01 0.0000000000e+00 0.0000e+00 1.0000e+00
</event>
<event>
 5      2 +6.9480500e-03 9.11880000e+01 7.81616400e-03 1.18400000e-01
      -11 -1    0    0    0    0 +0.0000000000e+00 +0.0000000000e+00 +4.5593999997e+01 4.5594000000e+01 5.1100000000e-04 0.0000e+00 1.0000e+00
       11 -1    0    0    0    0 -0.0000000000e+00 -0.0000000000e+00 -4.5593999997e+01 4.5594000000e+01 5.1100000000e-04 0.0000e+00 -1.0000e+00
       23  2    1    2    0    0 +0.0000000000e+00 +0.0000000000e+00 +0.0000000000e+00 9.1188000000e+01 9.1188000000e+01 1.6497e-13 0.0000e+00
  9900012  1    3    3    0    0 +1.4067689953e+01 +1.0482462788e+01 -6.5495986751e+00 7.2461570294e+01 7.0000000000e+01 7.2161e-05 -1.0000e+00
      -12  1    3    3    0    0 -1.4067689953e+01 -1.0482462788e+01 +6.5495986751e+00 1.8726429706e+01 0.0000000000e+00 0.0000e+00 1.0000e+00
</event>
<event>
 5      6 +6.9480500e-03 9.11880000e+01 7.81616400e-03 1.18400000e-01
      -11 -1    0    0    0    0 +0.0000000000e+00 +0.0000000000e+00 +4.5593999997e+01 4.5594000000e+01 5.1100000000e-04 0.0000e+00 -1.0000e+00
       11 -1    0    0    0    0 -0.0000000000e+00 -0.0000000000e+00 -4.5593999997e+01 4.5594000000e+01 5.1100000000e-04 0.0000e+00 1.0000e+00
       23  2    1    2    0    0 +0.0000000000e+00 +0.0000000000e+00 +0.0000000000e+00 9.1188000000e+01 9.1188000000e+01 6.2747e-15 0.0000e+00
  9900012  1    3    3    0    0 +8.4790555266e+00 -1.6693214492e+01 +3.4839175003e-01 7.2461570294e+01 7.0000000000e+01 7.7555e-06 -1.0000e+00
      -12  1    3    3    0    0 -8.4790555266e+00 +1.6693214492e+01 -3.4839175003e-01 1.8726429706e+01 0.0000000000e+00 0.0000e+00 1.0000e+00
</event>
<event>
 5      1 +6.9480500e-03 9.11880000e+01 7.81616400e-03 1.18400000e-01
      -11 -1    0    0    0    0 +0.0000000000e+00 +0.0000000000e+00 +4.5593999997e+01 4.5594000000e+01 5.1100000000e-04 0.0000e+00 1.0000e+00
       11 -1    0    0    0    0 -0.0000000000e+00 -0.0000000000e+00 -4.5593999997e+01 4.5594000000e+01 5.1100000000e-04 0.0000e+00 -1.0000e+00
       23  2    1    2    0    0 +0.0000000000e+00 +0.0000000000e+00 +0.0000000000e+00 9.1188000000e+01 9.1188000000e+01 1.3272e-13 0.0000e+00
  9900012  1    3    3    0    0 +1.1044643717e+01 -1.4694985391e+01 +3.5710529302e+00 7.2461570294e+01 7.0000000000e+01 1.8258e-05 -1.0000e+00
       12  1    3    3    0    0 -1.1044643717e+01 +1.4694985391e+01 -3.5710529302e+00 1.8726429706e+01 0.0000000000e+00 0.0000e+00 -1.0000e+00
</event>
<event>
 5      3 +6.9480500e-03 9.11880000e+01 7.81616400e-03 1.18400000e-01
      -11 -1    0    0    0    0 +0.0000000000e+00 +0.0000000000e+00 +4.5593999997e+01 4.5594000000e+01 5.1100000000e-04 0.0000e+00 -1.0000e+00
       11 -1    0    0    0    0 -0.0000000000e+00 -0.0000000000e+00 -4.5593999997e+01 4.5594000000e+01 5.1100000000e-04 0.0000e+00 1.0000e+00
       23  2    1    2    0    0 +0.0000000000e+00 +0.0000000000e+00 +0.0000000000e+00 9.1188000000e+01 9.1188000000e+01 1.0127e-13 0.0000e+00
  9900012  1    3    3    0    0 +3.8224308470e+00 -1.4454663666e+01 -1.1275233490e+01 7.2461570294e+01 7.0000000000e+01 1.9736e-05 1.0000e+00
       12  1    3    3    0    0 -3.8224308470e+00 +1.4454663666e+01 +1.1275233490e+01 1.8726429706e+01 0.0000000000e+00 0.0000e+00 -1.0000e+00
</event>
<event>
 5      5 +6.9480500e-03 9.11880000e+01 7.81616400e-03 1.18400000e-01
      -11 -1    0    0    0    0 +0.0000000000e+00 +0.0000000000e+00 +4.5593999997e+01 4.5594000000e+01 5.1100000000e-04 0.0000e+00 1.0000e+00
       11 -1    0    0    0    0 -0.0000000000e+00 -0.0000000000e+00 -4.5593999997e+01 4.5594000000e+01 5.1100000000e-04 0.0000e+00 -1.0000e+00
       23  2    1    2    0    0 +0.0000000000e+00 +0.0000000000e+00 +0.0000000000e+00 9.1188000000e+01 9.1188000000e+01 9.6419e-14 0.0000e+00
  9900012  1    3    3    0    0 -1.7217020919e+01 +7.0159405149e+00 -2.2427525276e+00 7.2461570294e+01 7.0000000000e+01 3.4816e-04 1.0000e+00
       12  1    3    3    0    0 +1.7217020919e+01 -7.0159405149e+00 +2.2427525276e+00 1.8726429706e+01 0.0000000000e+00 0.0000e+00 -1.0000e+00
</event>
<event>
 5      8 +6.9480500e-03 9.11880000e+01 7.81616400e-03 1.18400000e-01
      -11 -1    0    0    0    0 +0.0000000000e+00 +0.0000000000e+00 +4.5593999997e+01 4.5594000000e+01 5.1100000000e-04 0.0000e+00 -1.0000e+00
       11 -1    0    0    0    0 -0.0000000000e+00 -0.0000000000e+00 -4.5593999997e+01 4.5594000000e+01 5.1100000000e-04 0.0000e+00 1.0000e+00
       23  2    1    2    0    0 +0.0000000000e+00 +0.0000000000e+00 +0.0000000000e+00 9.1188000000e+01 9.1188000000e+01 4.5362e-15 0.0000e+00
  9900012  1    3    3    0    0 -6.5420200912e+00 -5.0733903291e+00 +1.6797078711e+01 7.2461570294e+01 7.0000000000e+01 5.9021e-05 -1.0000e+00
      -12  1    3    3    0    0 +6.5420200912e+00 +5.0733903291e+00 -1.6797078711e+01 1.8726429706e+01 0.0000000000e+00 0.0000e+00 1.0000e+00
</event>
<event>
 5      1 +6.9480500e-03 9.11880000e+01 7.81616400e-03 1.18400000e-01
      -11 -1    0    0    0    0 +0.0000000000e+00 +0.0000000000e+00 +4.5593999997e+01 4.5594000000e+01 5.1100000000e-04 0.0000e+00 1.0000e+00
       11 -1    0    0    0    0 -0.0000000000e+00 -0.0000000000e+00 -4.5593999997e+01 4.5594000000e+01 5.1100000000e-04 0.0000e+00 -1.0000e+00
       23  2    1    2    0    0 +0.0000000000e+00 +0.0000000000e+00 +0.0000000000e+00 9.1188000000e+01 9.1188000000e+01 7.5053e-14 0.0000e+00
  9900012  1    3    3    0    0 +1.4203334830e+00 -1.7641740850e+01 -6.1180717637e+00 7.2461570294e+01 7.0000000000e+01 3.5031e-05 1.0000e+00
       12  1    3    3    0    0 -1.4203334830e+00 +1.7641740850e+01 +6.1180717637e+00 1.8726429706e+01 0.0000000000e+00 0.0000e+00 -1.0000e+00
</event>
<event>
 5      5 +6.9480500e-03 9.11880000e+01 7.81616400e-03 1.18400000e-01
      -11 -1    0    0    0    0 +0.0000000000e+00 +0.0000000000e+00 +4.5593999997e+01 4.5594000000e+01 5.1100000000e-04 0.0000e+00 -1.0000e+00
       11 -1    0    0    0    0 -0.0000000000e+00 -0.0000000000e+00 -4.5593999997e+01 4.5594000000e+01 5.1100000000e-04 0.0000e+00 1.0000e+00
       23  2    1    2    0    0 +0.0000000000e+00 +0.0000000000e+00 +0.0000000000e+00 9.1188000000e+01 9.1188000000e+01 1.2050e-14 0.0000e+00
  9900012  1    3    3    0    0 +6.5952832129e-01 +1.1368549023e+01 -1.4866078334e+01 7.2461570294e+01 7.0000000000e+01 5.9331e-05 1.0000e+00
       12  1    3    3    0    0 -6.5952832129e-01 -1.1368549023e+01 +1.4866078334e+01 1.8726429706e+01 0.0000000000e+00 0.0000e+00 -1.0000e+00
</event>
<event>
 5      7 +6.9480500e-03 9.11880000e+01 7.81616400e-03 1.18400000e-01
      -11 -1    0    0    0    0 +0.0000000000e+00 +0.0000000000e+00 +4.5593999997e+01 4.5594000000e+01 5.1100000000e-04 0.0000e+00 -1.0000e+00
       11 -1    0    0    0    0 -0.0000000000e+00 -0.0000000000e+00 -4.5593999997e+01 4.5594000000e+01 5.1100000000e-04 0.0000e+00 1.0000e+00
       23  2    1    2    0    0 +0.0000000000e+00 +0.0000000000e+00 +0.0000000000e+00 9.1188000000e+01 9.1188000000e+01 2.1698e-14 0.0000e+00
  9900012  1    3    3    0    0 +6.2865512284e+00 +1.1561160954e+01 -1.3322837557e+01 7.2461570294e+01 7.0000000000e+01 5.4409e-05 1.0000e+00
       12  1    3    3    0    0 -6.2865512284e+00 -1.1561160954e+01 +1.3322837557e+01 1.8726429706e+01 0.0000000000e+00 0.0000e+00 -1.0000e+00
</event>
<event>
 5      6 +6.9480500e-03 9.11880000e+01 7.81616400e-03 1.18400000e-01
      -11 -1    0    0    0    0 +0.0000000000e+00 +0.0000000000e+00 +4.5593999997e+01 4.5594000000e+01 5.1100000000e-04 0.0000e+00 1.0000e+00
       11 -1    0    0    0    0 -0.0000000000e+00 -0.0000000000e+00 -4.5593999997e+01 4.5594000000e+01 5.1100000000e-04 0.0000e+00 -1.0000e+00
       23  2    1    2    0    0 +0.0000000000e+00 +0.0000000000e+00 +0.0000000000e+00 9.1188000000e+01 9.1188000000e+01 1.1684e-13 0.0000e+00
  9900012  1    3    3    0    0 +7.4198025246e+00 +4.7496566558e+00 -1.6524722741e+01 7.2461570294e+01 7.0000000000e+01 1.8838e-04 -1.0000e+00
      -12  1    3    3    0    0 -7.4198025246e+00 -4.7496566558e+00 +1.6524722741e+01 1.8726429706e+01 0.0000000000e+00 0.0000e+00 1.0000e+00
</event>
<event>
 5      7 +6.9480500e-03 9.11880000e+01 7.81616400e-03 1.18400000e-01
      -11 -1    0    0    0    0 +0.0000000000e+00 +0.0000000000e+00 +4.5593999997e+01 4.5594000000e+01 5.1100000000e-04 0.0000e+00 -1.0000e+00
       11 -1    0    0    0    0 -0.0000000000e+00 -0.0000000000e+00 -4.5593999997e+01 4.5594000000e+01 5.1100000000e-04 0.0000e+00 1.0000e+00
       23  2    1    2    0    0 +0.0000000000e+00 +0.0000000000e+00 +0.0000000000e+00 9.1188000000e+01 9.1188000000e+01 1.4649e-14 0.0000e+00
  9900012  1    3    3    0    0 +1.1314575788e+01 -1.4496006927e+01 +3.5391139337e+00 7.2461570294e+01 7.0000000000e+01 9.5266e-06 -1.0000e+00
       12  1    3    3    0    0 -1.1314575788e+01 +1.4496006927e+01 -3.5391139337e+00 1.8726429706e+01 0.0000000000e+00 0.0000e+00 -1.0000e+00
</event>
<event>
 5      6 +6.9480500e-03 9.11880000e+01 7.81616400e-03 1.18400000e-01
      -11 -1    0    0    0    0 +0.0000000000e+00 +0.0000000000e+00 +4.5593999997e+01 4.5594000000e+01 5.1100000000e-04 0.0000e+00 -1.0000e+00
       11 -1    0    0    0    0 -0.0000000000e+00 -0.0000000000e+00 -4.5593999997e+01 4.5594000000e+01 5.1100000000e-04 0.0000e+00 1.0000e+00
       23  2    1    2    0    0 +0.0000000000e+00 +0.0000000000e+00 +0.0000000000e+00 9.1188000000e+01 9.1188000000e+01 2.1879e-14 0.0000e+00
  9900012  1    3    3    0    0 +8.5014117647e+00 -1.2388432629e+01 -1.1177294151e+01 7.2461570294e+01 7.0000000000e+01 1.4126e-04 -1.0000e+00
      -12  1    3    3    0    0 -8.5014117647e+00 +1.2388432629e+01 +1.1177294151e+01 1.8726429706e+01 0.0000000000e+00 0.0000e+00 1.0000e+00
</event>
<event>
 5      4 +6.9480500e-03 9.11880000e+01 7.81616400e-03 1.18400000e-01
      -11 -1    0    0    0    0 +0.0000000000e+00 +0.0000000000e+00 +4.5593999997e+01 4.5594000000e+01 5.1100000000e-04 0.0000e+00 1.0000e+00
       11 -1    0    0    0    0 -0.0000000000e+00 -0.0000000000e+00 -4.5593999997e+01 4.5594000000e+01 5.1100000000e-04 0.0000e+00 -1.0000e+00
       23  2    1    2    0    0 +0.0000000000e+00 +0.0000000000e+00 +0.0000000000e+00 9.1188000000e+01 9.1188000000e+01 3.7220e-14 0.0000e+00
  9900012  1    3    3    0    0 -7.2096227512e+00 -5.1260508180e+00 -1.6505275288e+01 7.2461570294e+01 7.0000000000e+01 1.9639e-04 -1.0000e+00
      -12  1    3    3    0    0 +7.2096227512e+00 +5.1260508180e+00 +1.6505275288e+01 1.8726429706e+01 0.0000000000e+00 0.0000e+00 1.0000e+00
</event>
<event>
 5      5 +6.9480500e-03 9.11880000e+01 7.81616400e-03 1.18400000e-01
      -11 -1    0    0    0    0 +0.0000000000e+00 +0.0000000000e+00 +4.5593999997e+01 4.5594000000e+01 5.1100000000e-04 0.0000e+00 -1.0000e+00
       11 -1    0    0    0    0 -0.0000000000e+00 -0.0000000000e+00 -4.5593999997e+01 4.5594000000e+01 5.1100000000e-04 0.0000e+00 1.0000e+00
       23  2    1    2    0    0 +0.0000000000e+00 +0.0000000000e+00 +0.0000000000e+00 9.1188000000e+01 9.1188000000e+01 9.4629e-14 0.0000e+00
  9900012  1    3    3    0    0 +2.2648626855e+00 +1.3344060866e+01 -1.2941623011e+01 7.2461570294e+01 7.0000000000e+01 4.0462e-05 1.0000e+00
       12  1    3    3    0    0 -2.2648626855e+00 -1.3344060866e+01 +1.2941623011e+01 1.8726429706e+01 0.0000000000e+00 0.0000e+00 -1.0000e+00
</event>
<event>
 5      3 +6.9480500e-03 9.11880000e+01 7.81616400e-03 1.18400000e-01
      -11 -1    0    0    0    0 +0.0000000000e+00 +0.0000000000e+00 +4.5593999997e+01 4.5594000000e+01 5.1100000000e-04 0.0000e+00 1.0000e+00
       11 -1    0    0    0    0 -0.0000000000e+00 -0.0000000000e+00 -4.5593999997e+01 4.5594000000e+01 5.1100000000e-04 0.0000e+00 -1.0000e+00
       23  2    1    2    0    0 +0.0000000000e+00 +0.0000000000e+00 +0.0000000000e+00 9.1188000000e+01 9.1188000000e+01 7.9290e-14 0.0000e+00
  9900012  1    3    3    0    0 -3.3800979333e+00 +7.3545317340e+00 +1.6886828313e+01 7.2461570294e+01 7.0000000000e+01 5.8352e-05 1.0000e+00
       12  1    3    3    0    0 +3.3800979333e+00 -7.3545317340e+00 -1.6886828313e+01 1.8726429706e+01 0.0000000000e+00 0.0000e+00 -1.0000e+00
</event>
<event>
 5      4 +6.9480500e-03 9.11880000e+01 7.81616400e-03 1.18400000e-01
      -11 -1    0    0    0    0 +0.0000000000e+00 +0.0000000000e+00 +4.5593999997e+01 4.5594000000e+01 5.1100000000e-04 0.0000e+00 -1.0000e+00
       11 -1    0    0    0    0 -0.0000000000e+00 -0.0000000000e+00 -4.5593999997e+01 4.5594000000e+01 5.1100000000e-04 0.0000e+00 1.0000e+00
       23  2    1    2    0    0 +0.0000000000e+00 +0.0000000000e+00 +0.0000000000e+00 9.1188000000e+01 9.1188000000e+01 7.7667e-14 0.0000e+00
  9900012  1    3    3    0    0 -1.7050107238e+01 -1.9890628261e+00 +7.4844266162e+00 7.2461570294e+01 7.0000000000e+01 1.3023e-04 -1.0000e+00
      -12  1    3    3    0    0 +1.7050107238e+01 +1.9890628261e+00 -7.4844266162e+00 1.8726429706e+01 0.0000000000e+00 0.0000e+00 1.0000e+00
</event>
<event>
 5      6 +6.9480500e-03 9.11880000e+01 7.81616400e-03 1.18400000e-01
      -11 -1    0    0    0    0 +0.0000000000e+00 +0.0000000000e+00 +4.5593999997e+01 4.5594000000e+01 5.1100000000e-04 0.0000e+00 1.0000e+00
       11 -1    0    0    0    0 -0.0000000000e+00 -0.0000000000e+00 -4.5593999997e+01 4.5594000000e+01 5.1100000000e-04 0.0000e+00 -1.0000e+00
       23  2    1    2    0    0 +0.0000000000e+00 +0.0000000000e+00 +0.0000000000e+00 9.1188000000e+01 9.1188000000e+01 1.8641e-15 0.0000e+00
  9900012  1    3    3    0    0 -7.9639394589e+00 -1.4576688588e+01 +8.6472531834e+00 7.2461570294e+01 7.0000000000e+01 5.5419e-05 1.0000e+00
      -12  1    3    3    0    0 +7.9639394589e+00 +1.4576688588e+01 -8.6472531834e+00 1.8726429706e+01 0.0000000000e+00 0.0000e+00 1.0000e+00
</event>
<event>
 5      6 +6.9480500e-03 9.11880000e+01 7.81616400e-03 1.18400000e-01
      -11 -1    0    0    0    0 +0.0000000000e+00 +0.0000000000e+00 +4.5593999997e+01 4.5594000000e+01 5.1100000000e-04 0.0000e+00 1.0000e+00
       11 -1    0    0    0    0 -0.0000000000e+00 -0.0000000000e+00 -4.5593999997e+01 4.5594000000e+01 5.1100000000e-04 0.0000e+00 -1.0000e+00
       23  2    1    2    0    0 +0.0000000000e+00 +0.0000000000e+00 +0.0000000000e+00 9.1188000000e+01 9.1188000000e+01 6.2611e-14 0.0000e+00
  9900012  1    3    3    0    0 +1.3888566132e+01 +5.0260131772e+00 -1.1511997736e+01 7.2461570294e+01 7.0000000000e+01 1.4498e-06 -1.0000e+00
      -12  1    3    3    0    0 -1.3888566132e+01 -5.0260131772e+00 +1.1511997736e+01 1.8726429706e+01 0.0000000000e+00 0.0000e+00 1.0000e+00
</event>
<event>
 5      7 +6.9480500e-03 9.11880000e+01 7.81616400e-03 1.18400000e-01
      -11 -1    0    0    0    0 +0.0000000000e+00 +0.0000000000e+00 +4.5593999997e+01 4.5594000000e+01 5.1100000000e-04 0.0000e+00 1.0000e+00
       11 -1    0    0    0    0 -0.0000000000e+00 -0.0000000000e+00 -4.5593999997e+01 4.5594000000e+01 5.1100000000e-04 0.0000e+00 -1.0000e+00
       23  2    1    2    0    0 +0.0000000000e+00 +0.0000000000e+00 +0.0000000000e+00 9.1188000000e+01 9.1188000000e+01 3.4083e-14 0.0000e+00
  9900012  1    3    3    0    0 -3.0547279969e+00 -1.0543833786e+01 +1.5171531744e+01 7.2461570294e+01 7.0000000000e+01 1.7639e-05 1.0000e+00
       12  1    3    3    0    0 +3.0547279969e+00 +1.0543833786e+01 -1.5171531744e+01 1.8726429706e+01 0.0000000000e+00 0.0000e+00 -1.0000e+00
</event>
<event>
 5      1 +6.9480500e-03 9.11880000e+01 7.81616400e-03 1.18400000e-01
      -11 -1    0    0    0    0 +0.0000000000e+00 +0.0000000000e+00 +4.5593999997e+01 4.5594000000e+01 5.1100000000e-04 0.0000e+00 -1.0000e+00
       11 -1    0    0    0    0 -0.0000000000e+00 -0.0000000000e+00 -4.5593999997e+01 4.5594000000e+01 5.1100000000e-04 0.0000e+00 1.0000e+00
       23  2    1    2    0    0 +0.0000000000e+00 +0.0000000000e+00 +0.0000000000e+00 9.1188000000e+01 9.1188000000e+01 2.0854e-14 0.0000e+00
  9900012  1    3    3    0    0 -3.7260296152e+00 -5.4642499443e+00 -1.7519641702e+01 7.2461570294e+01 7.0000000000e+01 1.9256e-05 1.0000e+00
       12  1    3    3    0    0 +3.7260296152e+00 +5.4642499443e+00 +1.7519641702e+01 1.8726429706e+01 0.0000000000e+00 0.0000e+00 -1.0000e+00
</event>
<event>
 5      1 +6.9480500e-03 9.11880000e+01 7.81616400e-03 1.18400000e-01
      -11 -1    0    0    0    0 +0.0000000000e+00 +0.0000000000e+00 +4.5593999997e+01 4.5594000000e+01 5.1100000000e-04 0.0000e+00 -1.0000e+00
       11 -1    0    0    0    0 -0.0000000000e+00 -0.0000000000e+00 -4.5593999997e+01 4.5594000000e+01 5.1100000000e-04 0.0000e+00 1.0000e+00
       23  2    1    2    0    0 +0.0000000000e+00 +0.0000000000e+00 +0.0000000000e+00 9.1188000000e+01 9.1188000000e+01 1.9264e-13 0.0000e+00
  9900012  1    3    3    0    0 -5.6620503155e+00 -4.6952346611e+00 -1.7221356718e+01 7.2461570294e+01 7.0000000000e+01 5.2209e-04 1.0000e+00
       12  1    3    3    0    0 +5.6620503155e+00 +4.6952346611e+00 +1.7221356718e+01 1.8726429706e+01 0.0000000000e+00 0.0000e+00 -1.0000e+00
</event>
<event>
 5      3 +6.9480500e-03 9.11880000e+01 7.81616400e-03 1.18400000e-01
      -11 -1    0    0    0    0 +0.0000000000e+00 +0.0000000000e+00 +4.5593999997e+01 4.5594000000e+01 5.1100000000e-04 0.0000e+00 1.0000e+00
       11 -1    0    0    0    0 -0.0000000000e+00 -0.0000000000e+00 -4.5593999997e+01 4.5594000000e+01 5.1100000000e-04 0.0000e+00 -1.0000e+00
       23  2    1    2    0    0 +0.0000000000e+00 +0.0000000000e+00 +0.0000000000e+00 9.1188000000e+01 9.1188000000e+01 2.9220e-15 0.0000e+00
  9900012  1    3    3    0    0 +2.7550176222e+00 -7.3255268169e-01 +1.8508171546e+01 7.2461570294e+01 7.0000000000e+01 6.5837e-05 1.0000e+00
       12  1    3    3    0    0 -2.7550176222e+00 +7.3255268169e-01 -1.8508171546e+01 1.8726429706e+01 0.0000000000e+00 0.0000e+00 -1.0000e+00
</event>
<event>
 5      1 +6.9480500e-03 9.11880000e+01 7.81616400e-03 1.18400000e-01
      -11 -1    0    0    0    0 +0.0000000000e+00 +0.0000000000e+00 +4.5593999997e+01 4.5594000000e+01 5.1100000000e-04 0.0000e+00 1.0000e+00
       11 -1    0    0    0    0 -0.0000000000e+00 -0.0000000000e+00 -4.5593999997e+01 4.5594000000e+01 5.1100000000e-04 0.0000e+00 -1.0000e+00
       23  2    1    2    0    0 +0.0000000000e+00 +0.0000000000e+00 +0.0000000000e+00 9.1188000000e+01 9.1188000000e+01 2.7613e-14 0.0000e+00
  9900012  1    3    3    0    0 -1.0867466816e+01 -6.9089162788e+00 +1.3595742362e+01 7.2461570294e+01 7.0000000000e+01 1.3885e-04 1.0000e+00
       12  1    3    3    0    0 +1.0867466816e+01 +6.9089162788e+00 -1.3595742362e+01 1.8726429706e+01 0.0000000000e+00 0.0000e+00 -1.0000e+00
</event>
<event>
 5      2 +6.9480500e-03 9.11880000e+01 7.81616400e-03 1.18400000e-01
      -11 -1    0    0    0    0 +0.0000000000e+00 +0.0000000000e+00 +4.5593999997e+01 4.5594000000e+01 5.1100000000e-04 0.0000e+00 1.0000e+00
       11 -1    0    0    0    0 -0.0000000000e+00 -0.0000000000e+00 -4.5593999997e+01 4.5594000000e+01 5.1100000000e-04 0.0000e+00 -1.0000e+00
       23  2    1    2    0    0 +0.0000000000e+00 +0.0000000000e+00 +0.0000000000e+00 9.1188000000e+01 9.1188000000e+01 7.2993e-14 0.0000e+00
  9900012  1    3    3    0    0 -1.3723653355e+01 +1.1381089478e+01 -5.7281157809e+00 7.2461570294e+01 7.0000000000e+01 2.3868e-04 -1.0000e+00
      -12  1    3    3    0    0 +1.3723653355e+01 -1.1381089478e+01 +5.7281157809e+00 1.8726429706e+01 0.0000000000e+00 0.0000e+00 1.0000e+00
</event>
<event>
 5      5 +6.9480500e-03 9.11880000e+01 7.81616400e-03 1.18400000e-01
      -11 -1    0    0    0    0 +0.0000000000e+00 +0.0000000000e+00 +4.5593999997e+01 4.5594000000e+01 5.1100000000e-04 0.0000e+00 -1.0000e+00
       11 -1    0    0    0    0 -0.0000000000e+00 -0.0000000000e+00 -4.5593999997e+01 4.5594000000e+01 5.1100000000e-04 0.0000e+00 1.0000e+00
       23  2    1    2    0    0 +0.0000000000e+00 +0.0000000000e+00 +0.0000000000e+00 9.1188000000e+01 9.1188000000e+01 2.1604e-14 0.0000e+00
  9900012  1    3    3    0    0 -2.3876883223e+00 +1.0176599438e+01 -1.5537533198e+01 7.2461570294e+01 7.0000000000e+01 1.0929e-04 1.0000e+00
       12  1    3    3    0    0 +2.3876883223e+00 -1.0176599438e+01 +1.5537533198e+01 1.8726429706e+01 0.0000000000e+00 0.0000e+00 -1.0000e+00
</event>
<event>
 5      8 +6.9480500e-03 9.11880000e+01 7.81616400e-03 1.18400000e-01
      -11 -1    0    0    0    0 +0.0000000000e+00 +0.0000000000e+00 +4.5593999997e+01 4.5594000000e+01 5.1100000000e-04 0.0000e+00 1.0000e+00
       11 -1    0    0    0    0 -0.0000000000e+00 -0.0000000000e+00 -4.5593999997e+01 4.5594000000e+01 5.1100000000e-04 0.0000e+00 -1.0000e+00
       23  2    1    2    0    0 +0.0000000000e+00 +0.0000000000e+00 +0.0000000000e+00 9.1188000000e+01 9.1188000000e+01 1.3304e-13 0.0000e+00
  9900012  1    3    3    0    0 -1.4009912165e+01 -2.7103370562e+00 -1.2126648493e+01 7.2461570294e+01 7.0000000000e+01 3.2479e-05 -1.0000e+00
      -12  1    3    3    0    0 +1.4009912165e+01 +2.7103370562e+00 +1.2126648493e+01 1.8726429706e+01 0.0000000000e+00 0.0000e+00 1.0000e+00
</event>
<event>
 5      7 +6.9480500e-03 9.11880000e+01 7.81616400e-03 1.18400000e-01
      -11 -1    0    0    0    0 +0.0000000000e+00 +0.0000000000e+00 +4.5593999997e+01 4.5594000000e+01 5.1100000000e-04 0.0000e+00 1.0000e+00
       11 -1    0    0    0    0 -0.0000000000e+00 -0.0000000000e+00 -4.5593999997e+01 4.5594000000e+01 5.1100000000e-04 0.0000e+00 -1.0000e+00
       23  2    1    2    0    0 +0.0000000000e+00 +0.0000000000e+00 +0.0000000000e+00 9.1188000000e+01 9.1188000000e+01 1.0779e-13 0.0000e+00
  9900012  1    3    3    0    0 -5.4187044365e+00 -1.1795031240e+01 +1.3497927611e+01 7.2461570294e+01 7.0000000000e+01 1.5715e-04 1.0000e+00
       12  1    3    3    0    0 +5.4187044365e+00 +1.1795031240e+01 -1.3497927611e+01 1.8726429706e+01 0.0000000000e+00 0.0000e+00 -1.0000e+00
</event>
<event>
 5      5 +6.9480500e-03 9.11880000e+01 7.81616400e-03 1.18400000e-01
      -11 -1    0    0    0    0 +0.0000000000e+00 +0.0000000000e+00 +4.5593999997e+01 4.5594000000e+01 5.1100000000e-04 0.0000e+00 -1.0000e+00
       11 -1    0    0    0    0 -0.0000000000e+00 -0.0000000000e+00 -4.5593999997e+01 4.5594000000e+01 5.1100000000e-04 0.0000e+00 1.0000e+00
       23  2    1    2    0    0 +0.0000000000e+00 +0.0000000000e+00 +0.0000000000e+00 9.1188000000e+01 9.1188000000e+01 1.7259e-15 0.0000e+00
  9900012  1    3    3    0    0 +1.1787646883e+01 -1.0009705887e+01 -1.0561076580e+01 7.2461570294e+01 7.0000000000e+01 8.9277e-05 1.0000e+00
       12  1    3    3    0    0 -1.1787646883e+01 +1.0009705887e+01 +1.0561076580e+01 1.8726429706e+01 0.0000000000e+00 0.0000e+00 -1.0000e+00
</event>
<event>
 5      5 +6.9480500e-03 9.11880000e+01 7.81616400e-03 1.18400000e-01
      -11 -1    0    0    0    0 +0.0000000000e+00 +0.0000000000e+00 +4.5593999997e+01 4.5594000000e+01 5.1100000000e-04 0.0000e+00 -1.0000e+00
       11 -1    0    0    0    0 -0.0000000000e+00 -0.0000000000e+00 -4.5593999997e+01 4.5594000000e+01 5.1100000000e-04 0.0000e+00 1.0000e+00
       23  2    1    2    0    0 +0.0000000000e+00 +0.0000000000e+00 +0.0000000000e+00 9.1188000000e+01 9.1188000000e+01 2.3342e-13 0.0000e+00
  9900012  1    3    3    0    0 +5.5881230476e+00 -1.6339528401e+00 -1.7798377691e+01 7.2461570294e+01 7.0000000000e+01 7.0128e-05 1.0000e+00
       12  1    3    3    0    0 -5.5881230476e+00 +1.6339528401e+00 +1.7798377691e+01 1.8726429706e+01 0.0000000000e+00 0.0000e+00 -1.0000e+00
</event>
<event>
 5      2 +6.9480500e-03 9.11880000e+01 7.81616400e-03 1.18400000e-01
      -11 -1    0    0    0    0 +0.0000000000e+00 +0.0000000000e+00 +4.5593999997e+01 4.5594000000e+01 5.1100000000e-04 0.0000e+00 -1.0000e+00
       11 -1    0    0    0    0 -0.0000000000e+00 -0.0000000000e+00 -4.5593999997e+01 4.5594000000e+01 5.1100000000e-04 0.0000e+00 1.0000e+00
       23  2    1    2    0    0 +0.0000000000e+00 +0.0000000000e+00 +0.0000000000e+00 9.1188000000e+01 9.1188000000e+01 8.5266e-14 0.0000e+00
  9900012  1    3    3    0    0 +7.0731081270e+00 -6.4878217604e+00 +1.6079753722e+01 7.2461570294e+01 7.0000000000e+01 2.4971e-04 -1.0000e+00
      -12  1    3    3    0    0 -7.0731081270e+00 +6.4878217604e+00 -1.6079753722e+01 1.8726429706e+01 0.0000000000e+00 0.0000e+00 1.0000e+00
</event>
<event>
 5      6 +6.9480500e-03 9.11880000e+01 7.81616400e-03 1.18400000e-01
      -11 -1    0    0    0    0 +0.0000000000e+00 +0.0000000000e+00 +4.5593999997e+01 4.5594000000e+01 5.1100000000e-04 0.0000e+00 -1.0000e+00
       11 -1    0    0    0    0 -0.0000000000e+00 -0.0000000000e+00 -4.5593999997e+01 4.5594000000e+01 5.1100000000e-04 0.0000e+00 1.0000e+00
       23  2    1    2    0    0 +0.0000000000e+00 +0.0000000000e+00 +0.0000000000e+00 9.1188000000e+01 9.1188000000e+01 1.4446e-13 0.0000e+00
  9900012  1    3    3    0    0 +4.3342459360e+00 +1.2108212673e+01 -1.3611931073e+01 7.2461570294e+01 7.0000000000e+01 7.4569e-04 1.0000e+00
      -12  1    3    3    0    0 -4.3342459360e+00 -1.2108212673e+01 +1.3611931073e+01 1.8726429706e+01 0.0000000000e+00 0.0000e+00 1.0000e+00
</event>
<event>
 5      8 +6.9480500e-03 9.11880000e+01 7.81616400e-03 1.18400000e-01
      -11 -1    0    0    0    0 +0.0000000000e+00 +0.0000000000e+00 +4.5593999997e+01 4.5594000000e+01 5.1100000000e-04 0.0000e+00 1.0000e+00
       11 -1    0    0    0    0 -0.0000000000e+00 -0.0000000000e+00 -4.5593999997e+01 4.5594000000e+01 5.1100000000e-04 0.0000e+00 -1.0000e+00
       23  2    1    2    0    0 +0.0000000000e+00 +0.0000000000e+00 +0.0000000000e+00 9.1188000000e+01 9.1188000000e+01 1.4752e-13 0.0000e+00
  9900012  1    3    3    0    0 +2.7712236085e+00 +9.4694385747e+00 -1.5916319371e+01 7.2461570294e+01 7.0000000000e+01 2.1844e-05 -1.0000e+00
      -12  1    3    3    0    0 -2.7712236085e+00 -9.4694385747e+00 +1.5916319371e+01 1.8726429706e+01 0.0000000000e+00 0.0000e+00 1.0000e+00
</event>
<event>
 5      5 +6.9480500e-03 9.11880000e+01 7.81616400e-03 1.18400000e-01
      -11 -1    0    0    0    0 +0.0000000000e+00 +0.0000000000e+00 +4.5593999997e+01 4.5594000000e+01 5.1100000000e-04 0.0000e+00 1.0000e+00
       11 -1    0    0    0    0 -0.0000000000e+00 -0.0000000000e+00 -4.5593999997e+01 4.5594000000e+01 5.1100000000e-04 0.0000e+00 -1.0000e+00
       23  2    1    2    0    0 +0.0000000000e+00 +0.0000000000e+00 +0.0000000000e+00 9.1188000000e+01 9.1188000000e+01 1.6050e-13 0.0000e+00
  9900012  1    3    3    0    0 -1.6715959846e+01 -3.4878589053e+00 -7.6870473015e+00 7.2461570294e+01 7.0000000000e+01 1.8100e-05 1.0000e+00
       12  1    3    3    0    0 +1.6715959846e+01 +3.4878589053e+00 +7.6870473015e+00 1.8726429706e+01 0.0000000000e+00 0.0000e+00 -1.0000e+00
</event>
<event>
 5      1 +6.9480500e-03 9.11880000e+01 7.81616400e-03 1.18400000e-01
      -11 -1    0    0    0    0 +0.0000000000e+00 +0.0000000000e+00 +4.5593999997e+01 4.5594000000e+01 5.1100000000e-04 0.0000e+00 1.0000e+00
       11 -1    0    0    0    0 -0.0000000000e+00 -0.0000000000e+00 -4.5593999997e+01 4.5594000000e+01 5.1100000000e-04 0.0000e+00 -1.0000e+00
       23  2    1    2    0    0 +0.0000000000e+00 +0.0000000000e+00 +0.0000000000e+00 9.1188000000e+01 9.1188000000e+01 1.4202e-14 0.0000e+00
  9900012  1    3    3    0    0 -1.0989762967e+01 +7.7441537382e+00 +1.3035810766e+01 7.2461570294e+01 7.0000000000e+01 2.4731e-04 1.0000e+00
       12  1    3    3    0    0 +1.0989762967e+01 -7.7441537382e+00 -1.3035810766e+01 1.8726429706e+01 0.0000000000e+00 0.0000e+00 -1.0000e+00
</event>
<event>
 5      8 +6.9480500e-03 9.11880000e+01 7.81616400e-03 1.18400000e-01
      -11 -1    0    0    0    0 +0.0000000000e+00 +0.0000000000e+00 +4.5593999997e+01 4.5594000000e+01 5.1100000000e-04 0.0000e+00 1.0000e+00
       11 -1    0    0    0    0 -0.0000000000e+00 -0.0000000000e+00 -4.5593999997e+01 4.5594000000e+01 5.1100000000e-04 0.0000e+00 -1.0000e+00
       23  2    1    2    0    0 +0.0000000000e+00 +0.0000000000e+00 +0.0000000000e+00 9.1188000000e+01 9.1188000000e+01 1.5139e-14 0.0000e+00
  9900012  1    3    3    0    0 +9.1398243952e+00 +1.6232291663e+01 -1.9119327677e+00 7.2461570294e+01 7.0000000000e+01 7.7171e-05 -1.0000e+00
      -12  1    3    3    0    0 -9.1398243952e+00 -1.6232291663e+01 +1.9119327677e+00 1.8726429706e+01 0.0000000000e+00 0.0000e+00 1.0000e+00
</event>
<event>
 5      4 +6.9480500e-03 9.11880000e+01 7.81616400e-03 1.18400000e-01
      -11 -1    0    0    0    0 +0.0000000000e+00 +0.0000000000e+00 +4.5593999997e+01 4.5594000000e+01 5.1100000000e-04 0.0000e+00 1.0000e+00
       11 -1    0    0    0    0 -0.0000000000e+00 -0.0000000000e+00 -4.5593999997e+01 4.5594000000e+01 5.1100000000e-04 0.0000e+00 -1.0000e+00
       23  2    1    2    0    0 +0.0000000000e+00 +0.0000000000e+00 +0.0000000000e+00 9.1188000000e+01 9.1188000000e+01 7.7175e-14 0.0000e+00
  9900012  1    3    3    0    0 +9.0694280075e+00 +1.1331830939e+01 -1.1832761837e+01 7.2461570294e+01 7.0000000000e+01 3.2214e-05 1.0000e+00
      -12  1    3    3    0    0 -9.0694280075e+00 -1.1331830939e+01 +1.1832761837e+01 1.8726429706e+01 0.0000000000e+00 0.0000e+00 1.0000e+00
</event>
<event>
 5      5 +6.9480500e-03 9.11880000e+01 7.81616400e-03 1.18400000e-01
      -11 -1    0    0    0    0 +0.0000000000e+00 +0.0000000000e+00 +4.5593999997e+01 4.5594000000e+01 5.1100000000e-04 0.0000e+00 -1.0000e+00
       11 -1    0    0    0    0 -0.0000000000e+00 -0.0000000000e+00 -4.5593999997e+01 4.5594000000e+01 5.1100000000e-04 0.0000e+00 1.0000e+00
       23  2    1    2    0    0 +0.0000000000e+00 +0.0000000000e+00 +0.0000000000e+00 9.1188000000e+01 9.1188000000e+01 5.2850e-14 0.0000e+00
  9900012  1    3    3    0    0 +3.9981335929e+00 +9.0151309271e+00 -1.5919218312e+01 7.2461570294e+01 7.0000000000e+01 3.2833e-04 1.0000e+00
       12  1    3    3    0    0 -3.9981335929e+00 -9.0151309271e+00 +1.5919218312e+01 1.8726429706e+01 0.0000000000e+00 0.0000e+00 -1.0000e+00
</event>
<event>
 5      8 +6.9480500e-03 9.11880000e+01 7.81616400e-03 1.18400000e-01
      -11 -1    0    0    0    0 +0.0000000000e+00 +0.0000000000e+00 +4.5593999997e+01 4.5594000000e+01 5.1100000000e-04 0.0000e+00 1.0000e+00
       11 -1    0    0    0    0 -0.0000000000e+00 -0.0000000000e+00 -4.5593999997e+01 4.5594000000e+01 5.1100000000e-04 0.0000e+00 -1.0000e+00
       23  2    1    2    0    0 +0.0000000000e+00 +0.0000000000e+00 +0.0000000000e+00 9.1188000000e+01 9.1188000000e+01 1.9911e-14 0.0000e+00
  9900012  1    3    3    0    0 -9.7832619672e+00 +1.2843457766e+01 -9.4874942644e+00 7.2461570294e+01 7.0000000000e+01 2.6607e-05 -1.0000e+00
      -12  1    3    3    0    0 +9.7832619672e+00 -1.2843457766e+01 +9.4874942644e+00 1.8726429706e+01 0.0000000000e+00 0.0000e+00 1.0000e+00
</event>
<event>
 5      4 +6.9480500e-03 9.11880000e+01 7.81616400e-03 1.18400000e-01
      -11 -1    0    0    0    0 +0.0000000000e+00 +0.0000000000e+00 +4.5593999997e+01 4.5594000000e+01 5.1100000000e-04 0.0000e+00 -1.0000e+00
       11 -1    0    0    0    0 -0.0000000000e+00 -0.0000000000e+00 -4.5593999997e+01 4.5594000000e+01 5.1100000000e-04 0.0000e+00 1.0000e+00
       23  2    1    2    0    0 +0.0000000000e+00 +0.0000000000e+00 +0.0000000000e+00 9.1188000000e+01 9.1188000000e+01 1.1501e-13 0.0000e+00
  9900012  1    3    3    0    0 -3.4513536658e-01 -1.9079123216e+00 +1.8625786471e+01 7.2461570294e+01 7.0000000000e+01 2.6123e-05 -1.0000e+00
      -12  1    3    3    0    0 +3.4513536658e-01 +1.9079123216e+00 -1.8625786471e+01 1.8726429706e+01 0.0000000000e+00 0.0000e+00 1.0000e+00
</event>
<event>
 5      1 +6.9480500e-03 9.11880000e+01 7.81616400e-03 1.18400000e-01
      -11 -1    0    0    0    0 +0.0000000000e+00 +0.0000000000e+00 +4.5593999997e+01 4.5594000000e+01 5.1100000000e-04 0.0000e+00 -1.0000e+00
       11 -1    0    0    0    0 -0.0000000000e+00 -0.0000000000e+00 -4.5593999997e+01 4.5594000000e+01 5.1100000000e-04 0.0000e+00 1.0000e+00
       23  2    1    2    0    0 +0.0000000000e+00 +0.0000000000e+00 +0.0000000000e+00 9.1188000000e+01 9.1188000000e+01 7.2064e-15 0.0000e+00
  9900012  1    3    3    0    0 +3.8442703282e+00 -5.7030590498e+00 -1.7417688499e+01 7.2461570294e+01 7.0000000000e+01 3.3875e-05 1.0000e+00
       12  1    3    3    0    0 -3.8442703282e+00 +5.7030590498e+00 +1.7417688499e+01 1.8726429706e+01 0.0000000000e+00 0.0000e+00 -1.0000e+00
</event>
<event>
 5      8 +6.9480500e-03 9.11880000e+01 7.81616400e-03 1.18400000e-01
      -11 -1    0    0    0    0 +0.0000000000e+00 +0.0000000000e+00 +4.5593999997e+01 4.5594000000e+01 5.1100000000e-04 0.0000e+00 1.0000e+00
       11 -1    0    0    0    0 -0.0000000000e+00 -0.0000000000e+00 -4.5593999997e+01 4.5594000000e+01 5.1100000000e-04 0.0000e+00 -1.0000e+00
       23  2    1    2    0    0 +0.0000000000e+00 +0.0000000000e+00 +0.0000000000e+00 9.1188000000e+01 9.1188000000e+01 7.8435e-15 0.0000e+00
  9900012  1    3    3    0    0 -1.4764134218e+01 +1.1150796245e+01 +2.8912373515e+00 7.2461570294e+01 7.0000000000e+01 2.6919e-04 1.0000e+00
      -12  1    3    3    0    0 +1.4764134218e+01 -1.1150796245e+01 -2.8912373515e+00 1.8726429706e+01 0.0000000000e+00 0.0000e+00 1.0000e+00
</event>
<event>
 5      7 +6.9480500e-03 9.11880000e+01 7.81616400e-03 1.18400000e-01
      -11 -1    0    0    0    0 +0.0000000000e+00 +0.0000000000e+00 +4.5593999997e+01 4.5594000000e+01 5.1100000000e-04 0.0000e+00 -1.0000e+00
       11 -1    0    0    0    0 -0.0000000000e+00 -0.0000000000e+00 -4.5593999997e+01 4.5594000000e+01 5.1100000000e-04 0.0000e+00 1.0000e+00
       23  2    1    2    0    0 +0.0000000000e+00 +0.0000000000e+00 +0.0000000000e+00 9.1188000000e+01 9.1188000000e+01 2.7943e-14 0.0000e+00
  9900012  1    3    3    0    0 -3.6503825956e+00 -1.5465194254e+01 -9.9086650520e+00 7.2461570294e+01 7.0000000000e+01 3.8331e-06 -1.0000e+00
       12  1    3    3    0    0 +3.6503825956e+00 +1.5465194254e+01 +9.9086650520e+00 1.8726429706e+01 0.0000000000e+00 0.0000e+00 -1.0000e+00
</event>
<event>
 5      7 +6.9480500e-03 9.11880000e+01 7.81616400e-03 1.18400000e-01
      -11 -1    0    0    0    0 +0.0000000000e+00 +0.0000000000e+00 +4.5593999997e+01 4.5594000000e+01 5.1100000000e-04 0.0000e+00 -1.0000e+00
       11 -1    0    0    0    0 -0.0000000000e+00 -0.0000000000e+00 -4.5593999997e+01 4.5594000000e+01 5.1100000000e-04 0.0000e+00 1.0000e+00
       23  2    1    2    0    0 +0.0000000000e+00 +0.0000000000e+00 +0.0000000000e+00 9.1188000000e+01 9.1188000000e+01 4.9175e-14 0.0000e+00
  9900012  1    3    3    0    0 -3.7125101875e-01 -1.7718823379e+01 -6.0485238092e+00 7.2461570294e+01 7.0000000000e+01 3.8161e-05 1.0000e+00
       12  1    3    3    0    0 +3.7125101875e-01 +1.7718823379e+01 +6.0485238092e+00 1.8726429706e+01 0.0000000000e+00 0.0000e+00 -1.0000e+00
</event>
<event>
 5      3 +6.9480500e-03 9.11880000e+01 7.81616400e-03 1.18400000e-01
      -11 -1    0    0    0    0 +0.0000000000e+00 +0.0000000000e+00 +4.5593999997e+01 4.5594000000e+01 5.1100000000e-04 0.0000e+00 1.0000e+00
       11 -1    0    0    0    0 -0.0000000000e+00 -0.0000000000e+00 -4.5593999997e+01 4.5594000000e+01 5.1100000000e-04 0.0000e+00 -1.0000e+00
       23  2    1    2    0    0 +0.0000000000e+00 +0.0000000000e+00 +0.0000000000e+00 9.1188000000e+01 9.1188000000e+01 1.2172e-13 0.0000e+00
  9900012  1    3    3    0    0 +8.7961791646e-01 +1.8506494620e+01 -2.7230678869e+00 7.2461570294e+01 7.0000000000e+01 3.7424e-04 -1.0000e+00
       12  1    3    3    0    0 -8.7961791646e-01 -1.8506494620e+01 +2.7230678869e+00 1.8726429706e+01 0.0000000000e+00 0.0000e+00 -1.0000e+00
</event>
<event>
 5      4 +6.9480500e-03 9.11880000e+01 7.81616400e-03 1.18400000e-01
      -11 -1    0    0    0    0 +0.0000000000e+00 +0.0000000000e+00 +4.5593999997e+01 4.5594000000e+01 5.1100000000e-04 0.0000e+00 -1.0000e+00
       11 -1    0    0    0    0 -0.0000000000e+00 -0.0000000000e+00 -4.5593999997e+01 4.5594000000e+01 5.1100000000e-04 0.0000e+00 1.0000e+00
       23  2    1    2    0    0 +0.0000000000e+00 +0.0000000000e+00 +0.0000000000e+00 9.1188000000e+01 9.1188000000e+01 1.1719e-13 0.0000e+00
  9900012  1    3    3    0    0 +1.2517798682e+01 +2.5686689454e+00 +1.3688894241e+01 7.2461570294e+01 7.0000000000e+01 4.1617e-05 -1.0000e+00
      -12  1    3    3    0    0 -1.2517798682e+01 -2.5686689454e+00 -1.3688894241e+01 1.8726429706e+01 0.0000000000e+00 0.0000e+00 1.0000e+00
</event>
<event>
 5      1 +6.9480500e-03 9.11880000e+01 7.81616400e-03 1.18400000e-01
      -11 -1    0    0    0    0 +0.0000000000e+00 +0.0000000000e+00 +4.5593999997e+01 4.5594000000e+01 5.1100000000e-04 0.0000e+00 -1.0000e+00
       11 -1    0    0    0    0 -0.0000000000e+00 -0.0000000000e+00 -4.5593999997e+01 4.5594000000e+01 5.1100000000e-04 0.0000e+00 1.0000e+00
       23  2    1    2    0    0 +0.0000000000e+00 +0.0000000000e+00 +0.0000000000e+00 9.1188000000e+01 9.1188000000e+01 8.3523e-14 0.0000e+00
  9900012  1    3    3    0    0 -5.4967812367e+00 +1.6826070564e+01 -6.1112940467e+00 7.2461570294e+01 7.0000000000e+01 1.8870e-04 1.0000e+00
       12  1    3    3    0    0 +5.4967812367e+00 -1.6826070564e+01 +6.1112940467e+00 1.8726429706e+01 0.0000000000e+00 0.0000e+00 -1.0000e+00
</event>
<event>
 5      2 +6.9480500e-03 9.11880000e+01 7.81616400e-03 1.18400000e-01
      -11 -1    0    0    0    0 +0.0000000000e+00 +0.0000000000e+00 +4.5593999997e+01 4.5594000000e+01 5.1100000000e-04 0.0000e+00 -1.0000e+00
       11 -1    0    0    0    0 -0.0000000000e+00 -0.0000000000e+00 -4.5593999997e+01 4.5594000000e+01 5.1100000000e-04 0.0000e+00 1.0000e+00
       23  2    1    2    0    0 +0.0000000000e+00 +0.0000000000e+00 +0.0000000000e+00 9.1188000000e+01 9.1188000000e+01 5.5644e-14 0.0000e+00
  9900012  1    3    3    0    0 -1.5696538969e+01 +1.0212293974e+01 -8.2980167193e-02 7.2461570294e+01 7.0000000000e+01 1.0543e-04 -1.0000e+00
      -12  1    3    3    0    0 +1.5696538969e+01 -1.0212293974e+01 +8.2980167193e-02 1.8726429706e+01 0.0000000000e+00 0.0000e+00 1.0000e+00
</event>
<event>
 5      6 +6.9480500e-03 9.11880000e+01 7.81616400e-03 1.18400000e-01
      -11 -1    0    0    0    0 +0.0000000000e+00 +0.0000000000e+00 +4.5593999997e+01 4.5594000000e+01 5.1100000000e-04 0.0000e+00 1.0000e+00
       11 -1    0    0    0    0 -0.0000000000e+00 -0.0000000000e+00 -4.5593999997e+01 4.5594000000e+01 5.1100000000e-04 0.0000e+00 -1.0000e+00
       23  2    1    2    0    0 +0.0000000000e+00 +0.0000000000e+00 +0.0000000000e+00 9.1188000000e+01 9.1188000000e+01 1.3418e-13 0.0000e+00
  9900012  1    3    3    0    0 -3.1967122267e+00 +1.6108582030e+01 -8.9985435182e+00 7.2461570294e+01 7.0000000000e+01 2.4165e-05 -1.0000e+00
      -12  1    3    3    0    0 +3.1967122267e+00 -1.6108582030e+01 +8.9985435182e+00 1.8726429706e+01 0.0000000000e+00 0.0000e+00 1.0000e+00
</event>
<event>
 5      1 +6.9480500e-03 9.11880000e+01 7.81616400e-03 1.18400000e-01
      -11 -1    0    0    0    0 +0.0000000000e+00 +0.0000000000e+00 +4.5593999997e+01 4.5594000000e+01 5.1100000000e-04 0.0000e+00 -1.0000e+00
       11 -1    0    0    0    0 -0.0000000000e+00 -0.0000000000e+00 -4.5593999997e+01 4.5594000000e+01 5.1100000000e-04 0.0000e+00 1.0000e+00
       23  2    1    2    0    0 +0.0000000000e+00 +0.0000000000e+00 +0.0000000000e+00 9.1188000000e+01 9.1188000000e+01 3.0002e-15 0.0000e+00
  9900012  1    3    3    0    0 +2.8361095823e-01 -1.8435288977e+01 +3.2770191786e+00 7.2461570294e+01 7.0000000000e+01 1.1709e-04 -1.0000e+00
       12  1    3    3    0    0 -2.8361095823e-01 +1.8435288977e+01 -3.2770191786e+00 1.8726429706e+01 0.0000000000e+00 0.0000e+00 -1.0000e+00
</event>
<event>
 5      6 +6.9480500e-03 9.11880000e+01 7.81616400e-03 1.18400000e-01
      -11 -1    0    0    0    0 +0.0000000000e+00 +0.0000000000e+00 +4.5593999997e+01 4.5594000000e+01 5.1100000000e-04 0.0000e+00 1.0000e+00
       11 -1    0    0    0    0 -0.0000000000e+00 -0.0000000000e+00 -4.5593999997e+01 4.5594000000e+01 5.1100000000e-04 0.0000e+00 -1.0000e+00
       23  2    1    2    0    0 +0.0000000000e+00 +0.0000000000e+00 +0.0000000000e+00 9.1188000000e+01 9.1188000000e+01 2.1175e-13 0.0000e+00
  9900012  1    3    3    0    0 +9.1339167937e+00 +1.5043600341e+01 -6.3985015677e+00 7.2461570294e+01 7.0000000000e+01 1.0993e-05 -1.0000e+00
      -12  1    3    3    0    0 -9.1339167937e+00 -1.5043600341e+01 +6.3985015677e+00 1.8726429706e+01 0.0000000000e+00 0.0000e+00 1.0000e+00
</event>
<event>
 5      4 +6.9480500e-03 9.11880000e+01 7.81616400e-03 1.18400000e-01
      -11 -1    0    0    0    0 +0.0000000000e+00 +0.0000000000e+00 +4.5593999997e+01 4.5594000000e+01 5.1100000000e-04 0.0000e+00 1.0000e+00
       11 -1    0    0    0    0 -0.0000000000e+00 -0.0000000000e+00 -4.5593999997e+01 4.5594000000e+01 5.1100000000e-04 0.0000e+00 -1.0000e+00
       23  2    1    2    0    0 +0.0000000000e+00 +0.0000000000e+00 +0.0000000000e+00 9.1188000000e+01 9.1188000000e+01 7.6000e-14 0.0000e+00
  9900012  1    3    3    0    0 +1.4632380083e+01 -1.1487210408e+01 +2.1486320474e+00 7.2461570294e+01 7.0000000000e+01 4.1665e-04 1.0000e+00
      -12  1    3    3    0    0 -1.4632380083e+01 +1.1487210408e+01 -2.1486320474e+00 1.8726429706e+01 0.0000000000e+00 0.0000e+00 1.0000e+00
</event>
<event>
 5      7 +6.9480500e-03 9.11880000e+01 7.81616400e-03 1.18400000e-01
      -11 -1    0    0    0    0 +0.0000000000e+00 +0.0000000000e+00 +4.5593999997e+01 4.5594000000e+01 5.1100000000e-04 0.0000e+00 1.0000e+00
       11 -1    0    0    0    0 -0.0000000000e+00 -0.0000000000e+00 -4.5593999997e+01 4.5594000000e+01 5.1100000000e-04 0.0000e+00 -1.0000e+00
       23  2    1    2    0    0 +0.0000000000e+00 +0.0000000000e+00 +0.0000000000e+00 9.1188000000e+01 9.1188000000e+01 9.1668e-14 0.0000e+00
  9900012  1    3    3    0    0 -1.0524619932e+00 -7.6940869349e+00 +1.7040320405e+01 7.2461570294e+01 7.0000000000e+01 2.8270e-05 1.0000e+00
       12  1    3    3    0    0 +1.0524619932e+00 +7.6940869349e+00 -1.7040320405e+01 1.8726429706e+01 0.0000000000e+00 0.0000e+00 -1.0000e+00
</event>
<event>
 5      2 +6.9480500e-03 9.11880000e+01 7.81616400e-03 1.18400000e-01
      -11 -1    0    0    0    0 +0.0000000000e+00 +0.0000000000e+00 +4.5593999997e+01 4.5594000000e+01 5.1100000000e-04 0.0000e+00 1.0000e+00
       11 -1    0    0    0    0 -0.0000000000e+00 -0.0000000000e+00 -4.5593999997e+01 4.5594000000e+01 5.1100000000e-04 0.0000e+00 -1.0000e+00
       23  2    1    2    0    0 +0.0000000000e+00 +0.0000000000e+00 +0.0000000000e+00 9.1188000000e+01 9.1188000000e+01 2.3731e-13 0.0000e+00
  9900012  1    3    3    0    0 +1.6054210524e+01 -5.3484510384e+00 -8.0209454220e+00 7.2461570294e+01 7.0000000000e+01 8.9178e-05 -1.0000e+00
      -12  1    3    3    0    0 -1.6054210524e+01 +5.3484510384e+00 +8.0209454220e+00 1.8726429706e+01 0.0000000000e+00 0.0000e+00 1.0000e+00
</event>
<event>
 5      3 +6.9480500e-03 9.11880000e+01 7.81616400e-03 1.18400000e-01
      -11 -1    0    0    0    0 +0.0000000000e+00 +0.0000000000e+00 +4.5593999997e+01 4.5594000000e+01 5.1100000000e-04 0.0000e+00 1.0000e+00
       11 -1    0    0    0    0 -0.0000000000e+00 -0.0000000000e+00 -4.5593999997e+01 4.5594000000e+01 5.1100000000e-04 0.0000e+00 -1.0000e+00
       23  2    1    2    0    0 +0.0000000000e+00 +0.0000000000e+00 +0.0000000000e+00 9.1188000000e+01 9.1188000000e+01 1.2307e-13 0.0000e+00
  9900012  1    3    3    0    0 -1.0143269532e+01 +8.5703619459e+00 -1.3203868708e+01 7.2461570294e+01 7.0000000000e+01 4.5700e-05 -1.0000e+00
       12  1    3    3    0    0 +1.0143269532e+01 -8.5703619459e+00 +1.3203868708e+01 1.8726429706e+01 0.0000000000e+00 0.0000e+00 -1.0000e+00
</event>
<event>
 5      1 +6.9480500e-03 9.11880000e+01 7.81616400e-03 1.18400000e-01
      -11 -1    0    0    0    0 +0.0000000000e+00 +0.0000000000e+00 +4.5593999997e+01 4.5594000000e+01 5.1100000000e-04 0.0000e+00 -1.0000e+00
       11 -1    0    0    0    0 -0.0000000000e+00 -0.0000000000e+00 -4.5593999997e+01 4.5594000000e+01 5.1100000000e-04 0.0000e+00 1.0000e+00
       23  2    1    2    0    0 +0.0000000000e+00 +0.0000000000e+00 +0.0000000000e+00 9.1188000000e+01 9.1188000000e+01 9.8640e-14 0.0000e+00
  9900012  1    3    3    0    0 +1.8221618749e+00 -4.8209183516e+00 -1.8003267533e+01 7.2461570294e+01 7.0000000000e+01 1.8312e-04 1.0000e+00
       12  1    3    3    0    0 -1.8221618749e+00 +4.8209183516e+00 +1.8003267533e+01 1.8726429706e+01 0.0000000000e+00 0.0000e+00 -1.0000e+00
</event>
<event>
 5      7 +6.9480500e-03 9.11880000e+01 7.81616400e-03 1.18400000e-01
      -11 -1    0    0    0    0 +0.0000000000e+00 +0.0000000000e+00 +4.5593999997e+01 4.5594000000e+01 5.1100000000e-04 0.0000e+00 -1.0000e+00
       11 -1    0    0    0    0 -0.0000000000e+00 -0.0000000000e+00 -4.5593999997e+01 4.5594000000e+01 5.1100000000e-04 0.0000e+00 1.0000e+00
       23  2    1    2    0    0 +0.0000000000e+00 +0.0000000000e+00 +0.0000000000e+00 9.1188000000e+01 9.1188000000e+01 1.1508e-14 0.0000e+00
  9900012  1    3    3    0    0 -4.1147833222e+00 +9.1210642942e+00 -1.5828894904e+01 7.2461570294e+01 7.0000000000e+01 1.6742e-04 1.0000e+00
       12  1    3    3    0    0 +4.1147833222e+00 -9.1210642942e+00 +1.5828894904e+01 1.8726429706e+01 0.0000000000e+00 0.0000e+00 -1.0000e+00
</event>
<event>
 5      3 +6.9480500e-03 9.11880000e+01 7.81616400e-03 1.18400000e-01
      -11 -1    0    0    0    0 +0.0000000000e+00 +0.0000000000e+00 +4.5593999997e+01 4.5594000000e+01 5.1100000000e-04 0.0000e+00 -1.0000e+00
       11 -1    0    0    0    0 -0.0000000000e+00 -0.0000000000e+00 -4.5593999997e+01 4.5594000000e+01 5.1100000000e-04 0.0000e+00 1.0000e+00
       23  2    1    2    0    0 +0.0000000000e+00 +0.0000000000e+00 +0.0000000000e+00 9.1188000000e+01 9.1188000000e+01 7.1178e-14 0.0000e+00
  9900012  1    3    3    0    0 +1.0765960647e+01 +1.5318158126e+01 -3.5678076414e-01 7.2461570294e+01 7.0000000000e+01 3.1789e-05 1.0000e+00
       12  1    3    3    0    0 -1.0765960647e+01 -1.5318158126e+01 +3.5678076414e-01 1.8726429706e+01 0.0000000000e+00 0.0000e+00 -1.0000e+00
</event>
<event>
 5      3 +6.9480500e-03 9.11880000e+01 7.81616400e-03 1.18400000e-01
      -11 -1    0    0    0    0 +0.0000000000e+00 +0.0000000000e+00 +4.5593999997e+01 4.5594000000e+01 5.1100000000e-04 0.0000e+00 -1.0000e+00
       11 -1    0    0    0    0 -0.0000000000e+00 -0.0000000000e+00 -4.5593999997e+01 4.5594000000e+01 5.1100000000e-04 0.0000e+00 1.0000e+00
       23  2    1    2    0    0 +0.0000000000e+00 +0.0000000000e+00 +0.0000000000e+00 9.1188000000e+01 9.1188000000e+01 1.0110e-13 0.0000e+00
  9900012  1    3    3    0    0 +1.7047738442e+01 -1.6660551598e+00 -7.5682259307e+00 7.2461570294e+01 7.0000000000e+01 4.1267e-04 1.0000e+00
       12  1    3    3    0    0 -1.7047738442e+01 +1.6660551598e+00 +7.5682259307e+00 1.8726429706e+01 0.0000000000e+00 0.0000e+00 -1.0000e+00
</event>
<event>
 5      5 +6.9480500e-03 9.11880000e+01 7.81616400e-03 1.18400000e-01
      -11 -1    0    0    0    0 +0.0000000000e+00 +0.0000000000e+00 +4.5593999997e+01 4.5594000000e+01 5.1100000000e-04 0.0000e+00 1.0000e+00
       11 -1    0    0    0    0 -0.0000000000e+00 -0.0000000000e+00 -4.5593999997e+01 4.5594000000e+01 5.1100000000e-04 0.0000e+00 -1.0000e+00
       23  2    1    2    0    0 +0.0000000000e+00 +0.0000000000e+00 +0.0000000000e+00 9.1188000000e+01 9.1188000000e+01 2.5807e-14 0.0000e+00
  9900012  1    3    3    0    0 +1.7744741487e+01 +4.4595221692e+00 -3.9894838122e+00 7.2461570294e+01 7.0000000000e+01 3.4463e-05 1.0000e+00
       12  1    3    3    0    0 -1.7744741487e+01 -4.4595221692e+00 +3.9894838122e+00 1.8726429706e+01 0.0000000000e+00 0.0000e+00 -1.0000e+00
</event>
<event>
 5      1 +6.9480500e-03 9.11880000e+01 7.81616400e-03 1.18400000e-01
      -11 -1    0    0    0    0 +0.0000000000e+00 +0.0000000000e+00 +4.5593999997e+01 4.5594000000e+01 5.1100000000e-04 0.0000e+00 1.0000e+00
       11 -1    0    0    0    0 -0.0000000000e+00 -0.0000000000e+00 -4.5593999997e+01 4.5594000000e+01 5.1100000000e-04 0.0000e+00 -1.0000e+00
       23  2    1    2    0    0 +0.0000000000e+00 +0.0000000000e+00 +0.0000000000e+00 9.1188000000e+01 9.1188000000e+01 9.2902e-14 0.0000e+00
  9900012  1    3    3    0    0 +1.1781342017e+01 +1.3483356170e+01 +5.4843647015e+00 7.2461570294e+01 7.0000000000e+01 9.9245e-05 1.0000e+00
       12  1    3    3    0    0 -1.1781342017e+01 -1.3483356170e+01 -5.4843647015e+00 1.8726429706e+01 0.0000000000e+00 0.0000e+00 -1.0000e+00
</event>
<event>
 5      2 +6.9480500e-03 9.11880000e+01 7.81616400e-03 1.18400000e-01
      -11 -1    0    0    0    0 +0.0000000000e+00 +0.0000000000e+00 +4.5593999997e+01 4.5594000000e+01 5.1100000000e-04 0.0000e+00 1.0000e+00
       11 -1    0    0    0    0 -0.0000000000e+00 -0.0000000000e+00 -4.5593999997e+01 4.5594000000e+01 5.1100000000e-04 0.0000e+00 -1.0000e+00
       23  2    1    2    0    0 +0.0000000000e+00 +0.0000000000e+00 +0.0000000000e+00 9.1188000000e+01 9.1188000000e+01 4.4055e-14 0.0000e+00
  9900012  1    3    3    0    0 -1.7926568185e+01 -8.8370158283e-01 -5.3419466614e+00 7.2461570294e+01 7.0000000000e+01 2.1091e-04 -1.0000e+00
      -12  1    3    3    0    0 +1.7926568185e+01 +8.8370158283e-01 +5.3419466614e+00 1.8726429706e+01 0.0000000000e+00 0.0000e+00 1.0000e+00
</event>
<event>
 5      1 +6.9480500e-03 9.11880000e+01 7.81616400e-03 1.18400000e-01
      -11 -1    0    0    0    0 +0.0000000000e+00 +0.0000000000e+00 +4.5593999997e+01 4.5594000000e+01 5.1100000000e-04 0.0000e+00 1.0000e+00
       11 -1    0    0    0    0 -0.0000000000e+00 -0.0000000000e+00 -4.5593999997e+01 4.5594000000e+01 5.1100000000e-04 0.0000e+00 -1.0000e+00
       23  2    1    2    0    0 +0.0000000000e+00 +0.0000000000e+00 +0.0000000000e+00 9.1188000000e+01 9.1188000000e+01 6.4068e-15 0.0000e+00
  9900012  1    3    3    0    0 +9.1631903812e+00 +1.0955461646e+01 +1.2111687400e+01 7.2461570294e+01 7.0000000000e+01 2.9294e-05 1.0000e+00
       12  1    3    3    0    0 -9.1631903812e+00 -1.0955461646e+01 -1.2111687400e+01 1.8726429706e+01 0.0000000000e+00 0.0000e+00 -1.0000e+00
</event>
<event>
 5      1 +6.9480500e-03 9.11880000e+01 7.81616400e-03 1.18400000e-01
      -11 -1    0    0    0    0 +0.0000000000e+00 +0.0000000000e+00 +4.5593999997e+01 4.5594000000e+01 5.1100000000e-04 0.0000e+00 -1.0000e+00
       11 -1    0    0    0    0 -0.0000000000e+00 -0.0000000000e+00 -4.5593999997e+01 4.5594000000e+01 5.1100000000e-04 0.0000e+00 1.0000e+00
       23  2    1    2    0    0 +0.0000000000e+00 +0.0000000000e+00 +0.0000000000e+00 9.1188000000e+01 9.1188000000e+01 3.9926e-15 0.0000e+00
  9900012  1    3    3    0    0 +5.0100985492e+00 -1.3432989395e+01 -1.2047110772e+01 7.2461570294e+01 7.0000000000e+01 5.2155e-05 1.0000e+00
       12  1    3    3    0    0 -5.0100985492e+00 +1.3432989395e+01 +1.2047110772e+01 1.8726429706e+01 0.0000000000e+00 0.0000e+00 -1.0000e+00
</event>
<event>
 5      7 +6.9480500e-03 9.11880000e+01 7.81616400e-03 1.18400000e-01
      -11 -1    0    0    0    0 +0.0000000000e+00 +0.0000000000e+00 +4.5593999997e+01 4.5594000000e+01 5.1100000000e-04 0.0000e+00 -1.0000e+00
       11 -1    0    0    0    0 -0.0000000000e+00 -0.0000000000e+00 -4.5593999997e+01 4.5594000000e+01 5.1100000000e-04 0.0000e+00 1.0000e+00
       23  2    1    2    0    0 +0.0000000000e+00 +0.0000000000e+00 +0.0000000000e+00 9.1188000000e+01 9.1188000000e+01 9.9533e-14 0.0000e+00
  9900012  1    3    3    0    0 +1.6467612046e+01 -8.6546677148e+00 -2.1432801457e+00 7.2461570294e+01 7.0000000000e+01 2.2148e-04 1.0000e+00
       12  1    3    3    0    0 -1.6467612046e+01 +8.6546677148e+00 +2.1432801457e+00 1.8726429706e+01 0.0000000000e+00 0.0000e+00 -1.0000e+00
</event>
<event>
 5      7 +6.9480500e-03 9.11880000e+01 7.81616400e-03 1.18400000e-01
      -11 -1    0    0    0    0 +0.0000000000e+00 +0.0000000000e+00 +4.5593999997e+01 4.5594000000e+01 5.1100000000e-04 0.0000e+00 1.0000e+00
       11 -1    0    0    0    0 -0.0000000000e+00 -0.0000000000e+00 -4.5593999997e+01 4.5594000000e+01 5.1100000000e-04 0.0000e+00 -1.0000e+00
       23  2    1    2    0    0 +0.0000000000e+00 +0.0000000000e+00 +0.0000000000e+00 9.1188000000e+01 9.1188000000e+01 1.6932e-13 0.0000e+00
  9900012  1    3    3    0    0 +1.6481130820e+01 -8.0508692456e+00 +3.7729300026e+00 7.2461570294e+01 7.0000000000e+01 1.0863e-04 1.0000e+00
       12  1    3    3    0    0 -1.6481130820e+01 +8.0508692456e+00 -3.7729300026e+00 1.8726429706e+01 0.0000000000e+00 0.0000e+00 -1.0000e+00
</event>
<event>
 5      2 +6.9480500e-03 9.11880000e+01 7.81616400e-03 1.18400000e-01
      -11 -1    0    0    0    0 +0.0000000000e+00 +0.0000000000e+00 +4.5593999997e+01 4.5594000000e+01 5.1100000000e-04 0.0000e+00 -1.0000e+00
       11 -1    0    0    0    0 -0.0000000000e+00 -0.0000000000e+00 -4.5593999997e+01 4.5594000000e+01 5.1100000000e-04 0.0000e+00 1.0000e+00
       23  2    1    2    0    0 +0.0000000000e+00 +0.0000000000e+00 +0.0000000000e+00 9.1188000000e+01 9.1188000000e+01 1.5573e-14 0.0000e+00
  9900012  1    3    3    0    0 -8.9296344182e+00 +1.1696702523e+01 +1.1581362129e+01 7.2461570294e+01 7.0000000000e+01 2.8214e-04 -1.0000e+00
      -12  1    3    3    0    0 +8.9296344182e+00 -1.1696702523e+01 -1.1581362129e+01 1.8726429706e+01 0.0000000000e+00 0.0000e+00 1.0000e+00
</event>
<event>
 5      2 +6.9480500e-03 9.11880000e+01 7.81616400e-03 1.18400000e-01
      -11 -1    0    0    0    0 +0.0000000000e+00 +0.0000000000e+00 +4.5593999997e+01 4.5594000000e+01 5.1100000000e-04 0.0000e+00 1.0000e+00
       11 -1    0    0    0    0 -0.0000000000e+00 -0.0000000000e+00 -4.5593999997e+01 4.5594000000e+01 5.1100000000e-04 0.0000e+00 -1.0000e+00
       23  2    1    2    0    0 +0.0000000000e+00 +0.0000000000e+00 +0.0000000000e+00 9.1188000000e+01 9.1188000000e+01 6.7160e-14 0.0000e+00
  9900012  1    3    3    0    0 -1.1042074685e+01 -2.0390363568e+00 -1.4986463455e+01 7.2461570294e+01 7.0000000000e+01 4.5828e-05 -1.0000e+00
      -12  1    3    3    0    0 +1.1042074685e+01 +2.0390363568e+00 +1.4986463455e+01 1.8726429706e+01 0.0000000000e+00 0.0000e+00 1.0000e+00
</event>
<event>
 5      4 +6.9480500e-03 9.11880000e+01 7.81616400e-03 1.18400000e-01
      -11 -1    0    0    0    0 +0.0000000000e+00 +0.0000000000e+00 +4.5593999997e+01 4.5594000000e+01 5.1100000000e-04 0.0000e+00 -1.0000e+00
       11 -1    0    0    0    0 -0.0000000000e+00 -0.0000000000e+00 -4.5593999997e+01 4.5594000000e+01 5.1100000000e-04 0.0000e+00 1.0000e+00
       23  2    1    2    0    0 +0.0000000000e+00 +0.0000000000e+00 +0.0000000000e+00 9.1188000000e+01 9.1188000000e+01 9.0637e-14 0.0000e+00
  9900012  1    3    3    0    0 -1.1701302569e+01 +9.0579787982e+00 -1.1476572127e+01 7.2461570294e+01 7.0000000000e+01 3.0732e-04 -1.0000e+00
      -12  1    3    3    0    0 +1.1701302569e+01 -9.0579787982e+00 +1.1476572127e+01 1.8726429706e+01 0.0000000000e+00 0.0000e+00 1.0000e+00
</event>
<event>
 5      1 +6.9480500e-03 9.11880000e+01 7.81616400e-03 1.18400000e-01
      -11 -1    0    0    0    0 +0.0000000000e+00 +0.0000000000e+00 +4.5593999997e+01 4.5594000000e+01 5.1100000000e-04 0.0000e+00 1.0000e+00
       11 -1    0    0    0    0 -0.0000000000e+00 -0.0000000000e+00 -4.5593999997e+01 4.5594000000e+01 5.1100000000e-04 0.0000e+00 -1.0000e+00
       23  2    1    2    0    0 +0.0000000000e+00 +0.0000000000e+00 +0.0000000000e+00 9.1188000000e+01 9.1188000000e+01 1.3943e-13 0.0000e+00
  9900012  1    3    3    0    0 +2.9844385959e+00 -1.3117048669e+01 +1.3027483640e+01 7.2461570294e+01 7.0000000000e+01 2.4138e-04 1.0000e+00
       12  1    3    3    0    0 -2.9844385959e+00 +1.3117048669e+01 -1.3027483640e+01 1.8726429706e+01 0.0000000000e+00 0.0000e+00 -1.0000e+00
</event>
<event>
 5      4 +6.9480500e-03 9.11880000e+01 7.81616400e-03 1.18400000e-01
      -11 -1    0    0    0    0 +0.0000000000e+00 +0.0000000000e+00 +4.5593999997e+01 4.5594000000e+01 5.1100000000e-04 0.0000e+00 -1.0000e+00
       11 -1    0    0    0    0 -0.0000000000e+00 -0.0000000000e+00 -4.5593999997e+01 4.5594000000e+01 5.1100000000e-04 0.0000e+00 1.0000e+00
       23  2    1    2    0    0 +0.0000000000e+00 +0.0000000000e+00 +0.0000000000e+00 9.1188000000e+01 9.1188000000e+01 1.2850e-14 0.0000e+00
  9900012  1    3    3    0    0 -5.5379277072e+00 +5.9549866778e+00 +1.6868570179e+01 7.2461570294e+01 7.0000000000e+01 3.7160e-05 -1.0000e+00
      -12  1    3    3    0    0 +5.5379277072e+00 -5.9549866778e+00 -1.6868570179e+01 1.8726429706e+01 0.0000000000e+00 0.0000e+00 1.0000e+00
</event>
<event>
 5      5 +6.9480500e-03 9.11880000e+01 7.81616400e-03 1.18400000e-01
      -11 -1    0    0    0    0 +0.0000000000e+00 +0.0000000000e+00 +4.5593999997e+01 4.5594000000e+01 5.1100000000e-04 0.0000e+00 -1.0000e+00
       11 -1    0    0    0    0 -0.0000000000e+00 -0.0000000000e+00 -4.5593999997e+01 4.5594000000e+01 5.1100000000e-04 0.0000e+00 1.0000e+00
       23  2    1    2    0    0 +0.0000000000e+00 +0.0000000000e+00 +0.0000000000e+00 9.1188000000e+01 9.1188000000e+01 4.7525e-15 0.0000e+00
  9900012  1    3    3    0    0 -1.7841919237e+01 -5.6783413188e+00 -3.1863355517e-01 7.2461570294e+01 7.0000000000e+01 5.4957e-05 1.0000e+00
       12  1    3    3    0    0 +1.7841919237e+01 +5.6783413188e+00 +3.1863355517e-01 1.8726429706e+01 0.0000000000e+00 0.0000e+00 -1.0000e+00
</event>
<event>
 5      7 +6.9480500e-03 9.11880000e+01 7.81616400e-03 1.18400000e-01
      -11 -1    0    0    0    0 +0.0000000000e+00 +0.0000000000e+00 +4.5593999997e+01 4.5594000000e+01 5.1100000000e-04 0.0000e+00 -1.0000e+00
       11 -1    0    0    0    0 -0.0000000000e+00 -0.0000000000e+00 -4.5593999997e+01 4.5594000000e+01 5.1100000000e-04 0.0000e+00 1.0000e+00
       23  2    1    2    0    0 +0.0000000000e+00 +0.0000000000e+00 +0.0000000000e+00 9.1188000000e+01 9.1188000000e+01 1.0305e-15 0.0000e+00
  9900012  1    3    3    0    0 -1.0552930993e+01 +8.2534560238e+00 -1.3084161442e+01 7.2461570294e+01 7.0000000000e+01 1.5806e-04 1.0000e+00
       12  1    3    3    0    0 +1.0552930993e+01 -8.2534560238e+00 +1.3084161442e+01 1.8726429706e+01 0.0000000000e+00 0.0000e+00 -1.0000e+00
</event>
<event>
 5      7 +6.9480500e-03 9.11880000e+01 7.81616400e-03 1.18400000e-01
      -11 -1    0    0    0    0 +0.0000000000e+00 +0.0000000000e+00 +4.5593999997e+01 4.5594000000e+01 5.1100000000e-04 0.0000e+00 -1.0000e+00
       11 -1    0    0    0    0 -0.0000000000e+00 -0.0000000000e+00 -4.5593999997e+01 4.5594000000e+01 5.1100000000e-04 0.0000e+00 1.0000e+00
       23  2    1    2    0    0 +0.0000000000e+00 +0.0000000000e+00 +0.0000000000e+00 9.1188000000e+01 9.1188000000e+01 7.3712e-14 0.0000e+00
  9900012  1    3    3    0    0 +1.8703457944e+01 +1.6949786431e-01 -9.1164737479e-01 7.2461570294e+01 7.0000000000e+01 8.7253e-05 1.0000e+00
       12  1    3    3    0    0 -1.8703457944e+01 -1.6949786431e-01 +9.1164737479e-01 1.8726429706e+01 0.0000000000e+00 0.0000e+00 -1.0000e+00
</event>
<event>
 5      4 +6.9480500e-03 9.11880000e+01 7.81616400e-03 1.18400000e-01
      -11 -1    0    0    0    0 +0.0000000000e+00 +0.0000000000e+00 +4.5593999997e+01 4.5594000000e+01 5.1100000000e-04 0.0000e+00 1.0000e+00
       11 -1    0    0    0    0 -0.0000000000e+00 -0.0000000000e+00 -4.5593999997e+01 4.5594000000e+01 5.1100000000e-04 0.0000e+00 -1.0000e+00
       23  2    1    2    0    0 +0.0000000000e+00 +0.0000000000e+00 +0.0000000000e+00 9.1188000000e+01 9.1188000000e+01 1.1329e-14 0.0000e+00
  9900012  1    3    3    0    0 -9.8878927418e+00 +7.6512830408e+00 -1.3941542758e+01 7.2461570294e+01 7.0000000000e+01 1.3466e-04 -1.0000e+00
      -12  1    3    3    0    0 +9.8878927418e+00 -7.6512830408e+00 +1.3941542758e+01 1.8726429706e+01 0.0000000000e+00 0.0000e+00 1.0000e+00
</event>
<event>
 5      5 +6.9480500e-03 9.11880000e+01 7.81616400e-03 1.18400000e-01
      -11 -1    0    0    0    0 +0.0000000000e+00 +0.0000000000e+00 +4.5593999997e+01 4.5594000000e+01 5.1100000000e-04 0.0000e+00 1.0000e+00
       11 -1    0    0    0    0 -0.0000000000e+00 -0.0000000000e+00 -4.5593999997e+01 4.5594000000e+01 5.1100000000e-04 0.0000e+00 -1.0000e+00
       23  2    1    2    0    0 +0.0000000000e+00 +0.0000000000e+00 +0.0000000000e+00 9.1188000000e+01 9.1188000000e+01 6.9937e-14 0.0000e+00
  9900012  1    3    3    0    0 -1.7783465514e+01 +4.9312081202e+00 +3.1797343145e+00 7.2461570294e+01 7.0000000000e+01 4.3316e-05 1.0000e+00
       12  1    3    3    0    0 +1.7783465514e+01 -4.9312081202e+00 -3.1797343145e+00 1.8726429706e+01 0.0000000000e+00 0.0000e+00 -1.0000e+00
</event>
<event>
 5      6 +6.9480500e-03 9.11880000e+01 7.81616400e-03 1.18400000e-01
      -11 -1    0    0    0    0 +0.0000000000e+00 +0.0000000000e+00 +4.5593999997e+01 4.5594000000e+01 5.1100000000e-04 0.0000e+00 -1.0000e+00
       11 -1    0    0    0    0 -0.0000000000e+00 -0.0000000000e+00 -4.5593999997e+01 4.5594000000e+01 5.1100000000e-04 0.0000e+00 1.0000e+00
       23  2    1    2    0    0 +0.0000000000e+00 +0.0000000000e+00 +0.0000000000e+00 9.1188000000e+01 9.1188000000e+01 1.4641e-13 0.0000e+00
  9900012  1    3    3    0    0 +6.1179691406e+00 -1.2130935820e+01 +1.2887591678e+01 7.2461570294e+01 7.0000000000e+01 2.3025e-05 -1.0000e+00
      -12  1    3    3    0    0 -6.1179691406e+00 +1.2130935820e+01 -1.2887591678e+01 1.8726429706e+01 0.0000000000e+00 0.0000e+00 1.0000e+00
</event>
<event>
 5      3 +6.9480500e-03 9.11880000e+01 7.81616400e-03 1.18400000e-01
      -11 -1    0    0    0    0 +0.0000000000e+00 +0.0000000000e+00 +4.5593999997e+01 4.5594000000e+01 5.1100000000e-04 0.0000e+00 1.0000e+00
       11 -1    0    0    0    0 -0.0000000000e+00 -0.0000000000e+00 -4.5593999997e+01 4.5594000000e+01 5.1100000000e-04 0.0000e+00 -1.0000e+00
       23  2    1    2    0    0 +0.0000000000e+00 +0.0000000000e+00 +0.0000000000e+00 9.1188000000e+01 9.1188000000e+01 3.5706e-14 0.0000e+00
  9900012  1    3    3    0    0 -7.2496107451e-01 -6.5143944430e+00 +1.7541843290e+01 7.2461570294e+01 7.0000000000e+01 2.0386e-04 1.0000e+00
       12  1    3    3    0    0 +7.2496107451e-01 +6.5143944430e+00 -1.7541843290e+01 1.8726429706e+01 0.0000000000e+00 0.0000e+00 -1.0000e+00
</event>
<event>
 5      8 +6.9480500e-03 9.11880000e+01 7.81616400e-03 1.18400000e-01
      -11 -1    0    0    0    0 +0.0000000000e+00 +0.0000000000e+00 +4.5593999997e+01 4.5594000000e+01 5.1100000000e-04 0.0000e+00 1.0000e+00
       11 -1    0    0    0    0 -0.0000000000e+00 -0.0000000000e+00 -4.5593999997e+01 4.5594000000e+01 5.1100000000e-04 0.0000e+00 -1.0000e+00
       23  2    1    2    0    0 +0.0000000000e+00 +0.0000000000e+00 +0.0000000000e+00 9.1188000000e+01 9.1188000000e+01 1.1312e-13 0.0000e+00
  9900012  1    3    3    0    0 +7.2079593267e+00 +1.1367916838e+01 -1.3019022952e+01 7.2461570294e+01 7.0000000000e+01 1.8857e-04 -1.0000e+00
      -12  1    3    3    0    0 -7.2079593267e+00 -1.1367916838e+01 +1.3019022952e+01 1.8726429706e+01 0.0000000000e+00 0.0000e+00 1.0000e+00
</event>
<event>
 5      3 +6.9480500e-03 9.11880000e+01 7.81616400e-03 1.18400000e-01
      -11 -1    0    0    0    0 +0.0000000000e+00 +0.0000000000e+00 +4.5593999997e+01 4.5594000000e+01 5.1100000000e-04 0.0000e+00 -1.0000e+00
       11 -1    0    0    0    0 -0.0000000000e+00 -0.0000000000e+00 -4.5593999997e+01 4.5594000000e+01 5.1100000000e-04 0.0000e+00 1.0000e+00
       23  2    1    2    0    0 +0.0000000000e+00 +0.0000000000e+00 +0.0000000000e+00 9.1188000000e+01 9.1188000000e+01 1.3518e-13 0.0000e+00
  9900012  1    3    3    0    0 -7.3491920773e+00 -1.5274135486e+01 +7.9604855692e+00 7.2461570294e+01 7.0000000000e+01 1.9345e-04 1.0000e+00
       12  1    3    3    0    0 +7.3491920773e+00 +1.5274135486e+01 -7.9604855692e+00 1.8726429706e+01 0.0000000000e+00 0.0000e+00 -1.0000e+00
</event>
<event>
 5      1 +6.9480500e-03 9.11880000e+01 7.81616400e-03 1.18400000e-01
      -11 -1    0    0    0    0 +0.0000000000e+00 +0.0000000000e+00 +4.5593999997e+01 4.5594000000e+01 5.1100000000e-04 0.0000e+00 -1.0000e+00
       11 -1    0    0    0    0 -0.0000000000e+00 -0.0000000000e+00 -4.5593999997e+01 4.5594000000e+01 5.1100000000e-04 0.0000e+00 1.0000e+00
       23  2    1    2    0    0 +0.0000000000e+00 +0.0000000000e+00 +0.0000000000e+00 9.1188000000e+01 9.1188000000e+01 4.2144e-14 0.0000e+00
  9900012  1    3    3    0    0 -3.2416585486e+00 +1.7109001631e+00 -1.8364194510e+01 7.2461570294e+01 7.0000000000e+01 4.7641e-06 1.0000e+00
       12  1    3    3    0    0 +3.2416585486e+00 -1.7109001631e+00 +1.8364194510e+01 1.8726429706e+01 0.0000000000e+00 0.0000e+00 -1.0000e+00
</event>
<event>
 5      7 +6.9480500e-03 9.11880000e+01 7.81616400e-03 1.18400000e-01
      -11 -1    0    0    0    0 +0.0000000000e+00 +0.0000000000e+00 +4.5593999997e+01 4.5594000000e+01 5.1100000000e-04 0.0000e+00 1.0000e+00
       11 -1    0    0    0    0 -0.0000000000e+00 -0.0000000000e+00 -4.5593999997e+01 4.5594000000e+01 5.1100000000e-04 0.0000e+00 -1.0000e+00
       23  2    1    2    0    0 +0.0000000000e+00 +0.0000000000e+00 +0.0000000000e+00 9.1188000000e+01 9.1188000000e+01 7.6855e-14 0.0000e+00
  9900012  1    3    3    0    0 +1.3366736198e+01 -2.0898330432e+00 +1.2947668932e+01 7.2461570294e+01 7.0000000000e+01 9.0369e-05 1.0000e+00
       12  1    3    3    0    0 -1.3366736198e+01 +2.0898330432e+00 -1.2947668932e+01 1.8726429706e+01 0.0000000000e+00 0.0000e+00 -1.0000e+00
</event>
<event>
 5      4 +6.9480500e-03 9.11880000e+01 7.81616400e-03 1.18400000e-01
      -11 -1    0    0    0    0 +0.0000000000e+00 +0.0000000000e+00 +4.5593999997e+01 4.5594000000e+01 5.1100000000e-04 0.0000e+00 1.0000e+00
       11 -1    0    0    0    0 -0.0000000000e+00 -0.0000000000e+00 -4.5593999997e+01 4.5594000000e+01 5.1100000000e-04 0.0000e+00 -1.0000e+00
       23  2    1    2    0    0 +0.0000000000e+00 +0.0000000000e+00 +0.0000000000e+00 9.1188000000e+01 9.1188000000e+01 3.8953e-17 0.0000e+00
  9900012  1    3    3    0    0 +1.5417912793e+01 -7.9629635155e+00 -7.0397689354e+00 7.2461570294e+01 7.0000000000e+01 2.2961e-05 -1.0000e+00
      -12  1    3    3    0    0 -1.5417912793e+01 +7.9629635155e+00 +7.0397689354e+00 1.8726429706e+01 0.0000000000e+00 0.0000e+00 1.0000e+00
</event>
<event>
 5      6 +6.9480500e-03 9.11880000e+01 7.81616400e-03 1.18400000e-01
      -11 -1    0    0    0    0 +0.0000000000e+00 +0.0000000000e+00 +4.5593999997e+01 4.5594000000e+01 5.1100000000e-04 0.0000e+00 -1.0000e+00
       11 -1    0    0    0    0 -0.0000000000e+00 -0.0000000000e+00 -4.5593999997e+01 4.5594000000e+01 5.1100000000e-04 0.0000e+00 1.0000e+00
       23  2    1    2    0    0 +0.0000000000e+00 +0.0000000000e+00 +0.0000000000e+00 9.1188000000e+01 9.1188000000e+01 5.8511e-14 0.0000e+00
  9900012  1    3    3    0    0 +1.8137450083e+01 -7.9926839320e-01 -4.5905603195e+00 7.2461570294e+01 7.0000000000e+01 2.7149e-05 -1.0000e+00
      -12  1    3    3    0    0 -1.8137450083e+01 +7.9926839320e-01 +4.5905603195e+00 1.8726429706e+01 0.0000000000e+00 0.0000e+00 1.0000e+00
</event>
<event>
 5      3 +6.9480500e-03 9.11880000e+01 7.81616400e-03 1.18400000e-01
      -11 -1    0    0    0    0 +0.0000000000e+00 +0.0000000000e+00 +4.5593999997e+01 4.5594000000e+01 5.1100000000e-04 0.0000e+00 1.0000e+00
       11 -1    0    0    0    0 -0.0000000000e+00 -0.0000000000e+00 -4.5593999997e+01 4.5594000000e+01 5.1100000000e-04 0.0000e+00 -1.0000e+00
       23  2    1    2    0    0 +0.0000000000e+00 +0.0000000000e+00 +0.0000000000e+00 9.1188000000e+01 9.1188000000e+01 5.5198e-14 0.0000e+00
  9900012  1    3    3    0    0 +1.6344200209e+01 -1.7156478484e+00 +8.9779085273e+00 7.2461570294e+01 7.0000000000e+01 1.9621e-04 1.0000e+00
       12  1    3    3    0    0 -1.6344200209e+01 +1.7156478484e+00 -8.9779085273e+00 1.8726429706e+01 0.0000000000e+00 0.0000e+00 -1.0000e+00
</event>
<event>
 5      1 +6.9480500e-03 9.11880000e+01 7.81616400e-03 1.18400000e-01
      -11 -1    0    0    0    0 +0.0000000000e+00 +0.0000000000e+00 +4.5593999997e+01 4.5594000000e+01 5.1100000000e-04 0.0000e+00 1.0000e+00
       11 -1    0    0    0    0 -0.0000000000e+00 -0.0000000000e+00 -4.5593999997e+01 4.5594000000e+01 5.1100000000e-04 0.0000e+00 -1.0000e+00
       23  2    1    2    0    0 +0.0000000000e+00 +0.0000000000e+00 +0.0000000000e+00 9.1188000000e+01 9.1188000000e+01 1.5479e-13 0.0000e+00
  9900012  1    3    3    0    0 -1.8265652871e+01 +1.1272580323e+00 -3.9716978785e+00 7.2461570294e+01 7.0000000000e+01 1.8838e-05 1.0000e+00
       12  1    3    3    0    0 +1.8265652871e+01 -1.1272580323e+00 +3.9716978785e+00 1.8726429706e+01 0.0000000000e+00 0.0000e+00 -1.0000e+00
</event>
<event>
 5      5 +6.9480500e-03 9.11880000e+01 7.81616400e-03 1.18400000e-01
      -11 -1    0    0    0    0 +0.0000000000e+00 +0.0000000000e+00 +4.5593999997e+01 4.5594000000e+01 5.1100000000e-04 0.0000e+00 -1.0000e+00
       11 -1    0    0    0    0 -0.0000000000e+00 -0.0000000000e+00 -4.5593999997e+01 4.5594000000e+01 5.1100000000e-04 0.0000e+00 1.0000e+00
       23  2    1    2    0    0 +0.0000000000e+00 +0.0000000000e+00 +0.0000000000e+00 9.1188000000e+01 9.1188000000e+01 8.2455e-15 0.0000e+00
  9900012  1    3    3    0    0 -1.1162707911e+01 +1.0397914403e+01 +1.0860777950e+01 7.2461570294e+01 7.0000000000e+01 1.7550e-04 1.0000e+00
       12  1    3    3    0    0 +1.1162707911e+01 -1.0397914403e+01 -1.0860777950e+01 1.8726429706e+01 0.0000000000e+00 0.0000e+00 -1.0000e+00
</event>
<event>
 5      1 +6.9480500e-03 9.11880000e+01 7.81616400e-03 1.18400000e-01
      -11 -1    0    0    0    0 +0.0000000000e+00 +0.0000000000e+00 +4.5593999997e+01 4.5594000000e+01 5.1100000000e-04 0.0000e+00 -1.0000e+00
       11 -1    0    0    0    0 -0.0000000000e+00 -0.0000000000e+00 -4.5593999997e+01 4.5594000000e+01 5.1100000000e-04 0.0000e+00 1.0000e+00
       23  2    1    2    0    0 +0.0000000000e+00 +0.0000000000e+00 +0.0000000000e+00 9.1188000000e+01 9.1188000000e+01 4.5754e-15 0.0000e+00
  9900012  1    3    3    0    0 -4.8651298806e+00 -1.6621665540e+01 -7.1224936243e+00 7.2461570294e+01 7.0000000000e+01 1.3472e-05 1.0000e+00
       12  1    3    3    0    0 +4.8651298806e+00 +1.6621665540e+01 +7.1224936243e+00 1.8726429706e+01 0.0000000000e+00 0.0000e+00 -1.0000e+00
</event>
<event>
 5      2 +6.9480500e-03 9.11880000e+01 7.81616400e-03 1.18400000e-01
      -11 -1    0    0    0    0 +0.0000000000e+00 +0.0000000000e+00 +4.5593999997e+01 4.5594000000e+01 5.1100000000e-04 0.0000e+00 1.0000e+00
       11 -1    0    0    0    0 -0.0000000000e+00 -0.0000000000e+00 -4.5593999997e+01 4.5594000000e+01 5.1100000000e-04 0.0000e+00 -1.0000e+00
       23  2    1    2    0    0 +0.0000000000e+00 +0.0000000000e+00 +0.0000000000e+00 9.1188000000e+01 9.1188000000e+01 1.1055e-13 0.0000e+00
  9900012  1    3    3    0    0 -1.2454634629e+00 +7.3470443399e+00 -1.7179899003e+01 7.2461570294e+01 7.0000000000e+01 2.9660e-05 -1.0000e+00
      -12  1    3    3    0    0 +1.2454634629e+00 -7.3470443399e+00 +1.7179899003e+01 1.8726429706e+01 0.0000000000e+00 0.0000e+00 1.0000e+00
</event>
<event>
 5      2 +6.9480500e-03 9.11880000e+01 7.81616400e-03 1.18400000e-01
      -11 -1    0    0    0    0 +0.0000000000e+00 +0.0000000000e+00 +4.5593999997e+01 4.5594000000e+01 5.1100000000e-04 0.0000e+00 -1.0000e+00
       11 -1    0    0    0    0 -0.0000000000e+00 -0.0000000000e+00 -4.5593999997e+01 4.5594000000e+01 5.1100000000e-04 0.0000e+00 1.0000e+00
       23  2    1    2    0    0 +0.0000000000e+00 +0.0000000000e+00 +0.0000000000e+00 9.1188000000e+01 9.1188000000e+01 2.1710e-15 0.0000e+00
  9900012  1    3    3    0    0 +1.7621211159e+01 -3.9027355080e+00 +4.9940707208e+00 7.2461570294e+01 7.0000000000e+01 4.8625e-05 -1.0000e+00
      -12  1    3    3    0    0 -1.7621211159e+01 +3.9027355080e+00 -4.9940707208e+00 1.8726429706e+01 0.0000000000e+00 0.0000e+00 1.0000e+00
</event>
<event>
 5      6 +6.9480500e-03 9.11880000e+01 7.81616400e-03 1.18400000e-01
      -11 -1    0    0    0    0 +0.0000000000e+00 +0.0000000000e+00 +4.5593999997e+01 4.5594000000e+01 5.1100000000e-04 0.0000e+00 1.0000e+00
       11 -1    0    0    0    0 -0.0000000000e+00 -0.0000000000e+00 -4.5593999997e+01 4.5594000000e+01 5.1100000000e-04 0.0000e+00 -1.0000e+00
       23  2    1    2    0    0 +0.0000000000e+00 +0.0000000000e+00 +0.0000000000e+00 9.1188000000e+01 9.1188000000e+01 9.0413e-14 0.0000e+00
  9900012  1    3    3    0    0 -8.4858353479e+00 -9.2852859418e+00 -1.3872751456e+01 7.2461570294e+01 7.0000000000e+01 1.2046e-04 -1.0000e+00
      -12  1    3    3    0    0 +8.4858353479e+00 +9.2852859418e+00 +1.3872751456e+01 1.8726429706e+01 0.0000000000e+00 0.0000e+00 1.0000e+00
</event>
<event>
 5      2 +6.9480500e-03 9.11880000e+01 7.81616400e-03 1.18400000e-01
      -11 -1    0    0    0    0 +0.0000000000e+00 +0.0000000000e+00 +4.5593999997e+01 4.5594000000e+01 5.1100000000e-04 0.0000e+00 1.0000e+00
       11 -1    0    0    0    0 -0.0000000000e+00 -0.0000000000e+00 -4.5593999997e+01 4.5594000000e+01 5.1100000000e-04 0.0000e+00 -1.0000e+00
       23  2    1    2    0    0 +0.0000000000e+00 +0.0000000000e+00 +0.0000000000e+00 9.1188000000e+01 9.1188000000e+01 2.7408e-13 0.0000e+00
  9900012  1    3    3    0    0 -2.5455871516e+00 +1.4739467591e+01 +1.1267087055e+01 7.2461570294e+01 7.0000000000e+01 3.9889e-05 1.0000e+00
      -12  1    3    3    0    0 +2.5455871516e+00 -1.4739467591e+01 -1.1267087055e+01 1.8726429706e+01 0.0000000000e+00 0.0000e+00 1.0000e+00
</event>
<event>
 5      8 +6.9480500e-03 9.11880000e+01 7.81616400e-03 1.18400000e-01
      -11 -1    0    0    0    0 +0.0000000000e+00 +0.0000000000e+00 +4.5593999997e+01 4.5594000000e+01 5.1100000000e-04 0.0000e+00 -1.0000e+00
       11 -1    0    0    0    0 -0.0000000000e+00 -0.0000000000e+00 -4.5593999997e+01 4.5594000000e+01 5.1100000000e-04 0.0000e+00 1.0000e+00
       23  2    1    2    0    0 +0.0000000000e+00 +0.0000000000e+00 +0.0000000000e+00 9.1188000000e+01 9.1188000000e+01 2.7375e-15 0.0000e+00
  9900012  1    3    3    0    0 +1.8506905180e+01 -2.2180172657e+00 -1.8038928987e+00 7.2461570294e+01 7.0000000000e+01 2.5307e-05 -1.0000e+00
      -12  1    3    3    0    0 -1.8506905180e+01 +2.2180172657e+00 +1.8038928987e+00 1.8726429706e+01 0.0000000000e+00 0.0000e+00 1.0000e+00
</event>
<event>
 5      6 +6.9480500e-03 9.11880000e+01 7.81616400e-03 1.18400000e-01
      -11 -1    0    0    0    0 +0.0000000000e+00 +0.0000000000e+00 +4.5593999997e+01 4.5594000000e+01 5.1100000000e-04 0.0000e+00 1.0000e+00
       11 -1    0    0    0    0 -0.0000000000e+00 -0.0000000000e+00 -4.5593999997e+01 4.5594000000e+01 5.1100000000e-04 0.0000e+00 -1.0000e+00
       23  2    1    2    0    0 +0.0000000000e+00 +0.0000000000e+00 +0.0000000000e+00 9.1188000000e+01 9.1188000000e+01 7.0590e-14 0.0000e+00
  9900012  1    3    3    0    0 -3.7408017148e+00 -7.8169893755e+00 -1.6600609903e+01 7.2461570294e+01 7.0000000000e+01 9.2017e-05 -1.0000e+00
      -12  1    3    3    0    0 +3.7408017148e+00 +7.8169893755e+00 +1.6600609903e+01 1.8726429706e+01 0.0000000000e+00 0.0000e+00 1.0000e+00
</event>
<event>
 5      7 +6.9480500e-03 9.11880000e+01 7.81616400e-03 1.18400000e-01
      -11 -1    0    0    0    0 +0.0000000000e+00 +0.0000000000e+00 +4.5593999997e+01 4.5594000000e+01 5.1100000000e-04 0.0000e+00 1.0000e+00
       11 -1    0    0    0    0 -0.0000000000e+00 -0.0000000000e+00 -4.5593999997e+01 4.5594000000e+01 5.1100000000e-04 0.0000e+00 -1.0000e+00
       23  2    1    2    0    0 +0.0000000000e+00 +0.0000000000e+00 +0.0000000000e+00 9.1188000000e+01 9.1188000000e+01 1.6643e-13 0.0000e+00
  9900012  1    3    3    0    0 +9.2878588369e+00 +9.5403969489e+00 +1.3167979109e+01 7.2461570294e+01 7.0000000000e+01 6.7151e-05 -1.0000e+00
       12  1    3    3    0    0 -9.2878588369e+00 -9.5403969489e+00 -1.3167979109e+01 1.8726429706e+01 0.0000000000e+00 0.0000e+00 -1.0000e+00
</event>
<event>
 5      8 +6.9480500e-03 9.11880000e+01 7.81616400e-03 1.18400000e-01
      -11 -1    0    0    0    0 +0.0000000000e+00 +0.0000000000e+00 +4.5593999997e+01 4.5594000000e+01 5.1100000000e-04 0.0000e+00 1.0000e+00
       11 -1    0    0    0    0 -0.0000000000e+00 -0.0000000000e+00 -4.5593999997e+01 4.5594000000e+01 5.1100000000e-04 0.0000e+00 -1.0000e+00
       23  2    1    2    0    0 +0.0000000000e+00 +0.0000000000e+00 +0.0000000000e+00 9.1188000000e+01 9.1188000000e+01 5.4635e-14 0.0000e+00
  9900012  1    3    3    0    0 +1.7776608656e+01 -1.5426169931e+00 -5.6825774994e+00 7.2461570294e+01 7.0000000000e+01 8.1688e-06 1.0000e+00
      -12  1    3    3    0    0 -1.7776608656e+01 +1.5426169931e+00 +5.6825774994e+00 1.8726429706e+01 0.0000000000e+00 0.0000e+00 1.0000e+00
</event>
<event>
 5      3 +6.9480500e-03 9.11880000e+01 7.81616400e-03 1.18400000e-01
      -11 -1    0    0    0    0 +0.0000000000e+00 +0.0000000000e+00 +4.5593999997e+01 4.5594000000e+01 5.1100000000e-04 0.0000e+00 -1.0000e+00
       11 -1    0    0    0    0 -0.0000000000e+00 -0.0000000000e+00 -4.5593999997e+01 4.5594000000e+01 5.1100000000e-04 0.0000e+00 1.0000e+00
       23  2    1    2    0    0 +0.0000000000e+00 +0.0000000000e+00 +0.0000000000e+00 9.1188000000e+01 9.1188000000e+01 1.4133e-13 0.0000e+00
  9900012  1    3    3    0    0 -1.8344347487e+01 -1.9803079232e+00 -3.2003851831e+00 7.2461570294e+01 7.0000000000e+01 1.9451e-05 -1.0000e+00
       12  1    3    3    0    0 +1.8344347487e+01 +1.9803079232e+00 +3.2003851831e+00 1.8726429706e+01 0.0000000000e+00 0.0000e+00 -1.0000e+00
</event>
<event>
 5      5 +6.9480500e-03 9.11880000e+01 7.81616400e-03 1.18400000e-01
      -11 -1    0    0    0    0 +0.0000000000e+00 +0.0000000000e+00 +4.5593999997e+01 4.5594000000e+01 5.1100000000e-04 0.0000e+00 -1.0000e+00
       11 -1    0    0    0    0 -0.0000000000e+00 -0.0000000000e+00 -4.5593999997e+01 4.5594000000e+01 5.1100000000e-04 0.0000e+00 1.0000e+00
       23  2    1    2    0    0 +0.0000000000e+00 +0.0000000000e+00 +0.0000000000e+00 9.1188000000e+01 9.1188000000e+01 4.2377e-14 0.0000e+00
  9900012  1    3    3    0    0 +1.3447338867e+01 +5.8728734249e+00 -1.1634328715e+01 7.2461570294e+01 7.0000000000e+01 1.1336e-04 1.0000e+00
       12  1    3    3    0    0 -1.3447338867e+01 -5.8728734249e+00 +1.1634328715e+01 1.8726429706e+01 0.0000000000e+00 0.0000e+00 -1.0000e+00
</event>
<event>
 5      5 +6.9480500e-03 9.11880000e+01 7.81616400e-03 1.18400000e-01
      -11 -1    0    0    0    0 +0.0000000000e+00 +0.0000000000e+00 +4.5593999997e+01 4.5594000000e+01 5.1100000000e-04 0.0000e+00 1.0000e+00
       11 -1    0    0    0    0 -0.0000000000e+00 -0.0000000000e+00 -4.5593999997e+01 4.5594000000e+01 5.1100000000e-04 0.0000e+00 -1.0000e+00
       23  2    1    2    0    0 +0.0000000000e+00 +0.0000000000e+00 +0.0000000000e+00 9.1188000000e+01 9.1188000000e+01 2.3243e-14 0.0000e+00
  9900012  1    3    3    0    0 +2.9543331542e+00 -1.2937326703e+01 +1.3212746229e+01 7.2461570294e+01 7.0000000000e+01 2.0267e-04 1.0000e+00
       12  1    3    3    0    0 -2.9543331542e+00 +1.2937326703e+01 -1.3212746229e+01 1.8726429706e+01 0.0000000000e+00 0.0000e+00 -1.0000e+00
</event>
<event>
 5      5 +6.9480500e-03 9.11880000e+01 7.81616400e-03 1.18400000e-01
      -11 -1    0    0    0    0 +0.0000000000e+00 +0.0000000000e+00 +4.5593999997e+01 4.5594000000e+01 5.1100000000e-04 0.0000e+00 1.0000e+00
       11 -1    0    0    0    0 -0.0000000000e+00 -0.0000000000e+00 -4.5593999997e+01 4.5594000000e+01 5.1100000000e-04 0.0000e+00 -1.0000e+00
       23  2    1    2    0    0 +0.0000000000e+00 +0.0000000000e+00 +0.0000000000e+00 9.1188000000e+01 9.1188000000e+01 3.2684e-14 0.0000e+00
  9900012  1    3    3    0    0 +1.1225997079e+01 -6.3773758899e+00 +1.3564115742e+01 7.2461570294e+01 7.0000000000e+01 9.7860e-05 1.0000e+00
       12  1    3    3    0    0 -1.1225997079e+01 +6.3773758899e+00 -1.3564115742e+01 1.8726429706e+01 0.0000000000e+00 0.0000e+00 -1.0000e+00
</event>
<event>
 5      7 +6.9480500e-03 9.11880000e+01 7.81616400e-03 1.18400000e-01
      -11 -1    0    0    0    0 +0.0000000000e+00 +0.0000000000e+00 +4.5593999997e+01 4.5594000000e+01 5.1100000000e-04 0.0000e+00 -1.0000e+00
       11 -1    0    0    0    0 -0.0000000000e+00 -0.0000000000e+00 -4.5593999997e+01 4.5594000000e+01 5.1100000000e-04 0.0000e+00 1.0000e+00
       23  2    1    2    0    0 +0.0000000000e+00 +0.0000000000e+00 +0.0000000000e+00 9.1188000000e+01 9.1188000000e+01 2.8387e-14 0.0000e+00
  9900012  1    3    3    0    0 -1.7411652583e+01 +8.9095117770e-01 -6.8351832342e+00 7.2461570294e+01 7.0000000000e+01 1.7218e-05 -1.0000e+00
       12  1    3    3    0    0 +1.7411652583e+01 -8.9095117770e-01 +6.8351832342e+00 1.8726429706e+01 0.0000000000e+00 0.0000e+00 -1.0000e+00
</event>
<event>
 5      7 +6.9480500e-03 9.11880000e+01 7.81616400e-03 1.18400000e-01
      -11 -1    0    0    0    0 +0.0000000000e+00 +0.0000000000e+00 +4.5593999997e+01 4.5594000000e+01 5.1100000000e-04 0.0000e+00 1.0000e+00
       11 -1    0    0    0    0 -0.0000000000e+00 -0.0000000000e+00 -4.5593999997e+01 4.5594000000e+01 5.1100000000e-04 0.0000e+00 -1.0000e+00
       23  2    1    2    0    0 +0.0000000000e+00 +0.0000000000e+00 +0.0000000000e+00 9.1188000000e+01 9.1188000000e+01 1.4307e-13 0.0000e+00
  9900012  1    3    3    0    0 -1.4909073894e+01 +1.0160705537e+01 -5.0158496919e+00 7.2461570294e+01 7.0000000000e+01 2.3394e-05 1.0000e+00
       12  1    3    3    0    0 +1.4909073894e+01 -1.0160705537e+01 +5.0158496919e+00 1.8726429706e+01 0.0000000000e+00 0.0000e+00 -1.0000e+00
</event>
<event>
 5      2 +6.9480500e-03 9.11880000e+01 7.81616400e-03 1.18400000e-01
      -11 -1    0    0    0    0 +0.0000000000e+00 +0.0000000000e+00 +4.5593999997e+01 4.5594000000e+01 5.1100000000e-04 0.0000e+00 1.0000e+00
       11 -1    0    0    0    0 -0.0000000000e+00 -0.0000000000e+00 -4.5593999997e+01 4.5594000000e+01 5.1100000000e-04 0.0000e+00 -1.0000e+00
       23  2    1    2    0    0 +0.0000000000e+00 +0.0000000000e+00 +0.0000000000e+00 9.1188000000e+01 9.1188000000e+01 4.7224e-14 0.0000e+00
  9900012  1    3    3    0    0 +8.4149900407e+00 +1.5095368876e+01 -7.2108911128e+00 7.2461570294e+01 7.0000000000e+01 4.9055e-05 -1.0000e+00
      -12  1    3    3    0    0 -8.4149900407e+00 -1.5095368876e+01 +7.2108911128e+00 1.8726429706e+01 0.0000000000e+00 0.0000e+00 1.0000e+00
</event>
<event>
 5      3 +6.9480500e-03 9.11880000e+01 7.81616400e-03 1.18400000e-01
      -11 -1    0    0    0    0 +0.0000000000e+00 +0.0000000000e+00 +4.5593999997e+01 4.5594000000e+01 5.1100000000e-04 0.0000e+00 1.0000e+00
       11 -1    0    0    0    0 -0.0000000000e+00 -0.0000000000e+00 -4.5593999997e+01 4.5594000000e+01 5.1100000000e-04 0.0000e+00 -1.0000e+00
       23  2    1    2    0    0 +0.0000000000e+00 +0.0000000000e+00 +0.0000000000e+00 9.1188000000e+01 9.1188000000e+01 8.9961e-14 0.0000e+00
  9900012  1    3    3    0    0 +1.3666922019e+01 +6.1023720620e+00 +1.1254131120e+01 7.2461570294e+01 7.0000000000e+01 3.8079e-05 1.0000e+00
       12  1    3    3    0    0 -1.3666922019e+01 -6.1023720620e+00 -1.1254131120e+01 1.8726429706e+01 0.0000000000e+00 0.0000e+00 -1.0000e+00
</event>
<event>
 5      6 +6.9480500e-03 9.11880000e+01 7.81616400e-03 1.18400000e-01
      -11 -1    0    0    0    0 +0.0000000000e+00 +0.0000000000e+00 +4.5593999997e+01 4.5594000000e+01 5.1100000000e-04 0.0000e+00 -1.0000e+00
       11 -1    0    0    0    0 -0.0000000000e+00 -0.0000000000e+00 -4.5593999997e+01 4.5594000000e+01 5.1100000000e-04 0.0000e+00 1.0000e+00
       23  2    1    2    0    0 +0.0000000000e+00 +0.0000000000e+00 +0.0000000000e+00 9.1188000000e+01 9.1188000000e+01 6.3288e-14 0.0000e+00
  9900012  1    3    3    0    0 +6.7475996663e+00 -1.8168661925e+00 -1.7373775223e+01 7.2461570294e+01 7.0000000000e+01 2.7323e-04 1.0000e+00
      -12  1    3    3    0    0 -6.7475996663e+00 +1.8168661925e+00 +1.7373775223e+01 1.8726429706e+01 0.0000000000e+00 0.0000e+00 1.0000e+00
</event>
<event>
 5      5 +6.9480500e-03 9.11880000e+01 7.81616400e-03 1.18400000e-01
      -11 -1    0    0    0    0 +0.0000000000e+00 +0.0000000000e+00 +4.5593999997e+01 4.5594000000e+01 5.1100000000e-04 0.0000e+00 1.0000e+00
       11 -1    0    0    0    0 -0.0000000000e+00 -0.0000000000e+00 -4.5593999997e+01 4.5594000000e+01 5.1100000000e-04 0.0000e+00 -1.0000e+00
       23  2    1    2    0    0 +0.0000000000e+00 +0.0000000000e+00 +0.0000000000e+00 9.1188000000e+01 9.1188000000e+01 6.9278e-14 0.0000e+00
  9900012  1    3    3    0    0 -1.0665192145e+01 +1.0176707846e+01 +1.1548483166e+01 7.2461570294e+01 7.0000000000e+01 1.3007e-04 1.0000e+00
       12  1    3    3    0    0 +1.0665192145e+01 -1.0176707846e+01 -1.1548483166e+01 1.8726429706e+01 0.0000000000e+00 0.0000e+00 -1.0000e+00
</event>
<event>
 5      8 +6.9480500e-03 9.11880000e+01 7.81616400e-03 1.18400000e-01
      -11 -1    0    0    0    0 +0.0000000000e+00 +0.0000000000e+00 +4.5593999997e+01 4.5594000000e+01 5.1100000000e-04 0.0000e+00 1.0000e+00
       11 -1    0    0    0    0 -0.0000000000e+00 -0.0000000000e+00 -4.5593999997e+01 4.5594000000e+01 5.1100000000e-04 0.0000e+00 -1.0000e+00
       23  2    1    2    0    0 +0.0000000000e+00 +0.0000000000e+00 +0.0000000000e+00 9.1188000000e+01 9.1188000000e+01 2.9734e-14 0.0000e+00
  9900012  1    3    3    0    0 -2.8044415837e-01 +1.5727515491e+01 -1.0160992918e+01 7.2461570294e+01 7.0000000000e+01 7.1260e-05 -1.0000e+00
      -12  1    3    3    0    0 +2.8044415837e-01 -1.5727515491e+01 +1.0160992918e+01 1.8726429706e+01 0.0000000000e+00 0.0000e+00 1.0000e+00
</event>
<event>
 5      3 +6.9480500e-03 9.11880000e+01 7.81616400e-03 1.18400000e-01
      -11 -1    0    0    0    0 +0.0000000000e+00 +0.0000000000e+00 +4.5593999997e+01 4.5594000000e+01 5.1100000000e-04 0.0000e+00 -1.0000e+00
       11 -1    0    0    0    0 -0.0000000000e+00 -0.0000000000e+00 -4.5593999997e+01 4.5594000000e+01 5.1100000000e-04 0.0000e+00 1.0000e+00
       23  2    1    2    0    0 +0.0000000000e+00 +0.0000000000e+00 +0.0000000000e+00 9.1188000000e+01 9.1188000000e+01 5.1354e-14 0.0000e+00
  9900012  1    3    3    0    0 -9.8247613862e-01 -6.0293489438e+00 -1.7702001623e+01 7.2461570294e+01 7.0000000000e+01 1.6301e-05 1.0000e+00
       12  1    3    3    0    0 +9.8247613862e-01 +6.0293489438e+00 +1.7702001623e+01 1.8726429706e+01 0.0000000000e+00 0.0000e+00 -1.0000e+00
</event>
<event>
 5      5 +6.9480500e-03 9.11880000e+01 7.81616400e-03 1.18400000e-01
      -11 -1    0    0    0    0 +0.0000000000e+00 +0.0000000000e+00 +4.5593999997e+01 4.5594000000e+01 5.1100000000e-04 0.0000e+00 1.0000e+00
       11 -1    0    0    0    0 -0.0000000000e+00 -0.0000000000e+00 -4.5593999997e+01 4.5594000000e+01 5.1100000000e-04 0.0000e+00 -1.0000e+00
       23  2    1    2    0    0 +0.0000000000e+00 +0.0000000000e+00 +0.0000000000e+00 9.1188000000e+01 9.1188000000e+01 9.6242e-14 0.0000e+00
  9900012  1    3    3    0    0 +1.5381607722e+01 +3.0668492300e+00 +1.0231312194e+01 7.2461570294e+01 7.0000000000e+01 3.7775e-04 1.0000e+00
       12  1    3    3    0    0 -1.5381607722e+01 -3.0668492300e+00 -1.0231312194e+01 1.8726429706e+01 0.0000000000e+00 0.0000e+00 -1.0000e+00
</event>
<event>
 5      6 +6.9480500e-03 9.11880000e+01 7.81616400e-03 1.18400000e-01
      -11 -1    0    0    0    0 +0.0000000000e+00 +0.0000000000e+00 +4.5593999997e+01 4.5594000000e+01 5.1100000000e-04 0.0000e+00 1.0000e+00
       11 -1    0    0    0    0 -0.0000000000e+00 -0.0000000000e+00 -4.5593999997e+01 4.5594000000e+01 5.1100000000e-04 0.0000e+00 -1.0000e+00
       23  2    1    2    0    0 +0.0000000000e+00 +0.0000000000e+00 +0.0000000000e+00 9.1188000000e+01 9.1188000000e+01 3.7700e-14 0.0000e+00
  9900012  1    3    3    0    0 -1.7408165800e+01 +5.7716196803e+00 +3.7846187746e+00 7.2461570294e+01 7.0000000000e+01 2.6240e-04 -1.0000e+00
      -12  1    3    3    0    0 +1.7408165800e+01 -5.7716196803e+00 -3.7846187746e+00 1.8726429706e+01 0.0000000000e+00 0.0000e+00 1.0000e+00
</event>
<event>
 5      8 +6.9480500e-03 9.11880000e+01 7.81616400e-03 1.18400000e-01
      -11 -1    0    0    0    0 +0.0000000000e+00 +0.0000000000e+00 +4.5593999997e+01 4.5594000000e+01 5.1100000000e-04 0.0000e+00 1.0000e+00
       11 -1    0    0    0    0 -0.0000000000e+00 -0.0000000000e+00 -4.5593999997e+01 4.5594000000e+01 5.1100000000e-04 0.0000e+00 -1.0000e+00
       23  2    1    2    0    0 +0.0000000000e+00 +0.0000000000e+00 +0.0000000000e+00 9.1188000000e+01 9.1188000000e+01 2.9859e-14 0.0000e+00
  9900012  1    3    3    0    0 +1.4919022972e+01 +1.1310082816e+01 -4.2889367046e-01 7.2461570294e+01 7.0000000000e+01 4.4586e-05 -1.0000e+00
      -12  1    3    3    0    0 -1.4919022972e+01 -1.1310082816e+01 +4.2889367046e-01 1.8726429706e+01 0.0000000000e+00 0.0000e+00 1.0000e+00
</event>
<event>
 5      8 +6.9480500e-03 9.11880000e+01 7.81616400e-03 1.18400000e-01
      -11 -1    0    0    0    0 +0.0000000000e+00 +0.0000000000e+00 +4.5593999997e+01 4.5594000000e+01 5.1100000000e-04 0.0000e+00 1.0000e+00
       11 -1    0    0    0    0 -0.0000000000e+00 -0.0000000000e+00 -4.5593999997e+01 4.5594000000e+01 5.1100000000e-04 0.0000e+00 -1.0000e+00
       23  2    1    2    0    0 +0.0000000000e+00 +0.0000000000e+00 +0.0000000000e+00 9.1188000000e+01 9.1188000000e+01 4.6116e-14 0.0000e+00
  9900012  1    3    3    0    0 +1.4644264861e+01 -1.1164168198e+00 -1.1618015738e+01 7.2461570294e+01 7.0000000000e+01 1.0941e-05 -1.0000e+00
      -12  1    3    3    0    0 -1.4644264861e+01 +1.1164168198e+00 +1.1618015738e+01 1.8726429706e+01 0.0000000000e+00 0.0000e+00 1.0000e+00
</event>
<event>
 5      1 +6.9480500e-03 9.11880000e+01 7.81616400e-03 1.18400000e-01
      -11 -1    0    0    0    0 +0.0000000000e+00 +0.0000000000e+00 +4.5593999997e+01 4.5594000000e+01 5.1100000000e-04 0.0000e+00 1.0000e+00
       11 -1    0    0    0    0 -0.0000000000e+00 -0.0000000000e+00 -4.5593999997e+01 4.5594000000e+01 5.1100000000e-04 0.0000e+00 -1.0000e+00
       23  2    1    2    0    0 +0.0000000000e+00 +0.0000000000e+00 +0.0000000000e+00 9.1188000000e+01 9.1188000000e+01 8.5969e-14 0.0000e+00
  9900012  1    3    3    0    0 +1.7019317437e+01 -4.9801912229e+00 -6.0182803933e+00 7.2461570294e+01 7.0000000000e+01 1.1446e-05 -1.0000e+00
       12  1    3    3    0    0 -1.7019317437e+01 +4.9801912229e+00 +6.0182803933e+00 1.8726429706e+01 0.0000000000e+00 0.0000e+00 -1.0000e+00
</event>
<event>
 5      3 +6.9480500e-03 9.11880000e+01 7.81616400e-03 1.18400000e-01
      -11 -1    0    0    0    0 +0.0000000000e+00 +0.0000000000e+00 +4.5593999997e+01 4.5594000000e+01 5.1100000000e-04 0.0000e+00 1.0000e+00
       11 -1    0    0    0    0 -0.0000000000e+00 -0.0000000000e+00 -4.5593999997e+01 4.5594000000e+01 5.1100000000e-04 0.0000e+00 -1.0000e+00
       23  2    1    2    0    0 +0.0000000000e+00 +0.0000000000e+00 +0.0000000000e+00 9.1188000000e+01 9.1188000000e+01 7.6556e-14 0.0000e+00
  9900012  1    3    3    0    0 -1.2223301624e+01 +3.4349380830e+00 +1.3764856240e+01 7.2461570294e+01 7.0000000000e+01 1.1760e-04 1.0000e+00
       12  1    3    3    0    0 +1.2223301624e+01 -3.4349380830e+00 -1.3764856240e+01 1.8726429706e+01 0.0000000000e+00 0.0000e+00 -1.0000e+00
</event>
<event>
 5      4 +6.9480500e-03 9.11880000e+01 7.81616400e-03 1.18400000e-01
      -11 -1    0    0    0    0 +0.0000000000e+00 +0.0000000000e+00 +4.5593999997e+01 4.5594000000e+01 5.1100000000e-04 0.0000e+00 1.0000e+00
       11 -1    0    0    0    0 -0.0000000000e+00 -0.0000000000e+00 -4.5593999997e+01 4.5594000000e+01 5.1100000000e-04 0.0000e+00 -1.0000e+00
       23  2    1    2    0    0 +0.0000000000e+00 +0.0000000000e+00 +0.0000000000e+00 9.1188000000e+01 9.1188000000e+01 1.8923e-14 0.0000e+00
  9900012  1    3    3    0    0 -1.3913703611e+01 -1.2502807794e+01 +8.7625260415e-01 7.2461570294e+01 7.0000000000e+01 5.1442e-05 -1.0000e+00
      -12  1    3    3    0    0 +1.3913703611e+01 +1.2502807794e+01 -8.7625260415e-01 1.8726429706e+01 0.0000000000e+00 0.0000e+00 1.0000e+00
</event>
<event>
 5      4 +6.9480500e-03 9.11880000e+01 7.81616400e-03 1.18400000e-01
      -11 -1    0    0    0    0 +0.0000000000e+00 +0.0000000000e+00 +4.5593999997e+01 4.5594000000e+01 5.1100000000e-04 0.0000e+00 1.0000e+00
       11 -1    0    0    0    0 -0.0000000000e+00 -0.0000000000e+00 -4.5593999997e+01 4.5594000000e+01 5.1100000000e-04 0.0000e+00 -1.0000e+00
       23  2    1    2    0    0 +0.0000000000e+00 +0.0000000000e+00 +0.0000000000e+00 9.1188000000e+01 9.1188000000e+01 2.1203e-13 0.0000e+00
  9900012  1    3    3    0    0 +1.9131395009e+00 +1.1724673062e+01 -1.4475880228e+01 7.2461570294e+01 7.0000000000e+01 1.6276e-04 -1.0000e+00
      -12  1    3    3    0    0 -1.9131395009e+00 -1.1724673062e+01 +1.4475880228e+01 1.8726429706e+01 0.0000000000e+00 0.0000e+00 1.0000e+00
</event>
<event>
 5      7 +6.9480500e-03 9.11880000e+01 7.81616400e-03 1.18400000e-01
      -11 -1    0    0    0    0 +0.0000000000e+00 +0.0000000000e+00 +4.5593999997e+01 4.5594000000e+01 5.1100000000e-04 0.0000e+00 1.0000e+00
       11 -1    0    0    0    0 -0.0000000000e+00 -0.0000000000e+00 -4.5593999997e+01 4.5594000000e+01 5.1100000000e-04 0.0000e+00 -1.0000e+00
       23  2    1    2    0    0 +0.0000000000e+00 +0.0000000000e+00 +0.0000000000e+00 9.1188000000e+01 9.1188000000e+01 5.3969e-14 0.0000e+00
  9900012  1    3    3    0    0 -3.1030224623e+00 +6.8461212432e+00 +1.7151706768e+01 7.2461570294e+01 7.0000000000e+01 4.1413e-05 1.0000e+00
       12  1    3    3    0    0 +3.1030224623e+00 -6.8461212432e+00 -1.7151706768e+01 1.8726429706e+01 0.0000000000e+00 0.0000e+00 -1.0000e+00
</event>
<event>
 5      4 +6.9480500e-03 9.11880000e+01 7.81616400e-03 1.18400000e-01
      -11 -1    0    0    0    0 +0.0000000000e+00 +0.0000000000e+00 +4.5593999997e+01 4.5594000000e+01 5.1100000000e-04 0.0000e+00 -1.0000e+00
       11 -1    0    0    0    0 -0.0000000000e+00 -0.0000000000e+00 -4.5593999997e+01 4.5594000000e+01 5.1100000000e-04 0.0000e+00 1.0000e+00
       23  2    1    2    0    0 +0.0000000000e+00 +0.0000000000e+00 +0.0000000000e+00 9.1188000000e+01 9.1188000000e+01 3.4579e-14 0.0000e+00
  9900012  1    3    3    0    0 -5.1684525459e-01 -1.5896112486e+01 -9.8856283735e+00 7.2461570294e+01 7.0000000000e+01 5.8420e-06 1.0000e+00
      -12  1    3    3    0    0 +5.1684525459e-01 +1.5896112486e+01 +9.8856283735e+00 1.8726429706e+01 0.0000000000e+00 0.0000e+00 1.0000e+00
</event>
<event>
 5      8 +6.9480500e-03 9.11880000e+01 7.81616400e-03 1.18400000e-01
      -11 -1    0    0    0    0 +0.0000000000e+00 +0.0000000000e+00 +4.5593999997e+01 4.5594000000e+01 5.1100000000e-04 0.0000e+00 -1.0000e+00
       11 -1    0    0    0    0 -0.0000000000e+00 -0.0000000000e+00 -4.5593999997e+01 4.5594000000e+01 5.1100000000e-04 0.0000e+00 1.0000e+00
       23  2    1    2    0    0 +0.0000000000e+00 +0.0000000000e+00 +0.0000000000e+00 9.1188000000e+01 9.1188000000e+01 1.3221e-13 0.0000e+00
  9900012  1    3    3    0    0 -9.4313126777e+00 +6.6452419795e+00 +1.4750263378e+01 7.2461570294e+01 7.0000000000e+01 2.1931e-04 -1.0000e+00
      -12  1    3    3    0    0 +9.4313126777e+00 -6.6452419795e+00 -1.4750263378e+01 1.8726429706e+01 0.0000000000e+00 0.0000e+00 1.0000e+00
</event>
<event>
 5      8 +6.9480500e-03 9.11880000e+01 7.81616400e-03 1.18400000e-01
      -11 -1    0    0    0    0 +0.0000000000e+00 +0.0000000000e+00 +4.5593999997e+01 4.5594000000e+01 5.1100000000e-04 0.0000e+00 1.0000e+00
       11 -1    0    0    0    0 -0.0000000000e+00 -0.0000000000e+00 -4.5593999997e+01 4.5594000000e+01 5.1100000000e-04 0.0000e+00 -1.0000e+00
       23  2    1    2    0    0 +0.0000000000e+00 +0.0000000000e+00 +0.0000000000e+00 9.1188000000e+01 9.1188000000e+01 8.5586e-14 0.0000e+00
  9900012  1    3    3    0    0 -1.0887509049e+00 -1.3709906803e+01 +1.2709533683e+01 7.2461570294e+01 7.0000000000e+01 5.1138e-06 1.0000e+00
      -12  1    3    3    0    0 +1.0887509049e+00 +1.3709906803e+01 -1.2709533683e+01 1.8726429706e+01 0.0000000000e+00 0.0000e+00 1.0000e+00
</event>
<event>
 5      8 +6.9480500e-03 9.11880000e+01 7.81616400e-03 1.18400000e-01
      -11 -1    0    0    0    0 +0.0000000000e+00 +0.0000000000e+00 +4.5593999997e+01 4.5594000000e+01 5.1100000000e-04 0.0000e+00 -1.0000e+00
       11 -1    0    0    0    0 -0.0000000000e+00 -0.0000000000e+00 -4.5593999997e+01 4.5594000000e+01 5.1100000000e-04 0.0000e+00 1.0000e+00
       23  2    1    2    0    0 +0.0000000000e+00 +0.0000000000e+00 +0.0000000000e+00 9.1188000000e+01 9.1188000000e+01 2.3188e-13 0.0000e+00
  9900012  1    3    3    0    0 +1.4700474569e+01 -1.1347361645e+01 +2.4109335681e+00 7.2461570294e+01 7.0000000000e+01 1.0280e-04 -1.0000e+00
      -12  1    3    3    0    0 -1.4700474569e+01 +1.1347361645e+01 -2.4109335681e+00 1.8726429706e+01 0.0000000000e+00 0.0000e+00 1.0000e+00
</event>
<event>
 5      3 +6.9480500e-03 9.11880000e+01 7.81616400e-03 1.18400000e-01
      -11 -1    0    0    0    0 +0.0000000000e+00 +0.0000000000e+00 +4.5593999997e+01 4.5594000000e+01 5.1100000000e-04 0.0000e+00 1.0000e+00
       11 -1    0    0    0    0 -0.0000000000e+00 -0.0000000000e+00 -4.5593999997e+01 4.5594000000e+01 5.1100000000e-04 0.0000e+00 -1.0000e+00
       23  2    1    2    0    0 +0.0000000000e+00 +0.0000000000e+00 +0.0000000000e+00 9.1188000000e+01 9.1188000000e+01 5.6375e-14 0.0000e+00
  9900012  1    3    3    0    0 -5.9119776722e+00 -1.5950376459e+01 +7.8302733247e+00 7.2461570294e+01 7.0000000000e+01 1.8223e-04 1.0000e+00
       12  1    3    3    0    0 +5.9119776722e+00 +1.5950376459e+01 -7.8302733247e+00 1.8726429706e+01 0.0000000000e+00 0.0000e+00 -1.0000e+00
</event>
<event>
 5      6 +6.9480500e-03 9.11880000e+01 7.81616400e-03 1.18400000e-01
      -11 -1    0    0    0    0 +0.0000000000e+00 +0.0000000000e+00 +4.5593999997e+01 4.5594000000e+01 5.1100000000e-04 0.0000e+00 -1.0000e+00
       11 -1    0    0    0    0 -0.0000000000e+00 -0.0000000000e+00 -4.5593999997e+01 4.5594000000e+01 5.1100000000e-04 0.0000e+00 1.0000e+00
       23  2    1    2    0    0 +0.0000000000e+00 +0.0000000000e+00 +0.0000000000e+00 9.1188000000e+01 9.1188000000e+01 7.9795e-15 0.0000e+00
  9900012  1    3    3    0    0 -5.5491431451e+00 +1.7831158842e+01 +1.3913857225e+00 7.2461570294e+01 7.0000000000e+01 8.9077e-05 1.0000e+00
      -12  1    3    3    0    0 +5.5491431451e+00 -1.7831158842e+01 -1.3913857225e+00 1.8726429706e+01 0.0000000000e+00 0.0000e+00 1.0000e+00
</event>
<event>
 5      2 +6.9480500e-03 9.11880000e+01 7.81616400e-03 1.18400000e-01
      -11 -1    0    0    0    0 +0.0000000000e+00 +0.0000000000e+00 +4.5593999997e+01 4.5594000000e+01 5.1100000000e-04 0.0000e+00 1.0000e+00
       11 -1    0    0    0    0 -0.0000000000e+00 -0.0000000000e+00 -4.5593999997e+01 4.5594000000e+01 5.1100000000e-04 0.0000e+00 -1.0000e+00
       23  2    1    2    0    0 +0.0000000000e+00 +0.0000000000e+00 +0.0000000000e+00 9.1188000000e+01 9.1188000000e+01 1.3528e-13 0.0000e+00
  9900012  1    3    3    0    0 -8.0799184967e-02 -1.3825873490e+01 -1.2630038134e+01 7.2461570294e+01 7.0000000000e+01 1.5966e-04 -1.0000e+00
      -12  1    3    3    0    0 +8.0799184967e-02 +1.3825873490e+01 +1.2630038134e+01 1.8726429706e+01 0.0000000000e+00 0.0000e+00 1.0000e+00
</event>
<event>
 5      2 +6.9480500e-03 9.11880000e+01 7.81616400e-03 1.18400000e-01
      -11 -1    0    0    0    0 +0.0000000000e+00 +0.0000000000e+00 +4.5593999997e+01 4.5594000000e+01 5.1100000000e-04 0.0000e+00 1.0000e+00
       11 -1    0    0    0    0 -0.0000000000e+00 -0.0000000000e+00 -4.5593999997e+01 4.5594000000e+01 5.1100000000e-04 0.0000e+00 -1.0000e+00
       23  2    1    2    0    0 +0.0000000000e+00 +0.0000000000e+00 +0.0000000000e+00 9.1188000000e+01 9.1188000000e+01 1.3920e-14 0.0000e+00
  9900012  1    3    3    0    0 -4.8560173957e+00 +1.7170387695e+01 -5.6812015430e+00 7.2461570294e+01 7.0000000000e+01 3.5245e-04 1.0000e+00
      -12  1    3    3    0    0 +4.8560173957e+00 -1.7170387695e+01 +5.6812015430e+00 1.8726429706e+01 0.0000000000e+00 0.0000e+00 1.0000e+00
</event>
<event>
 5      6 +6.9480500e-03 9.11880000e+01 7.81616400e-03 1.18400000e-01
      -11 -1    0    0    0    0 +0.0000000000e+00 +0.0000000000e+00 +4.5593999997e+01 4.5594000000e+01 5.1100000000e-04 0.0000e+00 1.0000e+00
       11 -1    0    0    0    0 -0.0000000000e+00 -0.0000000000e+00 -4.5593999997e+01 4.5594000000e+01 5.1100000000e-04 0.0000e+00 -1.0000e+00
       23  2    1    2    0    0 +0.0000000000e+00 +0.0000000000e+00 +0.0000000000e+00 9.1188000000e+01 9.1188000000e+01 1.6553e-13 0.0000e+00
  9900012  1    3    3    0    0 +1.6662475963e+01 -3.1829716832e+00 -7.9315670315e+00 7.2461570294e+01 7.0000000000e+01 4.3434e-05 1.0000e+00
      -12  1    3    3    0    0 -1.6662475963e+01 +3.1829716832e+00 +7.9315670315e+00 1.8726429706e+01 0.0000000000e+00 0.0000e+00 1.0000e+00
</event>
<event>
 5      1 +6.9480500e-03 9.11880000e+01 7.81616400e-03 1.18400000e-01
      -11 -1    0    0    0    0 +0.0000000000e+00 +0.0000000000e+00 +4.5593999997e+01 4.5594000000e+01 5.1100000000e-04 0.0000e+00 -1.0000e+00
       11 -1    0    0    0    0 -0.0000000000e+00 -0.0000000000e+00 -4.5593999997e+01 4.5594000000e+01 5.1100000000e-04 0.0000e+00 1.0000e+00
       23  2    1    2    0    0 +0.0000000000e+00 +0.0000000000e+00 +0.0000000000e+00 9.1188000000e+01 9.1188000000e+01 1.0348e-13 0.0000e+00
  9900012  1    3    3    0    0 -1.5446572439e+01 +4.7093287961e+00 -9.4818137345e+00 7.2461570294e+01 7.0000000000e+01 9.1404e-06 1.0000e+00
       12  1    3    3    0    0 +1.5446572439e+01 -4.7093287961e+00 +9.4818137345e+00 1.8726429706e+01 0.0000000000e+00 0.0000e+00 -1.0000e+00
</event>
<event>
 5      5 +6.9480500e-03 9.11880000e+01 7.81616400e-03 1.18400000e-01
      -11 -1    0    0    0    0 +0.0000000000e+00 +0.0000000000e+00 +4.5593999997e+01 4.5594000000e+01 5.1100000000e-04 0.0000e+00 1.0000e+00
       11 -1    0    0    0    0 -0.0000000000e+00 -0.0000000000e+00 -4.5593999997e+01 4.5594000000e+01 5.1100000000e-04 0.0000e+00 -1.0000e+00
       23  2    1    2    0    0 +0.0000000000e+00 +0.0000000000e+00 +0.0000000000e+00 9.1188000000e+01 9.1188000000e+01 3.9472e-14 0.0000e+00
  9900012  1    3    3    0    0 +2.6219448457e-03 -1.6303937760e+01 +9.2119908909e+00 7.2461570294e+01 7.0000000000e+01 6.7615e-05 1.0000e+00
       12  1    3    3    0    0 -2.6219448457e-03 +1.6303937760e+01 -9.2119908909e+00 1.8726429706e+01 0.0000000000e+00 0.0000e+00 -1.0000e+00
</event>
<event>
 5      7 +6.9480500e-03 9.11880000e+01 7.81616400e-03 1.18400000e-01
      -11 -1    0    0    0    0 +0.0000000000e+00 +0.0000000000e+00 +4.5593999997e+01 4.5594000000e+01 5.1100000000e-04 0.0000e+00 1.0000e+00
       11 -1    0    0    0    0 -0.0000000000e+00 -0.0000000000e+00 -4.5593999997e+01 4.5594000000e+01 5.1100000000e-04 0.0000e+00 -1.0000e+00
       23  2    1    2    0    0 +0.0000000000e+00 +0.0000000000e+00 +0.0000000000e+00 9.1188000000e+01 9.1188000000e+01 9.6507e-15 0.0000e+00
  9900012  1    3    3    0    0 +8.6287659806e+00 -1.6595943976e+01 +8.9342638929e-01 7.2461570294e+01 7.0000000000e+01 1.5339e-05 1.0000e+00
       12  1    3    3    0    0 -8.6287659806e+00 +1.6595943976e+01 -8.9342638929e-01 1.8726429706e+01 0.0000000000e+00 0.0000e+00 -1.0000e+00
</event>
<event>
 5      8 +6.9480500e-03 9.11880000e+01 7.81616400e-03 1.18400000e-01
      -11 -1    0    0    0    0 +0.0000000000e+00 +0.0000000000e+00 +4.5593999997e+01 4.5594000000e+01 5.1100000000e-04 0.0000e+00 -1.0000e+00
       11 -1    0    0    0    0 -0.0000000000e+00 -0.0000000000e+00 -4.5593999997e+01 4.5594000000e+01 5.1100000000e-04 0.0000e+00 1.0000e+00
       23  2    1    2    0    0 +0.0000000000e+00 +0.0000000000e+00 +0.0000000000e+00 9.1188000000e+01 9.1188000000e+01 4.1337e-15 0.0000e+00
  9900012  1    3    3    0    0 +8.5323821028e+00 +1.5857793619e+01 -5.1388721256e+00 7.2461570294e+01 7.0000000000e+01 3.3848e-05 1.0000e+00
      -12  1    3    3    0    0 -8.5323821028e+00 -1.5857793619e+01 +5.1388721256e+00 1.8726429706e+01 0.0000000000e+00 0.0000e+00 1.0000e+00
</event>
<event>
 5      4 +6.9480500e-03 9.11880000e+01 7.81616400e-03 1.18400000e-01
      -11 -1    0    0    0    0 +0.0000000000e+00 +0.0000000000e+00 +4.5593999997e+01 4.5594000000e+01 5.1100000000e-04 0.0000e+00 1.0000e+00
       11 -1    0    0    0    0 -0.0000000000e+00 -0.0000000000e+00 -4.5593999997e+01 4.5594000000e+01 5.1100000000e-04 0.0000e+00 -1.0000e+00
       23  2    1    2    0    0 +0.0000000000e+00 +0.0000000000e+00 +0.0000000000e+00 9.1188000000e+01 9.1188000000e+01 4.8768e-14 0.0000e+00
  9900012  1    3    3    0    0 +3.1410212936e-01 -1.8685568752e+01 +1.1958385357e+00 7.2461570294e+01 7.0000000000e+01 2.0689e-04 -1.0000e+00
      -12  1    3    3    0    0 -3.1410212936e-01 +1.8685568752e+01 -1.1958385357e+00 1.8726429706e+01 0.0000000000e+00 0.0000e+00 1.0000e+00
</event>
<event>
 5      8 +6.9480500e-03 9.11880000e+01 7.81616400e-03 1.18400000e-01
      -11 -1    0    0    0    0 +0.0000000000e+00 +0.0000000000e+00 +4.5593999997e+01 4.5594000000e+01 5.1100000000e-04 0.0000e+00 -1.0000e+00
       11 -1    0    0    0    0 -0.0000000000e+00 -0.0000000000e+00 -4.5593999997e+01 4.5594000000e+01 5.1100000000e-04 0.0000e+00 1.0000e+00
       23  2    1    2    0    0 +0.0000000000e+00 +0.0000000000e+00 +0.0000000000e+00 9.1188000000e+01 9.1188000000e+01 4.2227e-14 0.0000e+00
  9900012  1    3    3    0    0 +1.3706412264e+01 -1.2560123843e+01 -2.2487155043e+00 7.2461570294e+01 7.0000000000e+01 9.8067e-05 -1.0000e+00
      -12  1    3    3    0    0 -1.3706412264e+01 +1.2560123843e+01 +2.2487155043e+00 1.8726429706e+01 0.0000000000e+00 0.0000e+00 1.0000e+00
</event>
<event>
 5      8 +6.9480500e-03 9.11880000e+01 7.81616400e-03 1.18400000e-01
      -11 -1    0    0    0    0 +0.0000000000e+00 +0.0000000000e+00 +4.5593999997e+01 4.5594000000e+01 5.1100000000e-04 0.0000e+00 1.0000e+00
       11 -1    0    0    0    0 -0.0000000000e+00 -0.0000000000e+00 -4.5593999997e+01 4.5594000000e+01 5.1100000000e-04 0.0000e+00 -1.0000e+00
       23  2    1    2    0    0 +0.0000000000e+00 +0.0000000000e+00 +0.0000000000e+00 9.1188000000e+01 9.1188000000e+01 2.2710e-14 0.0000e+00
  9900012  1    3    3    0    0 +7.1647757459e+00 +1.5573017597e+01 -7.5383208305e+00 7.2461570294e+01 7.0000000000e+01 1.6199e-04 -1.0000e+00
      -12  1    3    3    0    0 -7.1647757459e+00 -1.5573017597e+01 +7.5383208305e+00 1.8726429706e+01 0.0000000000e+00 0.0000e+00 1.0000e+00
</event>
<event>
 5      3 +6.9480500e-03 9.11880000e+01 7.81616400e-03 1.18400000e-01
      -11 -1    0    0    0    0 +0.0000000000e+00 +0.0000000000e+00 +4.5593999997e+01 4.5594000000e+01 5.1100000000e-04 0.0000e+00 -1.0000e+00
       11 -1    0    0    0    0 -0.0000000000e+00 -0.0000000000e+00 -4.5593999997e+01 4.5594000000e+01 5.1100000000e-04 0.0000e+00 1.0000e+00
       23  2    1    2    0    0 +0.0000000000e+00 +0.0000000000e+00 +0.0000000000e+00 9.1188000000e+01 9.1188000000e+01 4.4608e-15 0.0000e+00
  9900012  1    3    3    0    0 +2.1262991332e-02 -1.6089277204e+01 -9.5819557737e+00 7.2461570294e+01 7.0000000000e+01 1.2641e-04 1.0000e+00
       12  1    3    3    0    0 -2.1262991332e-02 +1.6089277204e+01 +9.5819557737e+00 1.8726429706e+01 0.0000000000e+00 0.0000e+00 -1.0000e+00
</event>
<event>
 5      1 +6.9480500e-03 9.11880000e+01 7.81616400e-03 1.18400000e-01
      -11 -1    0    0    0    0 +0.0000000000e+00 +0.0000000000e+00 +4.5593999997e+01 4.5594000000e+01 5.1100000000e-04 0.0000e+00 1.0000e+00
       11 -1    0    0    0    0 -0.0000000000e+00 -0.0000000000e+00 -4.5593999997e+01 4.5594000000e+01 5.1100000000e-04 0.0000e+00 -1.0000e+00
       23  2    1    2    0    0 +0.0000000000e+00 +0.0000000000e+00 +0.0000000000e+00 9.1188000000e+01 9.1188000000e+01 1.3095e-13 0.0000e+00
  9900012  1    3    3    0    0 -1.4911036992e+01 +5.2231134540e+00 +1.0052822051e+01 7.2461570294e+01 7.0000000000e+01 1.9586e-05 1.0000e+00
       12  1    3    3    0    0 +1.4911036992e+01 -5.2231134540e+00 -1.0052822051e+01 1.8726429706e+01 0.0000000000e+00 0.0000e+00 -1.0000e+00
</event>
<event>
 5      6 +6.9480500e-03 9.11880000e+01 7.81616400e-03 1.18400000e-01
      -11 -1    0    0    0    0 +0.0000000000e+00 +0.0000000000e+00 +4.5593999997e+01 4.5594000000e+01 5.1100000000e-04 0.0000e+00 1.0000e+00
       11 -1    0    0    0    0 -0.0000000000e+00 -0.0000000000e+00 -4.5593999997e+01 4.5594000000e+01 5.1100000000e-04 0.0000e+00 -1.0000e+00
       23  2    1    2    0    0 +0.0000000000e+00 +0.0000000000e+00 +0.0000000000e+00 9.1188000000e+01 9.1188000000e+01 7.9122e-14 0.0000e+00
  9900012  1    3    3    0    0 +1.1202839924e+01 -5.8093219036e+00 -1.3835726442e+01 7.2461570294e+01 7.0000000000e+01 6.5619e-05 -1.0000e+00
      -12  1    3    3    0    0 -1.1202839924e+01 +5.8093219036e+00 +1.3835726442e+01 1.8726429706e+01 0.0000000000e+00 0.0000e+00 1.0000e+00
</event>
<event>
 5      4 +6.9480500e-03 9.11880000e+01 7.81616400e-03 1.18400000e-01
      -11 -1    0    0    0    0 +0.0000000000e+00 +0.0000000000e+00 +4.5593999997e+01 4.5594000000e+01 5.1100000000e-04 0.0000e+00 1.0000e+00
       11 -1    0    0    0    0 -0.0000000000e+00 -0.0000000000e+00 -4.5593999997e+01 4.5594000000e+01 5.1100000000e-04 0.0000e+00 -1.0000e+00
       23  2    1    2    0    0 +0.0000000000e+00 +0.0000000000e+00 +0.0000000000e+00 9.1188000000e+01 9.1188000000e+01 6.6283e-14 0.0000e+00
  9900012  1    3    3    0    0 +1.0911779722e+01 +1.5216152265e+01 -2.8450493992e-01 7.2461570294e+01 7.0000000000e+01 4.7009e-05 -1.0000e+00
      -12  1    3    3    0    0 -1.0911779722e+01 -1.5216152265e+01 +2.8450493992e-01 1.8726429706e+01 0.0000000000e+00 0.0000e+00 1.0000e+00
</event>
<event>
 5      3 +6.9480500e-03 9.11880000e+01 7.81616400e-03 1.18400000e-01
      -11 -1    0    0    0    0 +0.0000000000e+00 +0.0000000000e+00 +4.5593999997e+01 4.5594000000e+01 5.1100000000e-04 0.0000e+00 -1.0000e+00
       11 -1    0    0    0    0 -0.0000000000e+00 -0.0000000000e+00 -4.5593999997e+01 4.5594000000e+01 5.1100000000e-04 0.0000e+00 1.0000e+00
       23  2    1    2    0    0 +0.0000000000e+00 +0.0000000000e+00 +0.0000000000e+00 9.1188000000e+01 9.1188000000e+01 1.1050e-13 0.0000e+00
  9900012  1    3    3    0    0 -1.7166847018e+01 +4.7585363588e+00 -5.7736353116e+00 7.2461570294e+01 7.0000000000e+01 8.7097e-05 1.0000e+00
       12  1    3    3    0    0 +1.7166847018e+01 -4.7585363588e+00 +5.7736353116e+00 1.8726429706e+01 0.0000000000e+00 0.0000e+00 -1.0000e+00
</event>
<event>
 5      8 +6.9480500e-03 9.11880000e+01 7.81616400e-03 1.18400000e-01
      -11 -1    0    0    0    0 +0.0000000000e+00 +0.0000000000e+00 +4.5593999997e+01 4.5594000000e+01 5.1100000000e-04 0.0000e+00 -1.0000e+00
       11 -1    0    0    0    0 -0.0000000000e+00 -0.0000000000e+00 -4.5593999997e+01 4.5594000000e+01 5.1100000000e-04 0.0000e+00 1.0000e+00
       23  2    1    2    0    0 +0.0000000000e+00 +0.0000000000e+00 +0.0000000000e+00 9.1188000000e+01 9.1188000000e+01 1.1046e-14 0.0000e+00
  9900012  1    3    3    0    0 +4.1299045171e+00 +1.3872940361e+01 +1.1881270300e+01 7.2461570294e+01 7.0000000000e+01 1.8660e-05 -1.0000e+00
      -12  1    3    3    0    0 -4.1299045171e+00 -1.3872940361e+01 -1.1881270300e+01 1.8726429706e+01 0.0000000000e+00 0.0000e+00 1.0000e+00
</event>
<event>
 5      5 +6.9480500e-03 9.11880000e+01 7.81616400e-03 1.18400000e-01
      -11 -1    0    0    0    0 +0.0000000000e+00 +0.0000000000e+00 +4.5593999997e+01 4.5594000000e+01 5.1100000000e-04 0.0000e+00 1.0000e+00
       11 -1    0    0    0    0 -0.0000000000e+00 -0.0000000000e+00 -4.5593999997e+01 4.5594000000e+01 5.1100000000e-04 0.0000e+00 -1.0000e+00
       23  2    1    2    0    0 +0.0000000000e+00 +0.0000000000e+00 +0.0000000000e+00 9.1188000000e+01 9.1188000000e+01 3.7048e-14 0.0000e+00
  9900012  1    3    3    0    0 -4.8041114421e+00 -1.0196849179e+01 +1.4954061307e+01 7.2461570294e+01 7.0000000000e+01 1.5399e-04 1.0000e+00
       12  1    3    3    0    0 +4.8041114421e+00 +1.0196849179e+01 -1.4954061307e+01 1.8726429706e+01 0.0000000000e+00 0.0000e+00 -1.0000e+00
</event>
<event>
 5      7 +6.9480500e-03 9.11880000e+01 7.81616400e-03 1.18400000e-01
      -11 -1    0    0    0    0 +0.0000000000e+00 +0.0000000000e+00 +4.5593999997e+01 4.5594000000e+01 5.1100000000e-04 0.0000e+00 1.0000e+00
       11 -1    0    0    0    0 -0.0000000000e+00 -0.0000000000e+00 -4.5593999997e+01 4.5594000000e+01 5.1100000000e-04 0.0000e+00 -1.0000e+00
       23  2    1    2    0    0 +0.0000000000e+00 +0.0000000000e+00 +0.0000000000e+00 9.1188000000e+01 9.1188000000e+01 4.2734e-14 0.0000e+00
  9900012  1    3    3    0    0 +4.5414645671e+00 +1.7826183121e+01 +3.5044920385e+00 7.2461570294e+01 7.0000000000e+01 1.0212e-04 1.0000e+00
       12  1    3    3    0    0 -4.5414645671e+00 -1.7826183121e+01 -3.5044920385e+00 1.8726429706e+01 0.0000000000e+00 0.0000e+00 -1.0000e+00
</event>
<event>
 5      2 +6.9480500e-03 9.11880000e+01 7.81616400e-03 1.18400000e-01
      -11 -1    0    0    0    0 +0.0000000000e+00 +0.0000000000e+00 +4.5593999997e+01 4.5594000000e+01 5.1100000000e-04 0.0000e+00 1.0000e+00
       11 -1    0    0    0    0 -0.0000000000e+00 -0.0000000000e+00 -4.5593999997e+01 4.5594000000e+01 5.1100000000e-04 0.0000e+00 -1.0000e+00
       23  2    1    2    0    0 +0.0000000000e+00 +0.0000000000e+00 +0.0000000000e+00 9.1188000000e+01 9.1188000000e+01 1.3929e-13 0.0000e+00
  9900012  1    3    3    0    0 -4.6362537315e+00 -1.8033567248e+01 -1.9936833187e+00 7.2461570294e+01 7.0000000000e+01 1.0415e-04 -1.0000e+00
      -12  1    3    3    0    0 +4.6362537315e+00 +1.8033567248e+01 +1.9936833187e+00 1.8726429706e+01 0.0000000000e+00 0.0000e+00 1.0000e+00
</event>
<event>
 5      3 +6.9480500e-03 9.11880000e+01 7.81616400e-03 1.18400000e-01
      -11 -1    0    0    0    0 +0.0000000000e+00 +0.0000000000e+00 +4.5593999997e+01 4.5594000000e+01 5.1100000000e-04 0.0000e+00 1.0000e+00
       11 -1    0    0    0    0 -0.0000000000e+00 -0.0000000000e+00 -4.5593999997e+01 4.5594000000e+01 5.1100000000e-04 0.0000e+00 -1.0000e+00
       23  2    1    2    0    0 +0.0000000000e+00 +0.0000000000e+00 +0.0000000000e+00 9.1188000000e+01 9.1188000000e+01 2.8729e-14 0.0000e+00
  9900012  1    3    3    0    0 +3.8472836123e+00 -1.1074741921e+01 +1.4602317272e+01 7.2461570294e+01 7.0000000000e+01 1.8117e-04 1.0000e+00
       12  1    3    3    0    0 -3.8472836123e+00 +1.1074741921e+01 -1.4602317272e+01 1.8726429706e+01 0.0000000000e+00 0.0000e+00 -1.0000e+00
</event>
<event>
 5      3 +6.9480500e-03 9.11880000e+01 7.81616400e-03 1.18400000e-01
      -11 -1    0    0    0    0 +0.0000000000e+00 +0.0000000000e+00 +4.5593999997e+01 4.5594000000e+01 5.1100000000e-04 0.0000e+00 -1.0000e+00
       11 -1    0    0    0    0 -0.0000000000e+00 -0.0000000000e+00 -4.5593999997e+01 4.5594000000e+01 5.1100000000e-04 0.0000e+00 1.0000e+00
       23  2    1    2    0    0 +0.0000000000e+00 +0.0000000000e+00 +0.0000000000e+00 9.1188000000e+01 9.1188000000e+01 2.4732e-14 0.0000e+00
  9900012  1    3    3    0    0 +3.1495065237e+00 +1.7683625308e+01 +5.2961471051e+00 7.2461570294e+01 7.0000000000e+01 7.9503e-05 1.0000e+00
       12  1    3    3    0    0 -3.1495065237e+00 -1.7683625308e+01 -5.2961471051e+00 1.8726429706e+01 0.0000000000e+00 0.0000e+00 -1.0000e+00
</event>
<event>
 5      3 +6.9480500e-03 9.11880000e+01 7.81616400e-03 1.18400000e-01
      -11 -1    0    0    0    0 +0.0000000000e+00 +0.0000000000e+00 +4.5593999997e+01 4.5594000000e+01 5.1100000000e-04 0.0000e+00 1.0000e+00
       11 -1    0    0    0    0 -0.0000000000e+00 -0.0000000000e+00 -4.5593999997e+01 4.5594000000e+01 5.1100000000e-04 0.0000e+00 -1.0000e+00
       23  2    1    2    0    0 +0.0000000000e+00 +0.0000000000e+00 +0.0000000000e+00 9.1188000000e+01 9.1188000000e+01 3.0168e-14 0.0000e+00
  9900012  1    3    3    0    0 -1.4888203573e+01 -6.9907899480e+00 +8.9526208335e+00 7.2461570294e+01 7.0000000000e+01 1.4078e-04 1.0000e+00
       12  1    3    3    0    0 +1.4888203573e+01 +6.9907899480e+00 -8.9526208335e+00 1.8726429706e+01 0.0000000000e+00 0.0000e+00 -1.0000e+00
</event>
<event>
 5      3 +6.9480500e-03 9.11880000e+01 7.81616400e-03 1.18400000e-01
      -11 -1    0    0    0    0 +0.0000000000e+00 +0.0000000000e+00 +4.5593999997e+01 4.5594000000e+01 5.1100000000e-04 0.0000e+00 -1.0000e+00
       11 -1    0    0    0    0 -0.0000000000e+00 -0.0000000000e+00 -4.5593999997e+01 4.5594000000e+01 5.1100000000e-04 0.0000e+00 1.0000e+00
       23  2    1    2    0    0 +0.0000000000e+00 +0.0000000000e+00 +0.0000000000e+00 9.1188000000e+01 9.1188000000e+01 7.9352e-14 0.0000e+00
  9900012  1    3    3    0    0 -4.1987114374e+00 -9.8970211031e+00 -1.5332937262e+01 7.2461570294e+01 7.0000000000e+01 2.9146e-05 1.0000e+00
       12  1    3    3    0    0 +4.1987114374e+00 +9.8970211031e+00 +1.5332937262e+01 1.8726429706e+01 0.0000000000e+00 0.0000e+00 -1.0000e+00
</event>
<event>
 5      6 +6.9480500e-03 9.11880000e+01 7.81616400e-03 1.18400000e-01
      -11 -1    0    0    0    0 +0.0000000000e+00 +0.0000000000e+00 +4.5593999997e+01 4.5594000000e+01 5.1100000000e-04 0.0000e+00 -1.0000e+00
       11 -1    0    0    0    0 -0.0000000000e+00 -0.0000000000e+00 -4.5593999997e+01 4.5594000000e+01 5.1100000000e-04 0.0000e+00 1.0000e+00
       23  2    1    2    0    0 +0.0000000000e+00 +0.0000000000e+00 +0.0000000000e+00 9.1188000000e+01 9.1188000000e+01 2.6177e-14 0.0000e+00
  9900012  1    3    3    0    0 +1.8284859166e+01 -3.4257575995e+00 -2.1464574667e+00 7.2461570294e+01 7.0000000000e+01 7.3466e-05 -1.0000e+00
      -12  1    3    3    0    0 -1.8284859166e+01 +3.4257575995e+00 +2.1464574667e+00 1.8726429706e+01 0.0000000000e+00 0.0000e+00 1.0000e+00
</event>
<event>
 5      3 +6.9480500e-03 9.11880000e+01 7.81616400e-03 1.18400000e-01
      -11 -1    0    0    0    0 +0.0000000000e+00 +0.0000000000e+00 +4.5593999997e+01 4.5594000000e+01 5.1100000000e-04 0.0000e+00 1.0000e+00
       11 -1    0    0    0    0 -0.0000000000e+00 -0.0000000000e+00 -4.5593999997e+01 4.5594000000e+01 5.1100000000e-04 0.0000e+00 -1.0000e+00
       23  2    1    2    0    0 +0.0000000000e+00 +0.0000000000e+00 +0.0000000000e+00 9.1188000000e+01 9.1188000000e+01 9.5222e-14 0.0000e+00
  9900012  1    3    3    0    0 +1.5506965731e+01 +5.2457531046e+00 +9.0936932925e+00 7.2461570294e+01 7.0000000000e+01 1.3402e-04 -1.0000e+00
       12  1    3    3    0    0 -1.5506965731e+01 -5.2457531046e+00 -9.0936932925e+00 1.8726429706e+01 0.0000000000e+00 0.0000e+00 -1.0000e+00
</event>
<event>
 5      3 +6.9480500e-03 9.11880000e+01 7.81616400e-03 1.18400000e-01
      -11 -1    0    0    0    0 +0.0000000000e+00 +0.0000000000e+00 +4.5593999997e+01 4.5594000000e+01 5.1100000000e-04 0.0000e+00 1.0000e+00
       11 -1    0    0    0    0 -0.0000000000e+00 -0.0000000000e+00 -4.5593999997e+01 4.5594000000e+01 5.1100000000e-04 0.0000e+00 -1.0000e+00
       23  2    1    2    0    0 +0.0000000000e+00 +0.0000000000e+00 +0.0000000000e+00 9.1188000000e+01 9.1188000000e+01 1.3041e-13 0.0000e+00
  9900012  1    3    3    0    0 -3.6846432482e+00 -4.9161132137e+00 -1.7689952078e+01 7.2461570294e+01 7.0000000000e+01 5.5044e-04 -1.0000e+00
       12  1    3    3    0    0 +3.6846432482e+00 +4.9161132137e+00 +1.7689952078e+01 1.8726429706e+01 0.0000000000e+00 0.0000e+00 -1.0000e+00
</event>
<event>
 5      3 +6.9480500e-03 9.11880000e+01 7.81616400e-03 1.18400000e-01
      -11 -1    0    0    0    0 +0.0000000000e+00 +0.0000000000e+00 +4.5593999997e+01 4.5594000000e+01 5.1100000000e-04 0.0000e+00 1.0000e+00
       11 -1    0    0    0    0 -0.0000000000e+00 -0.0000000000e+00 -4.5593999997e+01 4.5594000000e+01 5.1100000000e-04 0.0000e+00 -1.0000e+00
       23  2    1    2    0    0 +0.0000000000e+00 +0.0000000000e+00 +0.0000000000e+00 9.1188000000e+01 9.1188000000e+01 3.2568e-14 0.0000e+00
  9900012  1    3    3    0    0 +2.1609669260e-01 -8.6474202805e+00 +1.6608870950e+01 7.2461570294e+01 7.0000000000e+01 1.7732e-04 1.0000e+00
       12  1    3    3    0    0 -2.1609669260e-01 +8.6474202805e+00 -1.6608870950e+01 1.8726429706e+01 0.0000000000e+00 0.0000e+00 -1.0000e+00
</event>
<event>
 5      5 +6.9480500e-03 9.11880000e+01 7.81616400e-03 1.18400000e-01
      -11 -1    0    0    0    0 +0.0000000000e+00 +0.0000000000e+00 +4.5593999997e+01 4.5594000000e+01 5.1100000000e-04 0.0000e+00 -1.0000e+00
       11 -1    0    0    0    0 -0.0000000000e+00 -0.0000000000e+00 -4.5593999997e+01 4.5594000000e+01 5.1100000000e-04 0.0000e+00 1.0000e+00
       23  2    1    2    0    0 +0.0000000000e+00 +0.0000000000e+00 +0.0000000000e+00 9.1188000000e+01 9.1188000000e+01 2.5601e-14 0.0000e+00
  9900012  1    3    3    0    0 -1.4306934065e+01 -2.2688449148e+00 -1.1867735670e+01 7.2461570294e+01 7.0000000000e+01 1.4040e-04 1.0000e+00
       12  1    3    3    0    0 +1.4306934065e+01 +2.2688449148e+00 +1.1867735670e+01 1.8726429706e+01 0.0000000000e+00 0.0000e+00 -1.0000e+00
</event>
<event>
 5      6 +6.9480500e-03 9.11880000e+01 7.81616400e-03 1.18400000e-01
      -11 -1    0    0    0    0 +0.0000000000e+00 +0.0000000000e+00 +4.5593999997e+01 4.5594000000e+01 5.1100000000e-04 0.0000e+00 -1.0000e+00
       11 -1    0    0    0    0 -0.0000000000e+00 -0.0000000000e+00 -4.5593999997e+01 4.5594000000e+01 5.1100000000e-04 0.0000e+00 1.0000e+00
       23  2    1    2    0    0 +0.0000000000e+00 +0.0000000000e+00 +0.0000000000e+00 9.1188000000e+01 9.1188000000e+01 1.4707e-13 0.0000e+00
  9900012  1    3    3    0    0 -1.1270777463e+01 -2.7862126866e+00 +1.4693051547e+01 7.2461570294e+01 7.0000000000e+01 8.8878e-05 -1.0000e+00
      -12  1    3    3    0    0 +1.1270777463e+01 +2.7862126866e+00 -1.4693051547e+01 1.8726429706e+01 0.0000000000e+00 0.0000e+00 1.0000e+00
</event>
<event>
 5      6 +6.9480500e-03 9.11880000e+01 7.81616400e-03 1.18400000e-01
      -11 -1    0    0    0    0 +0.0000000000e+00 +0.0000000000e+00 +4.5593999997e+01 4.5594000000e+01 5.1100000000e-04 0.0000e+00 -1.0000e+00
       11 -1    0    0    0    0 -0.0000000000e+00 -0.0000000000e+00 -4.5593999997e+01 4.5594000000e+01 5.1100000000e-04 0.0000e+00 1.0000e+00
       23  2    1    2    0    0 +0.0000000000e+00 +0.0000000000e+00 +0.0000000000e+00 9.1188000000e+01 9.1188000000e+01 1.3557e-13 0.0000e+00
  9900012  1    3    3    0    0 -4.1093317713e+00 -1.7153918981e+01 +6.2877361184e+00 7.2461570294e+01 7.0000000000e+01 1.7411e-04 -1.0000e+00
      -12  1    3    3    0    0 +4.1093317713e+00 +1.7153918981e+01 -6.2877361184e+00 1.8726429706e+01 0.0000000000e+00 0.0000e+00 1.0000e+00
</event>
<event>
 5      4 +6.9480500e-03 9.11880000e+01 7.81616400e-03 1.18400000e-01
      -11 -1    0    0    0    0 +0.0000000000e+00 +0.0000000000e+00 +4.5593999997e+01 4.5594000000e+01 5.1100000000e-04 0.0000e+00 -1.0000e+00
       11 -1    0    0    0    0 -0.0000000000e+00 -0.0000000000e+00 -4.5593999997e+01 4.5594000000e+01 5.1100000000e-04 0.0000e+00 1.0000e+00
       23  2    1    2    0    0 +0.0000000000e+00 +0.0000000000e+00 +0.0000000000e+00 9.1188000000e+01 9.1188000000e+01 1.3656e-13 0.0000e+00
  9900012  1    3    3    0    0 +1.1903585012e+01 +1.3306280379e+01 +5.6503748428e+00 7.2461570294e+01 7.0000000000e+01 1.3599e-05 -1.0000e+00
      -12  1    3    3    0    0 -1.1903585012e+01 -1.3306280379e+01 -5.6503748428e+00 1.8726429706e+01 0.0000000000e+00 0.0000e+00 1.0000e+00
</event>
<event>
 5      3 +6.9480500e-03 9.11880000e+01 7.81616400e-03 1.18400000e-01
      -11 -1    0    0    0    0 +0.0000000000e+00 +0.0000000000e+00 +4.5593999997e+01 4.5594000000e+01 5.1100000000e-04 0.0000e+00 1.0000e+00
       11 -1    0    0    0    0 -0.0000000000e+00 -0.0000000000e+00 -4.5593999997e+01 4.5594000000e+01 5.1100000000e-04 0.0000e+00 -1.0000e+00
       23  2    1    2    0    0 +0.0000000000e+00 +0.0000000000e+00 +0.0000000000e+00 9.1188000000e+01 9.1188000000e+01 1.3417e-13 0.0000e+00
  9900012  1    3    3    0    0 -4.0167711513e+00 +3.5868696262e+00 +1.7935414278e+01 7.2461570294e+01 7.0000000000e+01 2.7119e-05 1.0000e+00
       12  1    3    3    0    0 +4.0167711513e+00 -3.5868696262e+00 -1.7935414278e+01 1.8726429706e+01 0.0000000000e+00 0.0000e+00 -1.0000e+00
</event>
<event>
 5      3 +6.9480500e-03 9.11880000e+01 7.81616400e-03 1.18400000e-01
      -11 -1    0    0    0    0 +0.0000000000e+00 +0.0000000000e+00 +4.5593999997e+01 4.5594000000e+01 5.1100000000e-04 0.0000e+00 1.0000e+00
       11 -1    0    0    0    0 -0.0000000000e+00 -0.0000000000e+00 -4.5593999997e+01 4.5594000000e+01 5.1100000000e-04 0.0000e+00 -1.0000e+00
       23  2    1    2    0    0 +0.0000000000e+00 +0.0000000000e+00 +0.0000000000e+00 9.1188000000e+01 9.1188000000e+01 5.6994e-14 0.0000e+00
  9900012  1    3    3    0    0 -7.2501790666e+00 -1.2709345348e+00 +1.7219140467e+01 7.2461570294e+01 7.0000000000e+01 1.5085e-04 1.0000e+00
       12  1    3    3    0    0 +7.2501790666e+00 +1.2709345348e+00 -1.7219140467e+01 1.8726429706e+01 0.0000000000e+00 0.0000e+00 -1.0000e+00
</event>
<event>
 5      3 +6.9480500e-03 9.11880000e+01 7.81616400e-03 1.18400000e-01
      -11 -1    0    0    0    0 +0.0000000000e+00 +0.0000000000e+00 +4.5593999997e+01 4.5594000000e+01 5.1100000000e-04 0.0000e+00 -1.0000e+00
       11 -1    0    0    0    0 -0.0000000000e+00 -0.0000000000e+00 -4.5593999997e+01 4.5594000000e+01 5.1100000000e-04 0.0000e+00 1.0000e+00
       23  2    1    2    0    0 +0.0000000000e+00 +0.0000000000e+00 +0.0000000000e+00 9.1188000000e+01 9.1188000000e+01 3.2657e-14 0.0000e+00
  9900012  1    3    3    0    0 +7.9275410498e+00 +1.6000048054e+01 -5.6419610677e+00 7.2461570294e+01 7.0000000000e+01 6.1829e-06 1.0000e+00
       12  1    3    3    0    0 -7.9275410498e+00 -1.6000048054e+01 +5.6419610677e+00 1.8726429706e+01 0.0000000000e+00 0.0000e+00 -1.0000e+00
</event>
<event>
 5      1 +6.9480500e-03 9.11880000e+01 7.81616400e-03 1.18400000e-01
      -11 -1    0    0    0    0 +0.0000000000e+00 +0.0000000000e+00 +4.5593999997e+01 4.5594000000e+01 5.1100000000e-04 0.0000e+00 1.0000e+00
       11 -1    0    0    0    0 -0.0000000000e+00 -0.0000000000e+00 -4.5593999997e+01 4.5594000000e+01 5.1100000000e-04 0.0000e+00 -1.0000e+00
       23  2    1    2    0    0 +0.0000000000e+00 +0.0000000000e+00 +0.0000000000e+00 9.1188000000e+01 9.1188000000e+01 1.0876e-13 0.0000e+00
  9900012  1    3    3    0    0 -3.5928712494e+00 -1.7367149565e+01 +6.0127000344e+00 7.2461570294e+01 7.0000000000e+01 1.1996e-04 -1.0000e+00
       12  1    3    3    0    0 +3.5928712494e+00 +1.7367149565e+01 -6.0127000344e+00 1.8726429706e+01 0.0000000000e+00 0.0000e+00 -1.0000e+00
</event>
<event>
 5      1 +6.9480500e-03 9.11880000e+01 7.81616400e-03 1.18400000e-01
      -11 -1    0    0    0    0 +0.0000000000e+00 +0.0000000000e+00 +4.5593999997e+01 4.5594000000e+01 5.1100000000e-04 0.0000e+00 -1.0000e+00
       11 -1    0    0    0    0 -0.0000000000e+00 -0.0000000000e+00 -4.5593999997e+01 4.5594000000e+01 5.1100000000e-04 0.0000e+00 1.0000e+00
       23  2    1    2    0    0 +0.0000000000e+00 +0.0000000000e+00 +0.0000000000e+00 9.1188000000e+01 9.1188000000e+01 1.0087e-13 0.0000e+00
  9900012  1    3    3    0    0 +8.6606415023e-01 +1.2436502032e+01 -1.3973636593e+01 7.2461570294e+01 7.0000000000e+01 7.7078e-05 1.0000e+00
       12  1    3    3    0    0 -8.6606415023e-01 -1.2436502032e+01 +1.3973636593e+01 1.8726429706e+01 0.0000000000e+00 0.0000e+00 -1.0000e+00
</event>
<event>
 5      4 +6.9480500e-03 9.11880000e+01 7.81616400e-03 1.18400000e-01
      -11 -1    0    0    0    0 +0.0000000000e+00 +0.0000000000e+00 +4.5593999997e+01 4.5594000000e+01 5.1100000000e-04 0.0000e+00 1.0000e+00
       11 -1    0    0    0    0 -0.0000000000e+00 -0.0000000000e+00 -4.5593999997e+01 4.5594000000e+01 5.1100000000e-04 0.0000e+00 -1.0000e+00
       23  2    1    2    0    0 +0.0000000000e+00 +0.0000000000e+00 +0.0000000000e+00 9.1188000000e+01 9.1188000000e+01 3.0048e-14 0.0000e+00
  9900012  1    3    3    0    0 -4.4865325682e-01 +1.3461273412e+01 -1.3010457252e+01 7.2461570294e+01 7.0000000000e+01 4.8826e-05 -1.0000e+00
      -12  1    3    3    0    0 +4.4865325682e-01 -1.3461273412e+01 +1.3010457252e+01 1.8726429706e+01 0.0000000000e+00 0.0000e+00 1.0000e+00
</event>
<event>
 5      4 +6.9480500e-03 9.11880000e+01 7.81616400e-03 1.18400000e-01
      -11 -1    0    0    0    0 +0.0000000000e+00 +0.0000000000e+00 +4.5593999997e+01 4.5594000000e+01 5.1100000000e-04 0.0000e+00 -1.0000e+00
       11 -1    0    0    0    0 -0.0000000000e+00 -0.0000000000e+00 -4.5593999997e+01 4.5594000000e+01 5.1100000000e-04 0.0000e+00 1.0000e+00
       23  2    1    2    0    0 +0.0000000000e+00 +0.0000000000e+00 +0.0000000000e+00 9.1188000000e+01 9.1188000000e+01 5.6787e-14 0.0000e+00
  9900012  1    3    3    0    0 +1.7868134646e+01 -5.3885099630e+00 -1.5404201239e+00 7.2461570294e+01 7.0000000000e+01 1.7591e-05 -1.0000e+00
      -12  1    3    3    0    0 -1.7868134646e+01 +5.3885099630e+00 +1.5404201239e+00 1.8726429706e+01 0.0000000000e+00 0.0000e+00 1.0000e+00
</event>
<event>
 5      6 +6.9480500e-03 9.11880000e+01 7.81616400e-03 1.18400000e-01
      -11 -1    0    0    0    0 +0.0000000000e+00 +0.0000000000e+00 +4.5593999997e+01 4.5594000000e+01 5.1100000000e-04 0.0000e+00 1.0000e+00
       11 -1    0    0    0    0 -0.0000000000e+00 -0.0000000000e+00 -4.5593999997e+01 4.5594000000e+01 5.1100000000e-04 0.0000e+00 -1.0000e+00
       23  2    1    2    0    0 +0.0000000000e+00 +0.0000000000e+00 +0.0000000000e+00 9.1188000000e+01 9.1188000000e+01 5.5601e-14 0.0000e+00
  9900012  1    3    3    0    0 +1.5308396925e+01 -1.0768657193e+01 +6.0677457086e-01 7.2461570294e+01 7.0000000000e+01 4.0196e-07 -1.0000e+00
      -12  1    3    3    0    0 -1.5308396925e+01 +1.0768657193e+01 -6.0677457086e-01 1.8726429706e+01 0.0000000000e+00 0.0000e+00 1.0000e+00
</event>
<event>
 5      6 +6.9480500e-03 9.11880000e+01 7.81616400e-03 1.18400000e-01
      -11 -1    0    0    0    0 +0.0000000000e+00 +0.0000000000e+00 +4.5593999997e+01 4.5594000000e+01 5.1100000000e-04 0.0000e+00 1.0000e+00
       11 -1    0    0    0    0 -0.0000000000e+00 -0.0000000000e+00 -4.5593999997e+01 4.5594000000e+01 5.1100000000e-04 0.0000e+00 -1.0000e+00
       23  2    1    2    0    0 +0.0000000000e+00 +0.0000000000e+00 +0.0000000000e+00 9.1188000000e+01 9.1188000000e+01 1.6687e-14 0.0000e+00
  9900012  1    3    3    0    0 +1.3508636565e+01 -9.4574257889e-01 -1.2934507283e+01 7.2461570294e+01 7.0000000000e+01 7.9530e-05 -1.0000e+00
      -12  1    3    3    0    0 -1.3508636565e+01 +9.4574257889e-01 +1.2934507283e+01 1.8726429706e+01 0.0000000000e+00 0.0000e+00 1.0000e+00
</event>
<event>
 5      7 +6.9480500e-03 9.11880000e+01 7.81616400e-03 1.18400000e-01
      -11 -1    0    0    0    0 +0.0000000000e+00 +0.0000000000e+00 +4.5593999997e+01 4.5594000000e+01 5.1100000000e-04 0.0000e+00 -1.0000e+00
       11 -1    0    0    0    0 -0.0000000000e+00 -0.0000000000e+00 -4.5593999997e+01 4.5594000000e+01 5.1100000000e-04 0.0000e+00 1.0000e+00
       23  2    1    2    0    0 +0.0000000000e+00 +0.0000000000e+00 +0.0000000000e+00 9.1188000000e+01 9.1188000000e+01 5.3539e-14 0.0000e+00
  9900012  1    3    3    0    0 +1.1362026567e+01 -1.1847970872e+01 -9.0116096248e+00 7.2461570294e+01 7.0000000000e+01 3.5974e-05 -1.0000e+00
       12  1    3    3    0    0 -1.1362026567e+01 +1.1847970872e+01 +9.0116096248e+00 1.8726429706e+01 0.0000000000e+00 0.0000e+00 -1.0000e+00
</event>
<event>
 5      4 +6.9480500e-03 9.11880000e+01 7.81616400e-03 1.18400000e-01
      -11 -1    0    0    0    0 +0.0000000000e+00 +0.0000000000e+00 +4.5593999997e+01 4.5594000000e+01 5.1100000000e-04 0.0000e+00 1.0000e+00
       11 -1    0    0    0    0 -0.0000000000e+00 -0.0000000000e+00 -4.5593999997e+01 4.5594000000e+01 5.1100000000e-04 0.0000e+00 -1.0000e+00
       23  2    1    2    0    0 +0.0000000000e+00 +0.0000000000e+00 +0.0000000000e+00 9.1188000000e+01 9.1188000000e+01 2.5012e-14 0.0000e+00
  9900012  1    3    3    0    0 -1.4871633656e+01 -2.9349273315e+00 -1.0995448308e+01 7.2461570294e+01 7.0000000000e+01 4.2669e-05 -1.0000e+00
      -12  1    3    3    0    0 +1.4871633656e+01 +2.9349273315e+00 +1.0995448308e+01 1.8726429706e+01 0.0000000000e+00 0.0000e+00 1.0000e+00
</event>
<event>
 5      2 +6.9480500e-03 9.11880000e+01 7.81616400e-03 1.18400000e-01
      -11 -1    0    0    0    0 +0.0000000000e+00 +0.0000000000e+00 +4.5593999997e+01 4.5594000000e+01 5.1100000000e-04 0.0000e+00 1.0000e+00
       11 -1    0    0    0    0 -0.0000000000e+00 -0.0000000000e+00 -4.5593999997e+01 4.5594000000e+01 5.1100000000e-04 0.0000e+00 -1.0000e+00
       23  2    1    2    0    0 +0.0000000000e+00 +0.0000000000e+00 +0.0000000000e+00 9.1188000000e+01 9.1188000000e+01 3.7829e-14 0.0000e+00
  9900012  1    3    3    0    0 -7.8938122091e+00 +5.4485029122e+00 -1.6083554158e+01 7.2461570294e+01 7.0000000000e+01 3.2761e-04 -1.0000e+00
      -12  1    3    3    0    0 +7.8938122091e+00 -5.4485029122e+00 +1.6083554158e+01 1.8726429706e+01 0.0000000000e+00 0.0000e+00 1.0000e+00
</event>
<event>
 5      8 +6.9480500e-03 9.11880000e+01 7.81616400e-03 1.18400000e-01
      -11 -1    0    0    0    0 +0.0000000000e+00 +0.0000000000e+00 +4.5593999997e+01 4.5594000000e+01 5.1100000000e-04 0.0000e+00 -1.0000e+00
       11 -1    0    0    0    0 -0.0000000000e+00 -0.0000000000e+00 -4.5593999997e+01 4.5594000000e+01 5.1100000000e-04 0.0000e+00 1.0000e+00
       23  2    1    2    0    0 +0.0000000000e+00 +0.0000000000e+00 +0.0000000000e+00 9.1188000000e+01 9.1188000000e+01 1.4409e-14 0.0000e+00
  9900012  1    3    3    0    0 -1.6543097214e+00 +6.4974622121e-01 +1.8641895255e+01 7.2461570294e+01 7.0000000000e+01 7.8752e-05 -1.0000e+00
      -12  1    3    3    0    0 +1.6543097214e+00 -6.4974622121e-01 -1.8641895255e+01 1.8726429706e+01 0.0000000000e+00 0.0000e+00 1.0000e+00
</event>
<event>
 5      5 +6.9480500e-03 9.11880000e+01 7.81616400e-03 1.18400000e-01
      -11 -1    0    0    0    0 +0.0000000000e+00 +0.0000000000e+00 +4.5593999997e+01 4.5594000000e+01 5.1100000000e-04 0.0000e+00 1.0000e+00
       11 -1    0    0    0    0 -0.0000000000e+00 -0.0000000000e+00 -4.5593999997e+01 4.5594000000e+01 5.1100000000e-04 0.0000e+00 -1.0000e+00
       23  2    1    2    0    0 +0.0000000000e+00 +0.0000000000e+00 +0.0000000000e+00 9.1188000000e+01 9.1188000000e+01 2.3094e-13 0.0000e+00
  9900012  1    3    3    0    0 -7.2839671588e+00 +1.2669497181e+01 +1.1709262706e+01 7.2461570294e+01 7.0000000000e+01 1.8005e-05 1.0000e+00
       12  1    3    3    0    0 +7.2839671588e+00 -1.2669497181e+01 -1.1709262706e+01 1.8726429706e+01 0.0000000000e+00 0.0000e+00 -1.0000e+00
</event>
<event>
 5      4 +6.9480500e-03 9.11880000e+01 7.81616400e-03 1.18400000e-01
      -11 -1    0    0    0    0 +0.0000000000e+00 +0.0000000000e+00 +4.5593999997e+01 4.5594000000e+01 5.1100000000e-04 0.0000e+00 1.0000e+00
       11 -1    0    0    0    0 -0.0000000000e+00 -0.0000000000e+00 -4.5593999997e+01 4.5594000000e+01 5.1100000000e-04 0.0000e+00 -1.0000e+00
       23  2    1    2    0    0 +0.0000000000e+00 +0.0000000000e+00 +0.0000000000e+00 9.1188000000e+01 9.1188000000e+01 3.4870e-14 0.0000e+00
  9900012  1    3    3    0    0 -4.6503161870e+00 -1.2620785258e+01 -1.3029562861e+01 7.2461570294e+01 7.0000000000e+01 1.3082e-04 -1.0000e+00
      -12  1    3    3    0    0 +4.6503161870e+00 +1.2620785258e+01 +1.3029562861e+01 1.8726429706e+01 0.0000000000e+00 0.0000e+00 1.0000e+00
</event>
<event>
 5      4 +6.9480500e-03 9.11880000e+01 7.81616400e-03 1.18400000e-01
      -11 -1    0    0    0    0 +0.0000000000e+00 +0.0000000000e+00 +4.5593999997e+01 4.5594000000e+01 5.1100000000e-04 0.0000e+00 -1.0000e+00
       11 -1    0    0    0    0 -0.0000000000e+00 -0.0000000000e+00 -4.5593999997e+01 4.5594000000e+01 5.1100000000e-04 0.0000e+00 1.0000e+00
       23  2    1    2    0    0 +0.0000000000e+00 +0.0000000000e+00 +0.0000000000e+00 9.1188000000e+01 9.1188000000e+01 1.1314e-14 0.0000e+00
  9900012  1    3    3    0    0 +1.8807817888e+00 -9.2846662075e-01 +1.8608594227e+01 7.2461570294e+01 7.0000000000e+01 4.5385e-05 -1.0000e+00
      -12  1    3    3    0    0 -1.8807817888e+00 +9.2846662075e-01 -1.8608594227e+01 1.8726429706e+01 0.0000000000e+00 0.0000e+00 1.0000e+00
</event>
<event>
 5      3 +6.9480500e-03 9.11880000e+01 7.81616400e-03 1.18400000e-01
      -11 -1    0    0    0    0 +0.0000000000e+00 +0.0000000000e+00 +4.5593999997e+01 4.5594000000e+01 5.1100000000e-04 0.0000e+00 1.0000e+00
       11 -1    0    0    0    0 -0.0000000000e+00 -0.0000000000e+00 -4.5593999997e+01 4.5594000000e+01 5.1100000000e-04 0.0000e+00 -1.0000e+00
       23  2    1    2    0    0 +0.0000000000e+00 +0.0000000000e+00 +0.0000000000e+00 9.1188000000e+01 9.1188000000e+01 2.5429e-13 0.0000e+00
  9900012  1    3    3    0    0 -9.3930133619e+00 +1.6102212643e+01 -1.7802296188e+00 7.2461570294e+01 7.0000000000e+01 2.8431e-04 -1.0000e+00
       12  1    3    3    0    0 +9.3930133619e+00 -1.6102212643e+01 +1.7802296188e+00 1.8726429706e+01 0.0000000000e+00 0.0000e+00 -1.0000e+00
</event>
<event>
 5      3 +6.9480500e-03 9.11880000e+01 7.81616400e-03 1.18400000e-01
      -11 -1    0    0    0    0 +0.0000000000e+00 +0.0000000000e+00 +4.5593999997e+01 4.5594000000e+01 5.1100000000e-04 0.0000e+00 -1.0000e+00
       11 -1    0    0    0    0 -0.0000000000e+00 -0.0000000000e+00 -4.5593999997e+01 4.5594000000e+01 5.1100000000e-04 0.0000e+00 1.0000e+00
       23  2    1    2    0    0 +0.0000000000e+00 +0.0000000000e+00 +0.0000000000e+00 9.1188000000e+01 9.1188000000e+01 3.9456e-14 0.0000e+00
  9900012  1    3    3    0    0 -1.7234267621e+01 -7.2516727146e+00 -1.0355829015e+00 7.2461570294e+01 7.0000000000e+01 1.0285e-04 1.0000e+00
       12  1    3    3    0    0 +1.7234267621e+01 +7.2516727146e+00 +1.0355829015e+00 1.8726429706e+01 0.0000000000e+00 0.0000e+00 -1.0000e+00
</event>
<event>
 5      5 +6.9480500e-03 9.11880000e+01 7.81616400e-03 1.18400000e-01
      -11 -1    0    0    0    0 +0.0000000000e+00 +0.0000000000e+00 +4.5593999997e+01 4.5594000000e+01 5.1100000000e-04 0.0000e+00 1.0000e+00
       11 -1    0    0    0    0 -0.0000000000e+00 -0.0000000000e+00 -4.5593999997e+01 4.5594000000e+01 5.1100000000e-04 0.0000e+00 -1.0000e+00
       23  2    1    2    0    0 +0.0000000000e+00 +0.0000000000e+00 +0.0000000000e+00 9.1188000000e+01 9.1188000000e+01 2.3531e-14 0.0000e+00
  9900012  1    3    3    0    0 -9.3400206100e+00 +1.1464911268e+01 +1.1489081518e+01 7.2461570294e+01 7.0000000000e+01 7.6581e-05 1.0000e+00
       12  1    3    3    0    0 +9.3400206100e+00 -1.1464911268e+01 -1.1489081518e+01 1.8726429706e+01 0.0000000000e+00 0.0000e+00 -1.0000e+00
</event>
<event>
 5      6 +6.9480500e-03 9.11880000e+01 7.81616400e-03 1.18400000e-01
      -11 -1    0    0    0    0 +0.0000000000e+00 +0.0000000000e+00 +4.5593999997e+01 4.5594000000e+01 5.1100000000e-04 0.0000e+00 1.0000e+00
       11 -1    0    0    0    0 -0.0000000000e+00 -0.0000000000e+00 -4.5593999997e+01 4.5594000000e+01 5.1100000000e-04 0.0000e+00 -1.0000e+00
       23  2    1    2    0    0 +0.0000000000e+00 +0.0000000000e+00 +0.0000000000e+00 9.1188000000e+01 9.1188000000e+01 1.1567e-14 0.0000e+00
  9900012  1    3    3    0    0 +4.5691663261e+00 -7.8868794313e+00 -1.6358454127e+01 7.2461570294e+01 7.0000000000e+01 1.9674e-04 -1.0000e+00
      -12  1    3    3    0    0 -4.5691663261e+00 +7.8868794313e+00 +1.6358454127e+01 1.8726429706e+01 0.0000000000e+00 0.0000e+00 1.0000e+00
</event>
<event>
 5      5 +6.9480500e-03 9.11880000e+01 7.81616400e-03 1.18400000e-01
      -11 -1    0    0    0    0 +0.0000000000e+00 +0.0000000000e+00 +4.5593999997e+01 4.5594000000e+01 5.1100000000e-04 0.0000e+00 1.0000e+00
       11 -1    0    0    0    0 -0.0000000000e+00 -0.0000000000e+00 -4.5593999997e+01 4.5594000000e+01 5.1100000000e-04 0.0000e+00 -1.0000e+00
       23  2    1    2    0    0 +0.0000000000e+00 +0.0000000000e+00 +0.0000000000e+00 9.1188000000e+01 9.1188000000e+01 7.1084e-14 0.0000e+00
  9900012  1    3    3    0    0 -2.2706327279e+00 +1.8587834967e+01 +1.2564941631e-01 7.2461570294e+01 7.0000000000e+01 2.4670e-04 1.0000e+00
       12  1    3    3    0    0 +2.2706327279e+00 -1.8587834967e+01 -1.2564941631e-01 1.8726429706e+01 0.0000000000e+00 0.0000e+00 -1.0000e+00
</event>
<event>
 5      1 +6.9480500e-03 9.11880000e+01 7.81616400e-03 1.18400000e-01
      -11 -1    0    0    0    0 +0.0000000000e+00 +0.0000000000e+00 +4.5593999997e+01 4.5594000000e+01 5.1100000000e-04 0.0000e+00 1.0000e+00
       11 -1    0    0    0    0 -0.0000000000e+00 -0.0000000000e+00 -4.5593999997e+01 4.5594000000e+01 5.1100000000e-04 0.0000e+00 -1.0000e+00
       23  2    1    2    0    0 +0.0000000000e+00 +0.0000000000e+00 +0.0000000000e+00 9.1188000000e+01 9.1188000000e+01 3.6971e-14 0.0000e+00
  9900012  1    3    3    0    0 -5.5291805425e-01 +1.6832995365e+01 -8.1868014634e+00 7.2461570294e+01 7.0000000000e+01 1.4133e-04 -1.0000e+00
       12  1    3    3    0    0 +5.5291805425e-01 -1.6832995365e+01 +8.1868014634e+00 1.8726429706e+01 0.0000000000e+00 0.0000e+00 -1.0000e+00
</event>
<event>
 5      6 +6.9480500e-03 9.11880000e+01 7.81616400e-03 1.18400000e-01
      -11 -1    0    0    0    0 +0.0000000000e+00 +0.0000000000e+00 +4.5593999997e+01 4.5594000000e+01 5.1100000000e-04 0.0000e+00 1.0000e+00
       11 -1    0    0    0    0 -0.0000000000e+00 -0.0000000000e+00 -4.5593999997e+01 4.5594000000e+01 5.1100000000e-04 0.0000e+00 -1.0000e+00
       23  2    1    2    0    0 +0.0000000000e+00 +0.0000000000e+00 +0.0000000000e+00 9.1188000000e+01 9.1188000000e+01 1.8060e-14 0.0000e+00
  9900012  1    3    3    0    0 +1.2264433408e+00 -9.4385704563e+00 -1.6127256245e+01 7.2461570294e+01 7.0000000000e+01 5.8560e-05 -1.0000e+00
      -12  1    3    3    0    0 -1.2264433408e+00 +9.4385704563e+00 +1.6127256245e+01 1.8726429706e+01 0.0000000000e+00 0.0000e+00 1.0000e+00
</event>
<event>
 5      3 +6.9480500e-03 9.11880000e+01 7.81616400e-03 1.18400000e-01
      -11 -1    0    0    0    0 +0.0000000000e+00 +0.0000000000e+00 +4.5593999997e+01 4.5594000000e+01 5.1100000000e-04 0.0000e+00 1.0000e+00
       11 -1    0    0    0    0 -0.0000000000e+00 -0.0000000000e+00 -4.5593999997e+01 4.5594000000e+01 5.1100000000e-04 0.0000e+00 -1.0000e+00
       23  2    1    2    0    0 +0.0000000000e+00 +0.0000000000e+00 +0.0000000000e+00 9.1188000000e+01 9.1188000000e+01 1.4632e-13 0.0000e+00
  9900012  1    3    3    0    0 +6.2238910973e+00 -1.3479233663e+01 +1.1412826512e+01 7.2461570294e+01 7.0000000000e+01 3.6708e-05 1.0000e+00
       12  1    3    3    0    0 -6.2238910973e+00 +1.3479233663e+01 -1.1412826512e+01 1.8726429706e+01 0.0000000000e+00 0.0000e+00 -1.0000e+00
</event>
<event>
 5      6 +6.9480500e-03 9.11880000e+01 7.81616400e-03 1.18400000e-01
      -11 -1    0    0    0    0 +0.0000000000e+00 +0.0000000000e+00 +4.5593999997e+01 4.5594000000e+01 5.1100000000e-04 0.0000e+00 1.0000e+00
       11 -1    0    0    0    0 -0.0000000000e+00 -0.0000000000e+00 -4.5593999997e+01 4.5594000000e+01 5.1100000000e-04 0.0000e+00 -1.0000e+00
       23  2    1    2    0    0 +0.0000000000e+00 +0.0000000000e+00 +0.0000000000e+00 9.1188000000e+01 9.1188000000e+01 4.7979e-15 0.0000e+00
  9900012  1    3    3    0    0 +1.3131422737e+01 +1.3296927529e+01 +1.1985928042e+00 7.2461570294e+01 7.0000000000e+01 2.9245e-04 -1.0000e+00
      -12  1    3    3    0    0 -1.3131422737e+01 -1.3296927529e+01 -1.1985928042e+00 1.8726429706e+01 0.0000000000e+00 0.0000e+00 1.0000e+00
</event>
<event>
 5      3 +6.9480500e-03 9.11880000e+01 7.81616400e-03 1.18400000e-01
      -11 -1    0    0    0    0 +0.0000000000e+00 +0.0000000000e+00 +4.5593999997e+01 4.5594000000e+01 5.1100000000e-04 0.0000e+00 -1.0000e+00
       11 -1    0    0    0    0 -0.0000000000e+00 -0.0000000000e+00 -4.5593999997e+01 4.5594000000e+01 5.1100000000e-04 0.0000e+00 1.0000e+00
       23  2    1    2    0    0 +0.0000000000e+00 +0.0000000000e+00 +0.0000000000e+00 9.1188000000e+01 9.1188000000e+01 4.9081e-14 0.0000e+00
  9900012  1    3    3    0    0 -5.2764288875e+00 -1.7618485453e+00 -1.7881117343e+01 7.2461570294e+01 7.0000000000e+01 5.0155e-05 1.0000e+00
       12  1    3    3    0    0 +5.2764288875e+00 +1.7618485453e+00 +1.7881117343e+01 1.8726429706e+01 0.0000000000e+00 0.0000e+00 -1.0000e+00
</event>
<event>
 5      1 +6.9480500e-03 9.11880000e+01 7.81616400e-03 1.18400000e-01
      -11 -1    0    0    0    0 +0.0000000000e+00 +0.0000000000e+00 +4.5593999997e+01 4.5594000000e+01 5.1100000000e-04 0.0000e+00 1.0000e+00
       11 -1    0    0    0    0 -0.0000000000e+00 -0.0000000000e+00 -4.5593999997e+01 4.5594000000e+01 5.1100000000e-04 0.0000e+00 -1.0000e+00
       23  2    1    2    0    0 +0.0000000000e+00 +0.0000000000e+00 +0.0000000000e+00 9.1188000000e+01 9.1188000000e+01 3.7408e-15 0.0000e+00
  9900012  1    3    3    0    0 +1.1166435468e-02 +1.4385846880e+01 +1.1988596848e+01 7.2461570294e+01 7.0000000000e+01 3.3506e-05 1.0000e+00
       12  1    3    3    0    0 -1.1166435468e-02 -1.4385846880e+01 -1.1988596848e+01 1.8726429706e+01 0.0000000000e+00 0.0000e+00 -1.0000e+00
</event>
<event>
 5      6 +6.9480500e-03 9.11880000e+01 7.81616400e-03 1.18400000e-01
      -11 -1    0    0    0    0 +0.0000000000e+00 +0.0000000000e+00 +4.5593999997e+01 4.5594000000e+01 5.1100000000e-04 0.0000e+00 1.0000e+00
       11 -1    0    0    0    0 -0.0000000000e+00 -0.0000000000e+00 -4.5593999997e+01 4.5594000000e+01 5.1100000000e-04 0.0000e+00 -1.0000e+00
       23  2    1    2    0    0 +0.0000000000e+00 +0.0000000000e+00 +0.0000000000e+00 9.1188000000e+01 9.1188000000e+01 6.1373e-14 0.0000e+00
  9900012  1    3    3    0    0 +3.3463898917e+00 -2.6763099010e+00 -1.8229597075e+01 7.2461570294e+01 7.0000000000e+01 4.2368e-05 -1.0000e+00
      -12  1    3    3    0    0 -3.3463898917e+00 +2.6763099010e+00 +1.8229597075e+01 1.8726429706e+01 0.0000000000e+00 0.0000e+00 1.0000e+00
</event>
<event>
 5      2 +6.9480500e-03 9.11880000e+01 7.81616400e-03 1.18400000e-01
      -11 -1    0    0    0    0 +0.0000000000e+00 +0.0000000000e+00 +4.5593999997e+01 4.5594000000e+01 5.1100000000e-04 0.0000e+00 -1.0000e+00
       11 -1    0    0    0    0 -0.0000000000e+00 -0.0000000000e+00 -4.5593999997e+01 4.5594000000e+01 5.1100000000e-04 0.0000e+00 1.0000e+00
       23  2    1    2    0    0 +0.0000000000e+00 +0.0000000000e+00 +0.0000000000e+00 9.1188000000e+01 9.1188000000e+01 3.4644e-15 0.0000e+00
  9900012  1    3    3    0    0 -1.1486449177e+01 +1.3921743944e+01 +4.9925645091e+00 7.2461570294e+01 7.0000000000e+01 1.5543e-04 -1.0000e+00
      -12  1    3    3    0    0 +1.1486449177e+01 -1.3921743944e+01 -4.9925645091e+00 1.8726429706e+01 0.0000000000e+00 0.0000e+00 1.0000e+00
</event>
<event>
 5      4 +6.9480500e-03 9.11880000e+01 7.81616400e-03 1.18400000e-01
      -11 -1    0    0    0    0 +0.0000000000e+00 +0.0000000000e+00 +4.5593999997e+01 4.5594000000e+01 5.1100000000e-04 0.0000e+00 1.0000e+00
       11 -1    0    0    0    0 -0.0000000000e+00 -0.0000000000e+00 -4.5593999997e+01 4.5594000000e+01 5.1100000000e-04 0.0000e+00 -1.0000e+00
       23  2    1    2    0    0 +0.0000000000e+00 +0.0000000000e+00 +0.0000000000e+00 9.1188000000e+01 9.1188000000e+01 3.1578e-14 0.0000e+00
  9900012  1    3    3    0    0 -5.5950955347e+00 +1.3440124618e+01 -1.1778672495e+01 7.2461570294e+01 7.0000000000e+01 1.0507e-04 -1.0000e+00
      -12  1    3    3    0    0 +5.5950955347e+00 -1.3440124618e+01 +1.1778672495e+01 1.8726429706e+01 0.0000000000e+00 0.0000e+00 1.0000e+00
</event>
<event>
 5      2 +6.9480500e-03 9.11880000e+01 7.81616400e-03 1.18400000e-01
      -11 -1    0    0    0    0 +0.0000000000e+00 +0.0000000000e+00 +4.5593999997e+01 4.5594000000e+01 5.1100000000e-04 0.0000e+00 -1.0000e+00
       11 -1    0    0    0    0 -0.0000000000e+00 -0.0000000000e+00 -4.5593999997e+01 4.5594000000e+01 5.1100000000e-04 0.0000e+00 1.0000e+00
       23  2    1    2    0    0 +0.0000000000e+00 +0.0000000000e+00 +0.0000000000e+00 9.1188000000e+01 9.1188000000e+01 4.0924e-14 0.0000e+00
  9900012  1    3    3    0    0 -1.1998162548e+01 -6.4978403409e+00 +1.2825807417e+01 7.2461570294e+01 7.0000000000e+01 2.2048e-05 -1.0000e+00
      -12  1    3    3    0    0 +1.1998162548e+01 +6.4978403409e+00 -1.2825807417e+01 1.8726429706e+01 0.0000000000e+00 0.0000e+00 1.0000e+00
</event>
<event>
 5      5 +6.9480500e-03 9.11880000e+01 7.81616400e-03 1.18400000e-01
      -11 -1    0    0    0    0 +0.0000000000e+00 +0.0000000000e+00 +4.5593999997e+01 4.5594000000e+01 5.1100000000e-04 0.0000e+00 -1.0000e+00
       11 -1    0    0    0    0 -0.0000000000e+00 -0.0000000000e+00 -4.5593999997e+01 4.5594000000e+01 5.1100000000e-04 0.0000e+00 1.0000e+00
       23  2    1    2    0    0 +0.0000000000e+00 +0.0000000000e+00 +0.0000000000e+00 9.1188000000e+01 9.1188000000e+01 2.5735e-15 0.0000e+00
  9900012  1    3    3    0    0 -1.4638486019e+01 -7.6934688706e+00 +8.7866053355e+00 7.2461570294e+01 7.0000000000e+01 1.0239e-04 1.0000e+00
       12  1    3    3    0    0 +1.4638486019e+01 +7.6934688706e+00 -8.7866053355e+00 1.8726429706e+01 0.0000000000e+00 0.0000e+00 -1.0000e+00
</event>
<event>
 5      8 +6.9480500e-03 9.11880000e+01 7.81616400e-03 1.18400000e-01
      -11 -1    0    0    0    0 +0.0000000000e+00 +0.0000000000e+00 +4.5593999997e+01 4.5594000000e+01 5.1100000000e-04 0.0000e+00 -1.0000e+00
       11 -1    0    0    0    0 -0.0000000000e+00 -0.0000000000e+00 -4.5593999997e+01 4.5594000000e+01 5.1100000000e-04 0.0000e+00 1.0000e+00
       23  2    1    2    0    0 +0.0000000000e+00 +0.0000000000e+00 +0.0000000000e+00 9.1188000000e+01 9.1188000000e+01 1.4161e-14 0.0000e+00
  9900012  1    3    3    0    0 +1.1828197104e+01 +2.2725100494e+00 +1.4339059274e+01 7.2461570294e+01 7.0000000000e+01 9.6536e-06 -1.0000e+00
      -12  1    3    3    0    0 -1.1828197104e+01 -2.2725100494e+00 -1.4339059274e+01 1.8726429706e+01 0.0000000000e+00 0.0000e+00 1.0000e+00
</event>
<event>
 5      4 +6.9480500e-03 9.11880000e+01 7.81616400e-03 1.18400000e-01
      -11 -1    0    0    0    0 +0.0000000000e+00 +0.0000000000e+00 +4.5593999997e+01 4.5594000000e+01 5.1100000000e-04 0.0000e+00 -1.0000e+00
       11 -1    0    0    0    0 -0.0000000000e+00 -0.0000000000e+00 -4.5593999997e+01 4.5594000000e+01 5.1100000000e-04 0.0000e+00 1.0000e+00
       23  2    1    2    0    0 +0.0000000000e+00 +0.0000000000e+00 +0.0000000000e+00 9.1188000000e+01 9.1188000000e+01 6.2464e-14 0.0000e+00
  9900012  1    3    3    0    0 -1.3452990563e+01 -1.1929461046e+01 +5.2329889732e+00 7.2461570294e+01 7.0000000000e+01 2.9842e-05 -1.0000e+00
      -12  1    3    3    0    0 +1.3452990563e+01 +1.1929461046e+01 -5.2329889732e+00 1.8726429706e+01 0.0000000000e+00 0.0000e+00 1.0000e+00
</event>
<event>
 5      5 +6.9480500e-03 9.11880000e+01 7.81616400e-03 1.18400000e-01
      -11 -1    0    0    0    0 +0.0000000000e+00 +0.0000000000e+00 +4.5593999997e+01 4.5594000000e+01 5.1100000000e-04 0.0000e+00 1.0000e+00
       11 -1    0    0    0    0 -0.0000000000e+00 -0.0000000000e+00 -4.5593999997e+01 4.5594000000e+01 5.1100000000e-04 0.0000e+00 -1.0000e+00
       23  2    1    2    0    0 +0.0000000000e+00 +0.0000000000e+00 +0.0000000000e+00 9.1188000000e+01 9.1188000000e+01 6.7544e-14 0.0000e+00
  9900012  1    3    3    0    0 +1.0120953853e+01 -1.3881818969e+01 +7.4525542416e+00 7.2461570294e+01 7.0000000000e+01 3.9737e-05 1.0000e+00
       12  1    3    3    0    0 -1.0120953853e+01 +1.3881818969e+01 -7.4525542416e+00 1.8726429706e+01 0.0000000000e+00 0.0000e+00 -1.0000e+00
</event>
<event>
 5      4 +6.9480500e-03 9.11880000e+01 7.81616400e-03 1.18400000e-01
      -11 -1    0    0    0    0 +0.0000000000e+00 +0.0000000000e+00 +4.5593999997e+01 4.5594000000e+01 5.1100000000e-04 0.0000e+00 1.0000e+00
       11 -1    0    0    0    0 -0.0000000000e+00 -0.0000000000e+00 -4.5593999997e+01 4.5594000000e+01 5.1100000000e-04 0.0000e+00 -1.0000e+00
       23  2    1    2    0    0 +0.0000000000e+00 +0.0000000000e+00 +0.0000000000e+00 9.1188000000e+01 9.1188000000e+01 1.1524e-13 0.0000e+00
  9900012  1    3    3    0    0 -1.2514114109e+01 -8.4780675763e+00 -1.1054342485e+01 7.2461570294e+01 7.0000000000e+01 4.3704e-06 1.0000e+00
      -12  1    3    3    0    0 +1.2514114109e+01 +8.4780675763e+00 +1.1054342485e+01 1.8726429706e+01 0.0000000000e+00 0.0000e+00 1.0000e+00
</event>
<event>
 5      3 +6.9480500e-03 9.11880000e+01 7.81616400e-03 1.18400000e-01
      -11 -1    0    0    0    0 +0.0000000000e+00 +0.0000000000e+00 +4.5593999997e+01 4.5594000000e+01 5.1100000000e-04 0.0000e+00 1.0000e+00
       11 -1    0    0    0    0 -0.0000000000e+00 -0.0000000000e+00 -4.5593999997e+01 4.5594000000e+01 5.1100000000e-04 0.0000e+00 -1.0000e+00
       23  2    1    2    0    0 +0.0000000000e+00 +0.0000000000e+00 +0.0000000000e+00 9.1188000000e+01 9.1188000000e+01 5.4073e-14 0.0000e+00
  9900012  1    3    3    0    0 +1.2633822124e+01 -1.3738416126e+01 +1.5236897421e+00 7.2461570294e+01 7.0000000000e+01 1.6765e-04 1.0000e+00
       12  1    3    3    0    0 -1.2633822124e+01 +1.3738416126e+01 -1.5236897421e+00 1.8726429706e+01 0.0000000000e+00 0.0000e+00 -1.0000e+00
</event>
<event>
 5      7 +6.9480500e-03 9.11880000e+01 7.81616400e-03 1.18400000e-01
      -11 -1    0    0    0    0 +0.0000000000e+00 +0.0000000000e+00 +4.5593999997e+01 4.5594000000e+01 5.1100000000e-04 0.0000e+00 -1.0000e+00
       11 -1    0    0    0    0 -0.0000000000e+00 -0.0000000000e+00 -4.5593999997e+01 4.5594000000e+01 5.1100000000e-04 0.0000e+00 1.0000e+00
       23  2    1    2    0    0 +0.0000000000e+00 +0.0000000000e+00 +0.0000000000e+00 9.1188000000e+01 9.1188000000e+01 4.8929e-14 0.0000e+00
  9900012  1    3    3    0    0 +1.4022885758e+01 -1.2395477786e+01 -6.2447979399e-01 7.2461570294e+01 7.0000000000e+01 1.3379e-04 1.0000e+00
       12  1    3    3    0    0 -1.4022885758e+01 +1.2395477786e+01 +6.2447979399e-01 1.8726429706e+01 0.0000000000e+00 0.0000e+00 -1.0000e+00
</event>
<event>
 5      8 +6.9480500e-03 9.11880000e+01 7.81616400e-03 1.18400000e-01
      -11 -1    0    0    0    0 +0.0000000000e+00 +0.0000000000e+00 +4.5593999997e+01 4.5594000000e+01 5.1100000000e-04 0.0000e+00 1.0000e+00
       11 -1    0    0    0    0 -0.0000000000e+00 -0.0000000000e+00 -4.5593999997e+01 4.5594000000e+01 5.1100000000e-04 0.0000e+00 -1.0000e+00
       23  2    1    2    0    0 +0.0000000000e+00 +0.0000000000e+00 +0.0000000000e+00 9.1188000000e+01 9.1188000000e+01 1.2101e-13 0.0000e+00
  9900012  1    3    3    0    0 -7.6727584409e+00 -7.5798736537e+00 -1.5308607475e+01 7.2461570294e+01 7.0000000000e+01 1.0127e-04 1.0000e+00
      -12  1    3    3    0    0 +7.6727584409e+00 +7.5798736537e+00 +1.5308607475e+01 1.8726429706e+01 0.0000000000e+00 0.0000e+00 1.0000e+00
</event>
<event>
 5      6 +6.9480500e-03 9.11880000e+01 7.81616400e-03 1.18400000e-01
      -11 -1    0    0    0    0 +0.0000000000e+00 +0.0000000000e+00 +4.5593999997e+01 4.5594000000e+01 5.1100000000e-04 0.0000e+00 1.0000e+00
       11 -1    0    0    0    0 -0.0000000000e+00 -0.0000000000e+00 -4.5593999997e+01 4.5594000000e+01 5.1100000000e-04 0.0000e+00 -1.0000e+00
       23  2    1    2    0    0 +0.0000000000e+00 +0.0000000000e+00 +0.0000000000e+00 9.1188000000e+01 9.1188000000e+01 7.3960e-14 0.0000e+00
  9900012  1    3    3    0    0 -4.1390298995e+00 +1.3797002715e+01 -1.1966215654e+01 7.2461570294e+01 7.0000000000e+01 7.9481e-05 -1.0000e+00
      -12  1    3    3    0    0 +4.1390298995e+00 -1.3797002715e+01 +1.1966215654e+01 1.8726429706e+01 0.0000000000e+00 0.0000e+00 1.0000e+00
</event>
<event>
 5      3 +6.9480500e-03 9.11880000e+01 7.81616400e-03 1.18400000e-01
      -11 -1    0    0    0    0 +0.0000000000e+00 +0.0000000000e+00 +4.5593999997e+01 4.5594000000e+01 5.1100000000e-04 0.0000e+00 1.0000e+00
       11 -1    0    0    0    0 -0.0000000000e+00 -0.0000000000e+00 -4.5593999997e+01 4.5594000000e+01 5.1100000000e-04 0.0000e+00 -1.0000e+00
       23  2    1    2    0    0 +0.0000000000e+00 +0.0000000000e+00 +0.0000000000e+00 9.1188000000e+01 9.1188000000e+01 2.1000e-13 0.0000e+00
  9900012  1    3    3    0    0 -1.2729009973e+01 -1.2185463029e+01 +6.3376624550e+00 7.2461570294e+01 7.0000000000e+01 2.7139e-04 1.0000e+00
       12  1    3    3    0    0 +1.2729009973e+01 +1.2185463029e+01 -6.3376624550e+00 1.8726429706e+01 0.0000000000e+00 0.0000e+00 -1.0000e+00
</event>
<event>
 5      3 +6.9480500e-03 9.11880000e+01 7.81616400e-03 1.18400000e-01
      -11 -1    0    0    0    0 +0.0000000000e+00 +0.0000000000e+00 +4.5593999997e+01 4.5594000000e+01 5.1100000000e-04 0.0000e+00 1.0000e+00
       11 -1    0    0    0    0 -0.0000000000e+00 -0.0000000000e+00 -4.5593999997e+01 4.5594000000e+01 5.1100000000e-04 0.0000e+00 -1.0000e+00
       23  2    1    2    0    0 +0.0000000000e+00 +0.0000000000e+00 +0.0000000000e+00 9.1188000000e+01 9.1188000000e+01 3.9458e-14 0.0000e+00
  9900012  1    3    3    0    0 +1.9230110341e+00 +1.4002395417e+01 +1.2284710851e+01 7.2461570294e+01 7.0000000000e+01 1.2131e-05 1.0000e+00
       12  1    3    3    0    0 -1.9230110341e+00 -1.4002395417e+01 -1.2284710851e+01 1.8726429706e+01 0.0000000000e+00 0.0000e+00 -1.0000e+00
</event>
<event>
 5      5 +6.9480500e-03 9.11880000e+01 7.81616400e-03 1.18400000e-01
      -11 -1    0    0    0    0 +0.0000000000e+00 +0.0000000000e+00 +4.5593999997e+01 4.5594000000e+01 5.1100000000e-04 0.0000e+00 -1.0000e+00
       11 -1    0    0    0    0 -0.0000000000e+00 -0.0000000000e+00 -4.5593999997e+01 4.5594000000e+01 5.1100000000e-04 0.0000e+00 1.0000e+00
       23  2    1    2    0    0 +0.0000000000e+00 +0.0000000000e+00 +0.0000000000e+00 9.1188000000e+01 9.1188000000e+01 7.0663e-14 0.0000e+00
  9900012  1    3    3    0    0 +1.0029148510e+01 -6.7130922521e+00 -1.4318859665e+01 7.2461570294e+01 7.0000000000e+01 1.7461e-04 1.0000e+00
       12  1    3    3    0    0 -1.0029148510e+01 +6.7130922521e+00 +1.4318859665e+01 1.8726429706e+01 0.0000000000e+00 0.0000e+00 -1.0000e+00
</event>
<event>
 5      7 +6.9480500e-03 9.11880000e+01 7.81616400e-03 1.18400000e-01
      -11 -1    0    0    0    0 +0.0000000000e+00 +0.0000000000e+00 +4.5593999997e+01 4.5594000000e+01 5.1100000000e-04 0.0000e+00 1.0000e+00
       11 -1    0    0    0    0 -0.0000000000e+00 -0.0000000000e+00 -4.5593999997e+01 4.5594000000e+01 5.1100000000e-04 0.0000e+00 -1.0000e+00
       23  2    1    2    0    0 +0.0000000000e+00 +0.0000000000e+00 +0.0000000000e+00 9.1188000000e+01 9.1188000000e+01 4.2909e-14 0.0000e+00
  9900012  1    3    3    0    0 -1.5246111702e+01 +6.2633358614e+00 +8.8885247020e+00 7.2461570294e+01 7.0000000000e+01 3.4198e-04 -1.0000e+00
       12  1    3    3    0    0 +1.5246111702e+01 -6.2633358614e+00 -8.8885247020e+00 1.8726429706e+01 0.0000000000e+00 0.0000e+00 -1.0000e+00
</event>
<event>
 5      3 +6.9480500e-03 9.11880000e+01 7.81616400e-03 1.18400000e-01
      -11 -1    0    0    0    0 +0.0000000000e+00 +0.0000000000e+00 +4.5593999997e+01 4.5594000000e+01 5.1100000000e-04 0.0000e+00 -1.0000e+00
       11 -1    0    0    0    0 -0.0000000000e+00 -0.0000000000e+00 -4.5593999997e+01 4.5594000000e+01 5.1100000000e-04 0.0000e+00 1.0000e+00
       23  2    1    2    0    0 +0.0000000000e+00 +0.0000000000e+00 +0.0000000000e+00 9.1188000000e+01 9.1188000000e+01 3.6291e-14 0.0000e+00
  9900012  1    3    3    0    0 -6.2077016330e+00 -1.7476458327e+01 +2.5917203330e+00 7.2461570294e+01 7.0000000000e+01 5.1151e-04 1.0000e+00
       12  1    3    3    0    0 +6.2077016330e+00 +1.7476458327e+01 -2.5917203330e+00 1.8726429706e+01 0.0000000000e+00 0.0000e+00 -1.0000e+00
</event>
<event>
 5      7 +6.9480500e-03 9.11880000e+01 7.81616400e-03 1.18400000e-01
      -11 -1    0    0    0    0 +0.0000000000e+00 +0.0000000000e+00 +4.5593999997e+01 4.5594000000e+01 5.1100000000e-04 0.0000e+00 1.0000e+00
       11 -1    0    0    0    0 -0.0000000000e+00 -0.0000000000e+00 -4.5593999997e+01 4.5594000000e+01 5.1100000000e-04 0.0000e+00 -1.0000e+00
       23  2    1    2    0    0 +0.0000000000e+00 +0.0000000000e+00 +0.0000000000e+00 9.1188000000e+01 9.1188000000e+01 4.5123e-14 0.0000e+00
  9900012  1    3    3    0    0 -3.6029756011e+00 -6.3035421918e+00 +1.7261607462e+01 7.2461570294e+01 7.0000000000e+01 7.8015e-04 1.0000e+00
       12  1    3    3    0    0 +3.6029756011e+00 +6.3035421918e+00 -1.7261607462e+01 1.8726429706e+01 0.0000000000e+00 0.0000e+00 -1.0000e+00
</event>
<event>
 5      7 +6.9480500e-03 9.11880000e+01 7.81616400e-03 1.18400000e-01
      -11 -1    0    0    0    0 +0.0000000000e+00 +0.0000000000e+00 +4.5593999997e+01 4.5594000000e+01 5.1100000000e-04 0.0000e+00 -1.0000e+00
       11 -1    0    0    0    0 -0.0000000000e+00 -0.0000000000e+00 -4.5593999997e+01 4.5594000000e+01 5.1100000000e-04 0.0000e+00 1.0000e+00
       23  2    1    2    0    0 +0.0000000000e+00 +0.0000000000e+00 +0.0000000000e+00 9.1188000000e+01 9.1188000000e+01 1.4617e-13 0.0000e+00
  9900012  1    3    3    0    0 -5.9983258740e+00 +1.5821856511e+01 -8.0229740602e+00 7.2461570294e+01 7.0000000000e+01 9.4096e-05 1.0000e+00
       12  1    3    3    0    0 +5.9983258740e+00 -1.5821856511e+01 +8.0229740602e+00 1.8726429706e+01 0.0000000000e+00 0.0000e+00 -1.0000e+00
</event>
<event>
 5      7 +6.9480500e-03 9.11880000e+01 7.81616400e-03 1.18400000e-01
      -11 -1    0    0    0    0 +0.0000000000e+00 +0.0000000000e+00 +4.5593999997e+01 4.5594000000e+01 5.1100000000e-04 0.0000e+00 -1.0000e+00
       11 -1    0    0    0    0 -0.0000000000e+00 -0.0000000000e+00 -4.5593999997e+01 4.5594000000e+01 5.1100000000e-04 0.0000e+00 1.0000e+00
       23  2    1    2    0    0 +0.0000000000e+00 +0.0000000000e+00 +0.0000000000e+00 9.1188000000e+01 9.1188000000e+01 6.2614e-14 0.0000e+00
  9900012  1    3    3    0    0 +1.4167784436e+01 +1.2236922737e+01 +4.5910305741e-01 7.2461570294e+01 7.0000000000e+01 1.4520e-04 -1.0000e+00
       12  1    3    3    0    0 -1.4167784436e+01 -1.2236922737e+01 -4.5910305741e-01 1.8726429706e+01 0.0000000000e+00 0.0000e+00 -1.0000e+00
</event>
<event>
 5      2 +6.9480500e-03 9.11880000e+01 7.81616400e-03 1.18400000e-01
      -11 -1    0    0    0    0 +0.0000000000e+00 +0.0000000000e+00 +4.5593999997e+01 4.5594000000e+01 5.1100000000e-04 0.0000e+00 1.0000e+00
       11 -1    0    0    0    0 -0.0000000000e+00 -0.0000000000e+00 -4.5593999997e+01 4.5594000000e+01 5.1100000000e-04 0.0000e+00 -1.0000e+00
       23  2    1    2    0    0 +0.0000000000e+00 +0.0000000000e+00 +0.0000000000e+00 9.1188000000e+01 9.1188000000e+01 1.6493e-14 0.0000e+00
  9900012  1    3    3    0    0 +1.4814381913e+01 -1.1289766506e+01 -1.9376352364e+00 7.2461570294e+01 7.0000000000e+01 4.2365e-06 -1.0000e+00
      -12  1    3    3    0    0 -1.4814381913e+01 +1.1289766506e+01 +1.9376352364e+00 1.8726429706e+01 0.0000000000e+00 0.0000e+00 1.0000e+00
</event>
<event>
 5      4 +6.9480500e-03 9.11880000e+01 7.81616400e-03 1.18400000e-01
      -11 -1    0    0    0    0 +0.0000000000e+00 +0.0000000000e+00 +4.5593999997e+01 4.5594000000e+01 5.1100000000e-04 0.0000e+00 1.0000e+00
       11 -1    0    0    0    0 -0.0000000000e+00 -0.0000000000e+00 -4.5593999997e+01 4.5594000000e+01 5.1100000000e-04 0.0000e+00 -1.0000e+00
       23  2    1    2    0    0 +0.0000000000e+00 +0.0000000000e+00 +0.0000000000e+00 9.1188000000e+01 9.1188000000e+01 1.4597e-13 0.0000e+00
  9900012  1    3    3    0    0 -1.1476192524e+01 -1.1623051747e+01 +9.1586485229e+00 7.2461570294e+01 7.0000000000e+01 5.8664e-04 -1.0000e+00
      -12  1    3    3    0    0 +1.1476192524e+01 +1.1623051747e+01 -9.1586485229e+00 1.8726429706e+01 0.0000000000e+00 0.0000e+00 1.0000e+00
</event>
<event>
 5      7 +6.9480500e-03 9.11880000e+01 7.81616400e-03 1.18400000e-01
      -11 -1    0    0    0    0 +0.0000000000e+00 +0.0000000000e+00 +4.5593999997e+01 4.5594000000e+01 5.1100000000e-04 0.0000e+00 -1.0000e+00
       11 -1    0    0    0    0 -0.0000000000e+00 -0.0000000000e+00 -4.5593999997e+01 4.5594000000e+01 5.1100000000e-04 0.0000e+00 1.0000e+00
       23  2    1    2    0    0 +0.0000000000e+00 +0.0000000000e+00 +0.0000000000e+00 9.1188000000e+01 9.1188000000e+01 8.8462e-15 0.0000e+00
  9900012  1    3    3    0    0 -8.6078760598e+00 -1.2419928538e+01 -1.1060244770e+01 7.2461570294e+01 7.0000000000e+01 3.8178e-05 1.0000e+00
       12  1    3    3    0    0 +8.6078760598e+00 +1.2419928538e+01 +1.1060244770e+01 1.8726429706e+01 0.0000000000e+00 0.0000e+00 -1.0000e+00
</event>
<event>
 5      4 +6.9480500e-03 9.11880000e+01 7.81616400e-03 1.18400000e-01
      -11 -1    0    0    0    0 +0.0000000000e+00 +0.0000000000e+00 +4.5593999997e+01 4.5594000000e+01 5.1100000000e-04 0.0000e+00 -1.0000e+00
       11 -1    0    0    0    0 -0.0000000000e+00 -0.0000000000e+00 -4.5593999997e+01 4.5594000000e+01 5.1100000000e-04 0.0000e+00 1.0000e+00
       23  2    1    2    0    0 +0.0000000000e+00 +0.0000000000e+00 +0.0000000000e+00 9.1188000000e+01 9.1188000000e+01 2.8033e-13 0.0000e+00
  9900012  1    3    3    0    0 +1.4011872704e+01 +9.8146803808e+00 +7.6169969059e+00 7.2461570294e+01 7.0000000000e+01 1.5546e-04 -1.0000e+00
      -12  1    3    3    0    0 -1.4011872704e+01 -9.8146803808e+00 -7.6169969059e+00 1.8726429706e+01 0.0000000000e+00 0.0000e+00 1.0000e+00
</event>
<event>
 5      2 +6.9480500e-03 9.11880000e+01 7.81616400e-03 1.18400000e-01
      -11 -1    0    0    0    0 +0.0000000000e+00 +0.0000000000e+00 +4.5593999997e+01 4.5594000000e+01 5.1100000000e-04 0.0000e+00 1.0000e+00
       11 -1    0    0    0    0 -0.0000000000e+00 -0.0000000000e+00 -4.5593999997e+01 4.5594000000e+01 5.1100000000e-04 0.0000e+00 -1.0000e+00
       23  2    1    2    0    0 +0.0000000000e+00 +0.0000000000e+00 +0.0000000000e+00 9.1188000000e+01 9.1188000000e+01 6.7693e-15 0.0000e+00
  9900012  1    3    3    0    0 -3.1331760926e+00 -7.2240479064e+00 -1.6990453465e+01 7.2461570294e+01 7.0000000000e+01 5.6386e-04 -1.0000e+00
      -12  1    3    3    0    0 +3.1331760926e+00 +7.2240479064e+00 +1.6990453465e+01 1.8726429706e+01 0.0000000000e+00 0.0000e+00 1.0000e+00
</event>
<event>
 5      2 +6.9480500e-03 9.11880000e+01 7.81616400e-03 1.18400000e-01
      -11 -1    0    0    0    0 +0.0000000000e+00 +0.0000000000e+00 +4.5593999997e+01 4.5594000000e+01 5.1100000000e-04 0.0000e+00 1.0000e+00
       11 -1    0    0    0    0 -0.0000000000e+00 -0.0000000000e+00 -4.5593999997e+01 4.5594000000e+01 5.1100000000e-04 0.0000e+00 -1.0000e+00
       23  2    1    2    0    0 +0.0000000000e+00 +0.0000000000e+00 +0.0000000000e+00 9.1188000000e+01 9.1188000000e+01 9.2373e-14 0.0000e+00
  9900012  1    3    3    0    0 +1.9532659258e+00 +1.1854989134e+01 -1.4363953299e+01 7.2461570294e+01 7.0000000000e+01 1.1972e-05 -1.0000e+00
      -12  1    3    3    0    0 -1.9532659258e+00 -1.1854989134e+01 +1.4363953299e+01 1.8726429706e+01 0.0000000000e+00 0.0000e+00 1.0000e+00
</event>
<event>
 5      2 +6.9480500e-03 9.11880000e+01 7.81616400e-03 1.18400000e-01
      -11 -1    0    0    0    0 +0.0000000000e+00 +0.0000000000e+00 +4.5593999997e+01 4.5594000000e+01 5.1100000000e-04 0.0000e+00 1.0000e+00
       11 -1    0    0    0    0 -0.0000000000e+00 -0.0000000000e+00 -4.5593999997e+01 4.5594000000e+01 5.1100000000e-04 0.0000e+00 -1.0000e+00
       23  2    1    2    0    0 +0.0000000000e+00 +0.0000000000e+00 +0.0000000000e+00 9.1188000000e+01 9.1188000000e+01 9.3900e-14 0.0000e+00
  9900012  1    3    3    0    0 +8.1592758546e-01 -1.4059715272e+01 -1.2342521548e+01 7.2461570294e+01 7.0000000000e+01 4.0345e-05 -1.0000e+00
      -12  1    3    3    0    0 -8.1592758546e-01 +1.4059715272e+01 +1.2342521548e+01 1.8726429706e+01 0.0000000000e+00 0.0000e+00 1.0000e+00
</event>
<event>
 5      5 +6.9480500e-03 9.11880000e+01 7.81616400e-03 1.18400000e-01
      -11 -1    0    0    0    0 +0.0000000000e+00 +0.0000000000e+00 +4.5593999997e+01 4.5594000000e+01 5.1100000000e-04 0.0000e+00 1.0000e+00
       11 -1    0    0    0    0 -0.0000000000e+00 -0.0000000000e+00 -4.5593999997e+01 4.5594000000e+01 5.1100000000e-04 0.0000e+00 -1.0000e+00
       23  2    1    2    0    0 +0.0000000000e+00 +0.0000000000e+00 +0.0000000000e+00 9.1188000000e+01 9.1188000000e+01 8.5702e-14 0.0000e+00
  9900012  1    3    3    0    0 -6.7058848851e+00 -4.9067217858e+00 +1.6781965283e+01 7.2461570294e+01 7.0000000000e+01 4.7501e-05 1.0000e+00
       12  1    3    3    0    0 +6.7058848851e+00 +4.9067217858e+00 -1.6781965283e+01 1.8726429706e+01 0.0000000000e+00 0.0000e+00 -1.0000e+00
</event>
<event>
 5      6 +6.9480500e-03 9.11880000e+01 7.81616400e-03 1.18400000e-01
      -11 -1    0    0    0    0 +0.0000000000e+00 +0.0000000000e+00 +4.5593999997e+01 4.5594000000e+01 5.1100000000e-04 0.0000e+00 1.0000e+00
       11 -1    0    0    0    0 -0.0000000000e+00 -0.0000000000e+00 -4.5593999997e+01 4.5594000000e+01 5.1100000000e-04 0.0000e+00 -1.0000e+00
       23  2    1    2    0    0 +0.0000000000e+00 +0.0000000000e+00 +0.0000000000e+00 9.1188000000e+01 9.1188000000e+01 5.2001e-14 0.0000e+00
  9900012  1    3    3    0    0 -3.7674890331e+00 +1.0702341220e+01 -1.4897821596e+01 7.2461570294e+01 7.0000000000e+01 4.7582e-05 -1.0000e+00
      -12  1    3    3    0    0 +3.7674890331e+00 -1.0702341220e+01 +1.4897821596e+01 1.8726429706e+01 0.0000000000e+00 0.0000e+00 1.0000e+00
</event>
<event>
 5      5 +6.9480500e-03 9.11880000e+01 7.81616400e-03 1.18400000e-01
      -11 -1    0    0    0    0 +0.0000000000e+00 +0.0000000000e+00 +4.5593999997e+01 4.5594000000e+01 5.1100000000e-04 0.0000e+00 1.0000e+00
       11 -1    0    0    0    0 -0.0000000000e+00 -0.0000000000e+00 -4.5593999997e+01 4.5594000000e+01 5.1100000000e-04 0.0000e+00 -1.0000e+00
       23  2    1    2    0    0 +0.0000000000e+00 +0.0000000000e+00 +0.0000000000e+00 9.1188000000e+01 9.1188000000e+01 3.5417e-13 0.0000e+00
  9900012  1    3    3    0    0 -1.1373063793e+01 -1.3985193972e+01 +5.0741441672e+00 7.2461570294e+01 7.0000000000e+01 3.9594e-05 1.0000e+00
       12  1    3    3    0    0 +1.1373063793e+01 +1.3985193972e+01 -5.0741441672e+00 1.8726429706e+01 0.0000000000e+00 0.0000e+00 -1.0000e+00
</event>
<event>
 5      4 +6.9480500e-03 9.11880000e+01 7.81616400e-03 1.18400000e-01
      -11 -1    0    0    0    0 +0.0000000000e+00 +0.0000000000e+00 +4.5593999997e+01 4.5594000000e+01 5.1100000000e-04 0.0000e+00 1.0000e+00
       11 -1    0    0    0    0 -0.0000000000e+00 -0.0000000000e+00 -4.5593999997e+01 4.5594000000e+01 5.1100000000e-04 0.0000e+00 -1.0000e+00
       23  2    1    2    0    0 +0.0000000000e+00 +0.0000000000e+00 +0.0000000000e+00 9.1188000000e+01 9.1188000000e+01 5.8261e-15 0.0000e+00
  9900012  1    3    3    0    0 -1.7027954096e+01 -6.2790794651e+00 +4.6153125467e+00 7.2461570294e+01 7.0000000000e+01 5.1355e-05 -1.0000e+00
      -12  1    3    3    0    0 +1.7027954096e+01 +6.2790794651e+00 -4.6153125467e+00 1.8726429706e+01 0.0000000000e+00 0.0000e+00 1.0000e+00
</event>
<event>
 5      8 +6.9480500e-03 9.11880000e+01 7.81616400e-03 1.18400000e-01
      -11 -1    0    0    0    0 +0.0000000000e+00 +0.0000000000e+00 +4.5593999997e+01 4.5594000000e+01 5.1100000000e-04 0.0000e+00 1.0000e+00
       11 -1    0    0    0    0 -0.0000000000e+00 -0.0000000000e+00 -4.5593999997e+01 4.5594000000e+01 5.1100000000e-04 0.0000e+00 -1.0000e+00
       23  2    1    2    0    0 +0.0000000000e+00 +0.0000000000e+00 +0.0000000000e+00 9.1188000000e+01 9.1188000000e+01 6.7908e-14 0.0000e+00
  9900012  1    3    3    0    0 -3.3404379103e+00 +9.7775708646e+00 -1.5617930467e+01 7.2461570294e+01 7.0000000000e+01 1.6659e-05 -1.0000e+00
      -12  1    3    3    0    0 +3.3404379103e+00 -9.7775708646e+00 +1.5617930467e+01 1.8726429706e+01 0.0000000000e+00 0.0000e+00 1.0000e+00
</event>
<event>
 5      3 +6.9480500e-03 9.11880000e+01 7.81616400e-03 1.18400000e-01
      -11 -1    0    0    0    0 +0.0000000000e+00 +0.0000000000e+00 +4.5593999997e+01 4.5594000000e+01 5.1100000000e-04 0.0000e+00 -1.0000e+00
       11 -1    0    0    0    0 -0.0000000000e+00 -0.0000000000e+00 -4.5593999997e+01 4.5594000000e+01 5.1100000000e-04 0.0000e+00 1.0000e+00
       23  2    1    2    0    0 +0.0000000000e+00 +0.0000000000e+00 +0.0000000000e+00 9.1188000000e+01 9.1188000000e+01 6.2776e-15 0.0000e+00
  9900012  1    3    3    0    0 +5.7267088205e+00 -1.6089047428e+01 +7.6828724097e+00 7.2461570294e+01 7.0000000000e+01 1.1923e-05 1.0000e+00
       12  1    3    3    0    0 -5.7267088205e+00 +1.6089047428e+01 -7.6828724097e+00 1.8726429706e+01 0.0000000000e+00 0.0000e+00 -1.0000e+00
</event>
<event>
 5      2 +6.9480500e-03 9.11880000e+01 7.81616400e-03 1.18400000e-01
      -11 -1    0    0    0    0 +0.0000000000e+00 +0.0000000000e+00 +4.5593999997e+01 4.5594000000e+01 5.1100000000e-04 0.0000e+00 -1.0000e+00
       11 -1    0    0    0    0 -0.0000000000e+00 -0.0000000000e+00 -4.5593999997e+01 4.5594000000e+01 5.1100000000e-04 0.0000e+00 1.0000e+00
       23  2    1    2    0    0 +0.0000000000e+00 +0.0000000000e+00 +0.0000000000e+00 9.1188000000e+01 9.1188000000e+01 4.0589e-14 0.0000e+00
  9900012  1    3    3    0    0 -1.3384064974e+01 +5.9045702391e-01 +1.3084239940e+01 7.2461570294e+01 7.0000000000e+01 2.0515e-04 -1.0000e+00
      -12  1    3    3    0    0 +1.3384064974e+01 -5.9045702391e-01 -1.3084239940e+01 1.8726429706e+01 0.0000000000e+00 0.0000e+00 1.0000e+00
</event>
<event>
 5      3 +6.9480500e-03 9.11880000e+01 7.81616400e-03 1.18400000e-01
      -11 -1    0    0    0    0 +0.0000000000e+00 +0.0000000000e+00 +4.5593999997e+01 4.5594000000e+01 5.1100000000e-04 0.0000e+00 -1.0000e+00
       11 -1    0    0    0    0 -0.0000000000e+00 -0.0000000000e+00 -4.5593999997e+01 4.5594000000e+01 5.1100000000e-04 0.0000e+00 1.0000e+00
       23  2    1    2    0    0 +0.0000000000e+00 +0.0000000000e+00 +0.0000000000e+00 9.1188000000e+01 9.1188000000e+01 1.4696e-13 0.0000e+00
  9900012  1    3    3    0    0 -3.8198472255e-02 -1.8605637586e+01 +2.1231958067e+00 7.2461570294e+01 7.0000000000e+01 1.6904e-04 1.0000e+00
       12  1    3    3    0    0 +3.8198472255e-02 +1.8605637586e+01 -2.1231958067e+00 1.8726429706e+01 0.0000000000e+00 0.0000e+00 -1.0000e+00
</event>
<event>
 5      8 +6.9480500e-03 9.11880000e+01 7.81616400e-03 1.18400000e-01
      -11 -1    0    0    0    0 +0.0000000000e+00 +0.0000000000e+00 +4.5593999997e+01 4.5594000000e+01 5.1100000000e-04 0.0000e+00 1.0000e+00
       11 -1    0    0    0    0 -0.0000000000e+00 -0.0000000000e+00 -4.5593999997e+01 4.5594000000e+01 5.1100000000e-04 0.0000e+00 -1.0000e+00
       23  2    1    2    0    0 +0.0000000000e+00 +0.0000000000e+00 +0.0000000000e+00 9.1188000000e+01 9.1188000000e+01 2.3101e-13 0.0000e+00
  9900012  1    3    3    0    0 +6.8482623175e+00 +1.6402048160e+01 -5.8951920158e+00 7.2461570294e+01 7.0000000000e+01 2.1537e-05 -1.0000e+00
      -12  1    3    3    0    0 -6.8482623175e+00 -1.6402048160e+01 +5.8951920158e+00 1.8726429706e+01 0.0000000000e+00 0.0000e+00 1.0000e+00
</event>
<event>
 5      1 +6.9480500e-03 9.11880000e+01 7.81616400e-03 1.18400000e-01
      -11 -1    0    0    0    0 +0.0000000000e+00 +0.0000000000e+00 +4.5593999997e+01 4.5594000000e+01 5.1100000000e-04 0.0000e+00 1.0000e+00
       11 -1    0    0    0    0 -0.0000000000e+00 -0.0000000000e+00 -4.5593999997e+01 4.5594000000e+01 5.1100000000e-04 0.0000e+00 -1.0000e+00
       23  2    1    2    0    0 +0.0000000000e+00 +0.0000000000e+00 +0.0000000000e+00 9.1188000000e+01 9.1188000000e+01 1.5074e-14 0.0000e+00
  9900012  1    3    3    0    0 +5.9168389475e+00 +1.3511482122e+01 +1.1537332328e+01 7.2461570294e+01 7.0000000000e+01 6.3809e-05 1.0000e+00
       12  1    3    3    0    0 -5.9168389475e+00 -1.3511482122e+01 -1.1537332328e+01 1.8726429706e+01 0.0000000000e+00 0.0000e+00 -1.0000e+00
</event>
<event>
 5      6 +6.9480500e-03 9.11880000e+01 7.81616400e-03 1.18400000e-01
      -11 -1    0    0    0    0 +0.0000000000e+00 +0.0000000000e+00 +4.5593999997e+01 4.5594000000e+01 5.1100000000e-04 0.0000e+00 -1.0000e+00
       11 -1    0    0    0    0 -0.0000000000e+00 -0.0000000000e+00 -4.5593999997e+01 4.5594000000e+01 5.1100000000e-04 0.0000e+00 1.0000e+00
       23  2    1    2    0    0 +0.0000000000e+00 +0.0000000000e+00 +0.0000000000e+00 9.1188000000e+01 9.1188000000e+01 3.0655e-14 0.0000e+00
  9900012  1    3    3    0    0 +7.0064534548e+00 +1.1168774105e+01 +1.3298393305e+01 7.2461570294e+01 7.0000000000e+01 5.8450e-05 -1.0000e+00
      -12  1    3    3    0    0 -7.0064534548e+00 -1.1168774105e+01 -1.3298393305e+01 1.8726429706e+01 0.0000000000e+00 0.0000e+00 1.0000e+00
</event>
<event>
 5      4 +6.9480500e-03 9.11880000e+01 7.81616400e-03 1.18400000e-01
      -11 -1    0    0    0    0 +0.0000000000e+00 +0.0000000000e+00 +4.5593999997e+01 4.5594000000e+01 5.1100000000e-04 0.0000e+00 -1.0000e+00
       11 -1    0    0    0    0 -0.0000000000e+00 -0.0000000000e+00 -4.5593999997e+01 4.5594000000e+01 5.1100000000e-04 0.0000e+00 1.0000e+00
       23  2    1    2    0    0 +0.0000000000e+00 +0.0000000000e+00 +0.0000000000e+00 9.1188000000e+01 9.1188000000e+01 5.5814e-14 0.0000e+00
  9900012  1    3    3    0    0 +1.4670646542e+01 -1.0320298814e+01 +5.3798449768e+00 7.2461570294e+01 7.0000000000e+01 4.8374e-05 -1.0000e+00
      -12  1    3    3    0    0 -1.4670646542e+01 +1.0320298814e+01 -5.3798449768e+00 1.8726429706e+01 0.0000000000e+00 0.0000e+00 1.0000e+00
</event>
<event>
 5      3 +6.9480500e-03 9.11880000e+01 7.81616400e-03 1.18400000e-01
      -11 -1    0    0    0    0 +0.0000000000e+00 +0.0000000000e+00 +4.5593999997e+01 4.5594000000e+01 5.1100000000e-04 0.0000e+00 1.0000e+00
       11 -1    0    0    0    0 -0.0000000000e+00 -0.0000000000e+00 -4.5593999997e+01 4.5594000000e+01 5.1100000000e-04 0.0000e+00 -1.0000e+00
       23  2    1    2    0    0 +0.0000000000e+00 +0.0000000000e+00 +0.0000000000e+00 9.1188000000e+01 9.1188000000e+01 3.5356e-13 0.0000e+00
  9900012  1    3    3    0    0 +1.6931306765e+01 +1.1716111248e+00 +7.9143760410e+00 7.2461570294e+01 7.0000000000e+01 5.6644e-05 -1.0000e+00
       12  1    3    3    0    0 -1.6931306765e+01 -1.1716111248e+00 -7.9143760410e+00 1.8726429706e+01 0.0000000000e+00 0.0000e+00 -1.0000e+00
</event>
<event>
 5      6 +6.9480500e-03 9.11880000e+01 7.81616400e-03 1.18400000e-01
      -11 -1    0    0    0    0 +0.0000000000e+00 +0.0000000000e+00 +4.5593999997e+01 4.5594000000e+01 5.1100000000e-04 0.0000e+00 -1.0000e+00
       11 -1    0    0    0    0 -0.0000000000e+00 -0.0000000000e+00 -4.5593999997e+01 4.5594000000e+01 5.1100000000e-04 0.0000e+00 1.0000e+00
       23  2    1    2    0    0 +0.0000000000e+00 +0.0000000000e+00 +0.0000000000e+00 9.1188000000e+01 9.1188000000e+01 2.4051e-14 0.0000e+00
  9900012  1    3    3    0    0 +9.9867764052e+00 -8.1596116275e+00 +1.3578078091e+01 7.2461570294e+01 7.0000000000e+01 1.1962e-04 -1.0000e+00
      -12  1    3    3    0    0 -9.9867764052e+00 +8.1596116275e+00 -1.3578078091e+01 1.8726429706e+01 0.0000000000e+00 0.0000e+00 1.0000e+00
</event>
<event>
 5      2 +6.9480500e-03 9.11880000e+01 7.81616400e-03 1.18400000e-01
      -11 -1    0    0    0    0 +0.0000000000e+00 +0.0000000000e+00 +4.5593999997e+01 4.5594000000e+01 5.1100000000e-04 0.0000e+00 -1.0000e+00
       11 -1    0    0    0    0 -0.0000000000e+00 -0.0000000000e+00 -4.5593999997e+01 4.5594000000e+01 5.1100000000e-04 0.0000e+00 1.0000e+00
       23  2    1    2    0    0 +0.0000000000e+00 +0.0000000000e+00 +0.0000000000e+00 9.1188000000e+01 9.1188000000e+01 6.0553e-14 0.0000e+00
  9900012  1    3    3    0    0 +1.7536155335e+01 -2.3861912403e+00 +6.1211532381e+00 7.2461570294e+01 7.0000000000e+01 4.2706e-05 -1.0000e+00
      -12  1    3    3    0    0 -1.7536155335e+01 +2.3861912403e+00 -6.1211532381e+00 1.8726429706e+01 0.0000000000e+00 0.0000e+00 1.0000e+00
</event>
<event>
 5      7 +6.9480500e-03 9.11880000e+01 7.81616400e-03 1.18400000e-01
      -11 -1    0    0    0    0 +0.0000000000e+00 +0.0000000000e+00 +4.5593999997e+01 4.5594000000e+01 5.1100000000e-04 0.0000e+00 -1.0000e+00
       11 -1    0    0    0    0 -0.0000000000e+00 -0.0000000000e+00 -4.5593999997e+01 4.5594000000e+01 5.1100000000e-04 0.0000e+00 1.0000e+00
       23  2    1    2    0    0 +0.0000000000e+00 +0.0000000000e+00 +0.0000000000e+00 9.1188000000e+01 9.1188000000e+01 1.5306e-13 0.0000e+00
  9900012  1    3    3    0    0 -1.4746964571e+01 +9.6689988707e+00 -6.3021160186e+00 7.2461570294e+01 7.0000000000e+01 2.8169e-05 1.0000e+00
       12  1    3    3    0    0 +1.4746964571e+01 -9.6689988707e+00 +6.3021160186e+00 1.8726429706e+01 0.0000000000e+00 0.0000e+00 -1.0000e+00
</event>
<event>
 5      6 +6.9480500e-03 9.11880000e+01 7.81616400e-03 1.18400000e-01
      -11 -1    0    0    0    0 +0.0000000000e+00 +0.0000000000e+00 +4.5593999997e+01 4.5594000000e+01 5.1100000000e-04 0.0000e+00 -1.0000e+00
       11 -1    0    0    0    0 -0.0000000000e+00 -0.0000000000e+00 -4.5593999997e+01 4.5594000000e+01 5.1100000000e-04 0.0000e+00 1.0000e+00
       23  2    1    2    0    0 +0.0000000000e+00 +0.0000000000e+00 +0.0000000000e+00 9.1188000000e+01 9.1188000000e+01 7.9808e-15 0.0000e+00
  9900012  1    3    3    0    0 +1.6256065509e+01 -5.6028329826e+00 +7.4180702514e+00 7.2461570294e+01 7.0000000000e+01 6.2754e-05 -1.0000e+00
      -12  1    3    3    0    0 -1.6256065509e+01 +5.6028329826e+00 -7.4180702514e+00 1.8726429706e+01 0.0000000000e+00 0.0000e+00 1.0000e+00
</event>
<event>
 5      3 +6.9480500e-03 9.11880000e+01 7.81616400e-03 1.18400000e-01
      -11 -1    0    0    0    0 +0.0000000000e+00 +0.0000000000e+00 +4.5593999997e+01 4.5594000000e+01 5.1100000000e-04 0.0000e+00 -1.0000e+00
       11 -1    0    0    0    0 -0.0000000000e+00 -0.0000000000e+00 -4.5593999997e+01 4.5594000000e+01 5.1100000000e-04 0.0000e+00 1.0000e+00
       23  2    1    2    0    0 +0.0000000000e+00 +0.0000000000e+00 +0.0000000000e+00 9.1188000000e+01 9.1188000000e+01 5.4869e-14 0.0000e+00
  9900012  1    3    3    0    0 -6.2160029705e+00 +1.7655703901e+01 +5.6266896404e-01 7.2461570294e+01 7.0000000000e+01 2.8841e-04 1.0000e+00
       12  1    3    3    0    0 +6.2160029705e+00 -1.7655703901e+01 -5.6266896404e-01 1.8726429706e+01 0.0000000000e+00 0.0000e+00 -1.0000e+00
</event>
<event>
 5      4 +6.9480500e-03 9.11880000e+01 7.81616400e-03 1.18400000e-01
      -11 -1    0    0    0    0 +0.0000000000e+00 +0.0000000000e+00 +4.5593999997e+01 4.5594000000e+01 5.1100000000e-04 0.0000e+00 1.0000e+00
       11 -1    0    0    0    0 -0.0000000000e+00 -0.0000000000e+00 -4.5593999997e+01 4.5594000000e+01 5.1100000000e-04 0.0000e+00 -1.0000e+00
       23  2    1    2    0    0 +0.0000000000e+00 +0.0000000000e+00 +0.0000000000e+00 9.1188000000e+01 9.1188000000e+01 7.2055e-14 0.0000e+00
  9900012  1    3    3    0    0 +5.4985620898e+00 +1.7888083828e+01 -6.7929480822e-01 7.2461570294e+01 7.0000000000e+01 2.0337e-04 1.0000e+00
      -12  1    3    3    0    0 -5.4985620898e+00 -1.7888083828e+01 +6.7929480822e-01 1.8726429706e+01 0.0000000000e+00 0.0000e+00 1.0000e+00
</event>
<event>
 5      6 +6.9480500e-03 9.11880000e+01 7.81616400e-03 1.18400000e-01
      -11 -1    0    0    0    0 +0.0000000000e+00 +0.0000000000e+00 +4.5593999997e+01 4.5594000000e+01 5.1100000000e-04 0.0000e+00 1.0000e+00
       11 -1    0    0    0    0 -0.0000000000e+00 -0.0000000000e+00 -4.5593999997e+01 4.5594000000e+01 5.1100000000e-04 0.0000e+00 -1.0000e+00
       23  2    1    2    0    0 +0.0000000000e+00 +0.0000000000e+00 +0.0000000000e+00 9.1188000000e+01 9.1188000000e+01 1.2398e-14 0.0000e+00
  9900012  1    3    3    0    0 -5.6385839523e+00 +1.7857065717e+01 -1.0365566741e-01 7.2461570294e+01 7.0000000000e+01 2.3064e-04 1.0000e+00
      -12  1    3    3    0    0 +5.6385839523e+00 -1.7857065717e+01 +1.0365566741e-01 1.8726429706e+01 0.0000000000e+00 0.0000e+00 1.0000e+00
</event>
<event>
 5      4 +6.9480500e-03 9.11880000e+01 7.81616400e-03 1.18400000e-01
      -11 -1    0    0    0    0 +0.0000000000e+00 +0.0000000000e+00 +4.5593999997e+01 4.5594000000e+01 5.1100000000e-04 0.0000e+00 -1.0000e+00
       11 -1    0    0    0    0 -0.0000000000e+00 -0.0000000000e+00 -4.5593999997e+01 4.5594000000e+01 5.1100000000e-04 0.0000e+00 1.0000e+00
       23  2    1    2    0    0 +0.0000000000e+00 +0.0000000000e+00 +0.0000000000e+00 9.1188000000e+01 9.1188000000e+01 1.4581e-13 0.0000e+00
  9900012  1    3    3    0    0 +1.6328295621e+01 -3.0298817073e+00 +8.6536552082e+00 7.2461570294e+01 7.0000000000e+01 4.1648e-05 -1.0000e+00
      -12  1    3    3    0    0 -1.6328295621e+01 +3.0298817073e+00 -8.6536552082e+00 1.8726429706e+01 0.0000000000e+00 0.0000e+00 1.0000e+00
</event>
<event>
 5      7 +6.9480500e-03 9.11880000e+01 7.81616400e-03 1.18400000e-01
      -11 -1    0    0    0    0 +0.0000000000e+00 +0.0000000000e+00 +4.5593999997e+01 4.5594000000e+01 5.1100000000e-04 0.0000e+00 1.0000e+00
       11 -1    0    0    0    0 -0.0000000000e+00 -0.0000000000e+00 -4.5593999997e+01 4.5594000000e+01 5.1100000000e-04 0.0000e+00 -1.0000e+00
       23  2    1    2    0    0 +0.0000000000e+00 +0.0000000000e+00 +0.0000000000e+00 9.1188000000e+01 9.1188000000e+01 9.3428e-14 0.0000e+00
  9900012  1    3    3    0    0 +9.7668150048e+00 +1.3376333540e+01 +8.7385465157e+00 7.2461570294e+01 7.0000000000e+01 1.0728e-04 1.0000e+00
       12  1    3    3    0    0 -9.7668150048e+00 -1.3376333540e+01 -8.7385465157e+00 1.8726429706e+01 0.0000000000e+00 0.0000e+00 -1.0000e+00
</event>
<event>
 5      8 +6.9480500e-03 9.11880000e+01 7.81616400e-03 1.18400000e-01
      -11 -1    0    0    0    0 +0.0000000000e+00 +0.0000000000e+00 +4.5593999997e+01 4.5594000000e+01 5.1100000000e-04 0.0000e+00 1.0000e+00
       11 -1    0    0    0    0 -0.0000000000e+00 -0.0000000000e+00 -4.5593999997e+01 4.5594000000e+01 5.1100000000e-04 0.0000e+00 -1.0000e+00
       23  2    1    2    0    0 +0.0000000000e+00 +0.0000000000e+00 +0.0000000000e+00 9.1188000000e+01 9.1188000000e+01 7.8073e-14 0.0000e+00
  9900012  1    3    3    0    0 -1.6215687994e+01 +2.5162648460e+00 -9.0221418529e+00 7.2461570294e+01 7.0000000000e+01 1.5449e-04 -1.0000e+00
      -12  1    3    3    0    0 +1.6215687994e+01 -2.5162648460e+00 +9.0221418529e+00 1.8726429706e+01 0.0000000000e+00 0.0000e+00 1.0000e+00
</event>
<event>
 5      2 +6.9480500e-03 9.11880000e+01 7.81616400e-03 1.18400000e-01
      -11 -1    0    0    0    0 +0.0000000000e+00 +0.0000000000e+00 +4.5593999997e+01 4.5594000000e+01 5.1100000000e-04 0.0000e+00 1.0000e+00
       11 -1    0    0    0    0 -0.0000000000e+00 -0.0000000000e+00 -4.5593999997e+01 4.5594000000e+01 5.1100000000e-04 0.0000e+00 -1.0000e+00
       23  2    1    2    0    0 +0.0000000000e+00 +0.0000000000e+00 +0.0000000000e+00 9.1188000000e+01 9.1188000000e+01 7.2649e-14 0.0000e+00
  9900012  1    3    3    0    0 -6.7673381971e+00 -1.2615953573e+01 -1.2071454705e+01 7.2461570294e+01 7.0000000000e+01 1.1758e-04 -1.0000e+00
      -12  1    3    3    0    0 +6.7673381971e+00 +1.2615953573e+01 +1.2071454705e+01 1.8726429706e+01 0.0000000000e+00 0.0000e+00 1.0000e+00
</event>
<event>
 5      6 +6.9480500e-03 9.11880000e+01 7.81616400e-03 1.18400000e-01
      -11 -1    0    0    0    0 +0.0000000000e+00 +0.0000000000e+00 +4.5593999997e+01 4.5594000000e+01 5.1100000000e-04 0.0000e+00 1.0000e+00
       11 -1    0    0    0    0 -0.0000000000e+00 -0.0000000000e+00 -4.5593999997e+01 4.5594000000e+01 5.1100000000e-04 0.0000e+00 -1.0000e+00
       23  2    1    2    0    0 +0.0000000000e+00 +0.0000000000e+00 +0.0000000000e+00 9.1188000000e+01 9.1188000000e+01 5.0625e-15 0.0000e+00
  9900012  1    3    3    0    0 -1.6365353241e+01 -8.9303902822e+00 -1.7613949697e+00 7.2461570294e+01 7.0000000000e+01 2.7540e-04 -1.0000e+00
      -12  1    3    3    0    0 +1.6365353241e+01 +8.9303902822e+00 +1.7613949697e+00 1.8726429706e+01 0.0000000000e+00 0.0000e+00 1.0000e+00
</event>
<event>
 5      4 +6.9480500e-03 9.11880000e+01 7.81616400e-03 1.18400000e-01
      -11 -1    0    0    0    0 +0.0000000000e+00 +0.0000000000e+00 +4.5593999997e+01 4.5594000000e+01 5.1100000000e-04 0.0000e+00 1.0000e+00
       11 -1    0    0    0    0 -0.0000000000e+00 -0.0000000000e+00 -4.5593999997e+01 4.5594000000e+01 5.1100000000e-04 0.0000e+00 -1.0000e+00
       23  2    1    2    0    0 +0.0000000000e+00 +0.0000000000e+00 +0.0000000000e+00 9.1188000000e+01 9.1188000000e+01 1.4883e-13 0.0000e+00
  9900012  1    3    3    0    0 -1.6699799573e+00 -1.8650034596e+01 +2.5796519501e-01 7.2461570294e+01 7.0000000000e+01 5.3455e-05 -1.0000e+00
      -12  1    3    3    0    0 +1.6699799573e+00 +1.8650034596e+01 -2.5796519501e-01 1.8726429706e+01 0.0000000000e+00 0.0000e+00 1.0000e+00
</event>
<event>
 5      4 +6.9480500e-03 9.11880000e+01 7.81616400e-03 1.18400000e-01
      -11 -1    0    0    0    0 +0.0000000000e+00 +0.0000000000e+00 +4.5593999997e+01 4.5594000000e+01 5.1100000000e-04 0.0000e+00 -1.0000e+00
       11 -1    0    0    0    0 -0.0000000000e+00 -0.0000000000e+00 -4.5593999997e+01 4.5594000000e+01 5.1100000000e-04 0.0000e+00 1.0000e+00
       23  2    1    2    0    0 +0.0000000000e+00 +0.0000000000e+00 +0.0000000000e+00 9.1188000000e+01 9.1188000000e+01 8.2156e-14 0.0000e+00
  9900012  1    3    3    0    0 -9.9952189511e+00 -1.5834987794e+01 +1.6712034643e-01 7.2461570294e+01 7.0000000000e+01 1.8791e-04 -1.0000e+00
      -12  1    3    3    0    0 +9.9952189511e+00 +1.5834987794e+01 -1.6712034643e-01 1.8726429706e+01 0.0000000000e+00 0.0000e+00 1.0000e+00
</event>
<event>
 5      7 +6.9480500e-03 9.11880000e+01 7.81616400e-03 1.18400000e-01
      -11 -1    0    0    0    0 +0.0000000000e+00 +0.0000000000e+00 +4.5593999997e+01 4.5594000000e+01 5.1100000000e-04 0.0000e+00 -1.0000e+00
       11 -1    0    0    0    0 -0.0000000000e+00 -0.0000000000e+00 -4.5593999997e+01 4.5594000000e+01 5.1100000000e-04 0.0000e+00 1.0000e+00
       23  2    1    2    0    0 +0.0000000000e+00 +0.0000000000e+00 +0.0000000000e+00 9.1188000000e+01 9.1188000000e+01 8.3901e-15 0.0000e+00
  9900012  1    3    3    0    0 -1.8359602969e+01 +3.6353331486e+00 -6.2329868889e-01 7.2461570294e+01 7.0000000000e+01 2.7579e-04 1.0000e+00
       12  1    3    3    0    0 +1.8359602969e+01 -3.6353331486e+00 +6.2329868889e-01 1.8726429706e+01 0.0000000000e+00 0.0000e+00 -1.0000e+00
</event>
<event>
 5      5 +6.9480500e-03 9.11880000e+01 7.81616400e-03 1.18400000e-01
      -11 -1    0    0    0    0 +0.0000000000e+00 +0.0000000000e+00 +4.5593999997e+01 4.5594000000e+01 5.1100000000e-04 0.0000e+00 1.0000e+00
       11 -1    0    0    0    0 -0.0000000000e+00 -0.0000000000e+00 -4.5593999997e+01 4.5594000000e+01 5.1100000000e-04 0.0000e+00 -1.0000e+00
       23  2    1    2    0    0 +0.0000000000e+00 +0.0000000000e+00 +0.0000000000e+00 9.1188000000e+01 9.1188000000e+01 2.5131e-13 0.0000e+00
  9900012  1    3    3    0    0 -2.7378132848e+00 +9.7202314389e+00 +1.5770245677e+01 7.2461570294e+01 7.0000000000e+01 5.2695e-05 1.0000e+00
       12  1    3    3    0    0 +2.7378132848e+00 -9.7202314389e+00 -1.5770245677e+01 1.8726429706e+01 0.0000000000e+00 0.0000e+00 -1.0000e+00
</event>
<event>
 5      8 +6.9480500e-03 9.11880000e+01 7.81616400e-03 1.18400000e-01
      -11 -1    0    0    0    0 +0.0000000000e+00 +0.0000000000e+00 +4.5593999997e+01 4.5594000000e+01 5.1100000000e-04 0.0000e+00 1.0000e+00
       11 -1    0    0    0    0 -0.0000000000e+00 -0.0000000000e+00 -4.5593999997e+01 4.5594000000e+01 5.1100000000e-04 0.0000e+00 -1.0000e+00
       23  2    1    2    0    0 +0.0000000000e+00 +0.0000000000e+00 +0.0000000000e+00 9.1188000000e+01 9.1188000000e+01 8.1906e-14 0.0000e+00
  9900012  1    3    3    0    0 +1.3697373141e+01 -1.6987281731e+00 -1.2656044451e+01 7.2461570294e+01 7.0000000000e+01 1.0516e-04 -1.0000e+00
      -12  1    3    3    0    0 -1.3697373141e+01 +1.6987281731e+00 +1.2656044451e+01 1.8726429706e+01 0.0000000000e+00 0.0000e+00 1.0000e+00
</event>
<event>
 5      4 +6.9480500e-03 9.11880000e+01 7.81616400e-03 1.18400000e-01
      -11 -1    0    0    0    0 +0.0000000000e+00 +0.0000000000e+00 +4.5593999997e+01 4.5594000000e+01 5.1100000000e-04 0.0000e+00 1.0000e+00
       11 -1    0    0    0    0 -0.0000000000e+00 -0.0000000000e+00 -4.5593999997e+01 4.5594000000e+01 5.1100000000e-04 0.0000e+00 -1.0000e+00
       23  2    1    2    0    0 +0.0000000000e+00 +0.0000000000e+00 +0.0000000000e+00 9.1188000000e+01 9.1188000000e+01 1.7079e-13 0.0000e+00
  9900012  1    3    3    0    0 -1.5388984989e+00 -1.3834970559e+01 +1.2526154660e+01 7.2461570294e+01 7.0000000000e+01 3.5909e-05 1.0000e+00
      -12  1    3    3    0    0 +1.5388984989e+00 +1.3834970559e+01 -1.2526154660e+01 1.8726429706e+01 0.0000000000e+00 0.0000e+00 1.0000e+00
</event>
<event>
 5      6 +6.9480500e-03 9.11880000e+01 7.81616400e-03 1.18400000e-01
      -11 -1    0    0    0    0 +0.0000000000e+00 +0.0000000000e+00 +4.5593999997e+01 4.5594000000e+01 5.1100000000e-04 0.0000e+00 1.0000e+00
       11 -1    0    0    0    0 -0.0000000000e+00 -0.0000000000e+00 -4.5593999997e+01 4.5594000000e+01 5.1100000000e-04 0.0000e+00 -1.0000e+00
       23  2    1    2    0    0 +0.0000000000e+00 +0.0000000000e+00 +0.0000000000e+00 9.1188000000e+01 9.1188000000e+01 5.0812e-14 0.0000e+00
  9900012  1    3    3    0    0 -1.4000460132e+01 +1.0552202681e+01 -6.5815882720e+00 7.2461570294e+01 7.0000000000e+01 5.5910e-05 -1.0000e+00
      -12  1    3    3    0    0 +1.4000460132e+01 -1.0552202681e+01 +6.5815882720e+00 1.8726429706e+01 0.0000000000e+00 0.0000e+00 1.0000e+00
</event>
<event>
 5      2 +6.9480500e-03 9.11880000e+01 7.81616400e-03 1.18400000e-01
      -11 -1    0    0    0    0 +0.0000000000e+00 +0.0000000000e+00 +4.5593999997e+01 4.5594000000e+01 5.1100000000e-04 0.0000e+00 1.0000e+00
       11 -1    0    0    0    0 -0.0000000000e+00 -0.0000000000e+00 -4.5593999997e+01 4.5594000000e+01 5.1100000000e-04 0.0000e+00 -1.0000e+00
       23  2    1    2    0    0 +0.0000000000e+00 +0.0000000000e+00 +0.0000000000e+00 9.1188000000e+01 9.1188000000e+01 3.5611e-14 0.0000e+00
  9900012  1    3    3    0    0 -1.7572015331e+00 +1.5035305181e+01 -1.1024110414e+01 7.2461570294e+01 7.0000000000e+01 3.5389e-05 -1.0000e+00
      -12  1    3    3    0    0 +1.7572015331e+00 -1.5035305181e+01 +1.1024110414e+01 1.8726429706e+01 0.0000000000e+00 0.0000e+00 1.0000e+00
</event>
<event>
 5      2 +6.9480500e-03 9.11880000e+01 7.81616400e-03 1.18400000e-01
      -11 -1    0    0    0    0 +0.0000000000e+00 +0.0000000000e+00 +4.5593999997e+01 4.5594000000e+01 5.1100000000e-04 0.0000e+00 1.0000e+00
       11 -1    0    0    0    0 -0.0000000000e+00 -0.0000000000e+00 -4.5593999997e+01 4.5594000000e+01 5.1100000000e-04 0.0000e+00 -1.0000e+00
       23  2    1    2    0    0 +0.0000000000e+00 +0.0000000000e+00 +0.0000000000e+00 9.1188000000e+01 9.1188000000e+01 4.5254e-14 0.0000e+00
  9900012  1    3    3    0    0 +1.6455210489e+01 +8.8410729577e+00 -1.3193355323e+00 7.2461570294e+01 7.0000000000e+01 8.5344e-05 1.0000e+00
      -12  1    3    3    0    0 -1.6455210489e+01 -8.8410729577e+00 +1.3193355323e+00 1.8726429706e+01 0.0000000000e+00 0.0000e+00 1.0000e+00
</event>
<event>
 5      4 +6.9480500e-03 9.11880000e+01 7.81616400e-03 1.18400000e-01
      -11 -1    0    0    0    0 +0.0000000000e+00 +0.0000000000e+00 +4.5593999997e+01 4.5594000000e+01 5.1100000000e-04 0.0000e+00 -1.0000e+00
       11 -1    0    0    0    0 -0.0000000000e+00 -0.0000000000e+00 -4.5593999997e+01 4.5594000000e+01 5.1100000000e-04 0.0000e+00 1.0000e+00
       23  2    1    2    0    0 +0.0000000000e+00 +0.0000000000e+00 +0.0000000000e+00 9.1188000000e+01 9.1188000000e+01 1.8208e-13 0.0000e+00
  9900012  1    3    3    0    0 +1.0684630685e+01 +1.5315555615e+01 +1.3969942247e+00 7.2461570294e+01 7.0000000000e+01 1.3384e-04 -1.0000e+00
      -12  1    3    3    0    0 -1.0684630685e+01 -1.5315555615e+01 -1.3969942247e+00 1.8726429706e+01 0.0000000000e+00 0.0000e+00 1.0000e+00
</event>
<event>
 5      7 +6.9480500e-03 9.11880000e+01 7.81616400e-03 1.18400000e-01
      -11 -1    0    0    0    0 +0.0000000000e+00 +0.0000000000e+00 +4.5593999997e+01 4.5594000000e+01 5.1100000000e-04 0.0000e+00 1.0000e+00
       11 -1    0    0    0    0 -0.0000000000e+00 -0.0000000000e+00 -4.5593999997e+01 4.5594000000e+01 5.1100000000e-04 0.0000e+00 -1.0000e+00
       23  2    1    2    0    0 +0.0000000000e+00 +0.0000000000e+00 +0.0000000000e+00 9.1188000000e+01 9.1188000000e+01 1.1885e-13 0.0000e+00
  9900012  1    3    3    0    0 -6.2296049556e-01 -1.1346294226e+01 +1.4884646354e+01 7.2461570294e+01 7.0000000000e+01 1.0183e-04 1.0000e+00
       12  1    3    3    0    0 +6.2296049556e-01 +1.1346294226e+01 -1.4884646354e+01 1.8726429706e+01 0.0000000000e+00 0.0000e+00 -1.0000e+00
</event>
<event>
 5      8 +6.9480500e-03 9.11880000e+01 7.81616400e-03 1.18400000e-01
      -11 -1    0    0    0    0 +0.0000000000e+00 +0.0000000000e+00 +4.5593999997e+01 4.5594000000e+01 5.1100000000e-04 0.0000e+00 1.0000e+00
       11 -1    0    0    0    0 -0.0000000000e+00 -0.0000000000e+00 -4.5593999997e+01 4.5594000000e+01 5.1100000000e-04 0.0000e+00 -1.0000e+00
       23  2    1    2    0    0 +0.0000000000e+00 +0.0000000000e+00 +0.0000000000e+00 9.1188000000e+01 9.1188000000e+01 1.3695e-13 0.0000e+00
  9900012  1    3    3    0    0 -3.7790354809e+00 -1.4287593951e+01 -1.1500553006e+01 7.2461570294e+01 7.0000000000e+01 4.1143e-04 -1.0000e+00
      -12  1    3    3    0    0 +3.7790354809e+00 +1.4287593951e+01 +1.1500553006e+01 1.8726429706e+01 0.0000000000e+00 0.0000e+00 1.0000e+00
</event>
<event>
 5      8 +6.9480500e-03 9.11880000e+01 7.81616400e-03 1.18400000e-01
      -11 -1    0    0    0    0 +0.0000000000e+00 +0.0000000000e+00 +4.5593999997e+01 4.5594000000e+01 5.1100000000e-04 0.0000e+00 -1.0000e+00
       11 -1    0    0    0    0 -0.0000000000e+00 -0.0000000000e+00 -4.5593999997e+01 4.5594000000e+01 5.1100000000e-04 0.0000e+00 1.0000e+00
       23  2    1    2    0    0 +0.0000000000e+00 +0.0000000000e+00 +0.0000000000e+00 9.1188000000e+01 9.1188000000e+01 1.4873e-14 0.0000e+00
  9900012  1    3    3    0    0 -1.3181974658e+01 +1.2783775425e+01 +3.6728462395e+00 7.2461570294e+01 7.0000000000e+01 1.9031e-04 -1.0000e+00
      -12  1    3    3    0    0 +1.3181974658e+01 -1.2783775425e+01 -3.6728462395e+00 1.8726429706e+01 0.0000000000e+00 0.0000e+00 1.0000e+00
</event>
<event>
 5      6 +6.9480500e-03 9.11880000e+01 7.81616400e-03 1.18400000e-01
      -11 -1    0    0    0    0 +0.0000000000e+00 +0.0000000000e+00 +4.5593999997e+01 4.5594000000e+01 5.1100000000e-04 0.0000e+00 -1.0000e+00
       11 -1    0    0    0    0 -0.0000000000e+00 -0.0000000000e+00 -4.5593999997e+01 4.5594000000e+01 5.1100000000e-04 0.0000e+00 1.0000e+00
       23  2    1    2    0    0 +0.0000000000e+00 +0.0000000000e+00 +0.0000000000e+00 9.1188000000e+01 9.1188000000e+01 2.2095e-13 0.0000e+00
  9900012  1    3    3    0    0 +1.7774073197e+01 -5.8252383821e-01 +5.8670399257e+00 7.2461570294e+01 7.0000000000e+01 5.8999e-05 -1.0000e+00
      -12  1    3    3    0    0 -1.7774073197e+01 +5.8252383821e-01 -5.8670399257e+00 1.8726429706e+01 0.0000000000e+00 0.0000e+00 1.0000e+00
</event>
<event>
 5      5 +6.9480500e-03 9.11880000e+01 7.81616400e-03 1.18400000e-01
      -11 -1    0    0    0    0 +0.0000000000e+00 +0.0000000000e+00 +4.5593999997e+01 4.5594000000e+01 5.1100000000e-04 0.0000e+00 -1.0000e+00
       11 -1    0    0    0    0 -0.0000000000e+00 -0.0000000000e+00 -4.5593999997e+01 4.5594000000e+01 5.1100000000e-04 0.0000e+00 1.0000e+00
       23  2    1    2    0    0 +0.0000000000e+00 +0.0000000000e+00 +0.0000000000e+00 9.1188000000e+01 9.1188000000e+01 2.4456e-14 0.0000e+00
  9900012  1    3    3    0    0 -1.0149816168e+01 +2.3279748483e+00 -1.5564091184e+01 7.2461570294e+01 7.0000000000e+01 1.5915e-05 1.0000e+00
       12  1    3    3    0    0 +1.0149816168e+01 -2.3279748483e+00 +1.5564091184e+01 1.8726429706e+01 0.0000000000e+00 0.0000e+00 -1.0000e+00
</event>
<event>
 5      6 +6.9480500e-03 9.11880000e+01 7.81616400e-03 1.18400000e-01
      -11 -1    0    0    0    0 +0.0000000000e+00 +0.0000000000e+00 +4.5593999997e+01 4.5594000000e+01 5.1100000000e-04 0.0000e+00 1.0000e+00
       11 -1    0    0    0    0 -0.0000000000e+00 -0.0000000000e+00 -4.5593999997e+01 4.5594000000e+01 5.1100000000e-04 0.0000e+00 -1.0000e+00
       23  2    1    2    0    0 +0.0000000000e+00 +0.0000000000e+00 +0.0000000000e+00 9.1188000000e+01 9.1188000000e+01 2.3456e-13 0.0000e+00
  9900012  1    3    3    0    0 -1.2757808807e+01 +5.0039800478e+00 -1.2762353531e+01 7.2461570294e+01 7.0000000000e+01 3.8848e-05 -1.0000e+00
      -12  1    3    3    0    0 +1.2757808807e+01 -5.0039800478e+00 +1.2762353531e+01 1.8726429706e+01 0.0000000000e+00 0.0000e+00 1.0000e+00
</event>
<event>
 5      5 +6.9480500e-03 9.11880000e+01 7.81616400e-03 1.18400000e-01
      -11 -1    0    0    0    0 +0.0000000000e+00 +0.0000000000e+00 +4.5593999997e+01 4.5594000000e+01 5.1100000000e-04 0.0000e+00 1.0000e+00
       11 -1    0    0    0    0 -0.0000000000e+00 -0.0000000000e+00 -4.5593999997e+01 4.5594000000e+01 5.1100000000e-04 0.0000e+00 -1.0000e+00
       23  2    1    2    0    0 +0.0000000000e+00 +0.0000000000e+00 +0.0000000000e+00 9.1188000000e+01 9.1188000000e+01 2.3285e-13 0.0000e+00
  9900012  1    3    3    0    0 +1.7328995343e+01 +5.5685418753e+00 -4.4018667979e+00 7.2461570294e+01 7.0000000000e+01 6.5072e-05 -1.0000e+00
       12  1    3    3    0    0 -1.7328995343e+01 -5.5685418753e+00 +4.4018667979e+00 1.8726429706e+01 0.0000000000e+00 0.0000e+00 -1.0000e+00
</event>
<event>
 5      3 +6.9480500e-03 9.11880000e+01 7.81616400e-03 1.18400000e-01
      -11 -1    0    0    0    0 +0.0000000000e+00 +0.0000000000e+00 +4.5593999997e+01 4.5594000000e+01 5.1100000000e-04 0.0000e+00 1.0000e+00
       11 -1    0    0    0    0 -0.0000000000e+00 -0.0000000000e+00 -4.5593999997e+01 4.5594000000e+01 5.1100000000e-04 0.0000e+00 -1.0000e+00
       23  2    1    2    0    0 +0.0000000000e+00 +0.0000000000e+00 +0.0000000000e+00 9.1188000000e+01 9.1188000000e+01 8.6367e-14 0.0000e+00
  9900012  1    3    3    0    0 -1.3395097743e+00 +1.6313580286e+01 +9.0968116036e+00 7.2461570294e+01 7.0000000000e+01 3.9047e-05 1.0000e+00
       12  1    3    3    0    0 +1.3395097743e+00 -1.6313580286e+01 -9.0968116036e+00 1.8726429706e+01 0.0000000000e+00 0.0000e+00 -1.0000e+00
</event>
<event>
 5      7 +6.9480500e-03 9.11880000e+01 7.81616400e-03 1.18400000e-01
      -11 -1    0    0    0    0 +0.0000000000e+00 +0.0000000000e+00 +4.5593999997e+01 4.5594000000e+01 5.1100000000e-04 0.0000e+00 1.0000e+00
       11 -1    0    0    0    0 -0.0000000000e+00 -0.0000000000e+00 -4.5593999997e+01 4.5594000000e+01 5.1100000000e-04 0.0000e+00 -1.0000e+00
       23  2    1    2    0    0 +0.0000000000e+00 +0.0000000000e+00 +0.0000000000e+00 9.1188000000e+01 9.1188000000e+01 1.3471e-13 0.0000e+00
  9900012  1    3    3    0    0 +7.8718218335e+00 -1.3014894609e+01 +1.0923649064e+01 7.2461570294e+01 7.0000000000e+01 1.0883e-04 1.0000e+00
       12  1    3    3    0    0 -7.8718218335e+00 +1.3014894609e+01 -1.0923649064e+01 1.8726429706e+01 0.0000000000e+00 0.0000e+00 -1.0000e+00
</event>
<event>
 5      5 +6.9480500e-03 9.11880000e+01 7.81616400e-03 1.18400000e-01
      -11 -1    0    0    0    0 +0.0000000000e+00 +0.0000000000e+00 +4.5593999997e+01 4.5594000000e+01 5.1100000000e-04 0.0000e+00 -1.0000e+00
       11 -1    0    0    0    0 -0.0000000000e+00 -0.0000000000e+00 -4.5593999997e+01 4.5594000000e+01 5.1100000000e-04 0.0000e+00 1.0000e+00
       23  2    1    2    0    0 +0.0000000000e+00 +0.0000000000e+00 +0.0000000000e+00 9.1188000000e+01 9.1188000000e+01 6.7845e-14 0.0000e+00
  9900012  1    3    3    0    0 +9.1599447122e+00 -8.6068280723e+00 -1.3881537844e+01 7.2461570294e+01 7.0000000000e+01 4.2191e-05 1.0000e+00
       12  1    3    3    0    0 -9.1599447122e+00 +8.6068280723e+00 +1.3881537844e+01 1.8726429706e+01 0.0000000000e+00 0.0000e+00 -1.0000e+00
</event>
<event>
 5      6 +6.9480500e-03 9.11880000e+01 7.81616400e-03 1.18400000e-01
      -11 -1    0    0    0    0 +0.0000000000e+00 +0.0000000000e+00 +4.5593999997e+01 4.5594000000e+01 5.1100000000e-04 0.0000e+00 1.0000e+00
       11 -1    0    0    0    0 -0.0000000000e+00 -0.0000000000e+00 -4.5593999997e+01 4.5594000000e+01 5.1100000000e-04 0.0000e+00 -1.0000e+00
       23  2    1    2    0    0 +0.0000000000e+00 +0.0000000000e+00 +0.0000000000e+00 9.1188000000e+01 9.1188000000e+01 7.3819e-14 0.0000e+00
  9900012  1    3    3    0    0 +6.4794287327e+00 -1.2067895316e+01 -1.2769576166e+01 7.2461570294e+01 7.0000000000e+01 1.1503e-04 -1.0000e+00
      -12  1    3    3    0    0 -6.4794287327e+00 +1.2067895316e+01 +1.2769576166e+01 1.8726429706e+01 0.0000000000e+00 0.0000e+00 1.0000e+00
</event>
<event>
 5      7 +6.9480500e-03 9.11880000e+01 7.81616400e-03 1.18400000e-01
      -11 -1    0    0    0    0 +0.0000000000e+00 +0.0000000000e+00 +4.5593999997e+01 4.5594000000e+01 5.1100000000e-04 0.0000e+00 -1.0000e+00
       11 -1    0    0    0    0 -0.0000000000e+00 -0.0000000000e+00 -4.5593999997e+01 4.5594000000e+01 5.1100000000e-04 0.0000e+00 1.0000e+00
       23  2    1    2    0    0 +0.0000000000e+00 +0.0000000000e+00 +0.0000000000e+00 9.1188000000e+01 9.1188000000e+01 4.2666e-14 0.0000e+00
  9900012  1    3    3    0    0 +3.7953462019e+00 +1.2454219046e+01 +1.3459827067e+01 7.2461570294e+01 7.0000000000e+01 1.5082e-04 -1.0000e+00
       12  1    3    3    0    0 -3.7953462019e+00 -1.2454219046e+01 -1.3459827067e+01 1.8726429706e+01 0.0000000000e+00 0.0000e+00 -1.0000e+00
</event>
<event>
 5      3 +6.9480500e-03 9.11880000e+01 7.81616400e-03 1.18400000e-01
      -11 -1    0    0    0    0 +0.0000000000e+00 +0.0000000000e+00 +4.5593999997e+01 4.5594000000e+01 5.1100000000e-04 0.0000e+00 1.0000e+00
       11 -1    0    0    0    0 -0.0000000000e+00 -0.0000000000e+00 -4.5593999997e+01 4.5594000000e+01 5.1100000000e-04 0.0000e+00 -1.0000e+00
       23  2    1    2    0    0 +0.0000000000e+00 +0.0000000000e+00 +0.0000000000e+00 9.1188000000e+01 9.1188000000e+01 1.3102e-14 0.0000e+00
  9900012  1    3    3    0    0 -1.2948880346e+01 +7.8395865388e+00 -1.1024815200e+01 7.2461570294e+01 7.0000000000e+01 5.8514e-05 1.0000e+00
       12  1    3    3    0    0 +1.2948880346e+01 -7.8395865388e+00 +1.1024815200e+01 1.8726429706e+01 0.0000000000e+00 0.0000e+00 -1.0000e+00
</event>
<event>
 5      7 +6.9480500e-03 9.11880000e+01 7.81616400e-03 1.18400000e-01
      -11 -1    0    0    0    0 +0.0000000000e+00 +0.0000000000e+00 +4.5593999997e+01 4.5594000000e+01 5.1100000000e-04 0.0000e+00 -1.0000e+00
       11 -1    0    0    0    0 -0.0000000000e+00 -0.0000000000e+00 -4.5593999997e+01 4.5594000000e+01 5.1100000000e-04 0.0000e+00 1.0000e+00
       23  2    1    2    0    0 +0.0000000000e+00 +0.0000000000e+00 +0.0000000000e+00 9.1188000000e+01 9.1188000000e+01 9.8848e-14 0.0000e+00
  9900012  1    3    3    0    0 +1.5590129083e+01 -1.0341780915e+01 -8.2134779645e-01 7.2461570294e+01 7.0000000000e+01 1.7772e-05 1.0000e+00
       12  1    3    3    0    0 -1.5590129083e+01 +1.0341780915e+01 +8.2134779645e-01 1.8726429706e+01 0.0000000000e+00 0.0000e+00 -1.0000e+00
</event>
<event>
 5      5 +6.9480500e-03 9.11880000e+01 7.81616400e-03 1.18400000e-01
      -11 -1    0    0    0    0 +0.0000000000e+00 +0.0000000000e+00 +4.5593999997e+01 4.5594000000e+01 5.1100000000e-04 0.0000e+00 -1.0000e+00
       11 -1    0    0    0    0 -0.0000000000e+00 -0.0000000000e+00 -4.5593999997e+01 4.5594000000e+01 5.1100000000e-04 0.0000e+00 1.0000e+00
       23  2    1    2    0    0 +0.0000000000e+00 +0.0000000000e+00 +0.0000000000e+00 9.1188000000e+01 9.1188000000e+01 1.5962e-14 0.0000e+00
  9900012  1    3    3    0    0 +2.2925361089e+00 -6.8920417205e+00 -1.7260452156e+01 7.2461570294e+01 7.0000000000e+01 9.1561e-05 1.0000e+00
       12  1    3    3    0    0 -2.2925361089e+00 +6.8920417205e+00 +1.7260452156e+01 1.8726429706e+01 0.0000000000e+00 0.0000e+00 -1.0000e+00
</event>
<event>
 5      2 +6.9480500e-03 9.11880000e+01 7.81616400e-03 1.18400000e-01
      -11 -1    0    0    0    0 +0.0000000000e+00 +0.0000000000e+00 +4.5593999997e+01 4.5594000000e+01 5.1100000000e-04 0.0000e+00 1.0000e+00
       11 -1    0    0    0    0 -0.0000000000e+00 -0.0000000000e+00 -4.5593999997e+01 4.5594000000e+01 5.1100000000e-04 0.0000e+00 -1.0000e+00
       23  2    1    2    0    0 +0.0000000000e+00 +0.0000000000e+00 +0.0000000000e+00 9.1188000000e+01 9.1188000000e+01 1.7707e-14 0.0000e+00
  9900012  1    3    3    0    0 -7.5290165937e+00 -1.4418313840e+01 -9.2792944058e+00 7.2461570294e+01 7.0000000000e+01 3.1279e-05 -1.0000e+00
      -12  1    3    3    0    0 +7.5290165937e+00 +1.4418313840e+01 +9.2792944058e+00 1.8726429706e+01 0.0000000000e+00 0.0000e+00 1.0000e+00
</event>
<event>
 5      8 +6.9480500e-03 9.11880000e+01 7.81616400e-03 1.18400000e-01
      -11 -1    0    0    0    0 +0.0000000000e+00 +0.0000000000e+00 +4.5593999997e+01 4.5594000000e+01 5.1100000000e-04 0.0000e+00 -1.0000e+00
       11 -1    0    0    0    0 -0.0000000000e+00 -0.0000000000e+00 -4.5593999997e+01 4.5594000000e+01 5.1100000000e-04 0.0000e+00 1.0000e+00
       23  2    1    2    0    0 +0.0000000000e+00 +0.0000000000e+00 +0.0000000000e+00 9.1188000000e+01 9.1188000000e+01 1.1225e-13 0.0000e+00
  9900012  1    3    3    0    0 +1.5419191249e+01 -1.0171635172e+01 +3.0766131824e+00 7.2461570294e+01 7.0000000000e+01 1.8970e-05 -1.0000e+00
      -12  1    3    3    0    0 -1.5419191249e+01 +1.0171635172e+01 -3.0766131824e+00 1.8726429706e+01 0.0000000000e+00 0.0000e+00 1.0000e+00
</event>
<event>
 5      1 +6.9480500e-03 9.11880000e+01 7.81616400e-03 1.18400000e-01
      -11 -1    0    0    0    0 +0.0000000000e+00 +0.0000000000e+00 +4.5593999997e+01 4.5594000000e+01 5.1100000000e-04 0.0000e+00 1.0000e+00
       11 -1    0    0    0    0 -0.0000000000e+00 -0.0000000000e+00 -4.5593999997e+01 4.5594000000e+01 5.1100000000e-04 0.0000e+00 -1.0000e+00
       23  2    1    2    0    0 +0.0000000000e+00 +0.0000000000e+00 +0.0000000000e+00 9.1188000000e+01 9.1188000000e+01 3.0139e-14 0.0000e+00
  9900012  1    3    3    0    0 -6.8228487986e+00 +1.2495899333e+01 +1.2164719629e+01 7.2461570294e+01 7.0000000000e+01 1.1755e-04 -1.0000e+00
       12  1    3    3    0    0 +6.8228487986e+00 -1.2495899333e+01 -1.2164719629e+01 1.8726429706e+01 0.0000000000e+00 0.0000e+00 -1.0000e+00
</event>
<event>
 5      6 +6.9480500e-03 9.11880000e+01 7.81616400e-03 1.18400000e-01
      -11 -1    0    0    0    0 +0.0000000000e+00 +0.0000000000e+00 +4.5593999997e+01 4.5594000000e+01 5.1100000000e-04 0.0000e+00 -1.0000e+00
       11 -1    0    0    0    0 -0.0000000000e+00 -0.0000000000e+00 -4.5593999997e+01 4.5594000000e+01 5.1100000000e-04 0.0000e+00 1.0000e+00
       23  2    1    2    0    0 +0.0000000000e+00 +0.0000000000e+00 +0.0000000000e+00 9.1188000000e+01 9.1188000000e+01 3.5630e-14 0.0000e+00
  9900012  1    3    3    0    0 -8.9213129172e+00 -1.3834709230e+01 +8.9269348531e+00 7.2461570294e+01 7.0000000000e+01 1.8023e-05 -1.0000e+00
      -12  1    3    3    0    0 +8.9213129172e+00 +1.3834709230e+01 -8.9269348531e+00 1.8726429706e+01 0.0000000000e+00 0.0000e+00 1.0000e+00
</event>
<event>
 5      8 +6.9480500e-03 9.11880000e+01 7.81616400e-03 1.18400000e-01
      -11 -1    0    0    0    0 +0.0000000000e+00 +0.0000000000e+00 +4.5593999997e+01 4.5594000000e+01 5.1100000000e-04 0.0000e+00 -1.0000e+00
       11 -1    0    0    0    0 -0.0000000000e+00 -0.0000000000e+00 -4.5593999997e+01 4.5594000000e+01 5.1100000000e-04 0.0000e+00 1.0000e+00
       23  2    1    2    0    0 +0.0000000000e+00 +0.0000000000e+00 +0.0000000000e+00 9.1188000000e+01 9.1188000000e+01 1.4157e-15 0.0000e+00
  9900012  1    3    3    0    0 -9.8540587994e+00 +7.0156495662e+00 +1.4295361341e+01 7.2461570294e+01 7.0000000000e+01 1.9067e-06 -1.0000e+00
      -12  1    3    3    0    0 +9.8540587994e+00 -7.0156495662e+00 -1.4295361341e+01 1.8726429706e+01 0.0000000000e+00 0.0000e+00 1.0000e+00
</event>
<event>
 5      1 +6.9480500e-03 9.11880000e+01 7.81616400e-03 1.18400000e-01
      -11 -1    0    0    0    0 +0.0000000000e+00 +0.0000000000e+00 +4.5593999997e+01 4.5594000000e+01 5.1100000000e-04 0.0000e+00 -1.0000e+00
       11 -1    0    0    0    0 -0.0000000000e+00 -0.0000000000e+00 -4.5593999997e+01 4.5594000000e+01 5.1100000000e-04 0.0000e+00 1.0000e+00
       23  2    1    2    0    0 +0.0000000000e+00 +0.0000000000e+00 +0.0000000000e+00 9.1188000000e+01 9.1188000000e+01 6.1628e-15 0.0000e+00
  9900012  1    3    3    0    0 +1.0297990800e+00 -1.1275892224e+01 -1.4915526740e+01 7.2461570294e+01 7.0000000000e+01 1.6364e-04 1.0000e+00
       12  1    3    3    0    0 -1.0297990800e+00 +1.1275892224e+01 +1.4915526740e+01 1.8726429706e+01 0.0000000000e+00 0.0000e+00 -1.0000e+00
</event>
<event>
 5      2 +6.9480500e-03 9.11880000e+01 7.81616400e-03 1.18400000e-01
      -11 -1    0    0    0    0 +0.0000000000e+00 +0.0000000000e+00 +4.5593999997e+01 4.5594000000e+01 5.1100000000e-04 0.0000e+00 1.0000e+00
       11 -1    0    0    0    0 -0.0000000000e+00 -0.0000000000e+00 -4.5593999997e+01 4.5594000000e+01 5.1100000000e-04 0.0000e+00 -1.0000e+00
       23  2    1    2    0    0 +0.0000000000e+00 +0.0000000000e+00 +0.0000000000e+00 9.1188000000e+01 9.1188000000e+01 8.0671e-14 0.0000e+00
  9900012  1    3    3    0    0 +7.8616213256e+00 -1.5922720265e+01 -5.9448346499e+00 7.2461570294e+01 7.0000000000e+01 2.3888e-04 1.0000e+00
      -12  1    3    3    0    0 -7.8616213256e+00 +1.5922720265e+01 +5.9448346499e+00 1.8726429706e+01 0.0000000000e+00 0.0000e+00 1.0000e+00
</event>
<event>
 5      3 +6.9480500e-03 9.11880000e+01 7.81616400e-03 1.18400000e-01
      -11 -1    0    0    0    0 +0.0000000000e+00 +0.0000000000e+00 +4.5593999997e+01 4.5594000000e+01 5.1100000000e-04 0.0000e+00 -1.0000e+00
       11 -1    0    0    0    0 -0.0000000000e+00 -0.0000000000e+00 -4.5593999997e+01 4.5594000000e+01 5.1100000000e-04 0.0000e+00 1.0000e+00
       23  2    1    2    0    0 +0.0000000000e+00 +0.0000000000e+00 +0.0000000000e+00 9.1188000000e+01 9.1188000000e+01 1.7339e-14 0.0000e+00
  9900012  1    3    3    0    0 -4.0279400873e+00 -1.8156837603e+01 -2.1872623115e+00 7.2461570294e+01 7.0000000000e+01 4.2940e-05 1.0000e+00
       12  1    3    3    0    0 +4.0279400873e+00 +1.8156837603e+01 +2.1872623115e+00 1.8726429706e+01 0.0000000000e+00 0.0000e+00 -1.0000e+00
</event>
<event>
 5      4 +6.9480500e-03 9.11880000e+01 7.81616400e-03 1.18400000e-01
      -11 -1    0    0    0    0 +0.0000000000e+00 +0.0000000000e+00 +4.5593999997e+01 4.5594000000e+01 5.1100000000e-04 0.0000e+00 -1.0000e+00
       11 -1    0    0    0    0 -0.0000000000e+00 -0.0000000000e+00 -4.5593999997e+01 4.5594000000e+01 5.1100000000e-04 0.0000e+00 1.0000e+00
       23  2    1    2    0    0 +0.0000000000e+00 +0.0000000000e+00 +0.0000000000e+00 9.1188000000e+01 9.1188000000e+01 3.9441e-13 0.0000e+00
  9900012  1    3    3    0    0 +3.8096425807e+00 +1.1376887655e+01 +1.4378185567e+01 7.2461570294e+01 7.0000000000e+01 2.0085e-05 -1.0000e+00
      -12  1    3    3    0    0 -3.8096425807e+00 -1.1376887655e+01 -1.4378185567e+01 1.8726429706e+01 0.0000000000e+00 0.0000e+00 1.0000e+00
</event>
<event>
 5      4 +6.9480500e-03 9.11880000e+01 7.81616400e-03 1.18400000e-01
      -11 -1    0    0    0    0 +0.0000000000e+00 +0.0000000000e+00 +4.5593999997e+01 4.5594000000e+01 5.1100000000e-04 0.0000e+00 -1.0000e+00
       11 -1    0    0    0    0 -0.0000000000e+00 -0.0000000000e+00 -4.5593999997e+01 4.5594000000e+01 5.1100000000e-04 0.0000e+00 1.0000e+00
       23  2    1    2    0    0 +0.0000000000e+00 +0.0000000000e+00 +0.0000000000e+00 9.1188000000e+01 9.1188000000e+01 6.2043e-14 0.0000e+00
  9900012  1    3    3    0    0 -9.6798881047e-01 -8.7194324888e+00 +1.6544294009e+01 7.2461570294e+01 7.0000000000e+01 1.5678e-04 -1.0000e+00
      -12  1    3    3    0    0 +9.6798881047e-01 +8.7194324888e+00 -1.6544294009e+01 1.8726429706e+01 0.0000000000e+00 0.0000e+00 1.0000e+00
</event>
<event>
 5      2 +6.9480500e-03 9.11880000e+01 7.81616400e-03 1.18400000e-01
      -11 -1    0    0    0    0 +0.0000000000e+00 +0.0000000000e+00 +4.5593999997e+01 4.5594000000e+01 5.1100000000e-04 0.0000e+00 -1.0000e+00
       11 -1    0    0    0    0 -0.0000000000e+00 -0.0000000000e+00 -4.5593999997e+01 4.5594000000e+01 5.1100000000e-04 0.0000e+00 1.0000e+00
       23  2    1    2    0    0 +0.0000000000e+00 +0.0000000000e+00 +0.0000000000e+00 9.1188000000e+01 9.1188000000e+01 1.1828e-13 0.0000e+00
  9900012  1    3    3    0    0 -5.3182751590e-01 -9.6503908785e+00 +1.6039522590e+01 7.2461570294e+01 7.0000000000e+01 1.1059e-05 -1.0000e+00
      -12  1    3    3    0    0 +5.3182751590e-01 +9.6503908785e+00 -1.6039522590e+01 1.8726429706e+01 0.0000000000e+00 0.0000e+00 1.0000e+00
</event>
<event>
 5      4 +6.9480500e-03 9.11880000e+01 7.81616400e-03 1.18400000e-01
      -11 -1    0    0    0    0 +0.0000000000e+00 +0.0000000000e+00 +4.5593999997e+01 4.5594000000e+01 5.1100000000e-04 0.0000e+00 1.0000e+00
       11 -1    0    0    0    0 -0.0000000000e+00 -0.0000000000e+00 -4.5593999997e+01 4.5594000000e+01 5.1100000000e-04 0.0000e+00 -1.0000e+00
       23  2    1    2    0    0 +0.0000000000e+00 +0.0000000000e+00 +0.0000000000e+00 9.1188000000e+01 9.1188000000e+01 4.8520e-15 0.0000e+00
  9900012  1    3    3    0    0 -2.2829047393e+00 -9.0875924011e+00 -1.6213672620e+01 7.2461570294e+01 7.0000000000e+01 2.2486e-05 1.0000e+00
      -12  1    3    3    0    0 +2.2829047393e+00 +9.0875924011e+00 +1.6213672620e+01 1.8726429706e+01 0.0000000000e+00 0.0000e+00 1.0000e+00
</event>
<event>
 5      1 +6.9480500e-03 9.11880000e+01 7.81616400e-03 1.18400000e-01
      -11 -1    0    0    0    0 +0.0000000000e+00 +0.0000000000e+00 +4.5593999997e+01 4.5594000000e+01 5.1100000000e-04 0.0000e+00 -1.0000e+00
       11 -1    0    0    0    0 -0.0000000000e+00 -0.0000000000e+00 -4.5593999997e+01 4.5594000000e+01 5.1100000000e-04 0.0000e+00 1.0000e+00
       23  2    1    2    0    0 +0.0000000000e+00 +0.0000000000e+00 +0.0000000000e+00 9.1188000000e+01 9.1188000000e+01 7.8873e-14 0.0000e+00
  9900012  1    3    3    0    0 -1.4402574311e+01 +6.1851475192e+00 -1.0246412685e+01 7.2461570294e+01 7.0000000000e+01 5.5673e-05 -1.0000e+00
       12  1    3    3    0    0 +1.4402574311e+01 -6.1851475192e+00 +1.0246412685e+01 1.8726429706e+01 0.0000000000e+00 0.0000e+00 -1.0000e+00
</event>
<event>
 5      2 +6.9480500e-03 9.11880000e+01 7.81616400e-03 1.18400000e-01
      -11 -1    0    0    0    0 +0.0000000000e+00 +0.0000000000e+00 +4.5593999997e+01 4.5594000000e+01 5.1100000000e-04 0.0000e+00 1.0000e+00
       11 -1    0    0    0    0 -0.0000000000e+00 -0.0000000000e+00 -4.5593999997e+01 4.5594000000e+01 5.1100000000e-04 0.0000e+00 -1.0000e+00
       23  2    1    2    0    0 +0.0000000000e+00 +0.0000000000e+00 +0.0000000000e+00 9.1188000000e+01 9.1188000000e+01 4.7662e-14 0.0000e+00
  9900012  1    3    3    0    0 +1.5819963829e+01 +7.3269326185e+00 -6.8354935723e+00 7.2461570294e+01 7.0000000000e+01 3.4349e-04 1.0000e+00
      -12  1    3    3    0    0 -1.5819963829e+01 -7.3269326185e+00 +6.8354935723e+00 1.8726429706e+01 0.0000000000e+00 0.0000e+00 1.0000e+00
</event>
<event>
 5      3 +6.9480500e-03 9.11880000e+01 7.81616400e-03 1.18400000e-01
      -11 -1    0    0    0    0 +0.0000000000e+00 +0.0000000000e+00 +4.5593999997e+01 4.5594000000e+01 5.1100000000e-04 0.0000e+00 1.0000e+00
       11 -1    0    0    0    0 -0.0000000000e+00 -0.0000000000e+00 -4.5593999997e+01 4.5594000000e+01 5.1100000000e-04 0.0000e+00 -1.0000e+00
       23  2    1    2    0    0 +0.0000000000e+00 +0.0000000000e+00 +0.0000000000e+00 9.1188000000e+01 9.1188000000e+01 5.3998e-14 0.0000e+00
  9900012  1    3    3    0    0 +6.9432300108e+00 -1.3138226028e+01 -1.1395514178e+01 7.2461570294e+01 7.0000000000e+01 3.0286e-05 -1.0000e+00
       12  1    3    3    0    0 -6.9432300108e+00 +1.3138226028e+01 +1.1395514178e+01 1.8726429706e+01 0.0000000000e+00 0.0000e+00 -1.0000e+00
</event>
<event>
 5      8 +6.9480500e-03 9.11880000e+01 7.81616400e-03 1.18400000e-01
      -11 -1    0    0    0    0 +0.0000000000e+00 +0.0000000000e+00 +4.5593999997e+01 4.5594000000e+01 5.1100000000e-04 0.0000e+00 1.0000e+00
       11 -1    0    0    0    0 -0.0000000000e+00 -0.0000000000e+00 -4.5593999997e+01 4.5594000000e+01 5.1100000000e-04 0.0000e+00 -1.0000e+00
       23  2    1    2    0    0 +0.0000000000e+00 +0.0000000000e+00 +0.0000000000e+00 9.1188000000e+01 9.1188000000e+01 5.8753e-14 0.0000e+00
  9900012  1    3    3    0    0 +8.1706222200e-01 -1.1914985178e+01 -1.4423754957e+01 7.2461570294e+01 7.0000000000e+01 2.1632e-04 -1.0000e+00
      -12  1    3    3    0    0 -8.1706222200e-01 +1.1914985178e+01 +1.4423754957e+01 1.8726429706e+01 0.0000000000e+00 0.0000e+00 1.0000e+00
</event>
<event>
 5      6 +6.9480500e-03 9.11880000e+01 7.81616400e-03 1.18400000e-01
      -11 -1    0    0    0    0 +0.0000000000e+00 +0.0000000000e+00 +4.5593999997e+01 4.5594000000e+01 5.1100000000e-04 0.0000e+00 1.0000e+00
       11 -1    0    0    0    0 -0.0000000000e+00 -0.0000000000e+00 -4.5593999997e+01 4.5594000000e+01 5.1100000000e-04 0.0000e+00 -1.0000e+00
       23  2    1    2    0    0 +0.0000000000e+00 +0.0000000000e+00 +0.0000000000e+00 9.1188000000e+01 9.1188000000e+01 9.7181e-14 0.0000e+00
  9900012  1    3    3    0    0 -6.9973877216e+00 -1.6083046077e+01 -6.5613537829e+00 7.2461570294e+01 7.0000000000e+01 1.2816e-04 -1.0000e+00
      -12  1    3    3    0    0 +6.9973877216e+00 +1.6083046077e+01 +6.5613537829e+00 1.8726429706e+01 0.0000000000e+00 0.0000e+00 1.0000e+00
</event>
<event>
 5      5 +6.9480500e-03 9.11880000e+01 7.81616400e-03 1.18400000e-01
      -11 -1    0    0    0    0 +0.0000000000e+00 +0.0000000000e+00 +4.5593999997e+01 4.5594000000e+01 5.1100000000e-04 0.0000e+00 -1.0000e+00
       11 -1    0    0    0    0 -0.0000000000e+00 -0.0000000000e+00 -4.5593999997e+01 4.5594000000e+01 5.1100000000e-04 0.0000e+00 1.0000e+00
       23  2    1    2    0    0 +0.0000000000e+00 +0.0000000000e+00 +0.0000000000e+00 9.1188000000e+01 9.1188000000e+01 2.0459e-13 0.0000e+00
  9900012  1    3    3    0    0 +1.4068497881e+01 +1.1787466142e+01 +3.7164739807e+00 7.2461570294e+01 7.0000000000e+01 2.4883e-05 -1.0000e+00
       12  1    3    3    0    0 -1.4068497881e+01 -1.1787466142e+01 -3.7164739807e+00 1.8726429706e+01 0.0000000000e+00 0.0000e+00 -1.0000e+00
</event>
<event>
 5      5 +6.9480500e-03 9.11880000e+01 7.81616400e-03 1.18400000e-01
      -11 -1    0    0    0    0 +0.0000000000e+00 +0.0000000000e+00 +4.5593999997e+01 4.5594000000e+01 5.1100000000e-04 0.0000e+00 1.0000e+00
       11 -1    0    0    0    0 -0.0000000000e+00 -0.0000000000e+00 -4.5593999997e+01 4.5594000000e+01 5.1100000000e-04 0.0000e+00 -1.0000e+00
       23  2    1    2    0    0 +0.0000000000e+00 +0.0000000000e+00 +0.0000000000e+00 9.1188000000e+01 9.1188000000e+01 9.6394e-15 0.0000e+00
  9900012  1    3    3    0    0 -3.2322002190e+00 -1.6510501277e+01 +8.2240743460e+00 7.2461570294e+01 7.0000000000e+01 2.7175e-04 -1.0000e+00
       12  1    3    3    0    0 +3.2322002190e+00 +1.6510501277e+01 -8.2240743460e+00 1.8726429706e+01 0.0000000000e+00 0.0000e+00 -1.0000e+00
</event>
<event>
 5      6 +6.9480500e-03 9.11880000e+01 7.81616400e-03 1.18400000e-01
      -11 -1    0    0    0    0 +0.0000000000e+00 +0.0000000000e+00 +4.5593999997e+01 4.5594000000e+01 5.1100000000e-04 0.0000e+00 -1.0000e+00
       11 -1    0    0    0    0 -0.0000000000e+00 -0.0000000000e+00 -4.5593999997e+01 4.5594000000e+01 5.1100000000e-04 0.0000e+00 1.0000e+00
       23  2    1    2    0    0 +0.0000000000e+00 +0.0000000000e+00 +0.0000000000e+00 9.1188000000e+01 9.1188000000e+01 2.4210e-13 0.0000e+00
  9900012  1    3    3    0    0 -4.0006803660e+00 +1.8292337170e+01 +2.5323305718e-01 7.2461570294e+01 7.0000000000e+01 1.0147e-04 -1.0000e+00
      -12  1    3    3    0    0 +4.0006803660e+00 -1.8292337170e+01 -2.5323305718e-01 1.8726429706e+01 0.0000000000e+00 0.0000e+00 1.0000e+00
</event>
<event>
 5      1 +6.9480500e-03 9.11880000e+01 7.81616400e-03 1.18400000e-01
      -11 -1    0    0    0    0 +0.0000000000e+00 +0.0000000000e+00 +4.5593999997e+01 4.5594000000e+01 5.1100000000e-04 0.0000e+00 1.0000e+00
       11 -1    0    0    0    0 -0.0000000000e+00 -0.0000000000e+00 -4.5593999997e+01 4.5594000000e+01 5.1100000000e-04 0.0000e+00 -1.0000e+00
       23  2    1    2    0    0 +0.0000000000e+00 +0.0000000000e+00 +0.0000000000e+00 9.1188000000e+01 9.1188000000e+01 4.0728e-15 0.0000e+00
  9900012  1    3    3    0    0 -1.3389973003e+01 -1.1778864291e+01 +5.7136808186e+00 7.2461570294e+01 7.0000000000e+01 2.9388e-04 1.0000e+00
       12  1    3    3    0    0 +1.3389973003e+01 +1.1778864291e+01 -5.7136808186e+00 1.8726429706e+01 0.0000000000e+00 0.0000e+00 -1.0000e+00
</event>
<event>
 5      6 +6.9480500e-03 9.11880000e+01 7.81616400e-03 1.18400000e-01
      -11 -1    0    0    0    0 +0.0000000000e+00 +0.0000000000e+00 +4.5593999997e+01 4.5594000000e+01 5.1100000000e-04 0.0000e+00 1.0000e+00
       11 -1    0    0    0    0 -0.0000000000e+00 -0.0000000000e+00 -4.5593999997e+01 4.5594000000e+01 5.1100000000e-04 0.0000e+00 -1.0000e+00
       23  2    1    2    0    0 +0.0000000000e+00 +0.0000000000e+00 +0.0000000000e+00 9.1188000000e+01 9.1188000000e+01 1.7070e-14 0.0000e+00
  9900012  1    3    3    0    0 +5.7214953906e+00 +1.2779380195e+01 +1.2435075466e+01 7.2461570294e+01 7.0000000000e+01 1.1174e-04 -1.0000e+00
      -12  1    3    3    0    0 -5.7214953906e+00 -1.2779380195e+01 -1.2435075466e+01 1.8726429706e+01 0.0000000000e+00 0.0000e+00 1.0000e+00
</event>
<event>
 5      4 +6.9480500e-03 9.11880000e+01 7.81616400e-03 1.18400000e-01
      -11 -1    0    0    0    0 +0.0000000000e+00 +0.0000000000e+00 +4.5593999997e+01 4.5594000000e+01 5.1100000000e-04 0.0000e+00 1.0000e+00
       11 -1    0    0    0    0 -0.0000000000e+00 -0.0000000000e+00 -4.5593999997e+01 4.5594000000e+01 5.1100000000e-04 0.0000e+00 -1.0000e+00
       23  2    1    2    0    0 +0.0000000000e+00 +0.0000000000e+00 +0.0000000000e+00 9.1188000000e+01 9.1188000000e+01 4.6862e-14 0.0000e+00
  9900012  1    3    3    0    0 +1.9326530960e-01 -1.7545044575e+01 -6.5431818648e+00 7.2461570294e+01 7.0000000000e+01 2.6096e-04 -1.0000e+00
      -12  1    3    3    0    0 -1.9326530960e-01 +1.7545044575e+01 +6.5431818648e+00 1.8726429706e+01 0.0000000000e+00 0.0000e+00 1.0000e+00
</event>
<event>
 5      6 +6.9480500e-03 9.11880000e+01 7.81616400e-03 1.18400000e-01
      -11 -1    0    0    0    0 +0.0000000000e+00 +0.0000000000e+00 +4.5593999997e+01 4.5594000000e+01 5.1100000000e-04 0.0000e+00 -1.0000e+00
       11 -1    0    0    0    0 -0.0000000000e+00 -0.0000000000e+00 -4.5593999997e+01 4.5594000000e+01 5.1100000000e-04 0.0000e+00 1.0000e+00
       23  2    1    2    0    0 +0.0000000000e+00 +0.0000000000e+00 +0.0000000000e+00 9.1188000000e+01 9.1188000000e+01 3.5834e-13 0.0000e+00
  9900012  1    3    3    0    0 -1.3961163662e+01 +1.2227607221e+01 +2.5001400699e+00 7.2461570294e+01 7.0000000000e+01 2.1679e-05 -1.0000e+00
      -12  1    3    3    0    0 +1.3961163662e+01 -1.2227607221e+01 -2.5001400699e+00 1.8726429706e+01 0.0000000000e+00 0.0000e+00 1.0000e+00
</event>
<event>
 5      3 +6.9480500e-03 9.11880000e+01 7.81616400e-03 1.18400000e-01
      -11 -1    0    0    0    0 +0.0000000000e+00 +0.0000000000e+00 +4.5593999997e+01 4.5594000000e+01 5.1100000000e-04 0.0000e+00 1.0000e+00
       11 -1    0    0    0    0 -0.0000000000e+00 -0.0000000000e+00 -4.5593999997e+01 4.5594000000e+01 5.1100000000e-04 0.0000e+00 -1.0000e+00
       23  2    1    2    0    0 +0.0000000000e+00 +0.0000000000e+00 +0.0000000000e+00 9.1188000000e+01 9.1188000000e+01 2.7191e-13 0.0000e+00
  9900012  1    3    3    0    0 +5.4486325232e+00 -1.6381826704e+01 -7.2544694486e+00 7.2461570294e+01 7.0000000000e+01 7.6962e-05 1.0000e+00
       12  1    3    3    0    0 -5.4486325232e+00 +1.6381826704e+01 +7.2544694486e+00 1.8726429706e+01 0.0000000000e+00 0.0000e+00 -1.0000e+00
</event>
<event>
 5      4 +6.9480500e-03 9.11880000e+01 7.81616400e-03 1.18400000e-01
      -11 -1    0    0    0    0 +0.0000000000e+00 +0.0000000000e+00 +4.5593999997e+01 4.5594000000e+01 5.1100000000e-04 0.0000e+00 -1.0000e+00
       11 -1    0    0    0    0 -0.0000000000e+00 -0.0000000000e+00 -4.5593999997e+01 4.5594000000e+01 5.1100000000e-04 0.0000e+00 1.0000e+00
       23  2    1    2    0    0 +0.0000000000e+00 +0.0000000000e+00 +0.0000000000e+00 9.1188000000e+01 9.1188000000e+01 2.6491e-15 0.0000e+00
  9900012  1    3    3    0    0 -6.8060304811e+00 -1.1905103327e+01 +1.2752475579e+01 7.2461570294e+01 7.0000000000e+01 1.8256e-06 -1.0000e+00
      -12  1    3    3    0    0 +6.8060304811e+00 +1.1905103327e+01 -1.2752475579e+01 1.8726429706e+01 0.0000000000e+00 0.0000e+00 1.0000e+00
</event>
<event>
 5      5 +6.9480500e-03 9.11880000e+01 7.81616400e-03 1.18400000e-01
      -11 -1    0    0    0    0 +0.0000000000e+00 +0.0000000000e+00 +4.5593999997e+01 4.5594000000e+01 5.1100000000e-04 0.0000e+00 1.0000e+00
       11 -1    0    0    0    0 -0.0000000000e+00 -0.0000000000e+00 -4.5593999997e+01 4.5594000000e+01 5.1100000000e-04 0.0000e+00 -1.0000e+00
       23  2    1    2    0    0 +0.0000000000e+00 +0.0000000000e+00 +0.0000000000e+00 9.1188000000e+01 9.1188000000e+01 2.5077e-14 0.0000e+00
  9900012  1    3    3    0    0 -6.9849908295e+00 -7.9294866202e+00 +1.5460023110e+01 7.2461570294e+01 7.0000000000e+01 1.0246e-04 1.0000e+00
       12  1    3    3    0    0 +6.9849908295e+00 +7.9294866202e+00 -1.5460023110e+01 1.8726429706e+01 0.0000000000e+00 0.0000e+00 -1.0000e+00
</event>
<event>
 5      7 +6.9480500e-03 9.11880000e+01 7.81616400e-03 1.18400000e-01
      -11 -1    0    0    0    0 +0.0000000000e+00 +0.0000000000e+00 +4.5593999997e+01 4.5594000000e+01 5.1100000000e-04 0.0000e+00 1.0000e+00
       11 -1    0    0    0    0 -0.0000000000e+00 -0.0000000000e+00 -4.5593999997e+01 4.5594000000e+01 5.1100000000e-04 0.0000e+00 -1.0000e+00
       23  2    1    2    0    0 +0.0000000000e+00 +0.0000000000e+00 +0.0000000000e+00 9.1188000000e+01 9.1188000000e+01 1.0227e-14 0.0000e+00
  9900012  1    3    3    0    0 +6.0307044519e+00 -1.4276130829e+01 +1.0511986582e+01 7.2461570294e+01 7.0000000000e+01 1.1829e-04 1.0000e+00
       12  1    3    3    0    0 -6.0307044519e+00 +1.4276130829e+01 -1.0511986582e+01 1.8726429706e+01 0.0000000000e+00 0.0000e+00 -1.0000e+00
</event>
<event>
 5      3 +6.9480500e-03 9.11880000e+01 7.81616400e-03 1.18400000e-01
      -11 -1    0    0    0    0 +0.0000000000e+00 +0.0000000000e+00 +4.5593999997e+01 4.5594000000e+01 5.1100000000e-04 0.0000e+00 1.0000e+00
       11 -1    0    0    0    0 -0.0000000000e+00 -0.0000000000e+00 -4.5593999997e+01 4.5594000000e+01 5.1100000000e-04 0.0000e+00 -1.0000e+00
       23  2    1    2    0    0 +0.0000000000e+00 +0.0000000000e+00 +0.0000000000e+00 9.1188000000e+01 9.1188000000e+01 1.2936e-13 0.0000e+00
  9900012  1    3    3    0    0 +7.0292724199e+00 +1.1858295641e+01 +1.2674751409e+01 7.2461570294e+01 7.0000000000e+01 1.3704e-05 1.0000e+00
       12  1    3    3    0    0 -7.0292724199e+00 -1.1858295641e+01 -1.2674751409e+01 1.8726429706e+01 0.0000000000e+00 0.0000e+00 -1.0000e+00
</event>
<event>
 5      3 +6.9480500e-03 9.11880000e+01 7.81616400e-03 1.18400000e-01
      -11 -1    0    0    0    0 +0.0000000000e+00 +0.0000000000e+00 +4.5593999997e+01 4.5594000000e+01 5.1100000000e-04 0.0000e+00 1.0000e+00
       11 -1    0    0    0    0 -0.0000000000e+00 -0.0000000000e+00 -4.5593999997e+01 4.5594000000e+01 5.1100000000e-04 0.0000e+00 -1.0000e+00
       23  2    1    2    0    0 +0.0000000000e+00 +0.0000000000e+00 +0.0000000000e+00 9.1188000000e+01 9.1188000000e+01 3.8921e-14 0.0000e+00
  9900012  1    3    3    0    0 -1.4378411045e+01 +3.1463407869e+00 -1.1577607913e+01 7.2461570294e+01 7.0000000000e+01 7.3366e-05 -1.0000e+00
       12  1    3    3    0    0 +1.4378411045e+01 -3.1463407869e+00 +1.1577607913e+01 1.8726429706e+01 0.0000000000e+00 0.0000e+00 -1.0000e+00
</event>
<event>
 5      8 +6.9480500e-03 9.11880000e+01 7.81616400e-03 1.18400000e-01
      -11 -1    0    0    0    0 +0.0000000000e+00 +0.0000000000e+00 +4.5593999997e+01 4.5594000000e+01 5.1100000000e-04 0.0000e+00 -1.0000e+00
       11 -1    0    0    0    0 -0.0000000000e+00 -0.0000000000e+00 -4.5593999997e+01 4.5594000000e+01 5.1100000000e-04 0.0000e+00 1.0000e+00
       23  2    1    2    0    0 +0.0000000000e+00 +0.0000000000e+00 +0.0000000000e+00 9.1188000000e+01 9.1188000000e+01 2.4243e-13 0.0000e+00
  9900012  1    3    3    0    0 +1.3706266613e+00 -7.7777041071e+00 +1.6979631059e+01 7.2461570294e+01 7.0000000000e+01 2.5102e-04 -1.0000e+00
      -12  1    3    3    0    0 -1.3706266613e+00 +7.7777041071e+00 -1.6979631059e+01 1.8726429706e+01 0.0000000000e+00 0.0000e+00 1.0000e+00
</event>
<event>
 5      1 +6.9480500e-03 9.11880000e+01 7.81616400e-03 1.18400000e-01
      -11 -1    0    0    0    0 +0.0000000000e+00 +0.0000000000e+00 +4.5593999997e+01 4.5594000000e+01 5.1100000000e-04 0.0000e+00 -1.0000e+00
       11 -1    0    0    0    0 -0.0000000000e+00 -0.0000000000e+00 -4.5593999997e+01 4.5594000000e+01 5.1100000000e-04 0.0000e+00 1.0000e+00
       23  2    1    2    0    0 +0.0000000000e+00 +0.0000000000e+00 +0.0000000000e+00 9.1188000000e+01 9.1188000000e+01 4.7809e-15 0.0000e+00
  9900012  1    3    3    0    0 +3.9956455547e+00 +1.1148798017e+00 -1.8261189149e+01 7.2461570294e+01 7.0000000000e+01 1.2012e-05 1.0000e+00
       12  1    3    3    0    0 -3.9956455547e+00 -1.1148798017e+00 +1.8261189149e+01 1.8726429706e+01 0.0000000000e+00 0.0000e+00 -1.0000e+00
</event>
<event>
 5      3 +6.9480500e-03 9.11880000e+01 7.81616400e-03 1.18400000e-01
      -11 -1    0    0    0    0 +0.0000000000e+00 +0.0000000000e+00 +4.5593999997e+01 4.5594000000e+01 5.1100000000e-04 0.0000e+00 1.0000e+00
       11 -1    0    0    0    0 -0.0000000000e+00 -0.0000000000e+00 -4.5593999997e+01 4.5594000000e+01 5.1100000000e-04 0.0000e+00 -1.0000e+00
       23  2    1    2    0    0 +0.0000000000e+00 +0.0000000000e+00 +0.0000000000e+00 9.1188000000e+01 9.1188000000e+01 2.8869e-14 0.0000e+00
  9900012  1    3    3    0    0 -1.2695800857e+01 -1.2223845581e+01 -6.3303561765e+00 7.2461570294e+01 7.0000000000e+01 1.4354e-05 -1.0000e+00
       12  1    3    3    0    0 +1.2695800857e+01 +1.2223845581e+01 +6.3303561765e+00 1.8726429706e+01 0.0000000000e+00 0.0000e+00 -1.0000e+00
</event>
<event>
 5      7 +6.9480500e-03 9.11880000e+01 7.81616400e-03 1.18400000e-01
      -11 -1    0    0    0    0 +0.0000000000e+00 +0.0000000000e+00 +4.5593999997e+01 4.5594000000e+01 5.1100000000e-04 0.0000e+00 -1.0000e+00
       11 -1    0    0    0    0 -0.0000000000e+00 -0.0000000000e+00 -4.5593999997e+01 4.5594000000e+01 5.1100000000e-04 0.0000e+00 1.0000e+00
       23  2    1    2    0    0 +0.0000000000e+00 +0.0000000000e+00 +0.0000000000e+00 9.1188000000e+01 9.1188000000e+01 2.0189e-14 0.0000e+00
  9900012  1    3    3    0    0 -1.3756995601e+01 +9.1638084515e+00 -8.8005031800e+00 7.2461570294e+01 7.0000000000e+01 1.9727e-04 1.0000e+00
       12  1    3    3    0    0 +1.3756995601e+01 -9.1638084515e+00 +8.8005031800e+00 1.8726429706e+01 0.0000000000e+00 0.0000e+00 -1.0000e+00
</event>
<event>
 5      3 +6.9480500e-03 9.11880000e+01 7.81616400e-03 1.18400000e-01
      -11 -1    0    0    0    0 +0.0000000000e+00 +0.0000000000e+00 +4.5593999997e+01 4.5594000000e+01 5.1100000000e-04 0.0000e+00 1.0000e+00
       11 -1    0    0    0    0 -0.0000000000e+00 -0.0000000000e+00 -4.5593999997e+01 4.5594000000e+01 5.1100000000e-04 0.0000e+00 -1.0000e+00
       23  2    1    2    0    0 +0.0000000000e+00 +0.0000000000e+00 +0.0000000000e+00 9.1188000000e+01 9.1188000000e+01 1.2152e-14 0.0000e+00
  9900012  1    3    3    0    0 -1.1865162405e+01 -1.0321281382e+01 +1.0167017324e+01 7.2461570294e+01 7.0000000000e+01 9.7644e-06 1.0000e+00
       12  1    3    3    0    0 +1.1865162405e+01 +1.0321281382e+01 -1.0167017324e+01 1.8726429706e+01 0.0000000000e+00 0.0000e+00 -1.0000e+00
</event>
<event>
 5      4 +6.9480500e-03 9.11880000e+01 7.81616400e-03 1.18400000e-01
      -11 -1    0    0    0    0 +0.0000000000e+00 +0.0000000000e+00 +4.5593999997e+01 4.5594000000e+01 5.1100000000e-04 0.0000e+00 1.0000e+00
       11 -1    0    0    0    0 -0.0000000000e+00 -0.0000000000e+00 -4.5593999997e+01 4.5594000000e+01 5.1100000000e-04 0.0000e+00 -1.0000e+00
       23  2    1    2    0    0 +0.0000000000e+00 +0.0000000000e+00 +0.0000000000e+00 9.1188000000e+01 9.1188000000e+01 1.8594e-14 0.0000e+00
  9900012  1    3    3    0    0 -1.1909059063e+00 -8.7145995637e+00 -1.6532291647e+01 7.2461570294e+01 7.0000000000e+01 3.1754e-04 -1.0000e+00
      -12  1    3    3    0    0 +1.1909059063e+00 +8.7145995637e+00 +1.6532291647e+01 1.8726429706e+01 0.0000000000e+00 0.0000e+00 1.0000e+00
</event>
<event>
 5      8 +6.9480500e-03 9.11880000e+01 7.81616400e-03 1.18400000e-01
      -11 -1    0    0    0    0 +0.0000000000e+00 +0.0000000000e+00 +4.5593999997e+01 4.5594000000e+01 5.1100000000e-04 0.0000e+00 1.0000e+00
       11 -1    0    0    0    0 -0.0000000000e+00 -0.0000000000e+00 -4.5593999997e+01 4.5594000000e+01 5.1100000000e-04 0.0000e+00 -1.0000e+00
       23  2    1    2    0    0 +0.0000000000e+00 +0.0000000000e+00 +0.0000000000e+00 9.1188000000e+01 9.1188000000e+01 7.8479e-15 0.0000e+00
  9900012  1    3    3    0    0 +1.4836509743e+00 -1.1781702629e+01 -1.4479966591e+01 7.2461570294e+01 7.0000000000e+01 2.5570e-04 -1.0000e+00
      -12  1    3    3    0    0 -1.4836509743e+00 +1.1781702629e+01 +1.4479966591e+01 1.8726429706e+01 0.0000000000e+00 0.0000e+00 1.0000e+00
</event>
<event>
 5      3 +6.9480500e-03 9.11880000e+01 7.81616400e-03 1.18400000e-01
      -11 -1    0    0    0    0 +0.0000000000e+00 +0.0000000000e+00 +4.5593999997e+01 4.5594000000e+01 5.1100000000e-04 0.0000e+00 1.0000e+00
       11 -1    0    0    0    0 -0.0000000000e+00 -0.0000000000e+00 -4.5593999997e+01 4.5594000000e+01 5.1100000000e-04 0.0000e+00 -1.0000e+00
       23  2    1    2    0    0 +0.0000000000e+00 +0.0000000000e+00 +0.0000000000e+00 9.1188000000e+01 9.1188000000e+01 3.0621e-14 0.0000e+00
  9900012  1    3    3    0    0 +7.7685123832e+00 +9.5941750925e+00 -1.4081235357e+01 7.2461570294e+01 7.0000000000e+01 2.3952e-05 1.0000e+00
       12  1    3    3    0    0 -7.7685123832e+00 -9.5941750925e+00 +1.4081235357e+01 1.8726429706e+01 0.0000000000e+00 0.0000e+00 -1.0000e+00
</event>
<event>
 5      8 +6.9480500e-03 9.11880000e+01 7.81616400e-03 1.18400000e-01
      -11 -1    0    0    0    0 +0.0000000000e+00 +0.0000000000e+00 +4.5593999997e+01 4.5594000000e+01 5.1100000000e-04 0.0000e+00 1.0000e+00
       11 -1    0    0    0    0 -0.0000000000e+00 -0.0000000000e+00 -4.5593999997e+01 4.5594000000e+01 5.1100000000e-04 0.0000e+00 -1.0000e+00
       23  2    1    2    0    0 +0.0000000000e+00 +0.0000000000e+00 +0.0000000000e+00 9.1188000000e+01 9.1188000000e+01 6.5381e-14 0.0000e+00
  9900012  1    3    3    0    0 -8.4199816007e-01 -5.7910548538e+00 -1.7788588823e+01 7.2461570294e+01 7.0000000000e+01 1.1433e-05 -1.0000e+00
      -12  1    3    3    0    0 +8.4199816007e-01 +5.7910548538e+00 +1.7788588823e+01 1.8726429706e+01 0.0000000000e+00 0.0000e+00 1.0000e+00
</event>
<event>
 5      2 +6.9480500e-03 9.11880000e+01 7.81616400e-03 1.18400000e-01
      -11 -1    0    0    0    0 +0.0000000000e+00 +0.0000000000e+00 +4.5593999997e+01 4.5594000000e+01 5.1100000000e-04 0.0000e+00 1.0000e+00
       11 -1    0    0    0    0 -0.0000000000e+00 -0.0000000000e+00 -4.5593999997e+01 4.5594000000e+01 5.1100000000e-04 0.0000e+00 -1.0000e+00
       23  2    1    2    0    0 +0.0000000000e+00 +0.0000000000e+00 +0.0000000000e+00 9.1188000000e+01 9.1188000000e+01 6.4684e-15 0.0000e+00
  9900012  1    3    3    0    0 +1.4548072816e+01 -1.1111903528e+01 -3.9444070341e+00 7.2461570294e+01 7.0000000000e+01 2.6371e-05 -1.0000e+00
      -12  1    3    3    0    0 -1.4548072816e+01 +1.1111903528e+01 +3.9444070341e+00 1.8726429706e+01 0.0000000000e+00 0.0000e+00 1.0000e+00
</event>
<event>
 5      5 +6.9480500e-03 9.11880000e+01 7.81616400e-03 1.18400000e-01
      -11 -1    0    0    0    0 +0.0000000000e+00 +0.0000000000e+00 +4.5593999997e+01 4.5594000000e+01 5.1100000000e-04 0.0000e+00 -1.0000e+00
       11 -1    0    0    0    0 -0.0000000000e+00 -0.0000000000e+00 -4.5593999997e+01 4.5594000000e+01 5.1100000000e-04 0.0000e+00 1.0000e+00
       23  2    1    2    0    0 +0.0000000000e+00 +0.0000000000e+00 +0.0000000000e+00 9.1188000000e+01 9.1188000000e+01 2.8615e-15 0.0000e+00
  9900012  1    3    3    0    0 +8.3970367654e-01 +1.8213100547e+01 +4.2728252628e+00 7.2461570294e+01 7.0000000000e+01 1.4169e-06 -1.0000e+00
       12  1    3    3    0    0 -8.3970367654e-01 -1.8213100547e+01 -4.2728252628e+00 1.8726429706e+01 0.0000000000e+00 0.0000e+00 -1.0000e+00
</event>
<event>
 5      2 +6.9480500e-03 9.11880000e+01 7.81616400e-03 1.18400000e-01
      -11 -1    0    0    0    0 +0.0000000000e+00 +0.0000000000e+00 +4.5593999997e+01 4.5594000000e+01 5.1100000000e-04 0.0000e+00 -1.0000e+00
       11 -1    0    0    0    0 -0.0000000000e+00 -0.0000000000e+00 -4.5593999997e+01 4.5594000000e+01 5.1100000000e-04 0.0000e+00 1.0000e+00
       23  2    1    2    0    0 +0.0000000000e+00 +0.0000000000e+00 +0.0000000000e+00 9.1188000000e+01 9.1188000000e+01 6.0921e-14 0.0000e+00
  9900012  1    3    3    0    0 +8.4157476971e+00 -4.2050507941e-01 +1.6723562291e+01 7.2461570294e+01 7.0000000000e+01 1.6673e-04 -1.0000e+00
      -12  1    3    3    0    0 -8.4157476971e+00 +4.2050507941e-01 -1.6723562291e+01 1.8726429706e+01 0.0000000000e+00 0.0000e+00 1.0000e+00
</event>
<event>
 5      5 +6.9480500e-03 9.11880000e+01 7.81616400e-03 1.18400000e-01
      -11 -1    0    0    0    0 +0.0000000000e+00 +0.0000000000e+00 +4.5593999997e+01 4.5594000000e+01 5.1100000000e-04 0.0000e+00 1.0000e+00
       11 -1    0    0    0    0 -0.0000000000e+00 -0.0000000000e+00 -4.5593999997e+01 4.5594000000e+01 5.1100000000e-04 0.0000e+00 -1.0000e+00
       23  2    1    2    0    0 +0.0000000000e+00 +0.0000000000e+00 +0.0000000000e+00 9.1188000000e+01 9.1188000000e+01 1.7181e-16 0.0000e+00
  9900012  1    3    3    0    0 -2.0485202129e+00 +1.6408805474e+01 -8.7882784082e+00 7.2461570294e+01 7.0000000000e+01 1.7758e-04 -1.0000e+00
       12  1    3    3    0    0 +2.0485202129e+00 -1.6408805474e+01 +8.7882784082e+00 1.8726429706e+01 0.0000000000e+00 0.0000e+00 -1.0000e+00
</event>
<event>
 5      4 +6.9480500e-03 9.11880000e+01 7.81616400e-03 1.18400000e-01
      -11 -1    0    0    0    0 +0.0000000000e+00 +0.0000000000e+00 +4.5593999997e+01 4.5594000000e+01 5.1100000000e-04 0.0000e+00 -1.0000e+00
       11 -1    0    0    0    0 -0.0000000000e+00 -0.0000000000e+00 -4.5593999997e+01 4.5594000000e+01 5.1100000000e-04 0.0000e+00 1.0000e+00
       23  2    1    2    0    0 +0.0000000000e+00 +0.0000000000e+00 +0.0000000000e+00 9.1188000000e+01 9.1188000000e+01 1.5727e-14 0.0000e+00
  9900012  1    3    3    0    0 -1.0119176942e+00 -8.6970006415e+00 +1.6553470088e+01 7.2461570294e+01 7.0000000000e+01 9.3972e-05 -1.0000e+00
      -12  1    3    3    0    0 +1.0119176942e+00 +8.6970006415e+00 -1.6553470088e+01 1.8726429706e+01 0.0000000000e+00 0.0000e+00 1.0000e+00
</event>
<event>
 5      3 +6.9480500e-03 9.11880000e+01 7.81616400e-03 1.18400000e-01
      -11 -1    0    0    0    0 +0.0000000000e+00 +0.0000000000e+00 +4.5593999997e+01 4.5594000000e+01 5.1100000000e-04 0.0000e+00 -1.0000e+00
       11 -1    0    0    0    0 -0.0000000000e+00 -0.0000000000e+00 -4.5593999997e+01 4.5594000000e+01 5.1100000000e-04 0.0000e+00 1.0000e+00
       23  2    1    2    0    0 +0.0000000000e+00 +0.0000000000e+00 +0.0000000000e+00 9.1188000000e+01 9.1188000000e+01 2.2154e-13 0.0000e+00
  9900012  1    3    3    0    0 -1.4347528391e+01 -1.0835305738e+01 +5.2367688664e+00 7.2461570294e+01 7.0000000000e+01 2.1016e-04 1.0000e+00
       12  1    3    3    0    0 +1.4347528391e+01 +1.0835305738e+01 -5.2367688664e+00 1.8726429706e+01 0.0000000000e+00 0.0000e+00 -1.0000e+00
</event>
<event>
 5      7 +6.9480500e-03 9.11880000e+01 7.81616400e-03 1.18400000e-01
      -11 -1    0    0    0    0 +0.0000000000e+00 +0.0000000000e+00 +4.5593999997e+01 4.5594000000e+01 5.1100000000e-04 0.0000e+00 -1.0000e+00
       11 -1    0    0    0    0 -0.0000000000e+00 -0.0000000000e+00 -4.5593999997e+01 4.5594000000e+01 5.1100000000e-04 0.0000e+00 1.0000e+00
       23  2    1    2    0    0 +0.0000000000e+00 +0.0000000000e+00 +0.0000000000e+00 9.1188000000e+01 9.1188000000e+01 2.1071e-15 0.0000e+00
  9900012  1    3    3    0    0 -8.9713090879e+00 +1.0568230875e+01 -1.2589967392e+01 7.2461570294e+01 7.0000000000e+01 6.2066e-05 1.0000e+00
       12  1    3    3    0    0 +8.9713090879e+00 -1.0568230875e+01 +1.2589967392e+01 1.8726429706e+01 0.0000000000e+00 0.0000e+00 -1.0000e+00
</event>
<event>
 5      6 +6.9480500e-03 9.11880000e+01 7.81616400e-03 1.18400000e-01
      -11 -1    0    0    0    0 +0.0000000000e+00 +0.0000000000e+00 +4.5593999997e+01 4.5594000000e+01 5.1100000000e-04 0.0000e+00 -1.0000e+00
       11 -1    0    0    0    0 -0.0000000000e+00 -0.0000000000e+00 -4.5593999997e+01 4.5594000000e+01 5.1100000000e-04 0.0000e+00 1.0000e+00
       23  2    1    2    0    0 +0.0000000000e+00 +0.0000000000e+00 +0.0000000000e+00 9.1188000000e+01 9.1188000000e+01 2.7560e-14 0.0000e+00
  9900012  1    3    3    0    0 -9.3463022347e+00 -1.0584600974e+01 +1.2300082369e+01 7.2461570294e+01 7.0000000000e+01 1.2253e-04 -1.0000e+00
      -12  1    3    3    0    0 +9.3463022347e+00 +1.0584600974e+01 -1.2300082369e+01 1.8726429706e+01 0.0000000000e+00 0.0000e+00 1.0000e+00
</event>
<event>
 5      5 +6.9480500e-03 9.11880000e+01 7.81616400e-03 1.18400000e-01
      -11 -1    0    0    0    0 +0.0000000000e+00 +0.0000000000e+00 +4.5593999997e+01 4.5594000000e+01 5.1100000000e-04 0.0000e+00 1.0000e+00
       11 -1    0    0    0    0 -0.0000000000e+00 -0.0000000000e+00 -4.5593999997e+01 4.5594000000e+01 5.1100000000e-04 0.0000e+00 -1.0000e+00
       23  2    1    2    0    0 +0.0000000000e+00 +0.0000000000e+00 +0.0000000000e+00 9.1188000000e+01 9.1188000000e+01 6.1219e-14 0.0000e+00
  9900012  1    3    3    0    0 +4.4920078651e+00 -1.7928517621e+01 -3.0115263222e+00 7.2461570294e+01 7.0000000000e+01 1.7378e-04 -1.0000e+00
       12  1    3    3    0    0 -4.4920078651e+00 +1.7928517621e+01 +3.0115263222e+00 1.8726429706e+01 0.0000000000e+00 0.0000e+00 -1.0000e+00
</event>
<event>
 5      1 +6.9480500e-03 9.11880000e+01 7.81616400e-03 1.18400000e-01
      -11 -1    0    0    0    0 +0.0000000000e+00 +0.0000000000e+00 +4.5593999997e+01 4.5594000000e+01 5.1100000000e-04 0.0000e+00 -1.0000e+00
       11 -1    0    0    0    0 -0.0000000000e+00 -0.0000000000e+00 -4.5593999997e+01 4.5594000000e+01 5.1100000000e-04 0.0000e+00 1.0000e+00
       23  2    1    2    0    0 +0.0000000000e+00 +0.0000000000e+00 +0.0000000000e+00 9.1188000000e+01 9.1188000000e+01 1.2401e-14 0.0000e+00
  9900012  1    3    3    0    0 +1.0162611652e+01 -1.5428315709e+01 -3.0606483523e+00 7.2461570294e+01 7.0000000000e+01 8.7706e-06 -1.0000e+00
       12  1    3    3    0    0 -1.0162611652e+01 +1.5428315709e+01 +3.0606483523e+00 1.8726429706e+01 0.0000000000e+00 0.0000e+00 -1.0000e+00
</event>
<event>
 5      7 +6.9480500e-03 9.11880000e+01 7.81616400e-03 1.18400000e-01
      -11 -1    0    0    0    0 +0.0000000000e+00 +0.0000000000e+00 +4.5593999997e+01 4.5594000000e+01 5.1100000000e-04 0.0000e+00 1.0000e+00
       11 -1    0    0    0    0 -0.0000000000e+00 -0.0000000000e+00 -4.5593999997e+01 4.5594000000e+01 5.1100000000e-04 0.0000e+00 -1.0000e+00
       23  2    1    2    0    0 +0.0000000000e+00 +0.0000000000e+00 +0.0000000000e+00 9.1188000000e+01 9.1188000000e+01 8.9420e-14 0.0000e+00
  9900012  1    3    3    0    0 -1.5879676720e+01 -5.5130459860e+00 +8.2535665461e+00 7.2461570294e+01 7.0000000000e+01 8.4875e-05 1.0000e+00
       12  1    3    3    0    0 +1.5879676720e+01 +5.5130459860e+00 -8.2535665461e+00 1.8726429706e+01 0.0000000000e+00 0.0000e+00 -1.0000e+00
</event>
<event>
 5      2 +6.9480500e-03 9.11880000e+01 7.81616400e-03 1.18400000e-01
      -11 -1    0    0    0    0 +0.0000000000e+00 +0.0000000000e+00 +4.5593999997e+01 4.5594000000e+01 5.1100000000e-04 0.0000e+00 -1.0000e+00
       11 -1    0    0    0    0 -0.0000000000e+00 -0.0000000000e+00 -4.5593999997e+01 4.5594000000e+01 5.1100000000e-04 0.0000e+00 1.0000e+00
       23  2    1    2    0    0 +0.0000000000e+00 +0.0000000000e+00 +0.0000000000e+00 9.1188000000e+01 9.1188000000e+01 2.3081e-16 0.0000e+00
  9900012  1    3    3    0    0 +2.1509586363e+00 +9.7737162083e+00 +1.5828045298e+01 7.2461570294e+01 7.0000000000e+01 1.0214e-04 -1.0000e+00
      -12  1    3    3    0    0 -2.1509586363e+00 -9.7737162083e+00 -1.5828045298e+01 1.8726429706e+01 0.0000000000e+00 0.0000e+00 1.0000e+00
</event>
<event>
 5      6 +6.9480500e-03 9.11880000e+01 7.81616400e-03 1.18400000e-01
      -11 -1    0    0    0    0 +0.0000000000e+00 +0.0000000000e+00 +4.5593999997e+01 4.5594000000e+01 5.1100000000e-04 0.0000e+00 1.0000e+00
       11 -1    0    0    0    0 -0.0000000000e+00 -0.0000000000e+00 -4.5593999997e+01 4.5594000000e+01 5.1100000000e-04 0.0000e+00 -1.0000e+00
       23  2    1    2    0    0 +0.0000000000e+00 +0.0000000000e+00 +0.0000000000e+00 9.1188000000e+01 9.1188000000e+01 1.3747e-13 0.0000e+00
  9900012  1    3    3    0    0 +1.2547128016e+01 -8.2230837523e+00 -1.1208462948e+01 7.2461570294e+01 7.0000000000e+01 4.7130e-05 -1.0000e+00
      -12  1    3    3    0    0 -1.2547128016e+01 +8.2230837523e+00 +1.1208462948e+01 1.8726429706e+01 0.0000000000e+00 0.0000e+00 1.0000e+00
</event>
<event>
 5      1 +6.9480500e-03 9.11880000e+01 7.81616400e-03 1.18400000e-01
      -11 -1    0    0    0    0 +0.0000000000e+00 +0.0000000000e+00 +4.5593999997e+01 4.5594000000e+01 5.1100000000e-04 0.0000e+00 1.0000e+00
       11 -1    0    0    0    0 -0.0000000000e+00 -0.0000000000e+00 -4.5593999997e+01 4.5594000000e+01 5.1100000000e-04 0.0000e+00 -1.0000e+00
       23  2    1    2    0    0 +0.0000000000e+00 +0.0000000000e+00 +0.0000000000e+00 9.1188000000e+01 9.1188000000e+01 5.3690e-14 0.0000e+00
  9900012  1    3    3    0    0 +3.9931030253e+00 -1.8270282832e+01 +9.6491605946e-01 7.2461570294e+01 7.0000000000e+01 1.8542e-04 1.0000e+00
       12  1    3    3    0    0 -3.9931030253e+00 +1.8270282832e+01 -9.6491605946e-01 1.8726429706e+01 0.0000000000e+00 0.0000e+00 -1.0000e+00
</event>
<event>
 5      7 +6.9480500e-03 9.11880000e+01 7.81616400e-03 1.18400000e-01
      -11 -1    0    0    0    0 +0.0000000000e+00 +0.0000000000e+00 +4.5593999997e+01 4.5594000000e+01 5.1100000000e-04 0.0000e+00 1.0000e+00
       11 -1    0    0    0    0 -0.0000000000e+00 -0.0000000000e+00 -4.5593999997e+01 4.5594000000e+01 5.1100000000e-04 0.0000e+00 -1.0000e+00
       23  2    1    2    0    0 +0.0000000000e+00 +0.0000000000e+00 +0.0000000000e+00 9.1188000000e+01 9.1188000000e+01 3.1908e-14 0.0000e+00
  9900012  1    3    3    0    0 +1.1234344450e+01 -8.5058727710e+00 +1.2333645151e+01 7.2461570294e+01 7.0000000000e+01 3.3428e-04 1.0000e+00
       12  1    3    3    0    0 -1.1234344450e+01 +8.5058727710e+00 -1.2333645151e+01 1.8726429706e+01 0.0000000000e+00 0.0000e+00 -1.0000e+00
</event>
<event>
 5      5 +6.9480500e-03 9.11880000e+01 7.81616400e-03 1.18400000e-01
      -11 -1    0    0    0    0 +0.0000000000e+00 +0.0000000000e+00 +4.5593999997e+01 4.5594000000e+01 5.1100000000e-04 0.0000e+00 -1.0000e+00
       11 -1    0    0    0    0 -0.0000000000e+00 -0.0000000000e+00 -4.5593999997e+01 4.5594000000e+01 5.1100000000e-04 0.0000e+00 1.0000e+00
       23  2    1    2    0    0 +0.0000000000e+00 +0.0000000000e+00 +0.0000000000e+00 9.1188000000e+01 9.1188000000e+01 2.3691e-14 0.0000e+00
  9900012  1    3    3    0    0 +3.3573276228e+00 +1.8417399536e+01 -4.5487919770e-01 7.2461570294e+01 7.0000000000e+01 4.6166e-05 1.0000e+00
       12  1    3    3    0    0 -3.3573276228e+00 -1.8417399536e+01 +4.5487919770e-01 1.8726429706e+01 0.0000000000e+00 0.0000e+00 -1.0000e+00
</event>
<event>
 5      4 +6.9480500e-03 9.11880000e+01 7.81616400e-03 1.18400000e-01
      -11 -1    0    0    0    0 +0.0000000000e+00 +0.0000000000e+00 +4.5593999997e+01 4.5594000000e+01 5.1100000000e-04 0.0000e+00 1.0000e+00
       11 -1    0    0    0    0 -0.0000000000e+00 -0.0000000000e+00 -4.5593999997e+01 4.5594000000e+01 5.1100000000e-04 0.0000e+00 -1.0000e+00
       23  2    1    2    0    0 +0.0000000000e+00 +0.0000000000e+00 +0.0000000000e+00 9.1188000000e+01 9.1188000000e+01 2.7828e-13 0.0000e+00
  9900012  1    3    3    0    0 -1.2470120216e+01 +6.6364964090e+00 -1.2293583153e+01 7.2461570294e+01 7.0000000000e+01 1.9677e-04 -1.0000e+00
      -12  1    3    3    0    0 +1.2470120216e+01 -6.6364964090e+00 +1.2293583153e+01 1.8726429706e+01 0.0000000000e+00 0.0000e+00 1.0000e+00
</event>
<event>
 5      6 +6.9480500e-03 9.11880000e+01 7.81616400e-03 1.18400000e-01
      -11 -1    0    0    0    0 +0.0000000000e+00 +0.0000000000e+00 +4.5593999997e+01 4.5594000000e+01 5.1100000000e-04 0.0000e+00 1.0000e+00
       11 -1    0    0    0    0 -0.0000000000e+00 -0.0000000000e+00 -4.5593999997e+01 4.5594000000e+01 5.1100000000e-04 0.0000e+00 -1.0000e+00
       23  2    1    2    0    0 +0.0000000000e+00 +0.0000000000e+00 +0.0000000000e+00 9.1188000000e+01 9.1188000000e+01 5.6826e-14 0.0000e+00
  9900012  1    3    3    0    0 -2.1282851230e+00 +6.9102149974e+00 -1.7274214907e+01 7.2461570294e+01 7.0000000000e+01 1.4641e-04 -1.0000e+00
      -12  1    3    3    0    0 +2.1282851230e+00 -6.9102149974e+00 +1.7274214907e+01 1.8726429706e+01 0.0000000000e+00 0.0000e+00 1.0000e+00
</event>
<event>
 5      4 +6.9480500e-03 9.11880000e+01 7.81616400e-03 1.18400000e-01
      -11 -1    0    0    0    0 +0.0000000000e+00 +0.0000000000e+00 +4.5593999997e+01 4.5594000000e+01 5.1100000000e-04 0.0000e+00 -1.0000e+00
       11 -1    0    0    0    0 -0.0000000000e+00 -0.0000000000e+00 -4.5593999997e+01 4.5594000000e+01 5.1100000000e-04 0.0000e+00 1.0000e+00
       23  2    1    2    0    0 +0.0000000000e+00 +0.0000000000e+00 +0.0000000000e+00 9.1188000000e+01 9.1188000000e+01 6.9316e-14 0.0000e+00
  9900012  1    3    3    0    0 +5.4581147103e-01 -1.8552437275e+01 +2.4876355252e+00 7.2461570294e+01 7.0000000000e+01 1.2677e-05 -1.0000e+00
      -12  1    3    3    0    0 -5.4581147103e-01 +1.8552437275e+01 -2.4876355252e+00 1.8726429706e+01 0.0000000000e+00 0.0000e+00 1.0000e+00
</event>
<event>
 5      7 +6.9480500e-03 9.11880000e+01 7.81616400e-03 1.18400000e-01
      -11 -1    0    0    0    0 +0.0000000000e+00 +0.0000000000e+00 +4.5593999997e+01 4.5594000000e+01 5.1100000000e-04 0.0000e+00 1.0000e+00
       11 -1    0    0    0    0 -0.0000000000e+00 -0.0000000000e+00 -4.5593999997e+01 4.5594000000e+01 5.1100000000e-04 0.0000e+00 -1.0000e+00
       23  2    1    2    0    0 +0.0000000000e+00 +0.0000000000e+00 +0.0000000000e+00 9.1188000000e+01 9.1188000000e+01 7.8987e-15 0.0000e+00
  9900012  1    3    3    0    0 +7.0546823331e+00 +1.5200894361e+01 +8.3572386189e+00 7.2461570294e+01 7.0000000000e+01 9.2790e-05 1.0000e+00
       12  1    3    3    0    0 -7.0546823331e+00 -1.5200894361e+01 -8.3572386189e+00 1.8726429706e+01 0.0000000000e+00 0.0000e+00 -1.0000e+00
</event>
<event>
 5      7 +6.9480500e-03 9.11880000e+01 7.81616400e-03 1.18400000e-01
      -11 -1    0    0    0    0 +0.0000000000e+00 +0.0000000000e+00 +4.5593999997e+01 4.5594000000e+01 5.1100000000e-04 0.0000e+00 1.0000e+00
       11 -1    0    0    0    0 -0.0000000000e+00 -0.0000000000e+00 -4.5593999997e+01 4.5594000000e+01 5.1100000000e-04 0.0000e+00 -1.0000e+00
       23  2    1    2    0    0 +0.0000000000e+00 +0.0000000000e+00 +0.0000000000e+00 9.1188000000e+01 9.1188000000e+01 1.2958e-13 0.0000e+00
  9900012  1    3    3    0    0 +6.1315145037e+00 -1.7536725743e+01 -2.3551963000e+00 7.2461570294e+01 7.0000000000e+01 2.9217e-04 1.0000e+00
       12  1    3    3    0    0 -6.1315145037e+00 +1.7536725743e+01 +2.3551963000e+00 1.8726429706e+01 0.0000000000e+00 0.0000e+00 -1.0000e+00
</event>
<event>
 5      4 +6.9480500e-03 9.11880000e+01 7.81616400e-03 1.18400000e-01
      -11 -1    0    0    0    0 +0.0000000000e+00 +0.0000000000e+00 +4.5593999997e+01 4.5594000000e+01 5.1100000000e-04 0.0000e+00 -1.0000e+00
       11 -1    0    0    0    0 -0.0000000000e+00 -0.0000000000e+00 -4.5593999997e+01 4.5594000000e+01 5.1100000000e-04 0.0000e+00 1.0000e+00
       23  2    1    2    0    0 +0.0000000000e+00 +0.0000000000e+00 +0.0000000000e+00 9.1188000000e+01 9.1188000000e+01 6.9918e-14 0.0000e+00
  9900012  1    3    3    0    0 +4.7657526053e+00 +1.1037001739e+01 -1.4357972150e+01 7.2461570294e+01 7.0000000000e+01 4.5356e-05 1.0000e+00
      -12  1    3    3    0    0 -4.7657526053e+00 -1.1037001739e+01 +1.4357972150e+01 1.8726429706e+01 0.0000000000e+00 0.0000e+00 1.0000e+00
</event>
<event>
 5      7 +6.9480500e-03 9.11880000e+01 7.81616400e-03 1.18400000e-01
      -11 -1    0    0    0    0 +0.0000000000e+00 +0.0000000000e+00 +4.5593999997e+01 4.5594000000e+01 5.1100000000e-04 0.0000e+00 -1.0000e+00
       11 -1    0    0    0    0 -0.0000000000e+00 -0.0000000000e+00 -4.5593999997e+01 4.5594000000e+01 5.1100000000e-04 0.0000e+00 1.0000e+00
       23  2    1    2    0    0 +0.0000000000e+00 +0.0000000000e+00 +0.0000000000e+00 9.1188000000e+01 9.1188000000e+01 3.0145e-14 0.0000e+00
  9900012  1    3    3    0    0 -1.5007406866e+01 +1.0949677864e+01 +2.3582755053e+00 7.2461570294e+01 7.0000000000e+01 7.8429e-05 -1.0000e+00
       12  1    3    3    0    0 +1.5007406866e+01 -1.0949677864e+01 -2.3582755053e+00 1.8726429706e+01 0.0000000000e+00 0.0000e+00 -1.0000e+00
</event>
<event>
 5      6 +6.9480500e-03 9.11880000e+01 7.81616400e-03 1.18400000e-01
      -11 -1    0    0    0    0 +0.0000000000e+00 +0.0000000000e+00 +4.5593999997e+01 4.5594000000e+01 5.1100000000e-04 0.0000e+00 1.0000e+00
       11 -1    0    0    0    0 -0.0000000000e+00 -0.0000000000e+00 -4.5593999997e+01 4.5594000000e+01 5.1100000000e-04 0.0000e+00 -1.0000e+00
       23  2    1    2    0    0 +0.0000000000e+00 +0.0000000000e+00 +0.0000000000e+00 9.1188000000e+01 9.1188000000e+01 1.0661e-13 0.0000e+00
  9900012  1    3    3    0    0 +6.5894722630e+00 -4.1071867309e+00 -1.7040805203e+01 7.2461570294e+01 7.0000000000e+01 2.9998e-05 -1.0000e+00
      -12  1    3    3    0    0 -6.5894722630e+00 +4.1071867309e+00 +1.7040805203e+01 1.8726429706e+01 0.0000000000e+00 0.0000e+00 1.0000e+00
</event>
<event>
 5      3 +6.9480500e-03 9.11880000e+01 7.81616400e-03 1.18400000e-01
      -11 -1    0    0    0    0 +0.0000000000e+00 +0.0000000000e+00 +4.5593999997e+01 4.5594000000e+01 5.1100000000e-04 0.0000e+00 1.0000e+00
       11 -1    0    0    0    0 -0.0000000000e+00 -0.0000000000e+00 -4.5593999997e+01 4.5594000000e+01 5.1100000000e-04 0.0000e+00 -1.0000e+00
       23  2    1    2    0    0 +0.0000000000e+00 +0.0000000000e+00 +0.0000000000e+00 9.1188000000e+01 9.1188000000e+01 5.8164e-14 0.0000e+00
  9900012  1    3    3    0    0 -1.1117475137e+01 -9.3619336131e+00 +1.1808264696e+01 7.2461570294e+01 7.0000000000e+01 7.0288e-05 1.0000e+00
       12  1    3    3    0    0 +1.1117475137e+01 +9.3619336131e+00 -1.1808264696e+01 1.8726429706e+01 0.0000000000e+00 0.0000e+00 -1.0000e+00
</event>
<event>
 5      3 +6.9480500e-03 9.11880000e+01 7.81616400e-03 1.18400000e-01
      -11 -1    0    0    0    0 +0.0000000000e+00 +0.0000000000e+00 +4.5593999997e+01 4.5594000000e+01 5.1100000000e-04 0.0000e+00 -1.0000e+00
       11 -1    0    0    0    0 -0.0000000000e+00 -0.0000000000e+00 -4.5593999997e+01 4.5594000000e+01 5.1100000000e-04 0.0000e+00 1.0000e+00
       23  2    1    2    0    0 +0.0000000000e+00 +0.0000000000e+00 +0.0000000000e+00 9.1188000000e+01 9.1188000000e+01 1.5736e-14 0.0000e+00
  9900012  1    3    3    0    0 -1.6478024535e+01 +5.5260531554e+00 +6.9725614722e+00 7.2461570294e+01 7.0000000000e+01 6.4313e-05 -1.0000e+00
       12  1    3    3    0    0 +1.6478024535e+01 -5.5260531554e+00 -6.9725614722e+00 1.8726429706e+01 0.0000000000e+00 0.0000e+00 -1.0000e+00
</event>
<event>
 5      3 +6.9480500e-03 9.11880000e+01 7.81616400e-03 1.18400000e-01
      -11 -1    0    0    0    0 +0.0000000000e+00 +0.0000000000e+00 +4.5593999997e+01 4.5594000000e+01 5.1100000000e-04 0.0000e+00 1.0000e+00
       11 -1    0    0    0    0 -0.0000000000e+00 -0.0000000000e+00 -4.5593999997e+01 4.5594000000e+01 5.1100000000e-04 0.0000e+00 -1.0000e+00
       23  2    1    2    0    0 +0.0000000000e+00 +0.0000000000e+00 +0.0000000000e+00 9.1188000000e+01 9.1188000000e+01 4.5165e-14 0.0000e+00
  9900012  1    3    3    0    0 +1.3473258959e+01 +2.6713603904e+00 +1.2728483657e+01 7.2461570294e+01 7.0000000000e+01 8.5881e-05 1.0000e+00
       12  1    3    3    0    0 -1.3473258959e+01 -2.6713603904e+00 -1.2728483657e+01 1.8726429706e+01 0.0000000000e+00 0.0000e+00 -1.0000e+00
</event>
<event>
 5      1 +6.9480500e-03 9.11880000e+01 7.81616400e-03 1.18400000e-01
      -11 -1    0    0    0    0 +0.0000000000e+00 +0.0000000000e+00 +4.5593999997e+01 4.5594000000e+01 5.1100000000e-04 0.0000e+00 1.0000e+00
       11 -1    0    0    0    0 -0.0000000000e+00 -0.0000000000e+00 -4.5593999997e+01 4.5594000000e+01 5.1100000000e-04 0.0000e+00 -1.0000e+00
       23  2    1    2    0    0 +0.0000000000e+00 +0.0000000000e+00 +0.0000000000e+00 9.1188000000e+01 9.1188000000e+01 2.0331e-14 0.0000e+00
  9900012  1    3    3    0    0 -1.0105241048e+00 -1.5166453257e+01 +1.0937856562e+01 7.2461570294e+01 7.0000000000e+01 2.8452e-04 -1.0000e+00
       12  1    3    3    0    0 +1.0105241048e+00 +1.5166453257e+01 -1.0937856562e+01 1.8726429706e+01 0.0000000000e+00 0.0000e+00 -1.0000e+00
</event>
<event>
 5      7 +6.9480500e-03 9.11880000e+01 7.81616400e-03 1.18400000e-01
      -11 -1    0    0    0    0 +0.0000000000e+00 +0.0000000000e+00 +4.5593999997e+01 4.5594000000e+01 5.1100000000e-04 0.0000e+00 -1.0000e+00
       11 -1    0    0    0    0 -0.0000000000e+00 -0.0000000000e+00 -4.5593999997e+01 4.5594000000e+01 5.1100000000e-04 0.0000e+00 1.0000e+00
       23  2    1    2    0    0 +0.0000000000e+00 +0.0000000000e+00 +0.0000000000e+00 9.1188000000e+01 9.1188000000e+01 7.6181e-14 0.0000e+00
  9900012  1    3    3    0    0 -1.2098522906e+01 +4.0403758224e+00 +1.3710589930e+01 7.2461570294e+01 7.0000000000e+01 3.3394e-05 1.0000e+00
       12  1    3    3    0    0 +1.2098522906e+01 -4.0403758224e+00 -1.3710589930e+01 1.8726429706e+01 0.0000000000e+00 0.0000e+00 -1.0000e+00
</event>
<event>
 5      3 +6.9480500e-03 9.11880000e+01 7.81616400e-03 1.18400000e-01
      -11 -1    0    0    0    0 +0.0000000000e+00 +0.0000000000e+00 +4.5593999997e+01 4.5594000000e+01 5.1100000000e-04 0.0000e+00 -1.0000e+00
       11 -1    0    0    0    0 -0.0000000000e+00 -0.0000000000e+00 -4.5593999997e+01 4.5594000000e+01 5.1100000000e-04 0.0000e+00 1.0000e+00
       23  2    1    2    0    0 +0.0000000000e+00 +0.0000000000e+00 +0.0000000000e+00 9.1188000000e+01 9.1188000000e+01 3.5273e-14 0.0000e+00
  9900012  1    3    3    0    0 -1.9633152021e+00 -1.1801015416e+01 -1.4406963528e+01 7.2461570294e+01 7.0000000000e+01 2.5200e-06 1.0000e+00
       12  1    3    3    0    0 +1.9633152021e+00 +1.1801015416e+01 +1.4406963528e+01 1.8726429706e+01 0.0000000000e+00 0.0000e+00 -1.0000e+00
</event>
<event>
 5      6 +6.9480500e-03 9.11880000e+01 7.81616400e-03 1.18400000e-01
      -11 -1    0    0    0    0 +0.0000000000e+00 +0.0000000000e+00 +4.5593999997e+01 4.5594000000e+01 5.1100000000e-04 0.0000e+00 1.0000e+00
       11 -1    0    0    0    0 -0.0000000000e+00 -0.0000000000e+00 -4.5593999997e+01 4.5594000000e+01 5.1100000000e-04 0.0000e+00 -1.0000e+00
       23  2    1    2    0    0 +0.0000000000e+00 +0.0000000000e+00 +0.0000000000e+00 9.1188000000e+01 9.1188000000e+01 7.9557e-14 0.0000e+00
  9900012  1    3    3    0    0 +5.4663773478e+00 +1.5221090976e+01 -9.4401418269e+00 7.2461570294e+01 7.0000000000e+01 7.7007e-05 -1.0000e+00
      -12  1    3    3    0    0 -5.4663773478e+00 -1.5221090976e+01 +9.4401418269e+00 1.8726429706e+01 0.0000000000e+00 0.0000e+00 1.0000e+00
</event>
<event>
 5      5 +6.9480500e-03 9.11880000e+01 7.81616400e-03 1.18400000e-01
      -11 -1    0    0    0    0 +0.0000000000e+00 +0.0000000000e+00 +4.5593999997e+01 4.5594000000e+01 5.1100000000e-04 0.0000e+00 1.0000e+00
       11 -1    0    0    0    0 -0.0000000000e+00 -0.0000000000e+00 -4.5593999997e+01 4.5594000000e+01 5.1100000000e-04 0.0000e+00 -1.0000e+00
       23  2    1    2    0    0 +0.0000000000e+00 +0.0000000000e+00 +0.0000000000e+00 9.1188000000e+01 9.1188000000e+01 3.2135e-15 0.0000e+00
  9900012  1    3    3    0    0 +1.2841410395e-01 -1.5705341385e+01 +1.0198280802e+01 7.2461570294e+01 7.0000000000e+01 3.5838e-04 1.0000e+00
       12  1    3    3    0    0 -1.2841410395e-01 +1.5705341385e+01 -1.0198280802e+01 1.8726429706e+01 0.0000000000e+00 0.0000e+00 -1.0000e+00
</event>
<event>
 5      2 +6.9480500e-03 9.11880000e+01 7.81616400e-03 1.18400000e-01
      -11 -1    0    0    0    0 +0.0000000000e+00 +0.0000000000e+00 +4.5593999997e+01 4.5594000000e+01 5.1100000000e-04 0.0000e+00 -1.0000e+00
       11 -1    0    0    0    0 -0.0000000000e+00 -0.0000000000e+00 -4.5593999997e+01 4.5594000000e+01 5.1100000000e-04 0.0000e+00 1.0000e+00
       23  2    1    2    0    0 +0.0000000000e+00 +0.0000000000e+00 +0.0000000000e+00 9.1188000000e+01 9.1188000000e+01 1.9923e-13 0.0000e+00
  9900012  1    3    3    0    0 +6.6618247151e+00 -7.4528611097e+00 +1.5835217784e+01 7.2461570294e+01 7.0000000000e+01 1.8126e-04 -1.0000e+00
      -12  1    3    3    0    0 -6.6618247151e+00 +7.4528611097e+00 -1.5835217784e+01 1.8726429706e+01 0.0000000000e+00 0.0000e+00 1.0000e+00
</event>
<event>
 5      4 +6.9480500e-03 9.11880000e+01 7.81616400e-03 1.18400000e-01
      -11 -1    0    0    0    0 +0.0000000000e+00 +0.0000000000e+00 +4.5593999997e+01 4.5594000000e+01 5.1100000000e-04 0.0000e+00 1.0000e+00
       11 -1    0    0    0    0 -0.0000000000e+00 -0.0000000000e+00 -4.5593999997e+01 4.5594000000e+01 5.1100000000e-04 0.0000e+00 -1.0000e+00
       23  2    1    2    0    0 +0.0000000000e+00 +0.0000000000e+00 +0.0000000000e+00 9.1188000000e+01 9.1188000000e+01 2.8907e-15 0.0000e+00
  9900012  1    3    3    0    0 +1.6475961477e+01 +4.7926883673e+00 -7.5001334091e+00 7.2461570294e+01 7.0000000000e+01 8.2176e-05 1.0000e+00
      -12  1    3    3    0    0 -1.6475961477e+01 -4.7926883673e+00 +7.5001334091e+00 1.8726429706e+01 0.0000000000e+00 0.0000e+00 1.0000e+00
</event>
<event>
 5      6 +6.9480500e-03 9.11880000e+01 7.81616400e-03 1.18400000e-01
      -11 -1    0    0    0    0 +0.0000000000e+00 +0.0000000000e+00 +4.5593999997e+01 4.5594000000e+01 5.1100000000e-04 0.0000e+00 1.0000e+00
       11 -1    0    0    0    0 -0.0000000000e+00 -0.0000000000e+00 -4.5593999997e+01 4.5594000000e+01 5.1100000000e-04 0.0000e+00 -1.0000e+00
       23  2    1    2    0    0 +0.0000000000e+00 +0.0000000000e+00 +0.0000000000e+00 9.1188000000e+01 9.1188000000e+01 7.5204e-15 0.0000e+00
  9900012  1    3    3    0    0 +1.6130684999e+01 -4.6341305080e+00 -8.3069251474e+00 7.2461570294e+01 7.0000000000e+01 2.6103e-04 -1.0000e+00
      -12  1    3    3    0    0 -1.6130684999e+01 +4.6341305080e+00 +8.3069251474e+00 1.8726429706e+01 0.0000000000e+00 0.0000e+00 1.0000e+00
</event>
<event>
 5      1 +6.9480500e-03 9.11880000e+01 7.81616400e-03 1.18400000e-01
      -11 -1    0    0    0    0 +0.0000000000e+00 +0.0000000000e+00 +4.5593999997e+01 4.5594000000e+01 5.1100000000e-04 0.0000e+00 1.0000e+00
       11 -1    0    0    0    0 -0.0000000000e+00 -0.0000000000e+00 -4.5593999997e+01 4.5594000000e+01 5.1100000000e-04 0.0000e+00 -1.0000e+00
       23  2    1    2    0    0 +0.0000000000e+00 +0.0000000000e+00 +0.0000000000e+00 9.1188000000e+01 9.1188000000e+01 9.7867e-14 0.0000e+00
  9900012  1    3    3    0    0 +1.1221318674e+01 +1.3716133878e+01 +6.0521771439e+00 7.2461570294e+01 7.0000000000e+01 1.6942e-04 1.0000e+00
       12  1    3    3    0    0 -1.1221318674e+01 -1.3716133878e+01 -6.0521771439e+00 1.8726429706e+01 0.0000000000e+00 0.0000e+00 -1.0000e+00
</event>
<event>
 5      3 +6.9480500e-03 9.11880000e+01 7.81616400e-03 1.18400000e-01
      -11 -1    0    0    0    0 +0.0000000000e+00 +0.0000000000e+00 +4.5593999997e+01 4.5594000000e+01 5.1100000000e-04 0.0000e+00 -1.0000e+00
       11 -1    0    0    0    0 -0.0000000000e+00 -0.0000000000e+00 -4.5593999997e+01 4.5594000000e+01 5.1100000000e-04 0.0000e+00 1.0000e+00
       23  2    1    2    0    0 +0.0000000000e+00 +0.0000000000e+00 +0.0000000000e+00 9.1188000000e+01 9.1188000000e+01 8.2877e-15 0.0000e+00
  9900012  1    3    3    0    0 -1.8619309046e+01 +3.7617134094e-01 -1.9644325609e+00 7.2461570294e+01 7.0000000000e+01 2.0092e-04 1.0000e+00
       12  1    3    3    0    0 +1.8619309046e+01 -3.7617134094e-01 +1.9644325609e+00 1.8726429706e+01 0.0000000000e+00 0.0000e+00 -1.0000e+00
</event>
<event>
 5      2 +6.9480500e-03 9.11880000e+01 7.81616400e-03 1.18400000e-01
      -11 -1    0    0    0    0 +0.0000000000e+00 +0.0000000000e+00 +4.5593999997e+01 4.5594000000e+01 5.1100000000e-04 0.0000e+00 -1.0000e+00
       11 -1    0    0    0    0 -0.0000000000e+00 -0.0000000000e+00 -4.5593999997e+01 4.5594000000e+01 5.1100000000e-04 0.0000e+00 1.0000e+00
       23  2    1    2    0    0 +0.0000000000e+00 +0.0000000000e+00 +0.0000000000e+00 9.1188000000e+01 9.1188000000e+01 7.5614e-14 0.0000e+00
  9900012  1    3    3    0    0 +1.6648773274e+01 -7.9019410895e+00 +3.3251834563e+00 7.2461570294e+01 7.0000000000e+01 1.4152e-04 -1.0000e+00
      -12  1    3    3    0    0 -1.6648773274e+01 +7.9019410895e+00 -3.3251834563e+00 1.8726429706e+01 0.0000000000e+00 0.0000e+00 1.0000e+00
</event>
<event>
 5      6 +6.9480500e-03 9.11880000e+01 7.81616400e-03 1.18400000e-01
      -11 -1    0    0    0    0 +0.0000000000e+00 +0.0000000000e+00 +4.5593999997e+01 4.5594000000e+01 5.1100000000e-04 0.0000e+00 -1.0000e+00
       11 -1    0    0    0    0 -0.0000000000e+00 -0.0000000000e+00 -4.5593999997e+01 4.5594000000e+01 5.1100000000e-04 0.0000e+00 1.0000e+00
       23  2    1    2    0    0 +0.0000000000e+00 +0.0000000000e+00 +0.0000000000e+00 9.1188000000e+01 9.1188000000e+01 3.4084e-14 0.0000e+00
  9900012  1    3    3    0    0 -7.2323002101e+00 +4.1114888411e+00 +1.6777027827e+01 7.2461570294e+01 7.0000000000e+01 3.0445e-05 -1.0000e+00
      -12  1    3    3    0    0 +7.2323002101e+00 -4.1114888411e+00 -1.6777027827e+01 1.8726429706e+01 0.0000000000e+00 0.0000e+00 1.0000e+00
</event>
<event>
 5      2 +6.9480500e-03 9.11880000e+01 7.81616400e-03 1.18400000e-01
      -11 -1    0    0    0    0 +0.0000000000e+00 +0.0000000000e+00 +4.5593999997e+01 4.5594000000e+01 5.1100000000e-04 0.0000e+00 -1.0000e+00
       11 -1    0    0    0    0 -0.0000000000e+00 -0.0000000000e+00 -4.5593999997e+01 4.5594000000e+01 5.1100000000e-04 0.0000e+00 1.0000e+00
       23  2    1    2    0    0 +0.0000000000e+00 +0.0000000000e+00 +0.0000000000e+00 9.1188000000e+01 9.1188000000e+01 1.8835e-14 0.0000e+00
  9900012  1    3    3    0    0 -1.0914053051e+00 -5.9646452257e-01 +1.8685080520e+01 7.2461570294e+01 7.0000000000e+01 1.6449e-04 -1.0000e+00
      -12  1    3    3    0    0 +1.0914053051e+00 +5.9646452257e-01 -1.8685080520e+01 1.8726429706e+01 0.0000000000e+00 0.0000e+00 1.0000e+00
</event>
<event>
 5      1 +6.9480500e-03 9.11880000e+01 7.81616400e-03 1.18400000e-01
      -11 -1    0    0    0    0 +0.0000000000e+00 +0.0000000000e+00 +4.5593999997e+01 4.5594000000e+01 5.1100000000e-04 0.0000e+00 -1.0000e+00
       11 -1    0    0    0    0 -0.0000000000e+00 -0.0000000000e+00 -4.5593999997e+01 4.5594000000e+01 5.1100000000e-04 0.0000e+00 1.0000e+00
       23  2    1    2    0    0 +0.0000000000e+00 +0.0000000000e+00 +0.0000000000e+00 9.1188000000e+01 9.1188000000e+01 1.2556e-13 0.0000e+00
  9900012  1    3    3    0    0 +7.6176974471e+00 +1.5216820274e+01 +7.8165360532e+00 7.2461570294e+01 7.0000000000e+01 1.3977e-04 -1.0000e+00
       12  1    3    3    0    0 -7.6176974471e+00 -1.5216820274e+01 -7.8165360532e+00 1.8726429706e+01 0.0000000000e+00 0.0000e+00 -1.0000e+00
</event>
<event>
 5      8 +6.9480500e-03 9.11880000e+01 7.81616400e-03 1.18400000e-01
      -11 -1    0    0    0    0 +0.0000000000e+00 +0.0000000000e+00 +4.5593999997e+01 4.5594000000e+01 5.1100000000e-04 0.0000e+00 1.0000e+00
       11 -1    0    0    0    0 -0.0000000000e+00 -0.0000000000e+00 -4.5593999997e+01 4.5594000000e+01 5.1100000000e-04 0.0000e+00 -1.0000e+00
       23  2    1    2    0    0 +0.0000000000e+00 +0.0000000000e+00 +0.0000000000e+00 9.1188000000e+01 9.1188000000e+01 3.1973e-14 0.0000e+00
  9900012  1    3    3    0    0 -7.1382703903e+00 -1.0290939508e+00 -1.7281933659e+01 7.2461570294e+01 7.0000000000e+01 3.7210e-04 -1.0000e+00
      -12  1    3    3    0    0 +7.1382703903e+00 +1.0290939508e+00 +1.7281933659e+01 1.8726429706e+01 0.0000000000e+00 0.0000e+00 1.0000e+00
</event>
<event>
 5      5 +6.9480500e-03 9.11880000e+01 7.81616400e-03 1.18400000e-01
      -11 -1    0    0    0    0 +0.0000000000e+00 +0.0000000000e+00 +4.5593999997e+01 4.5594000000e+01 5.1100000000e-04 0.0000e+00 1.0000e+00
       11 -1    0    0    0    0 -0.0000000000e+00 -0.0000000000e+00 -4.5593999997e+01 4.5594000000e+01 5.1100000000e-04 0.0000e+00 -1.0000e+00
       23  2    1    2    0    0 +0.0000000000e+00 +0.0000000000e+00 +0.0000000000e+00 9.1188000000e+01 9.1188000000e+01 1.0095e-13 0.0000e+00
  9900012  1    3    3    0    0 -1.7796188494e+01 +5.7339083924e+00 +1.0474441011e+00 7.2461570294e+01 7.0000000000e+01 5.4021e-05 -1.0000e+00
       12  1    3    3    0    0 +1.7796188494e+01 -5.7339083924e+00 -1.0474441011e+00 1.8726429706e+01 0.0000000000e+00 0.0000e+00 -1.0000e+00
</event>
<event>
 5      3 +6.9480500e-03 9.11880000e+01 7.81616400e-03 1.18400000e-01
      -11 -1    0    0    0    0 +0.0000000000e+00 +0.0000000000e+00 +4.5593999997e+01 4.5594000000e+01 5.1100000000e-04 0.0000e+00 1.0000e+00
       11 -1    0    0    0    0 -0.0000000000e+00 -0.0000000000e+00 -4.5593999997e+01 4.5594000000e+01 5.1100000000e-04 0.0000e+00 -1.0000e+00
       23  2    1    2    0    0 +0.0000000000e+00 +0.0000000000e+00 +0.0000000000e+00 9.1188000000e+01 9.1188000000e+01 2.6147e-14 0.0000e+00
  9900012  1    3    3    0    0 +6.8443205671e-02 -5.4763682066e+00 +1.7907648542e+01 7.2461570294e+01 7.0000000000e+01 1.3456e-04 1.0000e+00
       12  1    3    3    0    0 -6.8443205671e-02 +5.4763682066e+00 -1.7907648542e+01 1.8726429706e+01 0.0000000000e+00 0.0000e+00 -1.0000e+00
</event>
<event>
 5      6 +6.9480500e-03 9.11880000e+01 7.81616400e-03 1.18400000e-01
      -11 -1    0    0    0    0 +0.0000000000e+00 +0.0000000000e+00 +4.5593999997e+01 4.5594000000e+01 5.1100000000e-04 0.0000e+00 -1.0000e+00
       11 -1    0    0    0    0 -0.0000000000e+00 -0.0000000000e+00 -4.5593999997e+01 4.5594000000e+01 5.1100000000e-04 0.0000e+00 1.0000e+00
       23  2    1    2    0    0 +0.0000000000e+00 +0.0000000000e+00 +0.0000000000e+00 9.1188000000e+01 9.1188000000e+01 2.4387e-14 0.0000e+00
  9900012  1    3    3    0    0 +1.6100003259e+01 +7.0988402859e+00 -6.4090195170e+00 7.2461570294e+01 7.0000000000e+01 3.3231e-05 -1.0000e+00
      -12  1    3    3    0    0 -1.6100003259e+01 -7.0988402859e+00 +6.4090195170e+00 1.8726429706e+01 0.0000000000e+00 0.0000e+00 1.0000e+00
</event>
<event>
 5      4 +6.9480500e-03 9.11880000e+01 7.81616400e-03 1.18400000e-01
      -11 -1    0    0    0    0 +0.0000000000e+00 +0.0000000000e+00 +4.5593999997e+01 4.5594000000e+01 5.1100000000e-04 0.0000e+00 1.0000e+00
       11 -1    0    0    0    0 -0.0000000000e+00 -0.0000000000e+00 -4.5593999997e+01 4.5594000000e+01 5.1100000000e-04 0.0000e+00 -1.0000e+00
       23  2    1    2    0    0 +0.0000000000e+00 +0.0000000000e+00 +0.0000000000e+00 9.1188000000e+01 9.1188000000e+01 4.0848e-14 0.0000e+00
  9900012  1    3    3    0    0 -2.3700758123e+00 +9.7238940458e+00 -1.5827438035e+01 7.2461570294e+01 7.0000000000e+01 2.2481e-04 -1.0000e+00
      -12  1    3    3    0    0 +2.3700758123e+00 -9.7238940458e+00 +1.5827438035e+01 1.8726429706e+01 0.0000000000e+00 0.0000e+00 1.0000e+00
</event>
<event>
 5      1 +6.9480500e-03 9.11880000e+01 7.81616400e-03 1.18400000e-01
      -11 -1    0    0    0    0 +0.0000000000e+00 +0.0000000000e+00 +4.5593999997e+01 4.5594000000e+01 5.1100000000e-04 0.0000e+00 -1.0000e+00
       11 -1    0    0    0    0 -0.0000000000e+00 -0.0000000000e+00 -4.5593999997e+01 4.5594000000e+01 5.1100000000e-04 0.0000e+00 1.0000e+00
       23  2    1    2    0    0 +0.0000000000e+00 +0.0000000000e+00 +0.0000000000e+00 9.1188000000e+01 9.1188000000e+01 4.2493e-14 0.0000e+00
  9900012  1    3    3    0    0 +1.6513108900e+01 -8.8230477121e+00 -3.8759908448e-01 7.2461570294e+01 7.0000000000e+01 8.3589e-05 1.0000e+00
       12  1    3    3    0    0 -1.6513108900e+01 +8.8230477121e+00 +3.8759908448e-01 1.8726429706e+01 0.0000000000e+00 0.0000e+00 -1.0000e+00
</event>
<event>
 5      4 +6.9480500e-03 9.11880000e+01 7.81616400e-03 1.18400000e-01
      -11 -1    0    0    0    0 +0.0000000000e+00 +0.0000000000e+00 +4.5593999997e+01 4.5594000000e+01 5.1100000000e-04 0.0000e+00 1.0000e+00
       11 -1    0    0    0    0 -0.0000000000e+00 -0.0000000000e+00 -4.5593999997e+01 4.5594000000e+01 5.1100000000e-04 0.0000e+00 -1.0000e+00
       23  2    1    2    0    0 +0.0000000000e+00 +0.0000000000e+00 +0.0000000000e+00 9.1188000000e+01 9.1188000000e+01 1.3565e-13 0.0000e+00
  9900012  1    3    3    0    0 +1.2300469373e+01 -1.1404120795e+01 +8.3260826087e+00 7.2461570294e+01 7.0000000000e+01 2.7662e-04 1.0000e+00
      -12  1    3    3    0    0 -1.2300469373e+01 +1.1404120795e+01 -8.3260826087e+00 1.8726429706e+01 0.0000000000e+00 0.0000e+00 1.0000e+00
</event>
<event>
 5      3 +6.9480500e-03 9.11880000e+01 7.81616400e-03 1.18400000e-01
      -11 -1    0    0    0    0 +0.0000000000e+00 +0.0000000000e+00 +4.5593999997e+01 4.5594000000e+01 5.1100000000e-04 0.0000e+00 1.0000e+00
       11 -1    0    0    0    0 -0.0000000000e+00 -0.0000000000e+00 -4.5593999997e+01 4.5594000000e+01 5.1100000000e-04 0.0000e+00 -1.0000e+00
       23  2    1    2    0    0 +0.0000000000e+00 +0.0000000000e+00 +0.0000000000e+00 9.1188000000e+01 9.1188000000e+01 4.6604e-14 0.0000e+00
  9900012  1    3    3    0    0 +1.6238071389e+01 -8.2121840600e+00 +4.4231482046e+00 7.2461570294e+01 7.0000000000e+01 4.0512e-04 1.0000e+00
       12  1    3    3    0    0 -1.6238071389e+01 +8.2121840600e+00 -4.4231482046e+00 1.8726429706e+01 0.0000000000e+00 0.0000e+00 -1.0000e+00
</event>
<event>
 5      7 +6.9480500e-03 9.11880000e+01 7.81616400e-03 1.18400000e-01
      -11 -1    0    0    0    0 +0.0000000000e+00 +0.0000000000e+00 +4.5593999997e+01 4.5594000000e+01 5.1100000000e-04 0.0000e+00 1.0000e+00
       11 -1    0    0    0    0 -0.0000000000e+00 -0.0000000000e+00 -4.5593999997e+01 4.5594000000e+01 5.1100000000e-04 0.0000e+00 -1.0000e+00
       23  2    1    2    0    0 +0.0000000000e+00 +0.0000000000e+00 +0.0000000000e+00 9.1188000000e+01 9.1188000000e+01 5.3651e-14 0.0000e+00
  9900012  1    3    3    0    0 -1.5243664897e+01 -9.1720106230e+00 +5.8467145611e+00 7.2461570294e+01 7.0000000000e+01 3.2936e-04 1.0000e+00
       12  1    3    3    0    0 +1.5243664897e+01 +9.1720106230e+00 -5.8467145611e+00 1.8726429706e+01 0.0000000000e+00 0.0000e+00 -1.0000e+00
</event>
<event>
 5      1 +6.9480500e-03 9.11880000e+01 7.81616400e-03 1.18400000e-01
      -11 -1    0    0    0    0 +0.0000000000e+00 +0.0000000000e+00 +4.5593999997e+01 4.5594000000e+01 5.1100000000e-04 0.0000e+00 -1.0000e+00
       11 -1    0    0    0    0 -0.0000000000e+00 -0.0000000000e+00 -4.5593999997e+01 4.5594000000e+01 5.1100000000e-04 0.0000e+00 1.0000e+00
       23  2    1    2    0    0 +0.0000000000e+00 +0.0000000000e+00 +0.0000000000e+00 9.1188000000e+01 9.1188000000e+01 2.9219e-14 0.0000e+00
  9900012  1    3    3    0    0 -9.2622273161e+00 +1.2489350812e+01 -1.0435824402e+01 7.2461570294e+01 7.0000000000e+01 2.6538e-04 -1.0000e+00
       12  1    3    3    0    0 +9.2622273161e+00 -1.2489350812e+01 +1.0435824402e+01 1.8726429706e+01 0.0000000000e+00 0.0000e+00 -1.0000e+00
</event>
<event>
 5      4 +6.9480500e-03 9.11880000e+01 7.81616400e-03 1.18400000e-01
      -11 -1    0    0    0    0 +0.0000000000e+00 +0.0000000000e+00 +4.5593999997e+01 4.5594000000e+01 5.1100000000e-04 0.0000e+00 1.0000e+00
       11 -1    0    0    0    0 -0.0000000000e+00 -0.0000000000e+00 -4.5593999997e+01 4.5594000000e+01 5.1100000000e-04 0.0000e+00 -1.0000e+00
       23  2    1    2    0    0 +0.0000000000e+00 +0.0000000000e+00 +0.0000000000e+00 9.1188000000e+01 9.1188000000e+01 5.9384e-14 0.0000e+00
  9900012  1    3    3    0    0 +1.1849645619e+01 +1.2393342675e+00 -1.4447460635e+01 7.2461570294e+01 7.0000000000e+01 4.6634e-05 -1.0000e+00
      -12  1    3    3    0    0 -1.1849645619e+01 -1.2393342675e+00 +1.4447460635e+01 1.8726429706e+01 0.0000000000e+00 0.0000e+00 1.0000e+00
</event>
<event>
 5      2 +6.9480500e-03 9.11880000e+01 7.81616400e-03 1.18400000e-01
      -11 -1    0    0    0    0 +0.0000000000e+00 +0.0000000000e+00 +4.5593999997e+01 4.5594000000e+01 5.1100000000e-04 0.0000e+00 1.0000e+00
       11 -1    0    0    0    0 -0.0000000000e+00 -0.0000000000e+00 -4.5593999997e+01 4.5594000000e+01 5.1100000000e-04 0.0000e+00 -1.0000e+00
       23  2    1    2    0    0 +0.0000000000e+00 +0.0000000000e+00 +0.0000000000e+00 9.1188000000e+01 9.1188000000e+01 7.0125e-16 0.0000e+00
  9900012  1    3    3    0    0 -1.3414900445e+01 +7.8331483492e+00 -1.0457600227e+01 7.2461570294e+01 7.0000000000e+01 2.0935e-05 -1.0000e+00
      -12  1    3    3    0    0 +1.3414900445e+01 -7.8331483492e+00 +1.0457600227e+01 1.8726429706e+01 0.0000000000e+00 0.0000e+00 1.0000e+00
</event>
<event>
 5      4 +6.9480500e-03 9.11880000e+01 7.81616400e-03 1.18400000e-01
      -11 -1    0    0    0    0 +0.0000000000e+00 +0.0000000000e+00 +4.5593999997e+01 4.5594000000e+01 5.1100000000e-04 0.0000e+00 1.0000e+00
       11 -1    0    0    0    0 -0.0000000000e+00 -0.0000000000e+00 -4.5593999997e+01 4.5594000000e+01 5.1100000000e-04 0.0000e+00 -1.0000e+00
       23  2    1    2    0    0 +0.0000000000e+00 +0.0000000000e+00 +0.0000000000e+00 9.1188000000e+01 9.1188000000e+01 1.8304e-13 0.0000e+00
  9900012  1    3    3    0    0 -7.3184723008e+00 +1.3951148932e+01 +1.0123466608e+01 7.2461570294e+01 7.0000000000e+01 3.6989e-06 1.0000e+00
      -12  1    3    3    0    0 +7.3184723008e+00 -1.3951148932e+01 -1.0123466608e+01 1.8726429706e+01 0.0000000000e+00 0.0000e+00 1.0000e+00
</event>
<event>
 5      7 +6.9480500e-03 9.11880000e+01 7.81616400e-03 1.18400000e-01
      -11 -1    0    0    0    0 +0.0000000000e+00 +0.0000000000e+00 +4.5593999997e+01 4.5594000000e+01 5.1100000000e-04 0.0000e+00 -1.0000e+00
       11 -1    0    0    0    0 -0.0000000000e+00 -0.0000000000e+00 -4.5593999997e+01 4.5594000000e+01 5.1100000000e-04 0.0000e+00 1.0000e+00
       23  2    1    2    0    0 +0.0000000000e+00 +0.0000000000e+00 +0.0000000000e+00 9.1188000000e+01 9.1188000000e+01 1.0734e-13 0.0000e+00
  9900012  1    3    3    0    0 -5.0587731389e+00 +1.7933745174e+01 -1.8624628550e+00 7.2461570294e+01 7.0000000000e+01 2.8041e-04 -1.0000e+00
       12  1    3    3    0    0 +5.0587731389e+00 -1.7933745174e+01 +1.8624628550e+00 1.8726429706e+01 0.0000000000e+00 0.0000e+00 -1.0000e+00
</event>
<event>
 5      7 +6.9480500e-03 9.11880000e+01 7.81616400e-03 1.18400000e-01
      -11 -1    0    0    0    0 +0.0000000000e+00 +0.0000000000e+00 +4.5593999997e+01 4.5594000000e+01 5.1100000000e-04 0.0000e+00 -1.0000e+00
       11 -1    0    0    0    0 -0.0000000000e+00 -0.0000000000e+00 -4.5593999997e+01 4.5594000000e+01 5.1100000000e-04 0.0000e+00 1.0000e+00
       23  2    1    2    0    0 +0.0000000000e+00 +0.0000000000e+00 +0.0000000000e+00 9.1188000000e+01 9.1188000000e+01 3.8551e-14 0.0000e+00
  9900012  1    3    3    0    0 -2.4727051673e+00 +1.5483218346e+01 -1.0238889017e+01 7.2461570294e+01 7.0000000000e+01 2.5899e-05 1.0000e+00
       12  1    3    3    0    0 +2.4727051673e+00 -1.5483218346e+01 +1.0238889017e+01 1.8726429706e+01 0.0000000000e+00 0.0000e+00 -1.0000e+00
</event>
<event>
 5      8 +6.9480500e-03 9.11880000e+01 7.81616400e-03 1.18400000e-01
      -11 -1    0    0    0    0 +0.0000000000e+00 +0.0000000000e+00 +4.5593999997e+01 4.5594000000e+01 5.1100000000e-04 0.0000e+00 1.0000e+00
       11 -1    0    0    0    0 -0.0000000000e+00 -0.0000000000e+00 -4.5593999997e+01 4.5594000000e+01 5.1100000000e-04 0.0000e+00 -1.0000e+00
       23  2    1    2    0    0 +0.0000000000e+00 +0.0000000000e+00 +0.0000000000e+00 9.1188000000e+01 9.1188000000e+01 1.0119e-13 0.0000e+00
  9900012  1    3    3    0    0 +4.9776726921e+00 -1.5850061804e+01 -8.6416135584e+00 7.2461570294e+01 7.0000000000e+01 1.6231e-04 -1.0000e+00
      -12  1    3    3    0    0 -4.9776726921e+00 +1.5850061804e+01 +8.6416135584e+00 1.8726429706e+01 0.0000000000e+00 0.0000e+00 1.0000e+00
</event>
<event>
 5      3 +6.9480500e-03 9.11880000e+01 7.81616400e-03 1.18400000e-01
      -11 -1    0    0    0    0 +0.0000000000e+00 +0.0000000000e+00 +4.5593999997e+01 4.5594000000e+01 5.1100000000e-04 0.0000e+00 1.0000e+00
       11 -1    0    0    0    0 -0.0000000000e+00 -0.0000000000e+00 -4.5593999997e+01 4.5594000000e+01 5.1100000000e-04 0.0000e+00 -1.0000e+00
       23  2    1    2    0    0 +0.0000000000e+00 +0.0000000000e+00 +0.0000000000e+00 9.1188000000e+01 9.1188000000e+01 3.7291e-14 0.0000e+00
  9900012  1    3    3    0    0 +1.6670073399e+01 +5.0400838855e+00 +6.8837037132e+00 7.2461570294e+01 7.0000000000e+01 2.1501e-04 -1.0000e+00
       12  1    3    3    0    0 -1.6670073399e+01 -5.0400838855e+00 -6.8837037132e+00 1.8726429706e+01 0.0000000000e+00 0.0000e+00 -1.0000e+00
</event>
<event>
 5      3 +6.9480500e-03 9.11880000e+01 7.81616400e-03 1.18400000e-01
      -11 -1    0    0    0    0 +0.0000000000e+00 +0.0000000000e+00 +4.5593999997e+01 4.5594000000e+01 5.1100000000e-04 0.0000e+00 -1.0000e+00
       11 -1    0    0    0    0 -0.0000000000e+00 -0.0000000000e+00 -4.5593999997e+01 4.5594000000e+01 5.1100000000e-04 0.0000e+00 1.0000e+00
       23  2    1    2    0    0 +0.0000000000e+00 +0.0000000000e+00 +0.0000000000e+00 9.1188000000e+01 9.1188000000e+01 1.9067e-14 0.0000e+00
  9900012  1    3    3    0    0 +1.3027360147e+01 +1.4154282672e+00 -1.3377728505e+01 7.2461570294e+01 7.0000000000e+01 2.5754e-05 1.0000e+00
       12  1    3    3    0    0 -1.3027360147e+01 -1.4154282672e+00 +1.3377728505e+01 1.8726429706e+01 0.0000000000e+00 0.0000e+00 -1.0000e+00
</event>
<event>
 5      5 +6.9480500e-03 9.11880000e+01 7.81616400e-03 1.18400000e-01
      -11 -1    0    0    0    0 +0.0000000000e+00 +0.0000000000e+00 +4.5593999997e+01 4.5594000000e+01 5.1100000000e-04 0.0000e+00 1.0000e+00
       11 -1    0    0    0    0 -0.0000000000e+00 -0.0000000000e+00 -4.5593999997e+01 4.5594000000e+01 5.1100000000e-04 0.0000e+00 -1.0000e+00
       23  2    1    2    0    0 +0.0000000000e+00 +0.0000000000e+00 +0.0000000000e+00 9.1188000000e+01 9.1188000000e+01 8.8629e-15 0.0000e+00
  9900012  1    3    3    0    0 +5.3899291684e-02 -1.5321288830e+01 +1.0767282526e+01 7.2461570294e+01 7.0000000000e+01 1.2978e-05 1.0000e+00
       12  1    3    3    0    0 -5.3899291684e-02 +1.5321288830e+01 -1.0767282526e+01 1.8726429706e+01 0.0000000000e+00 0.0000e+00 -1.0000e+00
</event>
<event>
 5      5 +6.9480500e-03 9.11880000e+01 7.81616400e-03 1.18400000e-01
      -11 -1    0    0    0    0 +0.0000000000e+00 +0.0000000000e+00 +4.5593999997e+01 4.5594000000e+01 5.1100000000e-04 0.0000e+00 1.0000e+00
       11 -1    0    0    0    0 -0.0000000000e+00 -0.0000000000e+00 -4.5593999997e+01 4.5594000000e+01 5.1100000000e-04 0.0000e+00 -1.0000e+00
       23  2    1    2    0    0 +0.0000000000e+00 +0.0000000000e+00 +0.0000000000e+00 9.1188000000e+01 9.1188000000e+01 1.2934e-13 0.0000e+00
  9900012  1    3    3    0    0 +1.5536909663e+01 +5.9008054594e+00 -8.6292585177e+00 7.2461570294e+01 7.0000000000e+01 1.2659e-04 1.0000e+00
       12  1    3    3    0    0 -1.5536909663e+01 -5.9008054594e+00 +8.6292585177e+00 1.8726429706e+01 0.0000000000e+00 0.0000e+00 -1.0000e+00
</event>
<event>
 5      1 +6.9480500e-03 9.11880000e+01 7.81616400e-03 1.18400000e-01
      -11 -1    0    0    0    0 +0.0000000000e+00 +0.0000000000e+00 +4.5593999997e+01 4.5594000000e+01 5.1100000000e-04 0.0000e+00 1.0000e+00
       11 -1    0    0    0    0 -0.0000000000e+00 -0.0000000000e+00 -4.5593999997e+01 4.5594000000e+01 5.1100000000e-04 0.0000e+00 -1.0000e+00
       23  2    1    2    0    0 +0.0000000000e+00 +0.0000000000e+00 +0.0000000000e+00 9.1188000000e+01 9.1188000000e+01 1.1081e-13 0.0000e+00
  9900012  1    3    3    0    0 +1.7560683607e+01 -6.3693958979e+00 -1.3161902057e+00 7.2461570294e+01 7.0000000000e+01 1.3037e-05 1.0000e+00
       12  1    3    3    0    0 -1.7560683607e+01 +6.3693958979e+00 +1.3161902057e+00 1.8726429706e+01 0.0000000000e+00 0.0000e+00 -1.0000e+00
</event>
<event>
 5      1 +6.9480500e-03 9.11880000e+01 7.81616400e-03 1.18400000e-01
      -11 -1    0    0    0    0 +0.0000000000e+00 +0.0000000000e+00 +4.5593999997e+01 4.5594000000e+01 5.1100000000e-04 0.0000e+00 1.0000e+00
       11 -1    0    0    0    0 -0.0000000000e+00 -0.0000000000e+00 -4.5593999997e+01 4.5594000000e+01 5.1100000000e-04 0.0000e+00 -1.0000e+00
       23  2    1    2    0    0 +0.0000000000e+00 +0.0000000000e+00 +0.0000000000e+00 9.1188000000e+01 9.1188000000e+01 5.2523e-14 0.0000e+00
  9900012  1    3    3    0    0 -1.1292329363e+01 +1.0418949750e+01 +1.0705510412e+01 7.2461570294e+01 7.0000000000e+01 2.8394e-06 -1.0000e+00
       12  1    3    3    0    0 +1.1292329363e+01 -1.0418949750e+01 -1.0705510412e+01 1.8726429706e+01 0.0000000000e+00 0.0000e+00 -1.0000e+00
</event>
<event>
 5      4 +6.9480500e-03 9.11880000e+01 7.81616400e-03 1.18400000e-01
      -11 -1    0    0    0    0 +0.0000000000e+00 +0.0000000000e+00 +4.5593999997e+01 4.5594000000e+01 5.1100000000e-04 0.0000e+00 -1.0000e+00
       11 -1    0    0    0    0 -0.0000000000e+00 -0.0000000000e+00 -4.5593999997e+01 4.5594000000e+01 5.1100000000e-04 0.0000e+00 1.0000e+00
       23  2    1    2    0    0 +0.0000000000e+00 +0.0000000000e+00 +0.0000000000e+00 9.1188000000e+01 9.1188000000e+01 2.0366e-13 0.0000e+00
  9900012  1    3    3    0    0 -9.9872229851e+00 +5.2666564327e-02 +1.5840826140e+01 7.2461570294e+01 7.0000000000e+01 4.0242e-04 -1.0000e+00
      -12  1    3    3    0    0 +9.9872229851e+00 -5.2666564327e-02 -1.5840826140e+01 1.8726429706e+01 0.0000000000e+00 0.0000e+00 1.0000e+00
</event>
<event>
 5      8 +6.9480500e-03 9.11880000e+01 7.81616400e-03 1.18400000e-01
      -11 -1    0    0    0    0 +0.0000000000e+00 +0.0000000000e+00 +4.5593999997e+01 4.5594000000e+01 5.1100000000e-04 0.0000e+00 1.0000e+00
       11 -1    0    0    0    0 -0.0000000000e+00 -0.0000000000e+00 -4.5593999997e+01 4.5594000000e+01 5.1100000000e-04 0.0000e+00 -1.0000e+00
       23  2    1    2    0    0 +0.0000000000e+00 +0.0000000000e+00 +0.0000000000e+00 9.1188000000e+01 9.1188000000e+01 1.2058e-13 0.0000e+00
  9900012  1    3    3    0    0 +4.9436748665e+00 -1.8039690550e+01 +8.9934041841e-01 7.2461570294e+01 7.0000000000e+01 1.1863e-05 -1.0000e+00
      -12  1    3    3    0    0 -4.9436748665e+00 +1.8039690550e+01 -8.9934041841e-01 1.8726429706e+01 0.0000000000e+00 0.0000e+00 1.0000e+00
</event>
<event>
 5      5 +6.9480500e-03 9.11880000e+01 7.81616400e-03 1.18400000e-01
      -11 -1    0    0    0    0 +0.0000000000e+00 +0.0000000000e+00 +4.5593999997e+01 4.5594000000e+01 5.1100000000e-04 0.0000e+00 1.0000e+00
       11 -1    0    0    0    0 -0.0000000000e+00 -0.0000000000e+00 -4.5593999997e+01 4.5594000000e+01 5.1100000000e-04 0.0000e+00 -1.0000e+00
       23  2    1    2    0    0 +0.0000000000e+00 +0.0000000000e+00 +0.0000000000e+00 9.1188000000e+01 9.1188000000e+01 1.7331e-14 0.0000e+00
  9900012  1    3    3    0    0 -1.2981024467e+01 -8.6418845046e+00 -1.0367738689e+01 7.2461570294e+01 7.0000000000e+01 1.6762e-04 -1.0000e+00
       12  1    3    3    0    0 +1.2981024467e+01 +8.6418845046e+00 +1.0367738689e+01 1.8726429706e+01 0.0000000000e+00 0.0000e+00 -1.0000e+00
</event>
<event>
 5      4 +6.9480500e-03 9.11880000e+01 7.81616400e-03 1.18400000e-01
      -11 -1    0    0    0    0 +0.0000000000e+00 +0.0000000000e+00 +4.5593999997e+01 4.5594000000e+01 5.1100000000e-04 0.0000e+00 -1.0000e+00
       11 -1    0    0    0    0 -0.0000000000e+00 -0.0000000000e+00 -4.5593999997e+01 4.5594000000e+01 5.1100000000e-04 0.0000e+00 1.0000e+00
       23  2    1    2    0    0 +0.0000000000e+00 +0.0000000000e+00 +0.0000000000e+00 9.1188000000e+01 9.1188000000e+01 1.2809e-13 0.0000e+00
  9900012  1    3    3    0    0 -4.1448103397e-01 +1.8433268169e+01 +3.2744464554e+00 7.2461570294e+01 7.0000000000e+01 3.1162e-05 -1.0000e+00
      -12  1    3    3    0    0 +4.1448103397e-01 -1.8433268169e+01 -3.2744464554e+00 1.8726429706e+01 0.0000000000e+00 0.0000e+00 1.0000e+00
</event>
<event>
 5      7 +6.9480500e-03 9.11880000e+01 7.81616400e-03 1.18400000e-01
      -11 -1    0    0    0    0 +0.0000000000e+00 +0.0000000000e+00 +4.5593999997e+01 4.5594000000e+01 5.1100000000e-04 0.0000e+00 1.0000e+00
       11 -1    0    0    0    0 -0.0000000000e+00 -0.0000000000e+00 -4.5593999997e+01 4.5594000000e+01 5.1100000000e-04 0.0000e+00 -1.0000e+00
       23  2    1    2    0    0 +0.0000000000e+00 +0.0000000000e+00 +0.0000000000e+00 9.1188000000e+01 9.1188000000e+01 7.1101e-14 0.0000e+00
  9900012  1    3    3    0    0 +2.5325144769e+00 -1.4285549909e+01 +1.1840126846e+01 7.2461570294e+01 7.0000000000e+01 2.5902e-05 1.0000e+00
       12  1    3    3    0    0 -2.5325144769e+00 +1.4285549909e+01 -1.1840126846e+01 1.8726429706e+01 0.0000000000e+00 0.0000e+00 -1.0000e+00
</event>
<event>
 5      6 +6.9480500e-03 9.11880000e+01 7.81616400e-03 1.18400000e-01
      -11 -1    0    0    0    0 +0.0000000000e+00 +0.0000000000e+00 +4.5593999997e+01 4.5594000000e+01 5.1100000000e-04 0.0000e+00 1.0000e+00
       11 -1    0    0    0    0 -0.0000000000e+00 -0.0000000000e+00 -4.5593999997e+01 4.5594000000e+01 5.1100000000e-04 0.0000e+00 -1.0000e+00
       23  2    1    2    0    0 +0.0000000000e+00 +0.0000000000e+00 +0.0000000000e+00 9.1188000000e+01 9.1188000000e+01 1.3218e-14 0.0000e+00
  9900012  1    3    3    0    0 +1.0403740098e+01 -4.3984601529e+00 -1.4936361999e+01 7.2461570294e+01 7.0000000000e+01 4.8603e-06 -1.0000e+00
      -12  1    3    3    0    0 -1.0403740098e+01 +4.3984601529e+00 +1.4936361999e+01 1.8726429706e+01 0.0000000000e+00 0.0000e+00 1.0000e+00
</event>
<event>
 5      6 +6.9480500e-03 9.11880000e+01 7.81616400e-03 1.18400000e-01
      -11 -1    0    0    0    0 +0.0000000000e+00 +0.0000000000e+00 +4.5593999997e+01 4.5594000000e+01 5.1100000000e-04 0.0000e+00 1.0000e+00
       11 -1    0    0    0    0 -0.0000000000e+00 -0.0000000000e+00 -4.5593999997e+01 4.5594000000e+01 5.1100000000e-04 0.0000e+00 -1.0000e+00
       23  2    1    2    0    0 +0.0000000000e+00 +0.0000000000e+00 +0.0000000000e+00 9.1188000000e+01 9.1188000000e+01 9.8331e-16 0.0000e+00
  9900012  1    3    3    0    0 -2.3801961385e+00 +1.3416141581e+01 -1.2846049235e+01 7.2461570294e+01 7.0000000000e+01 2.5251e-05 -1.0000e+00
      -12  1    3    3    0    0 +2.3801961385e+00 -1.3416141581e+01 +1.2846049235e+01 1.8726429706e+01 0.0000000000e+00 0.0000e+00 1.0000e+00
</event>
<event>
 5      5 +6.9480500e-03 9.11880000e+01 7.81616400e-03 1.18400000e-01
      -11 -1    0    0    0    0 +0.0000000000e+00 +0.0000000000e+00 +4.5593999997e+01 4.5594000000e+01 5.1100000000e-04 0.0000e+00 -1.0000e+00
       11 -1    0    0    0    0 -0.0000000000e+00 -0.0000000000e+00 -4.5593999997e+01 4.5594000000e+01 5.1100000000e-04 0.0000e+00 1.0000e+00
       23  2    1    2    0    0 +0.0000000000e+00 +0.0000000000e+00 +0.0000000000e+00 9.1188000000e+01 9.1188000000e+01 1.8185e-13 0.0000e+00
  9900012  1    3    3    0    0 +1.4962827350e+01 +6.2857995493e+00 -9.3424670854e+00 7.2461570294e+01 7.0000000000e+01 2.3928e-04 -1.0000e+00
       12  1    3    3    0    0 -1.4962827350e+01 -6.2857995493e+00 +9.3424670854e+00 1.8726429706e+01 0.0000000000e+00 0.0000e+00 -1.0000e+00
</event>
<event>
 5      4 +6.9480500e-03 9.11880000e+01 7.81616400e-03 1.18400000e-01
      -11 -1    0    0    0    0 +0.0000000000e+00 +0.0000000000e+00 +4.5593999997e+01 4.5594000000e+01 5.1100000000e-04 0.0000e+00 1.0000e+00
       11 -1    0    0    0    0 -0.0000000000e+00 -0.0000000000e+00 -4.5593999997e+01 4.5594000000e+01 5.1100000000e-04 0.0000e+00 -1.0000e+00
       23  2    1    2    0    0 +0.0000000000e+00 +0.0000000000e+00 +0.0000000000e+00 9.1188000000e+01 9.1188000000e+01 1.6460e-14 0.0000e+00
  9900012  1    3    3    0    0 +9.0280408950e+00 -1.5563720608e+01 +5.1907849062e+00 7.2461570294e+01 7.0000000000e+01 2.5453e-04 -1.0000e+00
      -12  1    3    3    0    0 -9.0280408950e+00 +1.5563720608e+01 -5.1907849062e+00 1.8726429706e+01 0.0000000000e+00 0.0000e+00 1.0000e+00
</event>
<event>
 5      2 +6.9480500e-03 9.11880000e+01 7.81616400e-03 1.18400000e-01
      -11 -1    0    0    0    0 +0.0000000000e+00 +0.0000000000e+00 +4.5593999997e+01 4.5594000000e+01 5.1100000000e-04 0.0000e+00 1.0000e+00
       11 -1    0    0    0    0 -0.0000000000e+00 -0.0000000000e+00 -4.5593999997e+01 4.5594000000e+01 5.1100000000e-04 0.0000e+00 -1.0000e+00
       23  2    1    2    0    0 +0.0000000000e+00 +0.0000000000e+00 +0.0000000000e+00 9.1188000000e+01 9.1188000000e+01 1.6956e-13 0.0000e+00
  9900012  1    3    3    0    0 -5.9035462389e-01 -1.5947026272e+01 +9.7991328198e+00 7.2461570294e+01 7.0000000000e+01 4.4688e-05 1.0000e+00
      -12  1    3    3    0    0 +5.9035462389e-01 +1.5947026272e+01 -9.7991328198e+00 1.8726429706e+01 0.0000000000e+00 0.0000e+00 1.0000e+00
</event>
<event>
 5      7 +6.9480500e-03 9.11880000e+01 7.81616400e-03 1.18400000e-01
      -11 -1    0    0    0    0 +0.0000000000e+00 +0.0000000000e+00 +4.5593999997e+01 4.5594000000e+01 5.1100000000e-04 0.0000e+00 1.0000e+00
       11 -1    0    0    0    0 -0.0000000000e+00 -0.0000000000e+00 -4.5593999997e+01 4.5594000000e+01 5.1100000000e-04 0.0000e+00 -1.0000e+00
       23  2    1    2    0    0 +0.0000000000e+00 +0.0000000000e+00 +0.0000000000e+00 9.1188000000e+01 9.1188000000e+01 8.2561e-14 0.0000e+00
  9900012  1    3    3    0    0 +1.0373290879e+00 +1.8416436066e+01 +3.2307894573e+00 7.2461570294e+01 7.0000000000e+01 3.2154e-04 1.0000e+00
       12  1    3    3    0    0 -1.0373290879e+00 -1.8416436066e+01 -3.2307894573e+00 1.8726429706e+01 0.0000000000e+00 0.0000e+00 -1.0000e+00
</event>
<event>
 5      7 +6.9480500e-03 9.11880000e+01 7.81616400e-03 1.18400000e-01
      -11 -1    0    0    0    0 +0.0000000000e+00 +0.0000000000e+00 +4.5593999997e+01 4.5594000000e+01 5.1100000000e-04 0.0000e+00 -1.0000e+00
       11 -1    0    0    0    0 -0.0000000000e+00 -0.0000000000e+00 -4.5593999997e+01 4.5594000000e+01 5.1100000000e-04 0.0000e+00 1.0000e+00
       23  2    1    2    0    0 +0.0000000000e+00 +0.0000000000e+00 +0.0000000000e+00 9.1188000000e+01 9.1188000000e+01 1.4839e-15 0.0000e+00
  9900012  1    3    3    0    0 -1.0428757404e+01 +6.6851840734e+00 -1.4043806551e+01 7.2461570294e+01 7.0000000000e+01 5.0980e-05 1.0000e+00
       12  1    3    3    0    0 +1.0428757404e+01 -6.6851840734e+00 +1.4043806551e+01 1.8726429706e+01 0.0000000000e+00 0.0000e+00 -1.0000e+00
</event>
<event>
 5      7 +6.9480500e-03 9.11880000e+01 7.81616400e-03 1.18400000e-01
      -11 -1    0    0    0    0 +0.0000000000e+00 +0.0000000000e+00 +4.5593999997e+01 4.5594000000e+01 5.1100000000e-04 0.0000e+00 1.0000e+00
       11 -1    0    0    0    0 -0.0000000000e+00 -0.0000000000e+00 -4.5593999997e+01 4.5594000000e+01 5.1100000000e-04 0.0000e+00 -1.0000e+00
       23  2    1    2    0    0 +0.0000000000e+00 +0.0000000000e+00 +0.0000000000e+00 9.1188000000e+01 9.1188000000e+01 9.6785e-15 0.0000e+00
  9900012  1    3    3    0    0 +1.4016573804e+01 -1.2272714453e+01 +1.8961298193e+00 7.2461570294e+01 7.0000000000e+01 9.8978e-05 -1.0000e+00
       12  1    3    3    0    0 -1.4016573804e+01 +1.2272714453e+01 -1.8961298193e+00 1.8726429706e+01 0.0000000000e+00 0.0000e+00 -1.0000e+00
</event>
<event>
 5      7 +6.9480500e-03 9.11880000e+01 7.81616400e-03 1.18400000e-01
      -11 -1    0    0    0    0 +0.0000000000e+00 +0.0000000000e+00 +4.5593999997e+01 4.5594000000e+01 5.1100000000e-04 0.0000e+00 -1.0000e+00
       11 -1    0    0    0    0 -0.0000000000e+00 -0.0000000000e+00 -4.5593999997e+01 4.5594000000e+01 5.1100000000e-04 0.0000e+00 1.0000e+00
       23  2    1    2    0    0 +0.0000000000e+00 +0.0000000000e+00 +0.0000000000e+00 9.1188000000e+01 9.1188000000e+01 1.8636e-13 0.0000e+00
  9900012  1    3    3    0    0 -7.8681929710e+00 +9.5121821072e+00 -1.4081516270e+01 7.2461570294e+01 7.0000000000e+01 1.1923e-04 1.0000e+00
       12  1    3    3    0    0 +7.8681929710e+00 -9.5121821072e+00 +1.4081516270e+01 1.8726429706e+01 0.0000000000e+00 0.0000e+00 -1.0000e+00
</event>
<event>
 5      1 +6.9480500e-03 9.11880000e+01 7.81616400e-03 1.18400000e-01
      -11 -1    0    0    0    0 +0.0000000000e+00 +0.0000000000e+00 +4.5593999997e+01 4.5594000000e+01 5.1100000000e-04 0.0000e+00 1.0000e+00
       11 -1    0    0    0    0 -0.0000000000e+00 -0.0000000000e+00 -4.5593999997e+01 4.5594000000e+01 5.1100000000e-04 0.0000e+00 -1.0000e+00
       23  2    1    2    0    0 +0.0000000000e+00 +0.0000000000e+00 +0.0000000000e+00 9.1188000000e+01 9.1188000000e+01 9.1316e-15 0.0000e+00
  9900012  1    3    3    0    0 -1.8510056574e+01 +2.6406456123e-01 +2.8261714464e+00 7.2461570294e+01 7.0000000000e+01 4.0155e-05 -1.0000e+00
       12  1    3    3    0    0 +1.8510056574e+01 -2.6406456123e-01 -2.8261714464e+00 1.8726429706e+01 0.0000000000e+00 0.0000e+00 -1.0000e+00
</event>
<event>
 5      3 +6.9480500e-03 9.11880000e+01 7.81616400e-03 1.18400000e-01
      -11 -1    0    0    0    0 +0.0000000000e+00 +0.0000000000e+00 +4.5593999997e+01 4.5594000000e+01 5.1100000000e-04 0.0000e+00 1.0000e+00
       11 -1    0    0    0    0 -0.0000000000e+00 -0.0000000000e+00 -4.5593999997e+01 4.5594000000e+01 5.1100000000e-04 0.0000e+00 -1.0000e+00
       23  2    1    2    0    0 +0.0000000000e+00 +0.0000000000e+00 +0.0000000000e+00 9.1188000000e+01 9.1188000000e+01 7.0139e-14 0.0000e+00
  9900012  1    3    3    0    0 -1.2863363505e+01 -1.3484825848e+01 +1.8364424106e+00 7.2461570294e+01 7.0000000000e+01 1.0229e-04 -1.0000e+00
       12  1    3    3    0    0 +1.2863363505e+01 +1.3484825848e+01 -1.8364424106e+00 1.8726429706e+01 0.0000000000e+00 0.0000e+00 -1.0000e+00
</event>
<event>
 5      8 +6.9480500e-03 9.11880000e+01 7.81616400e-03 1.18400000e-01
      -11 -1    0    0    0    0 +0.0000000000e+00 +0.0000000000e+00 +4.5593999997e+01 4.5594000000e+01 5.1100000000e-04 0.0000e+00 1.0000e+00
       11 -1    0    0    0    0 -0.0000000000e+00 -0.0000000000e+00 -4.5593999997e+01 4.5594000000e+01 5.1100000000e-04 0.0000e+00 -1.0000e+00
       23  2    1    2    0    0 +0.0000000000e+00 +0.0000000000e+00 +0.0000000000e+00 9.1188000000e+01 9.1188000000e+01 3.7968e-14 0.0000e+00
  9900012  1    3    3    0    0 -3.8733352576e+00 -1.6323667036e+01 -8.3195154906e+00 7.2461570294e+01 7.0000000000e+01 5.4697e-05 -1.0000e+00
      -12  1    3    3    0    0 +3.8733352576e+00 +1.6323667036e+01 +8.3195154906e+00 1.8726429706e+01 0.0000000000e+00 0.0000e+00 1.0000e+00
</event>
<event>
 5      5 +6.9480500e-03 9.11880000e+01 7.81616400e-03 1.18400000e-01
      -11 -1    0    0    0    0 +0.0000000000e+00 +0.0000000000e+00 +4.5593999997e+01 4.5594000000e+01 5.1100000000e-04 0.0000e+00 -1.0000e+00
       11 -1    0    0    0    0 -0.0000000000e+00 -0.0000000000e+00 -4.5593999997e+01 4.5594000000e+01 5.1100000000e-04 0.0000e+00 1.0000e+00
       23  2    1    2    0    0 +0.0000000000e+00 +0.0000000000e+00 +0.0000000000e+00 9.1188000000e+01 9.1188000000e+01 1.8142e-14 0.0000e+00
  9900012  1    3    3    0    0 +6.7039859071e+00 -1.5893849646e+01 -7.2884350804e+00 7.2461570294e+01 7.0000000000e+01 3.0992e-04 1.0000e+00
       12  1    3    3    0    0 -6.7039859071e+00 +1.5893849646e+01 +7.2884350804e+00 1.8726429706e+01 0.0000000000e+00 0.0000e+00 -1.0000e+00
</event>
<event>
 5      1 +6.9480500e-03 9.11880000e+01 7.81616400e-03 1.18400000e-01
      -11 -1    0    0    0    0 +0.0000000000e+00 +0.0000000000e+00 +4.5593999997e+01 4.5594000000e+01 5.1100000000e-04 0.0000e+00 -1.0000e+00
       11 -1    0    0    0    0 -0.0000000000e+00 -0.0000000000e+00 -4.5593999997e+01 4.5594000000e+01 5.1100000000e-04 0.0000e+00 1.0000e+00
       23  2    1    2    0    0 +0.0000000000e+00 +0.0000000000e+00 +0.0000000000e+00 9.1188000000e+01 9.1188000000e+01 4.1746e-15 0.0000e+00
  9900012  1    3    3    0    0 +8.5192007561e+00 -1.6453954560e+01 +2.7147315403e+00 7.2461570294e+01 7.0000000000e+01 1.6297e-04 1.0000e+00
       12  1    3    3    0    0 -8.5192007561e+00 +1.6453954560e+01 -2.7147315403e+00 1.8726429706e+01 0.0000000000e+00 0.0000e+00 -1.0000e+00
</event>
<event>
 5      3 +6.9480500e-03 9.11880000e+01 7.81616400e-03 1.18400000e-01
      -11 -1    0    0    0    0 +0.0000000000e+00 +0.0000000000e+00 +4.5593999997e+01 4.5594000000e+01 5.1100000000e-04 0.0000e+00 1.0000e+00
       11 -1    0    0    0    0 -0.0000000000e+00 -0.0000000000e+00 -4.5593999997e+01 4.5594000000e+01 5.1100000000e-04 0.0000e+00 -1.0000e+00
       23  2    1    2    0    0 +0.0000000000e+00 +0.0000000000e+00 +0.0000000000e+00 9.1188000000e+01 9.1188000000e+01 1.8444e-15 0.0000e+00
  9900012  1    3    3    0    0 +1.7205921838e+00 +1.5329897610e+01 -1.0616636536e+01 7.2461570294e+01 7.0000000000e+01 1.9053e-05 -1.0000e+00
       12  1    3    3    0    0 -1.7205921838e+00 -1.5329897610e+01 +1.0616636536e+01 1.8726429706e+01 0.0000000000e+00 0.0000e+00 -1.0000e+00
</event>
<event>
 5      6 +6.9480500e-03 9.11880000e+01 7.81616400e-03 1.18400000e-01
      -11 -1    0    0    0    0 +0.0000000000e+00 +0.0000000000e+00 +4.5593999997e+01 4.5594000000e+01 5.1100000000e-04 0.0000e+00 1.0000e+00
       11 -1    0    0    0    0 -0.0000000000e+00 -0.0000000000e+00 -4.5593999997e+01 4.5594000000e+01 5.1100000000e-04 0.0000e+00 -1.0000e+00
       23  2    1    2    0    0 +0.0000000000e+00 +0.0000000000e+00 +0.0000000000e+00 9.1188000000e+01 9.1188000000e+01 4.1467e-14 0.0000e+00
  9900012  1    3    3    0    0 -1.1040533592e+01 -1.0868384726e+00 -1.5086569181e+01 7.2461570294e+01 7.0000000000e+01 1.3605e-05 -1.0000e+00
      -12  1    3    3    0    0 +1.1040533592e+01 +1.0868384726e+00 +1.5086569181e+01 1.8726429706e+01 0.0000000000e+00 0.0000e+00 1.0000e+00
</event>
<event>
 5      8 +6.9480500e-03 9.11880000e+01 7.81616400e-03 1.18400000e-01
      -11 -1    0    0    0    0 +0.0000000000e+00 +0.0000000000e+00 +4.5593999997e+01 4.5594000000e+01 5.1100000000e-04 0.0000e+00 1.0000e+00
       11 -1    0    0    0    0 -0.0000000000e+00 -0.0000000000e+00 -4.5593999997e+01 4.5594000000e+01 5.1100000000e-04 0.0000e+00 -1.0000e+00
       23  2    1    2    0    0 +0.0000000000e+00 +0.0000000000e+00 +0.0000000000e+00 9.1188000000e+01 9.1188000000e+01 2.2013e-14 0.0000e+00
  9900012  1    3    3    0    0 +1.0565516132e+01 -1.5461111029e+01 +5.5535010521e-02 7.2461570294e+01 7.0000000000e+01 4.5410e-05 -1.0000e+00
      -12  1    3    3    0    0 -1.0565516132e+01 +1.5461111029e+01 -5.5535010521e-02 1.8726429706e+01 0.0000000000e+00 0.0000e+00 1.0000e+00
</event>
<event>
 5      7 +6.9480500e-03 9.11880000e+01 7.81616400e-03 1.18400000e-01
      -11 -1    0    0    0    0 +0.0000000000e+00 +0.0000000000e+00 +4.5593999997e+01 4.5594000000e+01 5.1100000000e-04 0.0000e+00 1.0000e+00
       11 -1    0    0    0    0 -0.0000000000e+00 -0.0000000000e+00 -4.5593999997e+01 4.5594000000e+01 5.1100000000e-04 0.0000e+00 -1.0000e+00
       23  2    1    2    0    0 +0.0000000000e+00 +0.0000000000e+00 +0.0000000000e+00 9.1188000000e+01 9.1188000000e+01 2.4099e-14 0.0000e+00
  9900012  1    3    3    0    0 +2.0741939927e+00 +1.6220082673e+01 +9.1261057900e+00 7.2461570294e+01 7.0000000000e+01 1.8394e-04 1.0000e+00
       12  1    3    3    0    0 -2.0741939927e+00 -1.6220082673e+01 -9.1261057900e+00 1.8726429706e+01 0.0000000000e+00 0.0000e+00 -1.0000e+00
</event>
<event>
 5      2 +6.9480500e-03 9.11880000e+01 7.81616400e-03 1.18400000e-01
      -11 -1    0    0    0    0 +0.0000000000e+00 +0.0000000000e+00 +4.5593999997e+01 4.5594000000e+01 5.1100000000e-04 0.0000e+00 1.0000e+00
       11 -1    0    0    0    0 -0.0000000000e+00 -0.0000000000e+00 -4.5593999997e+01 4.5594000000e+01 5.1100000000e-04 0.0000e+00 -1.0000e+00
       23  2    1    2    0    0 +0.0000000000e+00 +0.0000000000e+00 +0.0000000000e+00 9.1188000000e+01 9.1188000000e+01 1.2708e-14 0.0000e+00
  9900012  1    3    3    0    0 +3.9674241358e+00 -1.7336520858e+01 +5.8637666894e+00 7.2461570294e+01 7.0000000000e+01 5.4086e-06 -1.0000e+00
      -12  1    3    3    0    0 -3.9674241358e+00 +1.7336520858e+01 -5.8637666894e+00 1.8726429706e+01 0.0000000000e+00 0.0000e+00 1.0000e+00
</event>
<event>
 5      8 +6.9480500e-03 9.11880000e+01 7.81616400e-03 1.18400000e-01
      -11 -1    0    0    0    0 +0.0000000000e+00 +0.0000000000e+00 +4.5593999997e+01 4.5594000000e+01 5.1100000000e-04 0.0000e+00 1.0000e+00
       11 -1    0    0    0    0 -0.0000000000e+00 -0.0000000000e+00 -4.5593999997e+01 4.5594000000e+01 5.1100000000e-04 0.0000e+00 -1.0000e+00
       23  2    1    2    0    0 +0.0000000000e+00 +0.0000000000e+00 +0.0000000000e+00 9.1188000000e+01 9.1188000000e+01 2.1165e-14 0.0000e+00
  9900012  1    3    3    0    0 -6.0265416112e+00 +4.6754839704e+00 -1.7102625979e+01 7.2461570294e+01 7.0000000000e+01 2.0770e-04 -1.0000e+00
      -12  1    3    3    0    0 +6.0265416112e+00 -4.6754839704e+00 +1.7102625979e+01 1.8726429706e+01 0.0000000000e+00 0.0000e+00 1.0000e+00
</event>
<event>
 5      5 +6.9480500e-03 9.11880000e+01 7.81616400e-03 1.18400000e-01
      -11 -1    0    0    0    0 +0.0000000000e+00 +0.0000000000e+00 +4.5593999997e+01 4.5594000000e+01 5.1100000000e-04 0.0000e+00 -1.0000e+00
       11 -1    0    0    0    0 -0.0000000000e+00 -0.0000000000e+00 -4.5593999997e+01 4.5594000000e+01 5.1100000000e-04 0.0000e+00 1.0000e+00
       23  2    1    2    0    0 +0.0000000000e+00 +0.0000000000e+00 +0.0000000000e+00 9.1188000000e+01 9.1188000000e+01 8.3604e-15 0.0000e+00
  9900012  1    3    3    0    0 -1.7186909397e+01 -7.2548856962e+00 -1.6297080792e+00 7.2461570294e+01 7.0000000000e+01 5.8171e-06 -1.0000e+00
       12  1    3    3    0    0 +1.7186909397e+01 +7.2548856962e+00 +1.6297080792e+00 1.8726429706e+01 0.0000000000e+00 0.0000e+00 -1.0000e+00
</event>
<event>
 5      3 +6.9480500e-03 9.11880000e+01 7.81616400e-03 1.18400000e-01
      -11 -1    0    0    0    0 +0.0000000000e+00 +0.0000000000e+00 +4.5593999997e+01 4.5594000000e+01 5.1100000000e-04 0.0000e+00 1.0000e+00
       11 -1    0    0    0    0 -0.0000000000e+00 -0.0000000000e+00 -4.5593999997e+01 4.5594000000e+01 5.1100000000e-04 0.0000e+00 -1.0000e+00
       23  2    1    2    0    0 +0.0000000000e+00 +0.0000000000e+00 +0.0000000000e+00 9.1188000000e+01 9.1188000000e+01 1.1253e-13 0.0000e+00
  9900012  1    3    3    0    0 -5.2421660072e-01 +1.3332685907e+01 +1.3139400784e+01 7.2461570294e+01 7.0000000000e+01 1.9363e-04 1.0000e+00
       12  1    3    3    0    0 +5.2421660072e-01 -1.3332685907e+01 -1.3139400784e+01 1.8726429706e+01 0.0000000000e+00 0.0000e+00 -1.0000e+00
</event>
<event>
 5      4 +6.9480500e-03 9.11880000e+01 7.81616400e-03 1.18400000e-01
      -11 -1    0    0    0    0 +0.0000000000e+00 +0.0000000000e+00 +4.5593999997e+01 4.5594000000e+01 5.1100000000e-04 0.0000e+00 1.0000e+00
       11 -1    0    0    0    0 -0.0000000000e+00 -0.0000000000e+00 -4.5593999997e+01 4.5594000000e+01 5.1100000000e-04 0.0000e+00 -1.0000e+00
       23  2    1    2    0    0 +0.0000000000e+00 +0.0000000000e+00 +0.0000000000e+00 9.1188000000e+01 9.1188000000e+01 2.2781e-14 0.0000e+00
  9900012  1    3    3    0    0 +1.7918948244e+01 +2.6586865377e-01 -5.4332105808e+00 7.2461570294e+01 7.0000000000e+01 1.3982e-04 -1.0000e+00
      -12  1    3    3    0    0 -1.7918948244e+01 -2.6586865377e-01 +5.4332105808e+00 1.8726429706e+01 0.0000000000e+00 0.0000e+00 1.0000e+00
</event>
<event>
 5      8 +6.9480500e-03 9.11880000e+01 7.81616400e-03 1.18400000e-01
      -11 -1    0    0    0    0 +0.0000000000e+00 +0.0000000000e+00 +4.5593999997e+01 4.5594000000e+01 5.1100000000e-04 0.0000e+00 -1.0000e+00
       11 -1    0    0    0    0 -0.0000000000e+00 -0.0000000000e+00 -4.5593999997e+01 4.5594000000e+01 5.1100000000e-04 0.0000e+00 1.0000e+00
       23  2    1    2    0    0 +0.0000000000e+00 +0.0000000000e+00 +0.0000000000e+00 9.1188000000e+01 9.1188000000e+01 1.4540e-13 0.0000e+00
  9900012  1    3    3    0    0 -1.4717041521e+01 +1.1424725885e+01 +1.8877226613e+00 7.2461570294e+01 7.0000000000e+01 2.5260e-04 -1.0000e+00
      -12  1    3    3    0    0 +1.4717041521e+01 -1.1424725885e+01 -1.8877226613e+00 1.8726429706e+01 0.0000000000e+00 0.0000e+00 1.0000e+00
</event>
<event>
 5      7 +6.9480500e-03 9.11880000e+01 7.81616400e-03 1.18400000e-01
      -11 -1    0    0    0    0 +0.0000000000e+00 +0.0000000000e+00 +4.5593999997e+01 4.5594000000e+01 5.1100000000e-04 0.0000e+00 1.0000e+00
       11 -1    0    0    0    0 -0.0000000000e+00 -0.0000000000e+00 -4.5593999997e+01 4.5594000000e+01 5.1100000000e-04 0.0000e+00 -1.0000e+00
       23  2    1    2    0    0 +0.0000000000e+00 +0.0000000000e+00 +0.0000000000e+00 9.1188000000e+01 9.1188000000e+01 1.0901e-13 0.0000e+00
  9900012  1    3    3    0    0 -7.3492114299e+00 +1.6120775154e+01 +6.0653828666e+00 7.2461570294e+01 7.0000000000e+01 4.8919e-05 1.0000e+00
       12  1    3    3    0    0 +7.3492114299e+00 -1.6120775154e+01 -6.0653828666e+00 1.8726429706e+01 0.0000000000e+00 0.0000e+00 -1.0000e+00
</event>
<event>
 5      8 +6.9480500e-03 9.11880000e+01 7.81616400e-03 1.18400000e-01
      -11 -1    0    0    0    0 +0.0000000000e+00 +0.0000000000e+00 +4.5593999997e+01 4.5594000000e+01 5.1100000000e-04 0.0000e+00 -1.0000e+00
       11 -1    0    0    0    0 -0.0000000000e+00 -0.0000000000e+00 -4.5593999997e+01 4.5594000000e+01 5.1100000000e-04 0.0000e+00 1.0000e+00
       23  2    1    2    0    0 +0.0000000000e+00 +0.0000000000e+00 +0.0000000000e+00 9.1188000000e+01 9.1188000000e+01 9.3908e-14 0.0000e+00
  9900012  1    3    3    0    0 -5.9207036404e+00 -5.6866004368e+00 +1.6831132267e+01 7.2461570294e+01 7.0000000000e+01 3.9053e-05 -1.0000e+00
      -12  1    3    3    0    0 +5.9207036404e+00 +5.6866004368e+00 -1.6831132267e+01 1.8726429706e+01 0.0000000000e+00 0.0000e+00 1.0000e+00
</event>
<event>
 5      7 +6.9480500e-03 9.11880000e+01 7.81616400e-03 1.18400000e-01
      -11 -1    0    0    0    0 +0.0000000000e+00 +0.0000000000e+00 +4.5593999997e+01 4.5594000000e+01 5.1100000000e-04 0.0000e+00 -1.0000e+00
       11 -1    0    0    0    0 -0.0000000000e+00 -0.0000000000e+00 -4.5593999997e+01 4.5594000000e+01 5.1100000000e-04 0.0000e+00 1.0000e+00
       23  2    1    2    0    0 +0.0000000000e+00 +0.0000000000e+00 +0.0000000000e+00 9.1188000000e+01 9.1188000000e+01 4.2560e-14 0.0000e+00
  9900012  1    3    3    0    0 +8.4388211228e+00 +1.5747068199e+01 +5.6120683092e+00 7.2461570294e+01 7.0000000000e+01 4.3637e-05 -1.0000e+00
       12  1    3    3    0    0 -8.4388211228e+00 -1.5747068199e+01 -5.6120683092e+00 1.8726429706e+01 0.0000000000e+00 0.0000e+00 -1.0000e+00
</event>
<event>
 5      3 +6.9480500e-03 9.11880000e+01 7.81616400e-03 1.18400000e-01
      -11 -1    0    0    0    0 +0.0000000000e+00 +0.0000000000e+00 +4.5593999997e+01 4.5594000000e+01 5.1100000000e-04 0.0000e+00 -1.0000e+00
       11 -1    0    0    0    0 -0.0000000000e+00 -0.0000000000e+00 -4.5593999997e+01 4.5594000000e+01 5.1100000000e-04 0.0000e+00 1.0000e+00
       23  2    1    2    0    0 +0.0000000000e+00 +0.0000000000e+00 +0.0000000000e+00 9.1188000000e+01 9.1188000000e+01 2.2825e-14 0.0000e+00
  9900012  1    3    3    0    0 -1.5031030975e+01 -1.0544753604e+01 -3.6817725044e+00 7.2461570294e+01 7.0000000000e+01 5.9729e-06 1.0000e+00
       12  1    3    3    0    0 +1.5031030975e+01 +1.0544753604e+01 +3.6817725044e+00 1.8726429706e+01 0.0000000000e+00 0.0000e+00 -1.0000e+00
</event>
<event>
 5      8 +6.9480500e-03 9.11880000e+01 7.81616400e-03 1.18400000e-01
      -11 -1    0    0    0    0 +0.0000000000e+00 +0.0000000000e+00 +4.5593999997e+01 4.5594000000e+01 5.1100000000e-04 0.0000e+00 1.0000e+00
       11 -1    0    0    0    0 -0.0000000000e+00 -0.0000000000e+00 -4.5593999997e+01 4.5594000000e+01 5.1100000000e-04 0.0000e+00 -1.0000e+00
       23  2    1    2    0    0 +0.0000000000e+00 +0.0000000000e+00 +0.0000000000e+00 9.1188000000e+01 9.1188000000e+01 1.0866e-13 0.0000e+00
  9900012  1    3    3    0    0 -1.1458378549e+01 +1.1348174332e+01 -9.5185960033e+00 7.2461570294e+01 7.0000000000e+01 2.2282e-04 -1.0000e+00
      -12  1    3    3    0    0 +1.1458378549e+01 -1.1348174332e+01 +9.5185960033e+00 1.8726429706e+01 0.0000000000e+00 0.0000e+00 1.0000e+00
</event>
<event>
 5      1 +6.9480500e-03 9.11880000e+01 7.81616400e-03 1.18400000e-01
      -11 -1    0    0    0    0 +0.0000000000e+00 +0.0000000000e+00 +4.5593999997e+01 4.5594000000e+01 5.1100000000e-04 0.0000e+00 1.0000e+00
       11 -1    0    0    0    0 -0.0000000000e+00 -0.0000000000e+00 -4.5593999997e+01 4.5594000000e+01 5.1100000000e-04 0.0000e+00 -1.0000e+00
       23  2    1    2    0    0 +0.0000000000e+00 +0.0000000000e+00 +0.0000000000e+00 9.1188000000e+01 9.1188000000e+01 6.5847e-14 0.0000e+00
  9900012  1    3    3    0    0 +1.2728137686e+00 +1.8652623799e+01 +1.0671176296e+00 7.2461570294e+01 7.0000000000e+01 7.8909e-05 1.0000e+00
       12  1    3    3    0    0 -1.2728137686e+00 -1.8652623799e+01 -1.0671176296e+00 1.8726429706e+01 0.0000000000e+00 0.0000e+00 -1.0000e+00
</event>
<event>
 5      3 +6.9480500e-03 9.11880000e+01 7.81616400e-03 1.18400000e-01
      -11 -1    0    0    0    0 +0.0000000000e+00 +0.0000000000e+00 +4.5593999997e+01 4.5594000000e+01 5.1100000000e-04 0.0000e+00 -1.0000e+00
       11 -1    0    0    0    0 -0.0000000000e+00 -0.0000000000e+00 -4.5593999997e+01 4.5594000000e+01 5.1100000000e-04 0.0000e+00 1.0000e+00
       23  2    1    2    0    0 +0.0000000000e+00 +0.0000000000e+00 +0.0000000000e+00 9.1188000000e+01 9.1188000000e+01 1.1137e-14 0.0000e+00
  9900012  1    3    3    0    0 +8.3154126688e+00 +9.4040574131e+00 -1.3895926951e+01 7.2461570294e+01 7.0000000000e+01 1.5334e-04 1.0000e+00
       12  1    3    3    0    0 -8.3154126688e+00 -9.4040574131e+00 +1.3895926951e+01 1.8726429706e+01 0.0000000000e+00 0.0000e+00 -1.0000e+00
</event>
<event>
 5      6 +6.9480500e-03 9.11880000e+01 7.81616400e-03 1.18400000e-01
      -11 -1    0    0    0    0 +0.0000000000e+00 +0.0000000000e+00 +4.5593999997e+01 4.5594000000e+01 5.1100000000e-04 0.0000e+00 -1.0000e+00
       11 -1    0    0    0    0 -0.0000000000e+00 -0.0000000000e+00 -4.5593999997e+01 4.5594000000e+01 5.1100000000e-04 0.0000e+00 1.0000e+00
       23  2    1    2    0    0 +0.0000000000e+00 +0.0000000000e+00 +0.0000000000e+00 9.1188000000e+01 9.1188000000e+01 5.1320e-14 0.0000e+00
  9900012  1    3    3    0    0 +8.1462718420e+00 +3.1347122123e+00 +1.6567770035e+01 7.2461570294e+01 7.0000000000e+01 2.9880e-04 -1.0000e+00
      -12  1    3    3    0    0 -8.1462718420e+00 -3.1347122123e+00 -1.6567770035e+01 1.8726429706e+01 0.0000000000e+00 0.0000e+00 1.0000e+00
</event>
<event>
 5      3 +6.9480500e-03 9.11880000e+01 7.81616400e-03 1.18400000e-01
      -11 -1    0    0    0    0 +0.0000000000e+00 +0.0000000000e+00 +4.5593999997e+01 4.5594000000e+01 5.1100000000e-04 0.0000e+00 -1.0000e+00
       11 -1    0    0    0    0 -0.0000000000e+00 -0.0000000000e+00 -4.5593999997e+01 4.5594000000e+01 5.1100000000e-04 0.0000e+00 1.0000e+00
       23  2    1    2    0    0 +0.0000000000e+00 +0.0000000000e+00 +0.0000000000e+00 9.1188000000e+01 9.1188000000e+01 4.4000e-14 0.0000e+00
  9900012  1    3    3    0    0 -1.4805715108e+01 +9.0120509593e+00 +7.0889284927e+00 7.2461570294e+01 7.0000000000e+01 4.9991e-04 1.0000e+00
       12  1    3    3    0    0 +1.4805715108e+01 -9.0120509593e+00 -7.0889284927e+00 1.8726429706e+01 0.0000000000e+00 0.0000e+00 -1.0000e+00
</event>
<event>
 5      4 +6.9480500e-03 9.11880000e+01 7.81616400e-03 1.18400000e-01
      -11 -1    0    0    0    0 +0.0000000000e+00 +0.0000000000e+00 +4.5593999997e+01 4.5594000000e+01 5.1100000000e-04 0.0000e+00 -1.0000e+00
       11 -1    0    0    0    0 -0.0000000000e+00 -0.0000000000e+00 -4.5593999997e+01 4.5594000000e+01 5.1100000000e-04 0.0000e+00 1.0000e+00
       23  2    1    2    0    0 +0.0000000000e+00 +0.0000000000e+00 +0.0000000000e+00 9.1188000000e+01 9.1188000000e+01 2.5419e-14 0.0000e+00
  9900012  1    3    3    0    0 +1.1004425233e+01 -4.7424224074e+00 +1.4390664492e+01 7.2461570294e+01 7.0000000000e+01 2.4125e-04 -1.0000e+00
      -12  1    3    3    0    0 -1.1004425233e+01 +4.7424224074e+00 -1.4390664492e+01 1.8726429706e+01 0.0000000000e+00 0.0000e+00 1.0000e+00
</event>
<event>
 5      5 +6.9480500e-03 9.11880000e+01 7.81616400e-03 1.18400000e-01
      -11 -1    0    0    0    0 +0.0000000000e+00 +0.0000000000e+00 +4.5593999997e+01 4.5594000000e+01 5.1100000000e-04 0.0000e+00 1.0000e+00
       11 -1    0    0    0    0 -0.0000000000e+00 -0.0000000000e+00 -4.5593999997e+01 4.5594000000e+01 5.1100000000e-04 0.0000e+00 -1.0000e+00
       23  2    1    2    0    0 +0.0000000000e+00 +0.0000000000e+00 +0.0000000000e+00 9.1188000000e+01 9.1188000000e+01 1.0324e-13 0.0000e+00
  9900012  1    3    3    0    0 +1.4732550974e+01 -8.6812979208e+00 +7.6332285253e+00 7.2461570294e+01 7.0000000000e+01 1.3148e-04 1.0000e+00
       12  1    3    3    0    0 -1.4732550974e+01 +8.6812979208e+00 -7.6332285253e+00 1.8726429706e+01 0.0000000000e+00 0.0000e+00 -1.0000e+00
</event>
<event>
 5      7 +6.9480500e-03 9.11880000e+01 7.81616400e-03 1.18400000e-01
      -11 -1    0    0    0    0 +0.0000000000e+00 +0.0000000000e+00 +4.5593999997e+01 4.5594000000e+01 5.1100000000e-04 0.0000e+00 1.0000e+00
       11 -1    0    0    0    0 -0.0000000000e+00 -0.0000000000e+00 -4.5593999997e+01 4.5594000000e+01 5.1100000000e-04 0.0000e+00 -1.0000e+00
       23  2    1    2    0    0 +0.0000000000e+00 +0.0000000000e+00 +0.0000000000e+00 9.1188000000e+01 9.1188000000e+01 8.8373e-14 0.0000e+00
  9900012  1    3    3    0    0 +7.1905059982e+00 +6.9251181952e+00 +1.5843564340e+01 7.2461570294e+01 7.0000000000e+01 3.7823e-05 1.0000e+00
       12  1    3    3    0    0 -7.1905059982e+00 -6.9251181952e+00 -1.5843564340e+01 1.8726429706e+01 0.0000000000e+00 0.0000e+00 -1.0000e+00
</event>
<event>
 5      6 +6.9480500e-03 9.11880000e+01 7.81616400e-03 1.18400000e-01
      -11 -1    0    0    0    0 +0.0000000000e+00 +0.0000000000e+00 +4.5593999997e+01 4.5594000000e+01 5.1100000000e-04 0.0000e+00 1.0000e+00
       11 -1    0    0    0    0 -0.0000000000e+00 -0.0000000000e+00 -4.5593999997e+01 4.5594000000e+01 5.1100000000e-04 0.0000e+00 -1.0000e+00
       23  2    1    2    0    0 +0.0000000000e+00 +0.0000000000e+00 +0.0000000000e+00 9.1188000000e+01 9.1188000000e+01 3.9841e-14 0.0000e+00
  9900012  1    3    3    0    0 -1.5594825105e+01 -9.7810907390e+00 -3.4366936742e+00 7.2461570294e+01 7.0000000000e+01 2.6179e-04 -1.0000e+00
      -12  1    3    3    0    0 +1.5594825105e+01 +9.7810907390e+00 +3.4366936742e+00 1.8726429706e+01 0.0000000000e+00 0.0000e+00 1.0000e+00
</event>
<event>
 5      7 +6.9480500e-03 9.11880000e+01 7.81616400e-03 1.18400000e-01
      -11 -1    0    0    0    0 +0.0000000000e+00 +0.0000000000e+00 +4.5593999997e+01 4.5594000000e+01 5.1100000000e-04 0.0000e+00 1.0000e+00
       11 -1    0    0    0    0 -0.0000000000e+00 -0.0000000000e+00 -4.5593999997e+01 4.5594000000e+01 5.1100000000e-04 0.0000e+00 -1.0000e+00
       23  2    1    2    0    0 +0.0000000000e+00 +0.0000000000e+00 +0.0000000000e+00 9.1188000000e+01 9.1188000000e+01 8.1833e-14 0.0000e+00
  9900012  1    3    3    0    0 +9.3656172734e+00 +1.6200302154e+01 +7.1735117819e-01 7.2461570294e+01 7.0000000000e+01 2.0569e-06 1.0000e+00
       12  1    3    3    0    0 -9.3656172734e+00 -1.6200302154e+01 -7.1735117819e-01 1.8726429706e+01 0.0000000000e+00 0.0000e+00 -1.0000e+00
</event>
<event>
 5      6 +6.9480500e-03 9.11880000e+01 7.81616400e-03 1.18400000e-01
      -11 -1    0    0    0    0 +0.0000000000e+00 +0.0000000000e+00 +4.5593999997e+01 4.5594000000e+01 5.1100000000e-04 0.0000e+00 -1.0000e+00
       11 -1    0    0    0    0 -0.0000000000e+00 -0.0000000000e+00 -4.5593999997e+01 4.5594000000e+01 5.1100000000e-04 0.0000e+00 1.0000e+00
       23  2    1    2    0    0 +0.0000000000e+00 +0.0000000000e+00 +0.0000000000e+00 9.1188000000e+01 9.1188000000e+01 1.0455e-13 0.0000e+00
  9900012  1    3    3    0    0 +1.6460465107e+00 +1.7545478184e+01 -6.3345004297e+00 7.2461570294e+01 7.0000000000e+01 2.9732e-05 1.0000e+00
      -12  1    3    3    0    0 -1.6460465107e+00 -1.7545478184e+01 +6.3345004297e+00 1.8726429706e+01 0.0000000000e+00 0.0000e+00 1.0000e+00
</event>
<event>
 5      1 +6.9480500e-03 9.11880000e+01 7.81616400e-03 1.18400000e-01
      -11 -1    0    0    0    0 +0.0000000000e+00 +0.0000000000e+00 +4.5593999997e+01 4.5594000000e+01 5.1100000000e-04 0.0000e+00 -1.0000e+00
       11 -1    0    0    0    0 -0.0000000000e+00 -0.0000000000e+00 -4.5593999997e+01 4.5594000000e+01 5.1100000000e-04 0.0000e+00 1.0000e+00
       23  2    1    2    0    0 +0.0000000000e+00 +0.0000000000e+00 +0.0000000000e+00 9.1188000000e+01 9.1188000000e+01 4.4741e-13 0.0000e+00
  9900012  1    3    3    0    0 +1.5425793098e+01 -1.7047029857e+00 -1.0479411460e+01 7.2461570294e+01 7.0000000000e+01 1.0935e-04 1.0000e+00
       12  1    3    3    0    0 -1.5425793098e+01 +1.7047029857e+00 +1.0479411460e+01 1.8726429706e+01 0.0000000000e+00 0.0000e+00 -1.0000e+00
</event>
<event>
 5      6 +6.9480500e-03 9.11880000e+01 7.81616400e-03 1.18400000e-01
      -11 -1    0    0    0    0 +0.0000000000e+00 +0.0000000000e+00 +4.5593999997e+01 4.5594000000e+01 5.1100000000e-04 0.0000e+00 1.0000e+00
       11 -1    0    0    0    0 -0.0000000000e+00 -0.0000000000e+00 -4.5593999997e+01 4.5594000000e+01 5.1100000000e-04 0.0000e+00 -1.0000e+00
       23  2    1    2    0    0 +0.0000000000e+00 +0.0000000000e+00 +0.0000000000e+00 9.1188000000e+01 9.1188000000e+01 8.5663e-15 0.0000e+00
  9900012  1    3    3    0    0 +1.6737984723e+01 +7.3144840830e+00 -4.1252102426e+00 7.2461570294e+01 7.0000000000e+01 2.0159e-04 -1.0000e+00
      -12  1    3    3    0    0 -1.6737984723e+01 -7.3144840830e+00 +4.1252102426e+00 1.8726429706e+01 0.0000000000e+00 0.0000e+00 1.0000e+00
</event>
<event>
 5      8 +6.9480500e-03 9.11880000e+01 7.81616400e-03 1.18400000e-01
      -11 -1    0    0    0    0 +0.0000000000e+00 +0.0000000000e+00 +4.5593999997e+01 4.5594000000e+01 5.1100000000e-04 0.0000e+00 1.0000e+00
       11 -1    0    0    0    0 -0.0000000000e+00 -0.0000000000e+00 -4.5593999997e+01 4.5594000000e+01 5.1100000000e-04 0.0000e+00 -1.0000e+00
       23  2    1    2    0    0 +0.0000000000e+00 +0.0000000000e+00 +0.0000000000e+00 9.1188000000e+01 9.1188000000e+01 1.7736e-14 0.0000e+00
  9900012  1    3    3    0    0 +2.4644694588e+00 -1.3193492911e+01 -1.3058993247e+01 7.2461570294e+01 7.0000000000e+01 1.0810e-04 -1.0000e+00
      -12  1    3    3    0    0 -2.4644694588e+00 +1.3193492911e+01 +1.3058993247e+01 1.8726429706e+01 0.0000000000e+00 0.0000e+00 1.0000e+00
</event>
<event>
 5      8 +6.9480500e-03 9.11880000e+01 7.81616400e-03 1.18400000e-01
      -11 -1    0    0    0    0 +0.0000000000e+00 +0.0000000000e+00 +4.5593999997e+01 4.5594000000e+01 5.1100000000e-04 0.0000e+00 1.0000e+00
       11 -1    0    0    0    0 -0.0000000000e+00 -0.0000000000e+00 -4.5593999997e+01 4.5594000000e+01 5.1100000000e-04 0.0000e+00 -1.0000e+00
       23  2    1    2    0    0 +0.0000000000e+00 +0.0000000000e+00 +0.0000000000e+00 9.1188000000e+01 9.1188000000e+01 5.1784e-14 0.0000e+00
  9900012  1    3    3    0    0 -7.5904611764e+00 +1.0216943593e+01 -1.3736015880e+01 7.2461570294e+01 7.0000000000e+01 2.3777e-04 -1.0000e+00
      -12  1    3    3    0    0 +7.5904611764e+00 -1.0216943593e+01 +1.3736015880e+01 1.8726429706e+01 0.0000000000e+00 0.0000e+00 1.0000e+00
</event>
<event>
 5      3 +6.9480500e-03 9.11880000e+01 7.81616400e-03 1.18400000e-01
      -11 -1    0    0    0    0 +0.0000000000e+00 +0.0000000000e+00 +4.5593999997e+01 4.5594000000e+01 5.1100000000e-04 0.0000e+00 1.0000e+00
       11 -1    0    0    0    0 -0.0000000000e+00 -0.0000000000e+00 -4.5593999997e+01 4.5594000000e+01 5.1100000000e-04 0.0000e+00 -1.0000e+00
       23  2    1    2    0    0 +0.0000000000e+00 +0.0000000000e+00 +0.0000000000e+00 9.1188000000e+01 9.1188000000e+01 1.3381e-14 0.0000e+00
  9900012  1    3    3    0    0 +1.7975721225e+01 +5.2454723619e+00 +1.9399917142e-01 7.2461570294e+01 7.0000000000e+01 1.7095e-04 1.0000e+00
       12  1    3    3    0    0 -1.7975721225e+01 -5.2454723619e+00 -1.9399917142e-01 1.8726429706e+01 0.0000000000e+00 0.0000e+00 -1.0000e+00
</event>
<event>
 5      4 +6.9480500e-03 9.11880000e+01 7.81616400e-03 1.18400000e-01
      -11 -1    0    0    0    0 +0.0000000000e+00 +0.0000000000e+00 +4.5593999997e+01 4.5594000000e+01 5.1100000000e-04 0.0000e+00 1.0000e+00
       11 -1    0    0    0    0 -0.0000000000e+00 -0.0000000000e+00 -4.5593999997e+01 4.5594000000e+01 5.1100000000e-04 0.0000e+00 -1.0000e+00
       23  2    1    2    0    0 +0.0000000000e+00 +0.0000000000e+00 +0.0000000000e+00 9.1188000000e+01 9.1188000000e+01 3.4928e-14 0.0000e+00
  9900012  1    3    3    0    0 -1.5718090456e+01 -7.8417100387e+00 -6.4906383041e+00 7.2461570294e+01 7.0000000000e+01 2.2332e-04 -1.0000e+00
      -12  1    3    3    0    0 +1.5718090456e+01 +7.8417100387e+00 +6.4906383041e+00 1.8726429706e+01 0.0000000000e+00 0.0000e+00 1.0000e+00
</event>
<event>
 5      4 +6.9480500e-03 9.11880000e+01 7.81616400e-03 1.18400000e-01
      -11 -1    0    0    0    0 +0.0000000000e+00 +0.0000000000e+00 +4.5593999997e+01 4.5594000000e+01 5.1100000000e-04 0.0000e+00 -1.0000e+00
       11 -1    0    0    0    0 -0.0000000000e+00 -0.0000000000e+00 -4.5593999997e+01 4.5594000000e+01 5.1100000000e-04 0.0000e+00 1.0000e+00
       23  2    1    2    0    0 +0.0000000000e+00 +0.0000000000e+00 +0.0000000000e+00 9.1188000000e+01 9.1188000000e+01 5.6162e-15 0.0000e+00
  9900012  1    3    3    0    0 -2.1433491944e+00 +1.8593791228e+01 -5.9678433190e-01 7.2461570294e+01 7.0000000000e+01 5.6723e-05 -1.0000e+00
      -12  1    3    3    0    0 +2.1433491944e+00 -1.8593791228e+01 +5.9678433190e-01 1.8726429706e+01 0.0000000000e+00 0.0000e+00 1.0000e+00
</event>
<event>
 5      1 +6.9480500e-03 9.11880000e+01 7.81616400e-03 1.18400000e-01
      -11 -1    0    0    0    0 +0.0000000000e+00 +0.0000000000e+00 +4.5593999997e+01 4.5594000000e+01 5.1100000000e-04 0.0000e+00 -1.0000e+00
       11 -1    0    0    0    0 -0.0000000000e+00 -0.0000000000e+00 -4.5593999997e+01 4.5594000000e+01 5.1100000000e-04 0.0000e+00 1.0000e+00
       23  2    1    2    0    0 +0.0000000000e+00 +0.0000000000e+00 +0.0000000000e+00 9.1188000000e+01 9.1188000000e+01 3.3173e-13 0.0000e+00
  9900012  1    3    3    0    0 +2.0919827683e+00 +1.8585759404e+01 -9.3398340947e-01 7.2461570294e+01 7.0000000000e+01 4.3766e-04 1.0000e+00
       12  1    3    3    0    0 -2.0919827683e+00 -1.8585759404e+01 +9.3398340947e-01 1.8726429706e+01 0.0000000000e+00 0.0000e+00 -1.0000e+00
</event>
<event>
 5      8 +6.9480500e-03 9.11880000e+01 7.81616400e-03 1.18400000e-01
      -11 -1    0    0    0    0 +0.0000000000e+00 +0.0000000000e+00 +4.5593999997e+01 4.5594000000e+01 5.1100000000e-04 0.0000e+00 -1.0000e+00
       11 -1    0    0    0    0 -0.0000000000e+00 -0.0000000000e+00 -4.5593999997e+01 4.5594000000e+01 5.1100000000e-04 0.0000e+00 1.0000e+00
       23  2    1    2    0    0 +0.0000000000e+00 +0.0000000000e+00 +0.0000000000e+00 9.1188000000e+01 9.1188000000e+01 2.2378e-14 0.0000e+00
  9900012  1    3    3    0    0 -1.1894557559e+01 -1.7836060597e+00 +1.4353306916e+01 7.2461570294e+01 7.0000000000e+01 2.8211e-04 -1.0000e+00
      -12  1    3    3    0    0 +1.1894557559e+01 +1.7836060597e+00 -1.4353306916e+01 1.8726429706e+01 0.0000000000e+00 0.0000e+00 1.0000e+00
</event>
<event>
 5      1 +6.9480500e-03 9.11880000e+01 7.81616400e-03 1.18400000e-01
      -11 -1    0    0    0    0 +0.0000000000e+00 +0.0000000000e+00 +4.5593999997e+01 4.5594000000e+01 5.1100000000e-04 0.0000e+00 1.0000e+00
       11 -1    0    0    0    0 -0.0000000000e+00 -0.0000000000e+00 -4.5593999997e+01 4.5594000000e+01 5.1100000000e-04 0.0000e+00 -1.0000e+00
       23  2    1    2    0    0 +0.0000000000e+00 +0.0000000000e+00 +0.0000000000e+00 9.1188000000e+01 9.1188000000e+01 1.2986e-13 0.0000e+00
  9900012  1    3    3    0    0 -7.5666032761e+00 +1.2194447324e+01 +1.2030009927e+01 7.2461570294e+01 7.0000000000e+01 2.0860e-05 -1.0000e+00
       12  1    3    3    0    0 +7.5666032761e+00 -1.2194447324e+01 -1.2030009927e+01 1.8726429706e+01 0.0000000000e+00 0.0000e+00 -1.0000e+00
</event>
<event>
 5      4 +6.9480500e-03 9.11880000e+01 7.81616400e-03 1.18400000e-01
      -11 -1    0    0    0    0 +0.0000000000e+00 +0.0000000000e+00 +4.5593999997e+01 4.5594000000e+01 5.1100000000e-04 0.0000e+00 -1.0000e+00
       11 -1    0    0    0    0 -0.0000000000e+00 -0.0000000000e+00 -4.5593999997e+01 4.5594000000e+01 5.1100000000e-04 0.0000e+00 1.0000e+00
       23  2    1    2    0    0 +0.0000000000e+00 +0.0000000000e+00 +0.0000000000e+00 9.1188000000e+01 9.1188000000e+01 1.2808e-13 0.0000e+00
  9900012  1    3    3    0    0 -1.7340871667e+01 -1.5908457144e+00 +6.8878552002e+00 7.2461570294e+01 7.0000000000e+01 2.3373e-05 -1.0000e+00
      -12  1    3    3    0    0 +1.7340871667e+01 +1.5908457144e+00 -6.8878552002e+00 1.8726429706e+01 0.0000000000e+00 0.0000e+00 1.0000e+00
</event>
<event>
 5      2 +6.9480500e-03 9.11880000e+01 7.81616400e-03 1.18400000e-01
      -11 -1    0    0    0    0 +0.0000000000e+00 +0.0000000000e+00 +4.5593999997e+01 4.5594000000e+01 5.1100000000e-04 0.0000e+00 1.0000e+00
       11 -1    0    0    0    0 -0.0000000000e+00 -0.0000000000e+00 -4.5593999997e+01 4.5594000000e+01 5.1100000000e-04 0.0000e+00 -1.0000e+00
       23  2    1    2    0    0 +0.0000000000e+00 +0.0000000000e+00 +0.0000000000e+00 9.1188000000e+01 9.1188000000e+01 1.2077e-14 0.0000e+00
  9900012  1    3    3    0    0 -1.0156554095e+01 -2.0452671471e+00 -1.5599373729e+01 7.2461570294e+01 7.0000000000e+01 2.9731e-05 -1.0000e+00
      -12  1    3    3    0    0 +1.0156554095e+01 +2.0452671471e+00 +1.5599373729e+01 1.8726429706e+01 0.0000000000e+00 0.0000e+00 1.0000e+00
</event>
<event>
 5      3 +6.9480500e-03 9.11880000e+01 7.81616400e-03 1.18400000e-01
      -11 -1    0    0    0    0 +0.0000000000e+00 +0.0000000000e+00 +4.5593999997e+01 4.5594000000e+01 5.1100000000e-04 0.0000e+00 1.0000e+00
       11 -1    0    0    0    0 -0.0000000000e+00 -0.0000000000e+00 -4.5593999997e+01 4.5594000000e+01 5.1100000000e-04 0.0000e+00 -1.0000e+00
       23  2    1    2    0    0 +0.0000000000e+00 +0.0000000000e+00 +0.0000000000e+00 9.1188000000e+01 9.1188000000e+01 4.7609e-14 0.0000e+00
  9900012  1    3    3    0    0 +6.0853168806e+00 -1.7170325572e+01 +4.3391252274e+00 7.2461570294e+01 7.0000000000e+01 1.3540e-06 1.0000e+00
       12  1    3    3    0    0 -6.0853168806e+00 +1.7170325572e+01 -4.3391252274e+00 1.8726429706e+01 0.0000000000e+00 0.0000e+00 -1.0000e+00
</event>
<event>
 5      4 +6.9480500e-03 9.11880000e+01 7.81616400e-03 1.18400000e-01
      -11 -1    0    0    0    0 +0.0000000000e+00 +0.0000000000e+00 +4.5593999997e+01 4.5594000000e+01 5.1100000000e-04 0.0000e+00 -1.0000e+00
       11 -1    0    0    0    0 -0.0000000000e+00 -0.0000000000e+00 -4.5593999997e+01 4.5594000000e+01 5.1100000000e-04 0.0000e+00 1.0000e+00
       23  2    1    2    0    0 +0.0000000000e+00 +0.0000000000e+00 +0.0000000000e+00 9.1188000000e+01 9.1188000000e+01 3.2741e-15 0.0000e+00
  9900012  1    3    3    0    0 -4.5107155436e+00 +8.6986272097e+00 +1.5958273700e+01 7.2461570294e+01 7.0000000000e+01 3.2412e-04 -1.0000e+00
      -12  1    3    3    0    0 +4.5107155436e+00 -8.6986272097e+00 -1.5958273700e+01 1.8726429706e+01 0.0000000000e+00 0.0000e+00 1.0000e+00
</event>
<event>
 5      7 +6.9480500e-03 9.11880000e+01 7.81616400e-03 1.18400000e-01
      -11 -1    0    0    0    0 +0.0000000000e+00 +0.0000000000e+00 +4.5593999997e+01 4.5594000000e+01 5.1100000000e-04 0.0000e+00 -1.0000e+00
       11 -1    0    0    0    0 -0.0000000000e+00 -0.0000000000e+00 -4.5593999997e+01 4.5594000000e+01 5.1100000000e-04 0.0000e+00 1.0000e+00
       23  2    1    2    0    0 +0.0000000000e+00 +0.0000000000e+00 +0.0000000000e+00 9.1188000000e+01 9.1188000000e+01 3.6195e-14 0.0000e+00
  9900012  1    3    3    0    0 +4.3819148100e+00 -1.7119017256e+01 +6.1981642705e+00 7.2461570294e+01 7.0000000000e+01 5.0342e-05 1.0000e+00
       12  1    3    3    0    0 -4.3819148100e+00 +1.7119017256e+01 -6.1981642705e+00 1.8726429706e+01 0.0000000000e+00 0.0000e+00 -1.0000e+00
</event>
<event>
 5      1 +6.9480500e-03 9.11880000e+01 7.81616400e-03 1.18400000e-01
      -11 -1    0    0    0    0 +0.0000000000e+00 +0.0000000000e+00 +4.5593999997e+01 4.5594000000e+01 5.1100000000e-04 0.0000e+00 1.0000e+00
       11 -1    0    0    0    0 -0.0000000000e+00 -0.0000000000e+00 -4.5593999997e+01 4.5594000000e+01 5.1100000000e-04 0.0000e+00 -1.0000e+00
       23  2    1    2    0    0 +0.0000000000e+00 +0.0000000000e+00 +0.0000000000e+00 9.1188000000e+01 9.1188000000e+01 2.4790e-14 0.0000e+00
  9900012  1    3    3    0    0 +1.8134154411e+01 -3.8791049561e+00 +2.6046416351e+00 7.2461570294e+01 7.0000000000e+01 5.5998e-05 1.0000e+00
       12  1    3    3    0    0 -1.8134154411e+01 +3.8791049561e+00 -2.6046416351e+00 1.8726429706e+01 0.0000000000e+00 0.0000e+00 -1.0000e+00
</event>
<event>
 5      1 +6.9480500e-03 9.11880000e+01 7.81616400e-03 1.18400000e-01
      -11 -1    0    0    0    0 +0.0000000000e+00 +0.0000000000e+00 +4.5593999997e+01 4.5594000000e+01 5.1100000000e-04 0.0000e+00 1.0000e+00
       11 -1    0    0    0    0 -0.0000000000e+00 -0.0000000000e+00 -4.5593999997e+01 4.5594000000e+01 5.1100000000e-04 0.0000e+00 -1.0000e+00
       23  2    1    2    0    0 +0.0000000000e+00 +0.0000000000e+00 +0.0000000000e+00 9.1188000000e+01 9.1188000000e+01 1.4908e-13 0.0000e+00
  9900012  1    3    3    0    0 -1.4367928420e+01 -1.1944428399e+01 +1.2539667745e+00 7.2461570294e+01 7.0000000000e+01 3.0409e-05 -1.0000e+00
       12  1    3    3    0    0 +1.4367928420e+01 +1.1944428399e+01 -1.2539667745e+00 1.8726429706e+01 0.0000000000e+00 0.0000e+00 -1.0000e+00
</event>
<event>
 5      8 +6.9480500e-03 9.11880000e+01 7.81616400e-03 1.18400000e-01
      -11 -1    0    0    0    0 +0.0000000000e+00 +0.0000000000e+00 +4.5593999997e+01 4.5594000000e+01 5.1100000000e-04 0.0000e+00 1.0000e+00
       11 -1    0    0    0    0 -0.0000000000e+00 -0.0000000000e+00 -4.5593999997e+01 4.5594000000e+01 5.1100000000e-04 0.0000e+00 -1.0000e+00
       23  2    1    2    0    0 +0.0000000000e+00 +0.0000000000e+00 +0.0000000000e+00 9.1188000000e+01 9.1188000000e+01 2.3426e-14 0.0000e+00
  9900012  1    3    3    0    0 +1.3615412377e+01 +1.1911611348e+01 +4.8387219822e+00 7.2461570294e+01 7.0000000000e+01 1.7320e-05 1.0000e+00
      -12  1    3    3    0    0 -1.3615412377e+01 -1.1911611348e+01 -4.8387219822e+00 1.8726429706e+01 0.0000000000e+00 0.0000e+00 1.0000e+00
</event>
<event>
 5      2 +6.9480500e-03 9.11880000e+01 7.81616400e-03 1.18400000e-01
      -11 -1    0    0    0    0 +0.0000000000e+00 +0.0000000000e+00 +4.5593999997e+01 4.5594000000e+01 5.1100000000e-04 0.0000e+00 -1.0000e+00
       11 -1    0    0    0    0 -0.0000000000e+00 -0.0000000000e+00 -4.5593999997e+01 4.5594000000e+01 5.1100000000e-04 0.0000e+00 1.0000e+00
       23  2    1    2    0    0 +0.0000000000e+00 +0.0000000000e+00 +0.0000000000e+00 9.1188000000e+01 9.1188000000e+01 1.4102e-13 0.0000e+00
  9900012  1    3    3    0    0 -9.6131013781e+00 -1.1893149018e+01 +1.0808351301e+01 7.2461570294e+01 7.0000000000e+01 3.1318e-04 -1.0000e+00
      -12  1    3    3    0    0 +9.6131013781e+00 +1.1893149018e+01 -1.0808351301e+01 1.8726429706e+01 0.0000000000e+00 0.0000e+00 1.0000e+00
</event>
<event>
 5      6 +6.9480500e-03 9.11880000e+01 7.81616400e-03 1.18400000e-01
      -11 -1    0    0    0    0 +0.0000000000e+00 +0.0000000000e+00 +4.5593999997e+01 4.5594000000e+01 5.1100000000e-04 0.0000e+00 1.0000e+00
       11 -1    0    0    0    0 -0.0000000000e+00 -0.0000000000e+00 -4.5593999997e+01 4.5594000000e+01 5.1100000000e-04 0.0000e+00 -1.0000e+00
       23  2    1    2    0    0 +0.0000000000e+00 +0.0000000000e+00 +0.0000000000e+00 9.1188000000e+01 9.1188000000e+01 7.3991e-14 0.0000e+00
  9900012  1    3    3    0    0 -7.8044861625e+00 +1.6859443459e+01 -2.3512404216e+00 7.2461570294e+01 7.0000000000e+01 1.9127e-06 1.0000e+00
      -12  1    3    3    0    0 +7.8044861625e+00 -1.6859443459e+01 +2.3512404216e+00 1.8726429706e+01 0.0000000000e+00 0.0000e+00 1.0000e+00
</event>
<event>
 5      3 +6.9480500e-03 9.11880000e+01 7.81616400e-03 1.18400000e-01
      -11 -1    0    0    0    0 +0.0000000000e+00 +0.0000000000e+00 +4.5593999997e+01 4.5594000000e+01 5.1100000000e-04 0.0000e+00 -1.0000e+00
       11 -1    0    0    0    0 -0.0000000000e+00 -0.0000000000e+00 -4.5593999997e+01 4.5594000000e+01 5.1100000000e-04 0.0000e+00 1.0000e+00
       23  2    1    2    0    0 +0.0000000000e+00 +0.0000000000e+00 +0.0000000000e+00 9.1188000000e+01 9.1188000000e+01 1.9561e-14 0.0000e+00
  9900012  1    3    3    0    0 +1.0457328414e+01 +1.5516666931e+01 -7.4598882182e-01 7.2461570294e+01 7.0000000000e+01 5.9254e-05 1.0000e+00
       12  1    3    3    0    0 -1.0457328414e+01 -1.5516666931e+01 +7.4598882182e-01 1.8726429706e+01 0.0000000000e+00 0.0000e+00 -1.0000e+00
</event>
<event>
 5      8 +6.9480500e-03 9.11880000e+01 7.81616400e-03 1.18400000e-01
      -11 -1    0    0    0    0 +0.0000000000e+00 +0.0000000000e+00 +4.5593999997e+01 4.5594000000e+01 5.1100000000e-04 0.0000e+00 1.0000e+00
       11 -1    0    0    0    0 -0.0000000000e+00 -0.0000000000e+00 -4.5593999997e+01 4.5594000000e+01 5.1100000000e-04 0.0000e+00 -1.0000e+00
       23  2    1    2    0    0 +0.0000000000e+00 +0.0000000000e+00 +0.0000000000e+00 9.1188000000e+01 9.1188000000e+01 3.4846e-14 0.0000e+00
  9900012  1    3    3    0    0 +3.9492378341e-01 -1.8716477719e+01 -4.6547452351e-01 7.2461570294e+01 7.0000000000e+01 2.2426e-04 1.0000e+00
      -12  1    3    3    0    0 -3.9492378341e-01 +1.8716477719e+01 +4.6547452351e-01 1.8726429706e+01 0.0000000000e+00 0.0000e+00 1.0000e+00
</event>
<event>
 5      1 +6.9480500e-03 9.11880000e+01 7.81616400e-03 1.18400000e-01
      -11 -1    0    0    0    0 +0.0000000000e+00 +0.0000000000e+00 +4.5593999997e+01 4.5594000000e+01 5.1100000000e-04 0.0000e+00 -1.0000e+00
       11 -1    0    0    0    0 -0.0000000000e+00 -0.0000000000e+00 -4.5593999997e+01 4.5594000000e+01 5.1100000000e-04 0.0000e+00 1.0000e+00
       23  2    1    2    0    0 +0.0000000000e+00 +0.0000000000e+00 +0.0000000000e+00 9.1188000000e+01 9.1188000000e+01 6.8166e-14 0.0000e+00
  9900012  1    3    3    0    0 +7.5880219377e+00 +1.7053097653e+01 -1.5142499888e+00 7.2461570294e+01 7.0000000000e+01 6.6686e-05 1.0000e+00
       12  1    3    3    0    0 -7.5880219377e+00 -1.7053097653e+01 +1.5142499888e+00 1.8726429706e+01 0.0000000000e+00 0.0000e+00 -1.0000e+00
</event>
<event>
 5      2 +6.9480500e-03 9.11880000e+01 7.81616400e-03 1.18400000e-01
      -11 -1    0    0    0    0 +0.0000000000e+00 +0.0000000000e+00 +4.5593999997e+01 4.5594000000e+01 5.1100000000e-04 0.0000e+00 1.0000e+00
       11 -1    0    0    0    0 -0.0000000000e+00 -0.0000000000e+00 -4.5593999997e+01 4.5594000000e+01 5.1100000000e-04 0.0000e+00 -1.0000e+00
       23  2    1    2    0    0 +0.0000000000e+00 +0.0000000000e+00 +0.0000000000e+00 9.1188000000e+01 9.1188000000e+01 7.3079e-14 0.0000e+00
  9900012  1    3    3    0    0 -6.3132939369e+00 -4.8766744032e+00 -1.6942241173e+01 7.2461570294e+01 7.0000000000e+01 1.8017e-04 -1.0000e+00
      -12  1    3    3    0    0 +6.3132939369e+00 +4.8766744032e+00 +1.6942241173e+01 1.8726429706e+01 0.0000000000e+00 0.0000e+00 1.0000e+00
</event>
<event>
 5      1 +6.9480500e-03 9.11880000e+01 7.81616400e-03 1.18400000e-01
      -11 -1    0    0    0    0 +0.0000000000e+00 +0.0000000000e+00 +4.5593999997e+01 4.5594000000e+01 5.1100000000e-04 0.0000e+00 1.0000e+00
       11 -1    0    0    0    0 -0.0000000000e+00 -0.0000000000e+00 -4.5593999997e+01 4.5594000000e+01 5.1100000000e-04 0.0000e+00 -1.0000e+00
       23  2    1    2    0    0 +0.0000000000e+00 +0.0000000000e+00 +0.0000000000e+00 9.1188000000e+01 9.1188000000e+01 4.7097e-13 0.0000e+00
  9900012  1    3    3    0    0 -1.6703222993e+01 -2.7183983296e+00 +8.0182181116e+00 7.2461570294e+01 7.0000000000e+01 1.9188e-04 1.0000e+00
       12  1    3    3    0    0 +1.6703222993e+01 +2.7183983296e+00 -8.0182181116e+00 1.8726429706e+01 0.0000000000e+00 0.0000e+00 -1.0000e+00
</event>
<event>
 5      2 +6.9480500e-03 9.11880000e+01 7.81616400e-03 1.18400000e-01
      -11 -1    0    0    0    0 +0.0000000000e+00 +0.0000000000e+00 +4.5593999997e+01 4.5594000000e+01 5.1100000000e-04 0.0000e+00 1.0000e+00
       11 -1    0    0    0    0 -0.0000000000e+00 -0.0000000000e+00 -4.5593999997e+01 4.5594000000e+01 5.1100000000e-04 0.0000e+00 -1.0000e+00
       23  2    1    2    0    0 +0.0000000000e+00 +0.0000000000e+00 +0.0000000000e+00 9.1188000000e+01 9.1188000000e+01 7.3320e-14 0.0000e+00
  9900012  1    3    3    0    0 +3.4271256198e+00 +8.9566982131e+00 -1.6084512322e+01 7.2461570294e+01 7.0000000000e+01 2.6828e-04 -1.0000e+00
      -12  1    3    3    0    0 -3.4271256198e+00 -8.9566982131e+00 +1.6084512322e+01 1.8726429706e+01 0.0000000000e+00 0.0000e+00 1.0000e+00
</event>
<event>
 5      5 +6.9480500e-03 9.11880000e+01 7.81616400e-03 1.18400000e-01
      -11 -1    0    0    0    0 +0.0000000000e+00 +0.0000000000e+00 +4.5593999997e+01 4.5594000000e+01 5.1100000000e-04 0.0000e+00 1.0000e+00
       11 -1    0    0    0    0 -0.0000000000e+00 -0.0000000000e+00 -4.5593999997e+01 4.5594000000e+01 5.1100000000e-04 0.0000e+00 -1.0000e+00
       23  2    1    2    0    0 +0.0000000000e+00 +0.0000000000e+00 +0.0000000000e+00 9.1188000000e+01 9.1188000000e+01 8.0421e-14 0.0000e+00
  9900012  1    3    3    0    0 +7.0582376915e+00 -7.2708170065e+00 +1.5747878278e+01 7.2461570294e+01 7.0000000000e+01 1.1718e-04 1.0000e+00
       12  1    3    3    0    0 -7.0582376915e+00 +7.2708170065e+00 -1.5747878278e+01 1.8726429706e+01 0.0000000000e+00 0.0000e+00 -1.0000e+00
</event>
<event>
 5      6 +6.9480500e-03 9.11880000e+01 7.81616400e-03 1.18400000e-01
      -11 -1    0    0    0    0 +0.0000000000e+00 +0.0000000000e+00 +4.5593999997e+01 4.5594000000e+01 5.1100000000e-04 0.0000e+00 -1.0000e+00
       11 -1    0    0    0    0 -0.0000000000e+00 -0.0000000000e+00 -4.5593999997e+01 4.5594000000e+01 5.1100000000e-04 0.0000e+00 1.0000e+00
       23  2    1    2    0    0 +0.0000000000e+00 +0.0000000000e+00 +0.0000000000e+00 9.1188000000e+01 9.1188000000e+01 2.8825e-14 0.0000e+00
  9900012  1    3    3    0    0 -1.6573313746e+01 -3.3485877833e+00 +8.0493105831e+00 7.2461570294e+01 7.0000000000e+01 3.7418e-04 -1.0000e+00
      -12  1    3    3    0    0 +1.6573313746e+01 +3.3485877833e+00 -8.0493105831e+00 1.8726429706e+01 0.0000000000e+00 0.0000e+00 1.0000e+00
</event>
<event>
 5      8 +6.9480500e-03 9.11880000e+01 7.81616400e-03 1.18400000e-01
      -11 -1    0    0    0    0 +0.0000000000e+00 +0.0000000000e+00 +4.5593999997e+01 4.5594000000e+01 5.1100000000e-04 0.0000e+00 1.0000e+00
       11 -1    0    0    0    0 -0.0000000000e+00 -0.0000000000e+00 -4.5593999997e+01 4.5594000000e+01 5.1100000000e-04 0.0000e+00 -1.0000e+00
       23  2    1    2    0    0 +0.0000000000e+00 +0.0000000000e+00 +0.0000000000e+00 9.1188000000e+01 9.1188000000e+01 1.2075e-13 0.0000e+00
  9900012  1    3    3    0    0 +2.6626567919e+00 +8.4221171496e+00 -1.6512339963e+01 7.2461570294e+01 7.0000000000e+01 6.6174e-05 -1.0000e+00
      -12  1    3    3    0    0 -2.6626567919e+00 -8.4221171496e+00 +1.6512339963e+01 1.8726429706e+01 0.0000000000e+00 0.0000e+00 1.0000e+00
</event>
<event>
 5      1 +6.9480500e-03 9.11880000e+01 7.81616400e-03 1.18400000e-01
      -11 -1    0    0    0    0 +0.0000000000e+00 +0.0000000000e+00 +4.5593999997e+01 4.5594000000e+01 5.1100000000e-04 0.0000e+00 1.0000e+00
       11 -1    0    0    0    0 -0.0000000000e+00 -0.0000000000e+00 -4.5593999997e+01 4.5594000000e+01 5.1100000000e-04 0.0000e+00 -1.0000e+00
       23  2    1    2    0    0 +0.0000000000e+00 +0.0000000000e+00 +0.0000000000e+00 9.1188000000e+01 9.1188000000e+01 1.7659e-14 0.0000e+00
  9900012  1    3    3    0    0 -4.7611715410e+00 -1.0102439300e+01 +1.5031671074e+01 7.2461570294e+01 7.0000000000e+01 9.3942e-05 1.0000e+00
       12  1    3    3    0    0 +4.7611715410e+00 +1.0102439300e+01 -1.5031671074e+01 1.8726429706e+01 0.0000000000e+00 0.0000e+00 -1.0000e+00
</event>
<event>
 5      6 +6.9480500e-03 9.11880000e+01 7.81616400e-03 1.18400000e-01
      -11 -1    0    0    0    0 +0.0000000000e+00 +0.0000000000e+00 +4.5593999997e+01 4.5594000000e+01 5.1100000000e-04 0.0000e+00 1.0000e+00
       11 -1    0    0    0    0 -0.0000000000e+00 -0.0000000000e+00 -4.5593999997e+01 4.5594000000e+01 5.1100000000e-04 0.0000e+00 -1.0000e+00
       23  2    1    2    0    0 +0.0000000000e+00 +0.0000000000e+00 +0.0000000000e+00 9.1188000000e+01 9.1188000000e+01 1.0377e-13 0.0000e+00
  9900012  1    3    3    0    0 -7.4747245096e+00 +5.8246123846e+00 -1.6151828181e+01 7.2461570294e+01 7.0000000000e+01 2.1424e-04 -1.0000e+00
      -12  1    3    3    0    0 +7.4747245096e+00 -5.8246123846e+00 +1.6151828181e+01 1.8726429706e+01 0.0000000000e+00 0.0000e+00 1.0000e+00
</event>
<event>
 5      7 +6.9480500e-03 9.11880000e+01 7.81616400e-03 1.18400000e-01
      -11 -1    0    0    0    0 +0.0000000000e+00 +0.0000000000e+00 +4.5593999997e+01 4.5594000000e+01 5.1100000000e-04 0.0000e+00 -1.0000e+00
       11 -1    0    0    0    0 -0.0000000000e+00 -0.0000000000e+00 -4.5593999997e+01 4.5594000000e+01 5.1100000000e-04 0.0000e+00 1.0000e+00
       23  2    1    2    0    0 +0.0000000000e+00 +0.0000000000e+00 +0.0000000000e+00 9.1188000000e+01 9.1188000000e+01 7.9633e-15 0.0000e+00
  9900012  1    3    3    0    0 -1.4596566215e+00 -9.1152618480e+00 -1.6292960858e+01 7.2461570294e+01 7.0000000000e+01 9.1281e-05 1.0000e+00
       12  1    3    3    0    0 +1.4596566215e+00 +9.1152618480e+00 +1.6292960858e+01 1.8726429706e+01 0.0000000000e+00 0.0000e+00 -1.0000e+00
</event>
<event>
 5      7 +6.9480500e-03 9.11880000e+01 7.81616400e-03 1.18400000e-01
      -11 -1    0    0    0    0 +0.0000000000e+00 +0.0000000000e+00 +4.5593999997e+01 4.5594000000e+01 5.1100000000e-04 0.0000e+00 -1.0000e+00
       11 -1    0    0    0    0 -0.0000000000e+00 -0.0000000000e+00 -4.5593999997e+01 4.5594000000e+01 5.1100000000e-04 0.0000e+00 1.0000e+00
       23  2    1    2    0    0 +0.0000000000e+00 +0.0000000000e+00 +0.0000000000e+00 9.1188000000e+01 9.1188000000e+01 4.7634e-13 0.0000e+00
  9900012  1    3    3    0    0 -4.2597176081e+00 -1.1550797485e+01 -1.4110742464e+01 7.2461570294e+01 7.0000000000e+01 5.0487e-05 1.0000e+00
       12  1    3    3    0    0 +4.2597176081e+00 +1.1550797485e+01 +1.4110742464e+01 1.8726429706e+01 0.0000000000e+00 0.0000e+00 -1.0000e+00
</event>
<event>
 5      2 +6.9480500e-03 9.11880000e+01 7.81616400e-03 1.18400000e-01
      -11 -1    0    0    0    0 +0.0000000000e+00 +0.0000000000e+00 +4.5593999997e+01 4.5594000000e+01 5.1100000000e-04 0.0000e+00 -1.0000e+00
       11 -1    0    0    0    0 -0.0000000000e+00 -0.0000000000e+00 -4.5593999997e+01 4.5594000000e+01 5.1100000000e-04 0.0000e+00 1.0000e+00
       23  2    1    2    0    0 +0.0000000000e+00 +0.0000000000e+00 +0.0000000000e+00 9.1188000000e+01 9.1188000000e+01 4.5626e-14 0.0000e+00
  9900012  1    3    3    0    0 -7.4017570087e+00 -2.2429266366e+00 +1.7054689760e+01 7.2461570294e+01 7.0000000000e+01 1.9360e-04 -1.0000e+00
      -12  1    3    3    0    0 +7.4017570087e+00 +2.2429266366e+00 -1.7054689760e+01 1.8726429706e+01 0.0000000000e+00 0.0000e+00 1.0000e+00
</event>
<event>
 5      8 +6.9480500e-03 9.11880000e+01 7.81616400e-03 1.18400000e-01
      -11 -1    0    0    0    0 +0.0000000000e+00 +0.0000000000e+00 +4.5593999997e+01 4.5594000000e+01 5.1100000000e-04 0.0000e+00 1.0000e+00
       11 -1    0    0    0    0 -0.0000000000e+00 -0.0000000000e+00 -4.5593999997e+01 4.5594000000e+01 5.1100000000e-04 0.0000e+00 -1.0000e+00
       23  2    1    2    0    0 +0.0000000000e+00 +0.0000000000e+00 +0.0000000000e+00 9.1188000000e+01 9.1188000000e+01 5.2571e-14 0.0000e+00
  9900012  1    3    3    0    0 -1.5581955874e+01 +6.6649546245e+00 -7.9661910918e+00 7.2461570294e+01 7.0000000000e+01 3.6909e-05 -1.0000e+00
      -12  1    3    3    0    0 +1.5581955874e+01 -6.6649546245e+00 +7.9661910918e+00 1.8726429706e+01 0.0000000000e+00 0.0000e+00 1.0000e+00
</event>
<event>
 5      8 +6.9480500e-03 9.11880000e+01 7.81616400e-03 1.18400000e-01
      -11 -1    0    0    0    0 +0.0000000000e+00 +0.0000000000e+00 +4.5593999997e+01 4.5594000000e+01 5.1100000000e-04 0.0000e+00 -1.0000e+00
       11 -1    0    0    0    0 -0.0000000000e+00 -0.0000000000e+00 -4.5593999997e+01 4.5594000000e+01 5.1100000000e-04 0.0000e+00 1.0000e+00
       23  2    1    2    0    0 +0.0000000000e+00 +0.0000000000e+00 +0.0000000000e+00 9.1188000000e+01 9.1188000000e+01 4.8730e-14 0.0000e+00
  9900012  1    3    3    0    0 -1.4114056871e+01 +7.5745544472e+00 -9.7004480872e+00 7.2461570294e+01 7.0000000000e+01 3.5638e-05 -1.0000e+00
      -12  1    3    3    0    0 +1.4114056871e+01 -7.5745544472e+00 +9.7004480872e+00 1.8726429706e+01 0.0000000000e+00 0.0000e+00 1.0000e+00
</event>
<event>
 5      8 +6.9480500e-03 9.11880000e+01 7.81616400e-03 1.18400000e-01
      -11 -1    0    0    0    0 +0.0000000000e+00 +0.0000000000e+00 +4.5593999997e+01 4.5594000000e+01 5.1100000000e-04 0.0000e+00 1.0000e+00
       11 -1    0    0    0    0 -0.0000000000e+00 -0.0000000000e+00 -4.5593999997e+01 4.5594000000e+01 5.1100000000e-04 0.0000e+00 -1.0000e+00
       23  2    1    2    0    0 +0.0000000000e+00 +0.0000000000e+00 +0.0000000000e+00 9.1188000000e+01 9.1188000000e+01 4.2088e-14 0.0000e+00
  9900012  1    3    3    0    0 -3.5592122065e+00 -1.7981392357e+00 -1.8296936172e+01 7.2461570294e+01 7.0000000000e+01 1.3790e-04 -1.0000e+00
      -12  1    3    3    0    0 +3.5592122065e+00 +1.7981392357e+00 +1.8296936172e+01 1.8726429706e+01 0.0000000000e+00 0.0000e+00 1.0000e+00
</event>
<event>
 5      6 +6.9480500e-03 9.11880000e+01 7.81616400e-03 1.18400000e-01
      -11 -1    0    0    0    0 +0.0000000000e+00 +0.0000000000e+00 +4.5593999997e+01 4.5594000000e+01 5.1100000000e-04 0.0000e+00 1.0000e+00
       11 -1    0    0    0    0 -0.0000000000e+00 -0.0000000000e+00 -4.5593999997e+01 4.5594000000e+01 5.1100000000e-04 0.0000e+00 -1.0000e+00
       23  2    1    2    0    0 +0.0000000000e+00 +0.0000000000e+00 +0.0000000000e+00 9.1188000000e+01 9.1188000000e+01 3.6851e-14 0.0000e+00
  9900012  1    3    3    0    0 +6.7193289291e+00 -7.5828905494e+00 -1.5748954225e+01 7.2461570294e+01 7.0000000000e+01 4.7232e-05 -1.0000e+00
      -12  1    3    3    0    0 -6.7193289291e+00 +7.5828905494e+00 +1.5748954225e+01 1.8726429706e+01 0.0000000000e+00 0.0000e+00 1.0000e+00
</event>
<event>
 5      7 +6.9480500e-03 9.11880000e+01 7.81616400e-03 1.18400000e-01
      -11 -1    0    0    0    0 +0.0000000000e+00 +0.0000000000e+00 +4.5593999997e+01 4.5594000000e+01 5.1100000000e-04 0.0000e+00 -1.0000e+00
       11 -1    0    0    0    0 -0.0000000000e+00 -0.0000000000e+00 -4.5593999997e+01 4.5594000000e+01 5.1100000000e-04 0.0000e+00 1.0000e+00
       23  2    1    2    0    0 +0.0000000000e+00 +0.0000000000e+00 +0.0000000000e+00 9.1188000000e+01 9.1188000000e+01 1.9134e-14 0.0000e+00
  9900012  1    3    3    0    0 +7.4396029089e+00 -1.6456220487e+01 -4.9522000527e+00 7.2461570294e+01 7.0000000000e+01 3.9128e-06 1.0000e+00
       12  1    3    3    0    0 -7.4396029089e+00 +1.6456220487e+01 +4.9522000527e+00 1.8726429706e+01 0.0000000000e+00 0.0000e+00 -1.0000e+00
</event>
<event>
 5      6 +6.9480500e-03 9.11880000e+01 7.81616400e-03 1.18400000e-01
      -11 -1    0    0    0    0 +0.0000000000e+00 +0.0000000000e+00 +4.5593999997e+01 4.5594000000e+01 5.1100000000e-04 0.0000e+00 -1.0000e+00
       11 -1    0    0    0    0 -0.0000000000e+00 -0.0000000000e+00 -4.5593999997e+01 4.5594000000e+01 5.1100000000e-04 0.0000e+00 1.0000e+00
       23  2    1    2    0    0 +0.0000000000e+00 +0.0000000000e+00 +0.0000000000e+00 9.1188000000e+01 9.1188000000e+01 4.3606e-14 0.0000e+00
  9900012  1    3    3    0    0 +1.7508166087e+01 -1.4379316349e+00 +6.4865740104e+00 7.2461570294e+01 7.0000000000e+01 1.5477e-04 -1.0000e+00
      -12  1    3    3    0    0 -1.7508166087e+01 +1.4379316349e+00 -6.4865740104e+00 1.8726429706e+01 0.0000000000e+00 0.0000e+00 1.0000e+00
</event>
<event>
 5      4 +6.9480500e-03 9.11880000e+01 7.81616400e-03 1.18400000e-01
      -11 -1    0    0    0    0 +0.0000000000e+00 +0.0000000000e+00 +4.5593999997e+01 4.5594000000e+01 5.1100000000e-04 0.0000e+00 -1.0000e+00
       11 -1    0    0    0    0 -0.0000000000e+00 -0.0000000000e+00 -4.5593999997e+01 4.5594000000e+01 5.1100000000e-04 0.0000e+00 1.0000e+00
       23  2    1    2    0    0 +0.0000000000e+00 +0.0000000000e+00 +0.0000000000e+00 9.1188000000e+01 9.1188000000e+01 7.0924e-14 0.0000e+00
  9900012  1    3    3    0    0 +1.1015708719e+01 -1.1809975573e+01 +9.4793358373e+00 7.2461570294e+01 7.0000000000e+01 1.3400e-04 -1.0000e+00
      -12  1    3    3    0    0 -1.1015708719e+01 +1.1809975573e+01 -9.4793358373e+00 1.8726429706e+01 0.0000000000e+00 0.0000e+00 1.0000e+00
</event>
<event>
 5      6 +6.9480500e-03 9.11880000e+01 7.81616400e-03 1.18400000e-01
      -11 -1    0    0    0    0 +0.0000000000e+00 +0.0000000000e+00 +4.5593999997e+01 4.5594000000e+01 5.1100000000e-04 0.0000e+00 -1.0000e+00
       11 -1    0    0    0    0 -0.0000000000e+00 -0.0000000000e+00 -4.5593999997e+01 4.5594000000e+01 5.1100000000e-04 0.0000e+00 1.0000e+00
       23  2    1    2    0    0 +0.0000000000e+00 +0.0000000000e+00 +0.0000000000e+00 9.1188000000e+01 9.1188000000e+01 2.9788e-15 0.0000e+00
  9900012  1    3    3    0    0 +1.3861280660e+01 +1.2537119550e+01 -1.1682043316e+00 7.2461570294e+01 7.0000000000e+01 5.6144e-05 -1.0000e+00
      -12  1    3    3    0    0 -1.3861280660e+01 -1.2537119550e+01 +1.1682043316e+00 1.8726429706e+01 0.0000000000e+00 0.0000e+00 1.0000e+00
</event>
<event>
 5      2 +6.9480500e-03 9.11880000e+01 7.81616400e-03 1.18400000e-01
      -11 -1    0    0    0    0 +0.0000000000e+00 +0.0000000000e+00 +4.5593999997e+01 4.5594000000e+01 5.1100000000e-04 0.0000e+00 1.0000e+00
       11 -1    0    0    0    0 -0.0000000000e+00 -0.0000000000e+00 -4.5593999997e+01 4.5594000000e+01 5.1100000000e-04 0.0000e+00 -1.0000e+00
       23  2    1    2    0    0 +0.0000000000e+00 +0.0000000000e+00 +0.0000000000e+00 9.1188000000e+01 9.1188000000e+01 4.3378e-14 0.0000e+00
  9900012  1    3    3    0    0 -2.1977620829e-01 +1.0353623258e+01 -1.5602350893e+01 7.2461570294e+01 7.0000000000e+01 9.6087e-05 -1.0000e+00
      -12  1    3    3    0    0 +2.1977620829e-01 -1.0353623258e+01 +1.5602350893e+01 1.8726429706e+01 0.0000000000e+00 0.0000e+00 1.0000e+00
</event>
<event>
 5      1 +6.9480500e-03 9.11880000e+01 7.81616400e-03 1.18400000e-01
      -11 -1    0    0    0    0 +0.0000000000e+00 +0.0000000000e+00 +4.5593999997e+01 4.5594000000e+01 5.1100000000e-04 0.0000e+00 -1.0000e+00
       11 -1    0    0    0    0 -0.0000000000e+00 -0.0000000000e+00 -4.5593999997e+01 4.5594000000e+01 5.1100000000e-04 0.0000e+00 1.0000e+00
       23  2    1    2    0    0 +0.0000000000e+00 +0.0000000000e+00 +0.0000000000e+00 9.1188000000e+01 9.1188000000e+01 1.4416e-13 0.0000e+00
  9900012  1    3    3    0    0 +1.3664065967e+01 +5.5735824283e+00 -1.1528558006e+01 7.2461570294e+01 7.0000000000e+01 3.7307e-06 1.0000e+00
       12  1    3    3    0    0 -1.3664065967e+01 -5.5735824283e+00 +1.1528558006e+01 1.8726429706e+01 0.0000000000e+00 0.0000e+00 -1.0000e+00
</event>
<event>
 5      3 +6.9480500e-03 9.11880000e+01 7.81616400e-03 1.18400000e-01
      -11 -1    0    0    0    0 +0.0000000000e+00 +0.0000000000e+00 +4.5593999997e+01 4.5594000000e+01 5.1100000000e-04 0.0000e+00 1.0000e+00
       11 -1    0    0    0    0 -0.0000000000e+00 -0.0000000000e+00 -4.5593999997e+01 4.5594000000e+01 5.1100000000e-04 0.0000e+00 -1.0000e+00
       23  2    1    2    0    0 +0.0000000000e+00 +0.0000000000e+00 +0.0000000000e+00 9.1188000000e+01 9.1188000000e+01 7.5186e-14 0.0000e+00
  9900012  1    3    3    0    0 +3.1105048924e+00 -1.6160029348e+01 -8.9362956702e+00 7.2461570294e+01 7.0000000000e+01 3.6077e-05 -1.0000e+00
       12  1    3    3    0    0 -3.1105048924e+00 +1.6160029348e+01 +8.9362956702e+00 1.8726429706e+01 0.0000000000e+00 0.0000e+00 -1.0000e+00
</event>
<event>
 5      1 +6.9480500e-03 9.11880000e+01 7.81616400e-03 1.18400000e-01
      -11 -1    0    0    0    0 +0.0000000000e+00 +0.0000000000e+00 +4.5593999997e+01 4.5594000000e+01 5.1100000000e-04 0.0000e+00 1.0000e+00
       11 -1    0    0    0    0 -0.0000000000e+00 -0.0000000000e+00 -4.5593999997e+01 4.5594000000e+01 5.1100000000e-04 0.0000e+00 -1.0000e+00
       23  2    1    2    0    0 +0.0000000000e+00 +0.0000000000e+00 +0.0000000000e+00 9.1188000000e+01 9.1188000000e+01 1.7634e-15 0.0000e+00
  9900012  1    3    3    0    0 +4.8790826283e+00 +1.6917018749e+01 +6.3787301928e+00 7.2461570294e+01 7.0000000000e+01 3.5635e-05 1.0000e+00
       12  1    3    3    0    0 -4.8790826283e+00 -1.6917018749e+01 -6.3787301928e+00 1.8726429706e+01 0.0000000000e+00 0.0000e+00 -1.0000e+00
</event>
<event>
 5      7 +6.9480500e-03 9.11880000e+01 7.81616400e-03 1.18400000e-01
      -11 -1    0    0    0    0 +0.0000000000e+00 +0.0000000000e+00 +4.5593999997e+01 4.5594000000e+01 5.1100000000e-04 0.0000e+00 1.0000e+00
       11 -1    0    0    0    0 -0.0000000000e+00 -0.0000000000e+00 -4.5593999997e+01 4.5594000000e+01 5.1100000000e-04 0.0000e+00 -1.0000e+00
       23  2    1    2    0    0 +0.0000000000e+00 +0.0000000000e+00 +0.0000000000e+00 9.1188000000e+01 9.1188000000e+01 5.2345e-14 0.0000e+00
  9900012  1    3    3    0    0 -1.3127730302e+01 -5.0782043825e+00 +1.2351263372e+01 7.2461570294e+01 7.0000000000e+01 7.4738e-05 1.0000e+00
       12  1    3    3    0    0 +1.3127730302e+01 +5.0782043825e+00 -1.2351263372e+01 1.8726429706e+01 0.0000000000e+00 0.0000e+00 -1.0000e+00
</event>
<event>
 5      8 +6.9480500e-03 9.11880000e+01 7.81616400e-03 1.18400000e-01
      -11 -1    0    0    0    0 +0.0000000000e+00 +0.0000000000e+00 +4.5593999997e+01 4.5594000000e+01 5.1100000000e-04 0.0000e+00 -1.0000e+00
       11 -1    0    0    0    0 -0.0000000000e+00 -0.0000000000e+00 -4.5593999997e+01 4.5594000000e+01 5.1100000000e-04 0.0000e+00 1.0000e+00
       23  2    1    2    0    0 +0.0000000000e+00 +0.0000000000e+00 +0.0000000000e+00 9.1188000000e+01 9.1188000000e+01 4.0463e-15 0.0000e+00
  9900012  1    3    3    0    0 +7.5532013049e+00 +1.7757177064e+00 +1.7043331429e+01 7.2461570294e+01 7.0000000000e+01 7.1970e-06 -1.0000e+00
      -12  1    3    3    0    0 -7.5532013049e+00 -1.7757177064e+00 -1.7043331429e+01 1.8726429706e+01 0.0000000000e+00 0.0000e+00 1.0000e+00
</event>
<event>
 5      3 +6.9480500e-03 9.11880000e+01 7.81616400e-03 1.18400000e-01
      -11 -1    0    0    0    0 +0.0000000000e+00 +0.0000000000e+00 +4.5593999997e+01 4.5594000000e+01 5.1100000000e-04 0.0000e+00 -1.0000e+00
       11 -1    0    0    0    0 -0.0000000000e+00 -0.0000000000e+00 -4.5593999997e+01 4.5594000000e+01 5.1100000000e-04 0.0000e+00 1.0000e+00
       23  2    1    2    0    0 +0.0000000000e+00 +0.0000000000e+00 +0.0000000000e+00 9.1188000000e+01 9.1188000000e+01 9.8493e-14 0.0000e+00
  9900012  1    3    3    0    0 -2.4245786294e-01 -3.9683967559e+00 -1.8299513952e+01 7.2461570294e+01 7.0000000000e+01 2.3639e-04 1.0000e+00
       12  1    3    3    0    0 +2.4245786294e-01 +3.9683967559e+00 +1.8299513952e+01 1.8726429706e+01 0.0000000000e+00 0.0000e+00 -1.0000e+00
</event>
<event>
 5      1 +6.9480500e-03 9.11880000e+01 7.81616400e-03 1.18400000e-01
      -11 -1    0    0    0    0 +0.0000000000e+00 +0.0000000000e+00 +4.5593999997e+01 4.5594000000e+01 5.1100000000e-04 0.0000e+00 1.0000e+00
       11 -1    0    0    0    0 -0.0000000000e+00 -0.0000000000e+00 -4.5593999997e+01 4.5594000000e+01 5.1100000000e-04 0.0000e+00 -1.0000e+00
       23  2    1    2    0    0 +0.0000000000e+00 +0.0000000000e+00 +0.0000000000e+00 9.1188000000e+01 9.1188000000e+01 3.6274e-14 0.0000e+00
  9900012  1    3    3    0    0 +5.1515076238e+00 +1.6876973501e+01 +6.2696813464e+00 7.2461570294e+01 7.0000000000e+01 2.7298e-04 -1.0000e+00
       12  1    3    3    0    0 -5.1515076238e+00 -1.6876973501e+01 -6.2696813464e+00 1.8726429706e+01 0.0000000000e+00 0.0000e+00 -1.0000e+00
</event>
<event>
 5      2 +6.9480500e-03 9.11880000e+01 7.81616400e-03 1.18400000e-01
      -11 -1    0    0    0    0 +0.0000000000e+00 +0.0000000000e+00 +4.5593999997e+01 4.5594000000e+01 5.1100000000e-04 0.0000e+00 1.0000e+00
       11 -1    0    0    0    0 -0.0000000000e+00 -0.0000000000e+00 -4.5593999997e+01 4.5594000000e+01 5.1100000000e-04 0.0000e+00 -1.0000e+00
       23  2    1    2    0    0 +0.0000000000e+00 +0.0000000000e+00 +0.0000000000e+00 9.1188000000e+01 9.1188000000e+01 1.6492e-14 0.0000e+00
  9900012  1    3    3    0    0 +6.2662838341e+00 +1.2691543846e+01 -1.2261222257e+01 7.2461570294e+01 7.0000000000e+01 1.0446e-05 -1.0000e+00
      -12  1    3    3    0    0 -6.2662838341e+00 -1.2691543846e+01 +1.2261222257e+01 1.8726429706e+01 0.0000000000e+00 0.0000e+00 1.0000e+00
</event>
<event>
 5      8 +6.9480500e-03 9.11880000e+01 7.81616400e-03 1.18400000e-01
      -11 -1    0    0    0    0 +0.0000000000e+00 +0.0000000000e+00 +4.5593999997e+01 4.5594000000e+01 5.1100000000e-04 0.0000e+00 1.0000e+00
       11 -1    0    0    0    0 -0.0000000000e+00 -0.0000000000e+00 -4.5593999997e+01 4.5594000000e+01 5.1100000000e-04 0.0000e+00 -1.0000e+00
       23  2    1    2    0    0 +0.0000000000e+00 +0.0000000000e+00 +0.0000000000e+00 9.1188000000e+01 9.1188000000e+01 1.0179e-13 0.0000e+00
  9900012  1    3    3    0    0 -1.3392259316e+01 +8.2863405911e-01 -1.3062921784e+01 7.2461570294e+01 7.0000000000e+01 3.7514e-05 -1.0000e+00
      -12  1    3    3    0    0 +1.3392259316e+01 -8.2863405911e-01 +1.3062921784e+01 1.8726429706e+01 0.0000000000e+00 0.0000e+00 1.0000e+00
</event>
<event>
 5      7 +6.9480500e-03 9.11880000e+01 7.81616400e-03 1.18400000e-01
      -11 -1    0    0    0    0 +0.0000000000e+00 +0.0000000000e+00 +4.5593999997e+01 4.5594000000e+01 5.1100000000e-04 0.0000e+00 1.0000e+00
       11 -1    0    0    0    0 -0.0000000000e+00 -0.0000000000e+00 -4.5593999997e+01 4.5594000000e+01 5.1100000000e-04 0.0000e+00 -1.0000e+00
       23  2    1    2    0    0 +0.0000000000e+00 +0.0000000000e+00 +0.0000000000e+00 9.1188000000e+01 9.1188000000e+01 1.2092e-14 0.0000e+00
  9900012  1    3    3    0    0 -1.3848087711e+01 -3.4529589810e+00 +1.2123807593e+01 7.2461570294e+01 7.0000000000e+01 1.1900e-04 1.0000e+00
       12  1    3    3    0    0 +1.3848087711e+01 +3.4529589810e+00 -1.2123807593e+01 1.8726429706e+01 0.0000000000e+00 0.0000e+00 -1.0000e+00
</event>
<event>
 5      8 +6.9480500e-03 9.11880000e+01 7.81616400e-03 1.18400000e-01
      -11 -1    0    0    0    0 +0.0000000000e+00 +0.0000000000e+00 +4.5593999997e+01 4.5594000000e+01 5.1100000000e-04 0.0000e+00 1.0000e+00
       11 -1    0    0    0    0 -0.0000000000e+00 -0.0000000000e+00 -4.5593999997e+01 4.5594000000e+01 5.1100000000e-04 0.0000e+00 -1.0000e+00
       23  2    1    2    0    0 +0.0000000000e+00 +0.0000000000e+00 +0.0000000000e+00 9.1188000000e+01 9.1188000000e+01 4.7892e-14 0.0000e+00
  9900012  1    3    3    0    0 +1.6053252858e+01 -9.4158747061e+00 -2.0769077283e+00 7.2461570294e+01 7.0000000000e+01 5.0621e-05 -1.0000e+00
      -12  1    3    3    0    0 -1.6053252858e+01 +9.4158747061e+00 +2.0769077283e+00 1.8726429706e+01 0.0000000000e+00 0.0000e+00 1.0000e+00
</event>
<event>
 5      5 +6.9480500e-03 9.11880000e+01 7.81616400e-03 1.18400000e-01
      -11 -1    0    0    0    0 +0.0000000000e+00 +0.0000000000e+00 +4.5593999997e+01 4.5594000000e+01 5.1100000000e-04 0.0000e+00 -1.0000e+00
       11 -1    0    0    0    0 -0.0000000000e+00 -0.0000000000e+00 -4.5593999997e+01 4.5594000000e+01 5.1100000000e-04 0.0000e+00 1.0000e+00
       23  2    1    2    0    0 +0.0000000000e+00 +0.0000000000e+00 +0.0000000000e+00 9.1188000000e+01 9.1188000000e+01 5.8858e-14 0.0000e+00
  9900012  1    3    3    0    0 +1.3520619479e+01 +2.3019494711e+00 +1.2750413604e+01 7.2461570294e+01 7.0000000000e+01 5.4054e-04 -1.0000e+00
       12  1    3    3    0    0 -1.3520619479e+01 -2.3019494711e+00 -1.2750413604e+01 1.8726429706e+01 0.0000000000e+00 0.0000e+00 -1.0000e+00
</event>
<event>
 5      6 +6.9480500e-03 9.11880000e+01 7.81616400e-03 1.18400000e-01
      -11 -1    0    0    0    0 +0.0000000000e+00 +0.0000000000e+00 +4.5593999997e+01 4.5594000000e+01 5.1100000000e-04 0.0000e+00 1.0000e+00
       11 -1    0    0    0    0 -0.0000000000e+00 -0.0000000000e+00 -4.5593999997e+01 4.5594000000e+01 5.1100000000e-04 0.0000e+00 -1.0000e+00
       23  2    1    2    0    0 +0.0000000000e+00 +0.0000000000e+00 +0.0000000000e+00 9.1188000000e+01 9.1188000000e+01 6.1723e-14 0.0000e+00
  9900012  1    3    3    0    0 -1.2949919994e+01 -1.3426389005e+01 +1.6464567817e+00 7.2461570294e+01 7.0000000000e+01 1.3251e-04 -1.0000e+00
      -12  1    3    3    0    0 +1.2949919994e+01 +1.3426389005e+01 -1.6464567817e+00 1.8726429706e+01 0.0000000000e+00 0.0000e+00 1.0000e+00
</event>
<event>
 5      6 +6.9480500e-03 9.11880000e+01 7.81616400e-03 1.18400000e-01
      -11 -1    0    0    0    0 +0.0000000000e+00 +0.0000000000e+00 +4.5593999997e+01 4.5594000000e+01 5.1100000000e-04 0.0000e+00 -1.0000e+00
       11 -1    0    0    0    0 -0.0000000000e+00 -0.0000000000e+00 -4.5593999997e+01 4.5594000000e+01 5.1100000000e-04 0.0000e+00 1.0000e+00
       23  2    1    2    0    0 +0.0000000000e+00 +0.0000000000e+00 +0.0000000000e+00 9.1188000000e+01 9.1188000000e+01 1.0006e-14 0.0000e+00
  9900012  1    3    3    0    0 +5.9662231161e-01 +1.3664658945e+01 +1.2790633575e+01 7.2461570294e+01 7.0000000000e+01 6.0500e-05 1.0000e+00
      -12  1    3    3    0    0 -5.9662231161e-01 -1.3664658945e+01 -1.2790633575e+01 1.8726429706e+01 0.0000000000e+00 0.0000e+00 1.0000e+00
</event>
<event>
 5      4 +6.9480500e-03 9.11880000e+01 7.81616400e-03 1.18400000e-01
      -11 -1    0    0    0    0 +0.0000000000e+00 +0.0000000000e+00 +4.5593999997e+01 4.5594000000e+01 5.1100000000e-04 0.0000e+00 -1.0000e+00
       11 -1    0    0    0    0 -0.0000000000e+00 -0.0000000000e+00 -4.5593999997e+01 4.5594000000e+01 5.1100000000e-04 0.0000e+00 1.0000e+00
       23  2    1    2    0    0 +0.0000000000e+00 +0.0000000000e+00 +0.0000000000e+00 9.1188000000e+01 9.1188000000e+01 1.7199e-13 0.0000e+00
  9900012  1    3    3    0    0 +3.4021145175e+00 +1.6921967450e+01 +7.2630437124e+00 7.2461570294e+01 7.0000000000e+01 4.5972e-05 -1.0000e+00
      -12  1    3    3    0    0 -3.4021145175e+00 -1.6921967450e+01 -7.2630437124e+00 1.8726429706e+01 0.0000000000e+00 0.0000e+00 1.0000e+00
</event>
<event>
 5      6 +6.9480500e-03 9.11880000e+01 7.81616400e-03 1.18400000e-01
      -11 -1    0    0    0    0 +0.0000000000e+00 +0.0000000000e+00 +4.5593999997e+01 4.5594000000e+01 5.1100000000e-04 0.0000e+00 -1.0000e+00
       11 -1    0    0    0    0 -0.0000000000e+00 -0.0000000000e+00 -4.5593999997e+01 4.5594000000e+01 5.1100000000e-04 0.0000e+00 1.0000e+00
       23  2    1    2    0    0 +0.0000000000e+00 +0.0000000000e+00 +0.0000000000e+00 9.1188000000e+01 9.1188000000e+01 4.9746e-14 0.0000e+00
  9900012  1    3    3    0    0 -1.1108776691e+01 -1.0159033365e+01 +1.1138594663e+01 7.2461570294e+01 7.0000000000e+01 1.9734e-04 -1.0000e+00
      -12  1    3    3    0    0 +1.1108776691e+01 +1.0159033365e+01 -1.1138594663e+01 1.8726429706e+01 0.0000000000e+00 0.0000e+00 1.0000e+00
</event>
<event>
 5      7 +6.9480500e-03 9.11880000e+01 7.81616400e-03 1.18400000e-01
      -11 -1    0    0    0    0 +0.0000000000e+00 +0.0000000000e+00 +4.5593999997e+01 4.5594000000e+01 5.1100000000e-04 0.0000e+00 -1.0000e+00
       11 -1    0    0    0    0 -0.0000000000e+00 -0.0000000000e+00 -4.5593999997e+01 4.5594000000e+01 5.1100000000e-04 0.0000e+00 1.0000e+00
       23  2    1    2    0    0 +0.0000000000e+00 +0.0000000000e+00 +0.0000000000e+00 9.1188000000e+01 9.1188000000e+01 8.0918e-14 0.0000e+00
  9900012  1    3    3    0    0 +1.8720528859e+01 -1.8889881919e-01 +4.3044857770e-01 7.2461570294e+01 7.0000000000e+01 1.1019e-05 1.0000e+00
       12  1    3    3    0    0 -1.8720528859e+01 +1.8889881919e-01 -4.3044857770e-01 1.8726429706e+01 0.0000000000e+00 0.0000e+00 -1.0000e+00
</event>
<event>
 5      4 +6.9480500e-03 9.11880000e+01 7.81616400e-03 1.18400000e-01
      -11 -1    0    0    0    0 +0.0000000000e+00 +0.0000000000e+00 +4.5593999997e+01 4.5594000000e+01 5.1100000000e-04 0.0000e+00 1.0000e+00
       11 -1    0    0    0    0 -0.0000000000e+00 -0.0000000000e+00 -4.5593999997e+01 4.5594000000e+01 5.1100000000e-04 0.0000e+00 -1.0000e+00
       23  2    1    2    0    0 +0.0000000000e+00 +0.0000000000e+00 +0.0000000000e+00 9.1188000000e+01 9.1188000000e+01 4.4273e-14 0.0000e+00
  9900012  1    3    3    0    0 -6.7212797252e-01 -5.8106099080e+00 -1.7789441419e+01 7.2461570294e+01 7.0000000000e+01 7.5082e-05 -1.0000e+00
      -12  1    3    3    0    0 +6.7212797252e-01 +5.8106099080e+00 +1.7789441419e+01 1.8726429706e+01 0.0000000000e+00 0.0000e+00 1.0000e+00
</event>
<event>
 5      8 +6.9480500e-03 9.11880000e+01 7.81616400e-03 1.18400000e-01
      -11 -1    0    0    0    0 +0.0000000000e+00 +0.0000000000e+00 +4.5593999997e+01 4.5594000000e+01 5.1100000000e-04 0.0000e+00 -1.0000e+00
       11 -1    0    0    0    0 -0.0000000000e+00 -0.0000000000e+00 -4.5593999997e+01 4.5594000000e+01 5.1100000000e-04 0.0000e+00 1.0000e+00
       23  2    1    2    0    0 +0.0000000000e+00 +0.0000000000e+00 +0.0000000000e+00 9.1188000000e+01 9.1188000000e+01 3.2627e-14 0.0000e+00
  9900012  1    3    3    0    0 +1.5594273394e+01 +6.3145819519e+00 +8.2233728847e+00 7.2461570294e+01 7.0000000000e+01 4.7164e-05 -1.0000e+00
      -12  1    3    3    0    0 -1.5594273394e+01 -6.3145819519e+00 -8.2233728847e+00 1.8726429706e+01 0.0000000000e+00 0.0000e+00 1.0000e+00
</event>
<event>
 5      7 +6.9480500e-03 9.11880000e+01 7.81616400e-03 1.18400000e-01
      -11 -1    0    0    0    0 +0.0000000000e+00 +0.0000000000e+00 +4.5593999997e+01 4.5594000000e+01 5.1100000000e-04 0.0000e+00 1.0000e+00
       11 -1    0    0    0    0 -0.0000000000e+00 -0.0000000000e+00 -4.5593999997e+01 4.5594000000e+01 5.1100000000e-04 0.0000e+00 -1.0000e+00
       23  2    1    2    0    0 +0.0000000000e+00 +0.0000000000e+00 +0.0000000000e+00 9.1188000000e+01 9.1188000000e+01 9.8224e-14 0.0000e+00
  9900012  1    3    3    0    0 -4.4997792618e+00 +1.4781246515e+01 +1.0580449309e+01 7.2461570294e+01 7.0000000000e+01 8.2438e-05 1.0000e+00
       12  1    3    3    0    0 +4.4997792618e+00 -1.4781246515e+01 -1.0580449309e+01 1.8726429706e+01 0.0000000000e+00 0.0000e+00 -1.0000e+00
</event>
<event>
 5      8 +6.9480500e-03 9.11880000e+01 7.81616400e-03 1.18400000e-01
      -11 -1    0    0    0    0 +0.0000000000e+00 +0.0000000000e+00 +4.5593999997e+01 4.5594000000e+01 5.1100000000e-04 0.0000e+00 1.0000e+00
       11 -1    0    0    0    0 -0.0000000000e+00 -0.0000000000e+00 -4.5593999997e+01 4.5594000000e+01 5.1100000000e-04 0.0000e+00 -1.0000e+00
       23  2    1    2    0    0 +0.0000000000e+00 +0.0000000000e+00 +0.0000000000e+00 9.1188000000e+01 9.1188000000e+01 1.6786e-14 0.0000e+00
  9900012  1    3    3    0    0 -2.9895858066e+00 +5.2372027441e-02 -1.8486178713e+01 7.2461570294e+01 7.0000000000e+01 2.8496e-04 -1.0000e+00
      -12  1    3    3    0    0 +2.9895858066e+00 -5.2372027441e-02 +1.8486178713e+01 1.8726429706e+01 0.0000000000e+00 0.0000e+00 1.0000e+00
</event>
<event>
 5      2 +6.9480500e-03 9.11880000e+01 7.81616400e-03 1.18400000e-01
      -11 -1    0    0    0    0 +0.0000000000e+00 +0.0000000000e+00 +4.5593999997e+01 4.5594000000e+01 5.1100000000e-04 0.0000e+00 -1.0000e+00
       11 -1    0    0    0    0 -0.0000000000e+00 -0.0000000000e+00 -4.5593999997e+01 4.5594000000e+01 5.1100000000e-04 0.0000e+00 1.0000e+00
       23  2    1    2    0    0 +0.0000000000e+00 +0.0000000000e+00 +0.0000000000e+00 9.1188000000e+01 9.1188000000e+01 9.7245e-14 0.0000e+00
  9900012  1    3    3    0    0 -1.7862549592e+01 +3.1388466554e+00 +4.6643470370e+00 7.2461570294e+01 7.0000000000e+01 1.4484e-04 -1.0000e+00
      -12  1    3    3    0    0 +1.7862549592e+01 -3.1388466554e+00 -4.6643470370e+00 1.8726429706e+01 0.0000000000e+00 0.0000e+00 1.0000e+00
</event>
<event>
 5      3 +6.9480500e-03 9.11880000e+01 7.81616400e-03 1.18400000e-01
      -11 -1    0    0    0    0 +0.0000000000e+00 +0.0000000000e+00 +4.5593999997e+01 4.5594000000e+01 5.1100000000e-04 0.0000e+00 -1.0000e+00
       11 -1    0    0    0    0 -0.0000000000e+00 -0.0000000000e+00 -4.5593999997e+01 4.5594000000e+01 5.1100000000e-04 0.0000e+00 1.0000e+00
       23  2    1    2    0    0 +0.0000000000e+00 +0.0000000000e+00 +0.0000000000e+00 9.1188000000e+01 9.1188000000e+01 4.8666e-15 0.0000e+00
  9900012  1    3    3    0    0 -1.2657801724e+01 +1.0091867492e+01 -9.4134709635e+00 7.2461570294e+01 7.0000000000e+01 5.8576e-05 -1.0000e+00
       12  1    3    3    0    0 +1.2657801724e+01 -1.0091867492e+01 +9.4134709635e+00 1.8726429706e+01 0.0000000000e+00 0.0000e+00 -1.0000e+00
</event>
<event>
 5      2 +6.9480500e-03 9.11880000e+01 7.81616400e-03 1.18400000e-01
      -11 -1    0    0    0    0 +0.0000000000e+00 +0.0000000000e+00 +4.5593999997e+01 4.5594000000e+01 5.1100000000e-04 0.0000e+00 1.0000e+00
       11 -1    0    0    0    0 -0.0000000000e+00 -0.0000000000e+00 -4.5593999997e+01 4.5594000000e+01 5.1100000000e-04 0.0000e+00 -1.0000e+00
       23  2    1    2    0    0 +0.0000000000e+00 +0.0000000000e+00 +0.0000000000e+00 9.1188000000e+01 9.1188000000e+01 1.6347e-15 0.0000e+00
  9900012  1    3    3    0    0 +1.2619421970e+01 +1.3831945662e+01 -3.2655456266e-01 7.2461570294e+01 7.0000000000e+01 9.8897e-06 -1.0000e+00
      -12  1    3    3    0    0 -1.2619421970e+01 -1.3831945662e+01 +3.2655456266e-01 1.8726429706e+01 0.0000000000e+00 0.0000e+00 1.0000e+00
</event>
<event>
 5      4 +6.9480500e-03 9.11880000e+01 7.81616400e-03 1.18400000e-01
      -11 -1    0    0    0    0 +0.0000000000e+00 +0.0000000000e+00 +4.5593999997e+01 4.5594000000e+01 5.1100000000e-04 0.0000e+00 1.0000e+00
       11 -1    0    0    0    0 -0.0000000000e+00 -0.0000000000e+00 -4.5593999997e+01 4.5594000000e+01 5.1100000000e-04 0.0000e+00 -1.0000e+00
       23  2    1    2    0    0 +0.0000000000e+00 +0.0000000000e+00 +0.0000000000e+00 9.1188000000e+01 9.1188000000e+01 7.2003e-13 0.0000e+00
  9900012  1    3    3    0    0 -1.5380049150e+01 -2.0869410982e+00 -1.0477496576e+01 7.2461570294e+01 7.0000000000e+01 2.8815e-04 -1.0000e+00
      -12  1    3    3    0    0 +1.5380049150e+01 +2.0869410982e+00 +1.0477496576e+01 1.8726429706e+01 0.0000000000e+00 0.0000e+00 1.0000e+00
</event>
<event>
 5      6 +6.9480500e-03 9.11880000e+01 7.81616400e-03 1.18400000e-01
      -11 -1    0    0    0    0 +0.0000000000e+00 +0.0000000000e+00 +4.5593999997e+01 4.5594000000e+01 5.1100000000e-04 0.0000e+00 -1.0000e+00
       11 -1    0    0    0    0 -0.0000000000e+00 -0.0000000000e+00 -4.5593999997e+01 4.5594000000e+01 5.1100000000e-04 0.0000e+00 1.0000e+00
       23  2    1    2    0    0 +0.0000000000e+00 +0.0000000000e+00 +0.0000000000e+00 9.1188000000e+01 9.1188000000e+01 3.1550e-14 0.0000e+00
  9900012  1    3    3    0    0 +2.4614429946e+00 -2.3965113683e+00 +1.8408617579e+01 7.2461570294e+01 7.0000000000e+01 5.9492e-05 -1.0000e+00
      -12  1    3    3    0    0 -2.4614429946e+00 +2.3965113683e+00 -1.8408617579e+01 1.8726429706e+01 0.0000000000e+00 0.0000e+00 1.0000e+00
</event>
<event>
 5      3 +6.9480500e-03 9.11880000e+01 7.81616400e-03 1.18400000e-01
      -11 -1    0    0    0    0 +0.0000000000e+00 +0.0000000000e+00 +4.5593999997e+01 4.5594000000e+01 5.1100000000e-04 0.0000e+00 -1.0000e+00
       11 -1    0    0    0    0 -0.0000000000e+00 -0.0000000000e+00 -4.5593999997e+01 4.5594000000e+01 5.1100000000e-04 0.0000e+00 1.0000e+00
       23  2    1    2    0    0 +0.0000000000e+00 +0.0000000000e+00 +0.0000000000e+00 9.1188000000e+01 9.1188000000e+01 5.2343e-14 0.0000e+00
  9900012  1    3    3    0    0 -8.4893359229e+00 +1.3536136949e+01 -9.7664395568e+00 7.2461570294e+01 7.0000000000e+01 1.8483e-05 1.0000e+00
       12  1    3    3    0    0 +8.4893359229e+00 -1.3536136949e+01 +9.7664395568e+00 1.8726429706e+01 0.0000000000e+00 0.0000e+00 -1.0000e+00
</event>
<event>
 5      7 +6.9480500e-03 9.11880000e+01 7.81616400e-03 1.18400000e-01
      -11 -1    0    0    0    0 +0.0000000000e+00 +0.0000000000e+00 +4.5593999997e+01 4.5594000000e+01 5.1100000000e-04 0.0000e+00 1.0000e+00
       11 -1    0    0    0    0 -0.0000000000e+00 -0.0000000000e+00 -4.5593999997e+01 4.5594000000e+01 5.1100000000e-04 0.0000e+00 -1.0000e+00
       23  2    1    2    0    0 +0.0000000000e+00 +0.0000000000e+00 +0.0000000000e+00 9.1188000000e+01 9.1188000000e+01 6.9815e-15 0.0000e+00
  9900012  1    3    3    0    0 +9.8839857593e+00 -1.0915993258e+01 +1.1568365754e+01 7.2461570294e+01 7.0000000000e+01 2.3947e-05 1.0000e+00
       12  1    3    3    0    0 -9.8839857593e+00 +1.0915993258e+01 -1.1568365754e+01 1.8726429706e+01 0.0000000000e+00 0.0000e+00 -1.0000e+00
</event>
<event>
 5      2 +6.9480500e-03 9.11880000e+01 7.81616400e-03 1.18400000e-01
      -11 -1    0    0    0    0 +0.0000000000e+00 +0.0000000000e+00 +4.5593999997e+01 4.5594000000e+01 5.1100000000e-04 0.0000e+00 1.0000e+00
       11 -1    0    0    0    0 -0.0000000000e+00 -0.0000000000e+00 -4.5593999997e+01 4.5594000000e+01 5.1100000000e-04 0.0000e+00 -1.0000e+00
       23  2    1    2    0    0 +0.0000000000e+00 +0.0000000000e+00 +0.0000000000e+00 9.1188000000e+01 9.1188000000e+01 2.8378e-14 0.0000e+00
  9900012  1    3    3    0    0 -7.1234670177e+00 +1.3175612014e+01 +1.1240046050e+01 7.2461570294e+01 7.0000000000e+01 1.9489e-04 1.0000e+00
      -12  1    3    3    0    0 +7.1234670177e+00 -1.3175612014e+01 -1.1240046050e+01 1.8726429706e+01 0.0000000000e+00 0.0000e+00 1.0000e+00
</event>
<event>
 5      1 +6.9480500e-03 9.11880000e+01 7.81616400e-03 1.18400000e-01
      -11 -1    0    0    0    0 +0.0000000000e+00 +0.0000000000e+00 +4.5593999997e+01 4.5594000000e+01 5.1100000000e-04 0.0000e+00 -1.0000e+00
       11 -1    0    0    0    0 -0.0000000000e+00 -0.0000000000e+00 -4.5593999997e+01 4.5594000000e+01 5.1100000000e-04 0.0000e+00 1.0000e+00
       23  2    1    2    0    0 +0.0000000000e+00 +0.0000000000e+00 +0.0000000000e+00 9.1188000000e+01 9.1188000000e+01 2.0715e-14 0.0000e+00
  9900012  1    3    3    0    0 -9.0684169822e+00 +1.4035068260e+01 -8.4533923302e+00 7.2461570294e+01 7.0000000000e+01 4.9042e-04 1.0000e+00
       12  1    3    3    0    0 +9.0684169822e+00 -1.4035068260e+01 +8.4533923302e+00 1.8726429706e+01 0.0000000000e+00 0.0000e+00 -1.0000e+00
</event>
<event>
 5      6 +6.9480500e-03 9.11880000e+01 7.81616400e-03 1.18400000e-01
      -11 -1    0    0    0    0 +0.0000000000e+00 +0.0000000000e+00 +4.5593999997e+01 4.5594000000e+01 5.1100000000e-04 0.0000e+00 -1.0000e+00
       11 -1    0    0    0    0 -0.0000000000e+00 -0.0000000000e+00 -4.5593999997e+01 4.5594000000e+01 5.1100000000e-04 0.0000e+00 1.0000e+00
       23  2    1    2    0    0 +0.0000000000e+00 +0.0000000000e+00 +0.0000000000e+00 9.1188000000e+01 9.1188000000e+01 2.0979e-14 0.0000e+00
  9900012  1    3    3    0    0 -1.7861927239e+01 -1.7710229889e+00 -5.3379961046e+00 7.2461570294e+01 7.0000000000e+01 1.7775e-05 -1.0000e+00
      -12  1    3    3    0    0 +1.7861927239e+01 +1.7710229889e+00 +5.3379961046e+00 1.8726429706e+01 0.0000000000e+00 0.0000e+00 1.0000e+00
</event>
<event>
 5      4 +6.9480500e-03 9.11880000e+01 7.81616400e-03 1.18400000e-01
      -11 -1    0    0    0    0 +0.0000000000e+00 +0.0000000000e+00 +4.5593999997e+01 4.5594000000e+01 5.1100000000e-04 0.0000e+00 1.0000e+00
       11 -1    0    0    0    0 -0.0000000000e+00 -0.0000000000e+00 -4.5593999997e+01 4.5594000000e+01 5.1100000000e-04 0.0000e+00 -1.0000e+00
       23  2    1    2    0    0 +0.0000000000e+00 +0.0000000000e+00 +0.0000000000e+00 9.1188000000e+01 9.1188000000e+01 2.8085e-14 0.0000e+00
  9900012  1    3    3    0    0 -1.0095019201e+01 +2.1034562267e+00 -1.5631545949e+01 7.2461570294e+01 7.0000000000e+01 1.2852e-04 -1.0000e+00
      -12  1    3    3    0    0 +1.0095019201e+01 -2.1034562267e+00 +1.5631545949e+01 1.8726429706e+01 0.0000000000e+00 0.0000e+00 1.0000e+00
</event>
<event>
 5      5 +6.9480500e-03 9.11880000e+01 7.81616400e-03 1.18400000e-01
      -11 -1    0    0    0    0 +0.0000000000e+00 +0.0000000000e+00 +4.5593999997e+01 4.5594000000e+01 5.1100000000e-04 0.0000e+00 -1.0000e+00
       11 -1    0    0    0    0 -0.0000000000e+00 -0.0000000000e+00 -4.5593999997e+01 4.5594000000e+01 5.1100000000e-04 0.0000e+00 1.0000e+00
       23  2    1    2    0    0 +0.0000000000e+00 +0.0000000000e+00 +0.0000000000e+00 9.1188000000e+01 9.1188000000e+01 3.6942e-15 0.0000e+00
  9900012  1    3    3    0    0 -4.7808701574e+00 +2.7418757033e-01 -1.8103791626e+01 7.2461570294e+01 7.0000000000e+01 1.2806e-04 1.0000e+00
       12  1    3    3    0    0 +4.7808701574e+00 -2.7418757033e-01 +1.8103791626e+01 1.8726429706e+01 0.0000000000e+00 0.0000e+00 -1.0000e+00
</event>
<event>
 5      6 +6.9480500e-03 9.11880000e+01 7.81616400e-03 1.18400000e-01
      -11 -1    0    0    0    0 +0.0000000000e+00 +0.0000000000e+00 +4.5593999997e+01 4.5594000000e+01 5.1100000000e-04 0.0000e+00 -1.0000e+00
       11 -1    0    0    0    0 -0.0000000000e+00 -0.0000000000e+00 -4.5593999997e+01 4.5594000000e+01 5.1100000000e-04 0.0000e+00 1.0000e+00
       23  2    1    2    0    0 +0.0000000000e+00 +0.0000000000e+00 +0.0000000000e+00 9.1188000000e+01 9.1188000000e+01 1.5570e-13 0.0000e+00
  9900012  1    3    3    0    0 +9.6216660238e+00 +1.1727765906e+01 +1.0980082845e+01 7.2461570294e+01 7.0000000000e+01 4.2442e-06 -1.0000e+00
      -12  1    3    3    0    0 -9.6216660238e+00 -1.1727765906e+01 -1.0980082845e+01 1.8726429706e+01 0.0000000000e+00 0.0000e+00 1.0000e+00
</event>
<event>
 5      8 +6.9480500e-03 9.11880000e+01 7.81616400e-03 1.18400000e-01
      -11 -1    0    0    0    0 +0.0000000000e+00 +0.0000000000e+00 +4.5593999997e+01 4.5594000000e+01 5.1100000000e-04 0.0000e+00 -1.0000e+00
       11 -1    0    0    0    0 -0.0000000000e+00 -0.0000000000e+00 -4.5593999997e+01 4.5594000000e+01 5.1100000000e-04 0.0000e+00 1.0000e+00
       23  2    1    2    0    0 +0.0000000000e+00 +0.0000000000e+00 +0.0000000000e+00 9.1188000000e+01 9.1188000000e+01 1.3319e-13 0.0000e+00
  9900012  1    3    3    0    0 -1.4664581220e+01 +1.1644644652e+01 -1.7742064882e-01 7.2461570294e+01 7.0000000000e+01 1.2397e-04 -1.0000e+00
      -12  1    3    3    0    0 +1.4664581220e+01 -1.1644644652e+01 +1.7742064882e-01 1.8726429706e+01 0.0000000000e+00 0.0000e+00 1.0000e+00
</event>
<event>
 5      8 +6.9480500e-03 9.11880000e+01 7.81616400e-03 1.18400000e-01
      -11 -1    0    0    0    0 +0.0000000000e+00 +0.0000000000e+00 +4.5593999997e+01 4.5594000000e+01 5.1100000000e-04 0.0000e+00 -1.0000e+00
       11 -1    0    0    0    0 -0.0000000000e+00 -0.0000000000e+00 -4.5593999997e+01 4.5594000000e+01 5.1100000000e-04 0.0000e+00 1.0000e+00
       23  2    1    2    0    0 +0.0000000000e+00 +0.0000000000e+00 +0.0000000000e+00 9.1188000000e+01 9.1188000000e+01 1.4209e-13 0.0000e+00
  9900012  1    3    3    0    0 -1.6790441213e+01 +7.6215103687e-02 +8.2918299932e+00 7.2461570294e+01 7.0000000000e+01 1.8395e-04 1.0000e+00
      -12  1    3    3    0    0 +1.6790441213e+01 -7.6215103687e-02 -8.2918299932e+00 1.8726429706e+01 0.0000000000e+00 0.0000e+00 1.0000e+00
</event>
<event>
 5      8 +6.9480500e-03 9.11880000e+01 7.81616400e-03 1.18400000e-01
      -11 -1    0    0    0    0 +0.0000000000e+00 +0.0000000000e+00 +4.5593999997e+01 4.5594000000e+01 5.1100000000e-04 0.0000e+00 1.0000e+00
       11 -1    0    0    0    0 -0.0000000000e+00 -0.0000000000e+00 -4.5593999997e+01 4.5594000000e+01 5.1100000000e-04 0.0000e+00 -1.0000e+00
       23  2    1    2    0    0 +0.0000000000e+00 +0.0000000000e+00 +0.0000000000e+00 9.1188000000e+01 9.1188000000e+01 8.5168e-15 0.0000e+00
  9900012  1    3    3    0    0 +1.8573125441e+01 +6.7650328469e-01 -2.2935832655e+00 7.2461570294e+01 7.0000000000e+01 3.2272e-05 -1.0000e+00
      -12  1    3    3    0    0 -1.8573125441e+01 -6.7650328469e-01 +2.2935832655e+00 1.8726429706e+01 0.0000000000e+00 0.0000e+00 1.0000e+00
</event>
<event>
 5      8 +6.9480500e-03 9.11880000e+01 7.81616400e-03 1.18400000e-01
      -11 -1    0    0    0    0 +0.0000000000e+00 +0.0000000000e+00 +4.5593999997e+01 4.5594000000e+01 5.1100000000e-04 0.0000e+00 -1.0000e+00
       11 -1    0    0    0    0 -0.0000000000e+00 -0.0000000000e+00 -4.5593999997e+01 4.5594000000e+01 5.1100000000e-04 0.0000e+00 1.0000e+00
       23  2    1    2    0    0 +0.0000000000e+00 +0.0000000000e+00 +0.0000000000e+00 9.1188000000e+01 9.1188000000e+01 1.3889e-13 0.0000e+00
  9900012  1    3    3    0    0 -1.2465701191e+01 +8.0093069153e+00 +1.1451483139e+01 7.2461570294e+01 7.0000000000e+01 5.6103e-04 -1.0000e+00
      -12  1    3    3    0    0 +1.2465701191e+01 -8.0093069153e+00 -1.1451483139e+01 1.8726429706e+01 0.0000000000e+00 0.0000e+00 1.0000e+00
</event>
<event>
 5      4 +6.9480500e-03 9.11880000e+01 7.81616400e-03 1.18400000e-01
      -11 -1    0    0    0    0 +0.0000000000e+00 +0.0000000000e+00 +4.5593999997e+01 4.5594000000e+01 5.1100000000e-04 0.0000e+00 1.0000e+00
       11 -1    0    0    0    0 -0.0000000000e+00 -0.0000000000e+00 -4.5593999997e+01 4.5594000000e+01 5.1100000000e-04 0.0000e+00 -1.0000e+00
       23  2    1    2    0    0 +0.0000000000e+00 +0.0000000000e+00 +0.0000000000e+00 9.1188000000e+01 9.1188000000e+01 3.8074e-15 0.0000e+00
  9900012  1    3    3    0    0 -8.3971729586e+00 +7.0230167202e-01 -1.6723439484e+01 7.2461570294e+01 7.0000000000e+01 4.2512e-06 -1.0000e+00
      -12  1    3    3    0    0 +8.3971729586e+00 -7.0230167202e-01 +1.6723439484e+01 1.8726429706e+01 0.0000000000e+00 0.0000e+00 1.0000e+00
</event>
<event>
 5      1 +6.9480500e-03 9.11880000e+01 7.81616400e-03 1.18400000e-01
      -11 -1    0    0    0    0 +0.0000000000e+00 +0.0000000000e+00 +4.5593999997e+01 4.5594000000e+01 5.1100000000e-04 0.0000e+00 1.0000e+00
       11 -1    0    0    0    0 -0.0000000000e+00 -0.0000000000e+00 -4.5593999997e+01 4.5594000000e+01 5.1100000000e-04 0.0000e+00 -1.0000e+00
       23  2    1    2    0    0 +0.0000000000e+00 +0.0000000000e+00 +0.0000000000e+00 9.1188000000e+01 9.1188000000e+01 6.9472e-14 0.0000e+00
  9900012  1    3    3    0    0 +9.8237533923e+00 -1.3223650885e+01 -8.9055093110e+00 7.2461570294e+01 7.0000000000e+01 1.8200e-04 1.0000e+00
       12  1    3    3    0    0 -9.8237533923e+00 +1.3223650885e+01 +8.9055093110e+00 1.8726429706e+01 0.0000000000e+00 0.0000e+00 -1.0000e+00
</event>
<event>
 5      1 +6.9480500e-03 9.11880000e+01 7.81616400e-03 1.18400000e-01
      -11 -1    0    0    0    0 +0.0000000000e+00 +0.0000000000e+00 +4.5593999997e+01 4.5594000000e+01 5.1100000000e-04 0.0000e+00 -1.0000e+00
       11 -1    0    0    0    0 -0.0000000000e+00 -0.0000000000e+00 -4.5593999997e+01 4.5594000000e+01 5.1100000000e-04 0.0000e+00 1.0000e+00
       23  2    1    2    0    0 +0.0000000000e+00 +0.0000000000e+00 +0.0000000000e+00 9.1188000000e+01 9.1188000000e+01 1.8584e-13 0.0000e+00
  9900012  1    3    3    0    0 +1.5198782243e+01 +8.7608545520e+00 -6.5516116618e+00 7.2461570294e+01 7.0000000000e+01 2.8417e-06 1.0000e+00
       12  1    3    3    0    0 -1.5198782243e+01 -8.7608545520e+00 +6.5516116618e+00 1.8726429706e+01 0.0000000000e+00 0.0000e+00 -1.0000e+00
</event>
<event>
 5      4 +6.9480500e-03 9.11880000e+01 7.81616400e-03 1.18400000e-01
      -11 -1    0    0    0    0 +0.0000000000e+00 +0.0000000000e+00 +4.5593999997e+01 4.5594000000e+01 5.1100000000e-04 0.0000e+00 1.0000e+00
       11 -1    0    0    0    0 -0.0000000000e+00 -0.0000000000e+00 -4.5593999997e+01 4.5594000000e+01 5.1100000000e-04 0.0000e+00 -1.0000e+00
       23  2    1    2    0    0 +0.0000000000e+00 +0.0000000000e+00 +0.0000000000e+00 9.1188000000e+01 9.1188000000e+01 4.0746e-14 0.0000e+00
  9900012  1    3    3    0    0 +5.6700758922e+00 +1.5206259458e+01 +9.3433977871e+00 7.2461570294e+01 7.0000000000e+01 3.8549e-05 -1.0000e+00
      -12  1    3    3    0    0 -5.6700758922e+00 -1.5206259458e+01 -9.3433977871e+00 1.8726429706e+01 0.0000000000e+00 0.0000e+00 1.0000e+00
</event>
<event>
 5      4 +6.9480500e-03 9.11880000e+01 7.81616400e-03 1.18400000e-01
      -11 -1    0    0    0    0 +0.0000000000e+00 +0.0000000000e+00 +4.5593999997e+01 4.5594000000e+01 5.1100000000e-04 0.0000e+00 -1.0000e+00
       11 -1    0    0    0    0 -0.0000000000e+00 -0.0000000000e+00 -4.5593999997e+01 4.5594000000e+01 5.1100000000e-04 0.0000e+00 1.0000e+00
       23  2    1    2    0    0 +0.0000000000e+00 +0.0000000000e+00 +0.0000000000e+00 9.1188000000e+01 9.1188000000e+01 3.5838e-16 0.0000e+00
  9900012  1    3    3    0    0 -1.2872159941e+00 -1.5586327500e+01 +1.0299933959e+01 7.2461570294e+01 7.0000000000e+01 5.9111e-05 -1.0000e+00
      -12  1    3    3    0    0 +1.2872159941e+00 +1.5586327500e+01 -1.0299933959e+01 1.8726429706e+01 0.0000000000e+00 0.0000e+00 1.0000e+00
</event>
<event>
 5      8 +6.9480500e-03 9.11880000e+01 7.81616400e-03 1.18400000e-01
      -11 -1    0    0    0    0 +0.0000000000e+00 +0.0000000000e+00 +4.5593999997e+01 4.5594000000e+01 5.1100000000e-04 0.0000e+00 1.0000e+00
       11 -1    0    0    0    0 -0.0000000000e+00 -0.0000000000e+00 -4.5593999997e+01 4.5594000000e+01 5.1100000000e-04 0.0000e+00 -1.0000e+00
       23  2    1    2    0    0 +0.0000000000e+00 +0.0000000000e+00 +0.0000000000e+00 9.1188000000e+01 9.1188000000e+01 1.1459e-13 0.0000e+00
  9900012  1    3    3    0    0 +9.1477400634e-01 +7.1432134560e+00 -1.7286320012e+01 7.2461570294e+01 7.0000000000e+01 2.6962e-05 -1.0000e+00
      -12  1    3    3    0    0 -9.1477400634e-01 -7.1432134560e+00 +1.7286320012e+01 1.8726429706e+01 0.0000000000e+00 0.0000e+00 1.0000e+00
</event>
<event>
 5      6 +6.9480500e-03 9.11880000e+01 7.81616400e-03 1.18400000e-01
      -11 -1    0    0    0    0 +0.0000000000e+00 +0.0000000000e+00 +4.5593999997e+01 4.5594000000e+01 5.1100000000e-04 0.0000e+00 1.0000e+00
       11 -1    0    0    0    0 -0.0000000000e+00 -0.0000000000e+00 -4.5593999997e+01 4.5594000000e+01 5.1100000000e-04 0.0000e+00 -1.0000e+00
       23  2    1    2    0    0 +0.0000000000e+00 +0.0000000000e+00 +0.0000000000e+00 9.1188000000e+01 9.1188000000e+01 1.2556e-13 0.0000e+00
  9900012  1    3    3    0    0 -3.5798093085e+00 +1.6811322970e+01 -7.4326008133e+00 7.2461570294e+01 7.0000000000e+01 3.5991e-05 -1.0000e+00
      -12  1    3    3    0    0 +3.5798093085e+00 -1.6811322970e+01 +7.4326008133e+00 1.8726429706e+01 0.0000000000e+00 0.0000e+00 1.0000e+00
</event>
<event>
 5      1 +6.9480500e-03 9.11880000e+01 7.81616400e-03 1.18400000e-01
      -11 -1    0    0    0    0 +0.0000000000e+00 +0.0000000000e+00 +4.5593999997e+01 4.5594000000e+01 5.1100000000e-04 0.0000e+00 -1.0000e+00
       11 -1    0    0    0    0 -0.0000000000e+00 -0.0000000000e+00 -4.5593999997e+01 4.5594000000e+01 5.1100000000e-04 0.0000e+00 1.0000e+00
       23  2    1    2    0    0 +0.0000000000e+00 +0.0000000000e+00 +0.0000000000e+00 9.1188000000e+01 9.1188000000e+01 5.2024e-14 0.0000e+00
  9900012  1    3    3    0    0 +1.0964036201e+01 +9.4793228507e+00 -1.1857972761e+01 7.2461570294e+01 7.0000000000e+01 1.9003e-05 1.0000e+00
       12  1    3    3    0    0 -1.0964036201e+01 -9.4793228507e+00 +1.1857972761e+01 1.8726429706e+01 0.0000000000e+00 0.0000e+00 -1.0000e+00
</event>
<event>
 5      2 +6.9480500e-03 9.11880000e+01 7.81616400e-03 1.18400000e-01
      -11 -1    0    0    0    0 +0.0000000000e+00 +0.0000000000e+00 +4.5593999997e+01 4.5594000000e+01 5.1100000000e-04 0.0000e+00 1.0000e+00
       11 -1    0    0    0    0 -0.0000000000e+00 -0.0000000000e+00 -4.5593999997e+01 4.5594000000e+01 5.1100000000e-04 0.0000e+00 -1.0000e+00
       23  2    1    2    0    0 +0.0000000000e+00 +0.0000000000e+00 +0.0000000000e+00 9.1188000000e+01 9.1188000000e+01 6.3319e-14 0.0000e+00
  9900012  1    3    3    0    0 +1.3097812704e+01 -3.7390077707e+00 -1.2850925756e+01 7.2461570294e+01 7.0000000000e+01 2.3329e-04 -1.0000e+00
      -12  1    3    3    0    0 -1.3097812704e+01 +3.7390077707e+00 +1.2850925756e+01 1.8726429706e+01 0.0000000000e+00 0.0000e+00 1.0000e+00
</event>
<event>
 5      1 +6.9480500e-03 9.11880000e+01 7.81616400e-03 1.18400000e-01
      -11 -1    0    0    0    0 +0.0000000000e+00 +0.0000000000e+00 +4.5593999997e+01 4.5594000000e+01 5.1100000000e-04 0.0000e+00 -1.0000e+00
       11 -1    0    0    0    0 -0.0000000000e+00 -0.0000000000e+00 -4.5593999997e+01 4.5594000000e+01 5.1100000000e-04 0.0000e+00 1.0000e+00
       23  2    1    2    0    0 +0.0000000000e+00 +0.0000000000e+00 +0.0000000000e+00 9.1188000000e+01 9.1188000000e+01 1.7100e-13 0.0000e+00
  9900012  1    3    3    0    0 -1.6261017845e+00 -1.0398361827e+00 -1.8626693298e+01 7.2461570294e+01 7.0000000000e+01 1.9883e-05 1.0000e+00
       12  1    3    3    0    0 +1.6261017845e+00 +1.0398361827e+00 +1.8626693298e+01 1.8726429706e+01 0.0000000000e+00 0.0000e+00 -1.0000e+00
</event>
<event>
 5      2 +6.9480500e-03 9.11880000e+01 7.81616400e-03 1.18400000e-01
      -11 -1    0    0    0    0 +0.0000000000e+00 +0.0000000000e+00 +4.5593999997e+01 4.5594000000e+01 5.1100000000e-04 0.0000e+00 1.0000e+00
       11 -1    0    0    0    0 -0.0000000000e+00 -0.0000000000e+00 -4.5593999997e+01 4.5594000000e+01 5.1100000000e-04 0.0000e+00 -1.0000e+00
       23  2    1    2    0    0 +0.0000000000e+00 +0.0000000000e+00 +0.0000000000e+00 9.1188000000e+01 9.1188000000e+01 1.2703e-13 0.0000e+00
  9900012  1    3    3    0    0 -6.0085144991e+00 -1.5357900418e+01 -8.8719680900e+00 7.2461570294e+01 7.0000000000e+01 7.6760e-06 -1.0000e+00
      -12  1    3    3    0    0 +6.0085144991e+00 +1.5357900418e+01 +8.8719680900e+00 1.8726429706e+01 0.0000000000e+00 0.0000e+00 1.0000e+00
</event>
<event>
 5      2 +6.9480500e-03 9.11880000e+01 7.81616400e-03 1.18400000e-01
      -11 -1    0    0    0    0 +0.0000000000e+00 +0.0000000000e+00 +4.5593999997e+01 4.5594000000e+01 5.1100000000e-04 0.0000e+00 1.0000e+00
       11 -1    0    0    0    0 -0.0000000000e+00 -0.0000000000e+00 -4.5593999997e+01 4.5594000000e+01 5.1100000000e-04 0.0000e+00 -1.0000e+00
       23  2    1    2    0    0 +0.0000000000e+00 +0.0000000000e+00 +0.0000000000e+00 9.1188000000e+01 9.1188000000e+01 1.0128e-13 0.0000e+00
  9900012  1    3    3    0    0 +1.2971589041e+01 +1.2697118816e+01 +4.6043697762e+00 7.2461570294e+01 7.0000000000e+01 1.2475e-04 -1.0000e+00
      -12  1    3    3    0    0 -1.2971589041e+01 -1.2697118816e+01 -4.6043697762e+00 1.8726429706e+01 0.0000000000e+00 0.0000e+00 1.0000e+00
</event>
<event>
 5      5 +6.9480500e-03 9.11880000e+01 7.81616400e-03 1.18400000e-01
      -11 -1    0    0    0    0 +0.0000000000e+00 +0.0000000000e+00 +4.5593999997e+01 4.5594000000e+01 5.1100000000e-04 0.0000e+00 1.0000e+00
       11 -1    0    0    0    0 -0.0000000000e+00 -0.0000000000e+00 -4.5593999997e+01 4.5594000000e+01 5.1100000000e-04 0.0000e+00 -1.0000e+00
       23  2    1    2    0    0 +0.0000000000e+00 +0.0000000000e+00 +0.0000000000e+00 9.1188000000e+01 9.1188000000e+01 3.5052e-14 0.0000e+00
  9900012  1    3    3    0    0 -3.8583190403e+00 +1.7448273919e+01 +5.5991321596e+00 7.2461570294e+01 7.0000000000e+01 4.4916e-05 -1.0000e+00
       12  1    3    3    0    0 +3.8583190403e+00 -1.7448273919e+01 -5.5991321596e+00 1.8726429706e+01 0.0000000000e+00 0.0000e+00 -1.0000e+00
</event>
<event>
 5      7 +6.9480500e-03 9.11880000e+01 7.81616400e-03 1.18400000e-01
      -11 -1    0    0    0    0 +0.0000000000e+00 +0.0000000000e+00 +4.5593999997e+01 4.5594000000e+01 5.1100000000e-04 0.0000e+00 1.0000e+00
       11 -1    0    0    0    0 -0.0000000000e+00 -0.0000000000e+00 -4.5593999997e+01 4.5594000000e+01 5.1100000000e-04 0.0000e+00 -1.0000e+00
       23  2    1    2    0    0 +0.0000000000e+00 +0.0000000000e+00 +0.0000000000e+00 9.1188000000e+01 9.1188000000e+01 2.7830e-14 0.0000e+00
  9900012  1    3    3    0    0 -1.9322916716e+00 +1.6277453168e+01 +9.0548294729e+00 7.2461570294e+01 7.0000000000e+01 3.6060e-05 1.0000e+00
       12  1    3    3    0    0 +1.9322916716e+00 -1.6277453168e+01 -9.0548294729e+00 1.8726429706e+01 0.0000000000e+00 0.0000e+00 -1.0000e+00
</event>
<event>
 5      4 +6.9480500e-03 9.11880000e+01 7.81616400e-03 1.18400000e-01
      -11 -1    0    0    0    0 +0.0000000000e+00 +0.0000000000e+00 +4.5593999997e+01 4.5594000000e+01 5.1100000000e-04 0.0000e+00 1.0000e+00
       11 -1    0    0    0    0 -0.0000000000e+00 -0.0000000000e+00 -4.5593999997e+01 4.5594000000e+01 5.1100000000e-04 0.0000e+00 -1.0000e+00
       23  2    1    2    0    0 +0.0000000000e+00 +0.0000000000e+00 +0.0000000000e+00 9.1188000000e+01 9.1188000000e+01 5.1076e-14 0.0000e+00
  9900012  1    3    3    0    0 +9.5794013878e+00 -5.1254925788e+00 -1.5252657617e+01 7.2461570294e+01 7.0000000000e+01 4.0657e-04 -1.0000e+00
      -12  1    3    3    0    0 -9.5794013878e+00 +5.1254925788e+00 +1.5252657617e+01 1.8726429706e+01 0.0000000000e+00 0.0000e+00 1.0000e+00
</event>
<event>
 5      4 +6.9480500e-03 9.11880000e+01 7.81616400e-03 1.18400000e-01
      -11 -1    0    0    0    0 +0.0000000000e+00 +0.0000000000e+00 +4.5593999997e+01 4.5594000000e+01 5.1100000000e-04 0.0000e+00 -1.0000e+00
       11 -1    0    0    0    0 -0.0000000000e+00 -0.0000000000e+00 -4.5593999997e+01 4.5594000000e+01 5.1100000000e-04 0.0000e+00 1.0000e+00
       23  2    1    2    0    0 +0.0000000000e+00 +0.0000000000e+00 +0.0000000000e+00 9.1188000000e+01 9.1188000000e+01 3.1038e-14 0.0000e+00
  9900012  1    3    3    0    0 -1.6522379783e+00 -1.6367096746e+01 +8.9480401932e+00 7.2461570294e+01 7.0000000000e+01 3.3977e-04 -1.0000e+00
      -12  1    3    3    0    0 +1.6522379783e+00 +1.6367096746e+01 -8.9480401932e+00 1.8726429706e+01 0.0000000000e+00 0.0000e+00 1.0000e+00
</event>
<event>
 5      8 +6.9480500e-03 9.11880000e+01 7.81616400e-03 1.18400000e-01
      -11 -1    0    0    0    0 +0.0000000000e+00 +0.0000000000e+00 +4.5593999997e+01 4.5594000000e+01 5.1100000000e-04 0.0000e+00 1.0000e+00
       11 -1    0    0    0    0 -0.0000000000e+00 -0.0000000000e+00 -4.5593999997e+01 4.5594000000e+01 5.1100000000e-04 0.0000e+00 -1.0000e+00
       23  2    1    2    0    0 +0.0000000000e+00 +0.0000000000e+00 +0.0000000000e+00 9.1188000000e+01 9.1188000000e+01 7.9166e-15 0.0000e+00
  9900012  1    3    3    0    0 +1.0351447185e+01 +1.5106978737e+01 +3.9122760813e+00 7.2461570294e+01 7.0000000000e+01 1.8647e-05 -1.0000e+00
      -12  1    3    3    0    0 -1.0351447185e+01 -1.5106978737e+01 -3.9122760813e+00 1.8726429706e+01 0.0000000000e+00 0.0000e+00 1.0000e+00
</event>
<event>
 5      2 +6.9480500e-03 9.11880000e+01 7.81616400e-03 1.18400000e-01
      -11 -1    0    0    0    0 +0.0000000000e+00 +0.0000000000e+00 +4.5593999997e+01 4.5594000000e+01 5.1100000000e-04 0.0000e+00 1.0000e+00
       11 -1    0    0    0    0 -0.0000000000e+00 -0.0000000000e+00 -4.5593999997e+01 4.5594000000e+01 5.1100000000e-04 0.0000e+00 -1.0000e+00
       23  2    1    2    0    0 +0.0000000000e+00 +0.0000000000e+00 +0.0000000000e+00 9.1188000000e+01 9.1188000000e+01 3.7400e-14 0.0000e+00
  9900012  1    3    3    0    0 +5.6480348613e+00 +6.4966319745e+00 -1.6630473376e+01 7.2461570294e+01 7.0000000000e+01 3.6867e-05 -1.0000e+00
      -12  1    3    3    0    0 -5.6480348613e+00 -6.4966319745e+00 +1.6630473376e+01 1.8726429706e+01 0.0000000000e+00 0.0000e+00 1.0000e+00
</event>
<event>
 5      1 +6.9480500e-03 9.11880000e+01 7.81616400e-03 1.18400000e-01
      -11 -1    0    0    0    0 +0.0000000000e+00 +0.0000000000e+00 +4.5593999997e+01 4.5594000000e+01 5.1100000000e-04 0.0000e+00 1.0000e+00
       11 -1    0    0    0    0 -0.0000000000e+00 -0.0000000000e+00 -4.5593999997e+01 4.5594000000e+01 5.1100000000e-04 0.0000e+00 -1.0000e+00
       23  2    1    2    0    0 +0.0000000000e+00 +0.0000000000e+00 +0.0000000000e+00 9.1188000000e+01 9.1188000000e+01 9.0785e-14 0.0000e+00
  9900012  1    3    3    0    0 -1.5802359379e+01 -1.3671492702e+00 +9.9546727947e+00 7.2461570294e+01 7.0000000000e+01 1.3407e-04 1.0000e+00
       12  1    3    3    0    0 +1.5802359379e+01 +1.3671492702e+00 -9.9546727947e+00 1.8726429706e+01 0.0000000000e+00 0.0000e+00 -1.0000e+00
</event>
<event>
 5      7 +6.9480500e-03 9.11880000e+01 7.81616400e-03 1.18400000e-01
      -11 -1    0    0    0    0 +0.0000000000e+00 +0.0000000000e+00 +4.5593999997e+01 4.5594000000e+01 5.1100000000e-04 0.0000e+00 1.0000e+00
       11 -1    0    0    0    0 -0.0000000000e+00 -0.0000000000e+00 -4.5593999997e+01 4.5594000000e+01 5.1100000000e-04 0.0000e+00 -1.0000e+00
       23  2    1    2    0    0 +0.0000000000e+00 +0.0000000000e+00 +0.0000000000e+00 9.1188000000e+01 9.1188000000e+01 7.4748e-14 0.0000e+00
  9900012  1    3    3    0    0 -4.9227601894e+00 +1.5018788285e+01 +1.0043983279e+01 7.2461570294e+01 7.0000000000e+01 9.2924e-05 1.0000e+00
       12  1    3    3    0    0 +4.9227601894e+00 -1.5018788285e+01 -1.0043983279e+01 1.8726429706e+01 0.0000000000e+00 0.0000e+00 -1.0000e+00
</event>
<event>
 5      5 +6.9480500e-03 9.11880000e+01 7.81616400e-03 1.18400000e-01
      -11 -1    0    0    0    0 +0.0000000000e+00 +0.0000000000e+00 +4.5593999997e+01 4.5594000000e+01 5.1100000000e-04 0.0000e+00 -1.0000e+00
       11 -1    0    0    0    0 -0.0000000000e+00 -0.0000000000e+00 -4.5593999997e+01 4.5594000000e+01 5.1100000000e-04 0.0000e+00 1.0000e+00
       23  2    1    2    0    0 +0.0000000000e+00 +0.0000000000e+00 +0.0000000000e+00 9.1188000000e+01 9.1188000000e+01 1.5602e-13 0.0000e+00
  9900012  1    3    3    0    0 -3.9071689348e+00 -1.4704815231e+00 -1.8255160490e+01 7.2461570294e+01 7.0000000000e+01 1.2916e-04 1.0000e+00
       12  1    3    3    0    0 +3.9071689348e+00 +1.4704815231e+00 +1.8255160490e+01 1.8726429706e+01 0.0000000000e+00 0.0000e+00 -1.0000e+00
</event>
<event>
 5      4 +6.9480500e-03 9.11880000e+01 7.81616400e-03 1.18400000e-01
      -11 -1    0    0    0    0 +0.0000000000e+00 +0.0000000000e+00 +4.5593999997e+01 4.5594000000e+01 5.1100000000e-04 0.0000e+00 1.0000e+00
       11 -1    0    0    0    0 -0.0000000000e+00 -0.0000000000e+00 -4.5593999997e+01 4.5594000000e+01 5.1100000000e-04 0.0000e+00 -1.0000e+00
       23  2    1    2    0    0 +0.0000000000e+00 +0.0000000000e+00 +0.0000000000e+00 9.1188000000e+01 9.1188000000e+01 4.9078e-14 0.0000e+00
  9900012  1    3    3    0    0 +8.8082892792e+00 -8.3747122514e+00 -1.4246311951e+01 7.2461570294e+01 7.0000000000e+01 5.3124e-04 -1.0000e+00
      -12  1    3    3    0    0 -8.8082892792e+00 +8.3747122514e+00 +1.4246311951e+01 1.8726429706e+01 0.0000000000e+00 0.0000e+00 1.0000e+00
</event>
<event>
 5      5 +6.9480500e-03 9.11880000e+01 7.81616400e-03 1.18400000e-01
      -11 -1    0    0    0    0 +0.0000000000e+00 +0.0000000000e+00 +4.5593999997e+01 4.5594000000e+01 5.1100000000e-04 0.0000e+00 -1.0000e+00
       11 -1    0    0    0    0 -0.0000000000e+00 -0.0000000000e+00 -4.5593999997e+01 4.5594000000e+01 5.1100000000e-04 0.0000e+00 1.0000e+00
       23  2    1    2    0    0 +0.0000000000e+00 +0.0000000000e+00 +0.0000000000e+00 9.1188000000e+01 9.1188000000e+01 1.2014e-14 0.0000e+00
  9900012  1    3    3    0    0 -6.4780603123e+00 +1.5141360795e+01 -8.9136466938e+00 7.2461570294e+01 7.0000000000e+01 1.8064e-05 -1.0000e+00
       12  1    3    3    0    0 +6.4780603123e+00 -1.5141360795e+01 +8.9136466938e+00 1.8726429706e+01 0.0000000000e+00 0.0000e+00 -1.0000e+00
</event>
<event>
 5      2 +6.9480500e-03 9.11880000e+01 7.81616400e-03 1.18400000e-01
      -11 -1    0    0    0    0 +0.0000000000e+00 +0.0000000000e+00 +4.5593999997e+01 4.5594000000e+01 5.1100000000e-04 0.0000e+00 -1.0000e+00
       11 -1    0    0    0    0 -0.0000000000e+00 -0.0000000000e+00 -4.5593999997e+01 4.5594000000e+01 5.1100000000e-04 0.0000e+00 1.0000e+00
       23  2    1    2    0    0 +0.0000000000e+00 +0.0000000000e+00 +0.0000000000e+00 9.1188000000e+01 9.1188000000e+01 1.9014e-13 0.0000e+00
  9900012  1    3    3    0    0 -1.7615183335e+01 -4.5110437809e+00 +4.4760439664e+00 7.2461570294e+01 7.0000000000e+01 1.3596e-04 -1.0000e+00
      -12  1    3    3    0    0 +1.7615183335e+01 +4.5110437809e+00 -4.4760439664e+00 1.8726429706e+01 0.0000000000e+00 0.0000e+00 1.0000e+00
</event>
<event>
 5      2 +6.9480500e-03 9.11880000e+01 7.81616400e-03 1.18400000e-01
      -11 -1    0    0    0    0 +0.0000000000e+00 +0.0000000000e+00 +4.5593999997e+01 4.5594000000e+01 5.1100000000e-04 0.0000e+00 1.0000e+00
       11 -1    0    0    0    0 -0.0000000000e+00 -0.0000000000e+00 -4.5593999997e+01 4.5594000000e+01 5.1100000000e-04 0.0000e+00 -1.0000e+00
       23  2    1    2    0    0 +0.0000000000e+00 +0.0000000000e+00 +0.0000000000e+00 9.1188000000e+01 9.1188000000e+01 1.6952e-13 0.0000e+00
  9900012  1    3    3    0    0 +1.6680804927e+01 -8.3643135446e+00 -1.5710427842e+00 7.2461570294e+01 7.0000000000e+01 9.3194e-05 1.0000e+00
      -12  1    3    3    0    0 -1.6680804927e+01 +8.3643135446e+00 +1.5710427842e+00 1.8726429706e+01 0.0000000000e+00 0.0000e+00 1.0000e+00
</event>
<event>
 5      1 +6.9480500e-03 9.11880000e+01 7.81616400e-03 1.18400000e-01
      -11 -1    0    0    0    0 +0.0000000000e+00 +0.0000000000e+00 +4.5593999997e+01 4.5594000000e+01 5.1100000000e-04 0.0000e+00 1.0000e+00
       11 -1    0    0    0    0 -0.0000000000e+00 -0.0000000000e+00 -4.5593999997e+01 4.5594000000e+01 5.1100000000e-04 0.0000e+00 -1.0000e+00
       23  2    1    2    0    0 +0.0000000000e+00 +0.0000000000e+00 +0.0000000000e+00 9.1188000000e+01 9.1188000000e+01 4.3519e-14 0.0000e+00
  9900012  1    3    3    0    0 +1.4747468232e+01 -4.9561236749e+00 -1.0422484751e+01 7.2461570294e+01 7.0000000000e+01 5.4406e-06 -1.0000e+00
       12  1    3    3    0    0 -1.4747468232e+01 +4.9561236749e+00 +1.0422484751e+01 1.8726429706e+01 0.0000000000e+00 0.0000e+00 -1.0000e+00
</event>
<event>
 5      8 +6.9480500e-03 9.11880000e+01 7.81616400e-03 1.18400000e-01
      -11 -1    0    0    0    0 +0.0000000000e+00 +0.0000000000e+00 +4.5593999997e+01 4.5594000000e+01 5.1100000000e-04 0.0000e+00 1.0000e+00
       11 -1    0    0    0    0 -0.0000000000e+00 -0.0000000000e+00 -4.5593999997e+01 4.5594000000e+01 5.1100000000e-04 0.0000e+00 -1.0000e+00
       23  2    1    2    0    0 +0.0000000000e+00 +0.0000000000e+00 +0.0000000000e+00 9.1188000000e+01 9.1188000000e+01 1.1906e-13 0.0000e+00
  9900012  1    3    3    0    0 -1.1739013485e+01 +1.2265544101e-01 -1.4589711702e+01 7.2461570294e+01 7.0000000000e+01 1.8324e-04 -1.0000e+00
      -12  1    3    3    0    0 +1.1739013485e+01 -1.2265544101e-01 +1.4589711702e+01 1.8726429706e+01 0.0000000000e+00 0.0000e+00 1.0000e+00
</event>
<event>
 5      2 +6.9480500e-03 9.11880000e+01 7.81616400e-03 1.18400000e-01
      -11 -1    0    0    0    0 +0.0000000000e+00 +0.0000000000e+00 +4.5593999997e+01 4.5594000000e+01 5.1100000000e-04 0.0000e+00 -1.0000e+00
       11 -1    0    0    0    0 -0.0000000000e+00 -0.0000000000e+00 -4.5593999997e+01 4.5594000000e+01 5.1100000000e-04 0.0000e+00 1.0000e+00
       23  2    1    2    0    0 +0.0000000000e+00 +0.0000000000e+00 +0.0000000000e+00 9.1188000000e+01 9.1188000000e+01 7.5831e-14 0.0000e+00
  9900012  1    3    3    0    0 +1.1174316352e+00 +1.0953574159e+01 +1.5147598133e+01 7.2461570294e+01 7.0000000000e+01 1.0387e-05 -1.0000e+00
      -12  1    3    3    0    0 -1.1174316352e+00 -1.0953574159e+01 -1.5147598133e+01 1.8726429706e+01 0.0000000000e+00 0.0000e+00 1.0000e+00
</event>
<event>
 5      2 +6.9480500e-03 9.11880000e+01 7.81616400e-03 1.18400000e-01
      -11 -1    0    0    0    0 +0.0000000000e+00 +0.0000000000e+00 +4.5593999997e+01 4.5594000000e+01 5.1100000000e-04 0.0000e+00 -1.0000e+00
       11 -1    0    0    0    0 -0.0000000000e+00 -0.0000000000e+00 -4.5593999997e+01 4.5594000000e+01 5.1100000000e-04 0.0000e+00 1.0000e+00
       23  2    1    2    0    0 +0.0000000000e+00 +0.0000000000e+00 +0.0000000000e+00 9.1188000000e+01 9.1188000000e+01 5.3598e-14 0.0000e+00
  9900012  1    3    3    0    0 -1.2747060982e+01 +9.4070128031e+00 +9.9849745098e+00 7.2461570294e+01 7.0000000000e+01 1.2080e-04 -1.0000e+00
      -12  1    3    3    0    0 +1.2747060982e+01 -9.4070128031e+00 -9.9849745098e+00 1.8726429706e+01 0.0000000000e+00 0.0000e+00 1.0000e+00
</event>
<event>
 5      6 +6.9480500e-03 9.11880000e+01 7.81616400e-03 1.18400000e-01
      -11 -1    0    0    0    0 +0.0000000000e+00 +0.0000000000e+00 +4.5593999997e+01 4.5594000000e+01 5.1100000000e-04 0.0000e+00 -1.0000e+00
       11 -1    0    0    0    0 -0.0000000000e+00 -0.0000000000e+00 -4.5593999997e+01 4.5594000000e+01 5.1100000000e-04 0.0000e+00 1.0000e+00
       23  2    1    2    0    0 +0.0000000000e+00 +0.0000000000e+00 +0.0000000000e+00 9.1188000000e+01 9.1188000000e+01 1.3328e-13 0.0000e+00
  9900012  1    3    3    0    0 -9.8841518312e+00 -1.2203018504e+01 +1.0201423993e+01 7.2461570294e+01 7.0000000000e+01 3.1841e-04 -1.0000e+00
      -12  1    3    3    0    0 +9.8841518312e+00 +1.2203018504e+01 -1.0201423993e+01 1.8726429706e+01 0.0000000000e+00 0.0000e+00 1.0000e+00
</event>
<event>
 5      4 +6.9480500e-03 9.11880000e+01 7.81616400e-03 1.18400000e-01
      -11 -1    0    0    0    0 +0.0000000000e+00 +0.0000000000e+00 +4.5593999997e+01 4.5594000000e+01 5.1100000000e-04 0.0000e+00 1.0000e+00
       11 -1    0    0    0    0 -0.0000000000e+00 -0.0000000000e+00 -4.5593999997e+01 4.5594000000e+01 5.1100000000e-04 0.0000e+00 -1.0000e+00
       23  2    1    2    0    0 +0.0000000000e+00 +0.0000000000e+00 +0.0000000000e+00 9.1188000000e+01 9.1188000000e+01 6.1477e-14 0.0000e+00
  9900012  1    3    3    0    0 +3.3479825539e+00 +2.7483976428e+00 -1.8218575486e+01 7.2461570294e+01 7.0000000000e+01 5.8153e-06 -1.0000e+00
      -12  1    3    3    0    0 -3.3479825539e+00 -2.7483976428e+00 +1.8218575486e+01 1.8726429706e+01 0.0000000000e+00 0.0000e+00 1.0000e+00
</event>
<event>
 5      2 +6.9480500e-03 9.11880000e+01 7.81616400e-03 1.18400000e-01
      -11 -1    0    0    0    0 +0.0000000000e+00 +0.0000000000e+00 +4.5593999997e+01 4.5594000000e+01 5.1100000000e-04 0.0000e+00 1.0000e+00
       11 -1    0    0    0    0 -0.0000000000e+00 -0.0000000000e+00 -4.5593999997e+01 4.5594000000e+01 5.1100000000e-04 0.0000e+00 -1.0000e+00
       23  2    1    2    0    0 +0.0000000000e+00 +0.0000000000e+00 +0.0000000000e+00 9.1188000000e+01 9.1188000000e+01 6.1864e-14 0.0000e+00
  9900012  1    3    3    0    0 -3.0875335328e+00 -1.8054091108e+01 +3.8982176031e+00 7.2461570294e+01 7.0000000000e+01 2.1079e-05 -1.0000e+00
      -12  1    3    3    0    0 +3.0875335328e+00 +1.8054091108e+01 -3.8982176031e+00 1.8726429706e+01 0.0000000000e+00 0.0000e+00 1.0000e+00
</event>
<event>
 5      2 +6.9480500e-03 9.11880000e+01 7.81616400e-03 1.18400000e-01
      -11 -1    0    0    0    0 +0.0000000000e+00 +0.0000000000e+00 +4.5593999997e+01 4.5594000000e+01 5.1100000000e-04 0.0000e+00 1.0000e+00
       11 -1    0    0    0    0 -0.0000000000e+00 -0.0000000000e+00 -4.5593999997e+01 4.5594000000e+01 5.1100000000e-04 0.0000e+00 -1.0000e+00
       23  2    1    2    0    0 +0.0000000000e+00 +0.0000000000e+00 +0.0000000000e+00 9.1188000000e+01 9.1188000000e+01 6.4140e-14 0.0000e+00
  9900012  1    3    3    0    0 -1.8536392542e+01 +8.7912420842e-01 +2.5116651195e+00 7.2461570294e+01 7.0000000000e+01 6.0428e-06 1.0000e+00
      -12  1    3    3    0    0 +1.8536392542e+01 -8.7912420842e-01 -2.5116651195e+00 1.8726429706e+01 0.0000000000e+00 0.0000e+00 1.0000e+00
</event>
<event>
 5      6 +6.9480500e-03 9.11880000e+01 7.81616400e-03 1.18400000e-01
      -11 -1    0    0    0    0 +0.0000000000e+00 +0.0000000000e+00 +4.5593999997e+01 4.5594000000e+01 5.1100000000e-04 0.0000e+00 -1.0000e+00
       11 -1    0    0    0    0 -0.0000000000e+00 -0.0000000000e+00 -4.5593999997e+01 4.5594000000e+01 5.1100000000e-04 0.0000e+00 1.0000e+00
       23  2    1    2    0    0 +0.0000000000e+00 +0.0000000000e+00 +0.0000000000e+00 9.1188000000e+01 9.1188000000e+01 1.7488e-14 0.0000e+00
  9900012  1    3    3    0    0 +1.4888125308e+01 -2.7319196307e+00 +1.1025402917e+01 7.2461570294e+01 7.0000000000e+01 7.5255e-05 -1.0000e+00
      -12  1    3    3    0    0 -1.4888125308e+01 +2.7319196307e+00 -1.1025402917e+01 1.8726429706e+01 0.0000000000e+00 0.0000e+00 1.0000e+00
</event>
<event>
 5      1 +6.9480500e-03 9.11880000e+01 7.81616400e-03 1.18400000e-01
      -11 -1    0    0    0    0 +0.0000000000e+00 +0.0000000000e+00 +4.5593999997e+01 4.5594000000e+01 5.1100000000e-04 0.0000e+00 -1.0000e+00
       11 -1    0    0    0    0 -0.0000000000e+00 -0.0000000000e+00 -4.5593999997e+01 4.5594000000e+01 5.1100000000e-04 0.0000e+00 1.0000e+00
       23  2    1    2    0    0 +0.0000000000e+00 +0.0000000000e+00 +0.0000000000e+00 9.1188000000e+01 9.1188000000e+01 4.0779e-15 0.0000e+00
  9900012  1    3    3    0    0 -4.2864699069e+00 +1.4627131771e+01 -1.0878987150e+01 7.2461570294e+01 7.0000000000e+01 5.3585e-05 1.0000e+00
       12  1    3    3    0    0 +4.2864699069e+00 -1.4627131771e+01 +1.0878987150e+01 1.8726429706e+01 0.0000000000e+00 0.0000e+00 -1.0000e+00
</event>
<event>
 5      1 +6.9480500e-03 9.11880000e+01 7.81616400e-03 1.18400000e-01
      -11 -1    0    0    0    0 +0.0000000000e+00 +0.0000000000e+00 +4.5593999997e+01 4.5594000000e+01 5.1100000000e-04 0.0000e+00 1.0000e+00
       11 -1    0    0    0    0 -0.0000000000e+00 -0.0000000000e+00 -4.5593999997e+01 4.5594000000e+01 5.1100000000e-04 0.0000e+00 -1.0000e+00
       23  2    1    2    0    0 +0.0000000000e+00 +0.0000000000e+00 +0.0000000000e+00 9.1188000000e+01 9.1188000000e+01 1.7468e-13 0.0000e+00
  9900012  1    3    3    0    0 -3.9076678398e+00 +7.9821324937e+00 +1.6483169065e+01 7.2461570294e+01 7.0000000000e+01 4.6891e-05 1.0000e+00
       12  1    3    3    0    0 +3.9076678398e+00 -7.9821324937e+00 -1.6483169065e+01 1.8726429706e+01 0.0000000000e+00 0.0000e+00 -1.0000e+00
</event>
<event>
 5      8 +6.9480500e-03 9.11880000e+01 7.81616400e-03 1.18400000e-01
      -11 -1    0    0    0    0 +0.0000000000e+00 +0.0000000000e+00 +4.5593999997e+01 4.5594000000e+01 5.1100000000e-04 0.0000e+00 1.0000e+00
       11 -1    0    0    0    0 -0.0000000000e+00 -0.0000000000e+00 -4.5593999997e+01 4.5594000000e+01 5.1100000000e-04 0.0000e+00 -1.0000e+00
       23  2    1    2    0    0 +0.0000000000e+00 +0.0000000000e+00 +0.0000000000e+00 9.1188000000e+01 9.1188000000e+01 8.6989e-16 0.0000e+00
  9900012  1    3    3    0    0 +9.4964030962e+00 -1.1848996175e+01 -1.0958959230e+01 7.2461570294e+01 7.0000000000e+01 1.9163e-05 -1.0000e+00
      -12  1    3    3    0    0 -9.4964030962e+00 +1.1848996175e+01 +1.0958959230e+01 1.8726429706e+01 0.0000000000e+00 0.0000e+00 1.0000e+00
</event>
<event>
 5      7 +6.9480500e-03 9.11880000e+01 7.81616400e-03 1.18400000e-01
      -11 -1    0    0    0    0 +0.0000000000e+00 +0.0000000000e+00 +4.5593999997e+01 4.5594000000e+01 5.1100000000e-04 0.0000e+00 1.0000e+00
       11 -1    0    0    0    0 -0.0000000000e+00 -0.0000000000e+00 -4.5593999997e+01 4.5594000000e+01 5.1100000000e-04 0.0000e+00 -1.0000e+00
       23  2    1    2    0    0 +0.0000000000e+00 +0.0000000000e+00 +0.0000000000e+00 9.1188000000e+01 9.1188000000e+01 7.3270e-14 0.0000e+00
  9900012  1    3    3    0    0 -1.7545686422e+01 -3.1738236636e+00 -5.7231897462e+00 7.2461570294e+01 7.0000000000e+01 6.9670e-06 1.0000e+00
       12  1    3    3    0    0 +1.7545686422e+01 +3.1738236636e+00 +5.7231897462e+00 1.8726429706e+01 0.0000000000e+00 0.0000e+00 -1.0000e+00
</event>
<event>
 5      7 +6.9480500e-03 9.11880000e+01 7.81616400e-03 1.18400000e-01
      -11 -1    0    0    0    0 +0.0000000000e+00 +0.0000000000e+00 +4.5593999997e+01 4.5594000000e+01 5.1100000000e-04 0.0000e+00 1.0000e+00
       11 -1    0    0    0    0 -0.0000000000e+00 -0.0000000000e+00 -4.5593999997e+01 4.5594000000e+01 5.1100000000e-04 0.0000e+00 -1.0000e+00
       23  2    1    2    0    0 +0.0000000000e+00 +0.0000000000e+00 +0.0000000000e+00 9.1188000000e+01 9.1188000000e+01 4.6630e-14 0.0000e+00
  9900012  1    3    3    0    0 -1.7318988022e+01 -5.5449493380e+00 -4.4704988826e+00 7.2461570294e+01 7.0000000000e+01 8.8751e-05 -1.0000e+00
       12  1    3    3    0    0 +1.7318988022e+01 +5.5449493380e+00 +4.4704988826e+00 1.8726429706e+01 0.0000000000e+00 0.0000e+00 -1.0000e+00
</event>
<event>
 5      7 +6.9480500e-03 9.11880000e+01 7.81616400e-03 1.18400000e-01
      -11 -1    0    0    0    0 +0.0000000000e+00 +0.0000000000e+00 +4.5593999997e+01 4.5594000000e+01 5.1100000000e-04 0.0000e+00 1.0000e+00
       11 -1    0    0    0    0 -0.0000000000e+00 -0.0000000000e+00 -4.5593999997e+01 4.5594000000e+01 5.1100000000e-04 0.0000e+00 -1.0000e+00
       23  2    1    2    0    0 +0.0000000000e+00 +0.0000000000e+00 +0.0000000000e+00 9.1188000000e+01 9.1188000000e+01 1.7829e-13 0.0000e+00
  9900012  1    3    3    0    0 +7.4299320315e+00 +1.1212985223e+01 +1.3028593244e+01 7.2461570294e+01 7.0000000000e+01 5.2352e-06 1.0000e+00
       12  1    3    3    0    0 -7.4299320315e+00 -1.1212985223e+01 -1.3028593244e+01 1.8726429706e+01 0.0000000000e+00 0.0000e+00 -1.0000e+00
</event>
<event>
 5      6 +6.9480500e-03 9.11880000e+01 7.81616400e-03 1.18400000e-01
      -11 -1    0    0    0    0 +0.0000000000e+00 +0.0000000000e+00 +4.5593999997e+01 4.5594000000e+01 5.1100000000e-04 0.0000e+00 1.0000e+00
       11 -1    0    0    0    0 -0.0000000000e+00 -0.0000000000e+00 -4.5593999997e+01 4.5594000000e+01 5.1100000000e-04 0.0000e+00 -1.0000e+00
       23  2    1    2    0    0 +0.0000000000e+00 +0.0000000000e+00 +0.0000000000e+00 9.1188000000e+01 9.1188000000e+01 9.5417e-15 0.0000e+00
  9900012  1    3    3    0    0 -9.8405387807e+00 +1.5889864665e+01 -1.1641163807e+00 7.2461570294e+01 7.0000000000e+01 9.2082e-05 -1.0000e+00
      -12  1    3    3    0    0 +9.8405387807e+00 -1.5889864665e+01 +1.1641163807e+00 1.8726429706e+01 0.0000000000e+00 0.0000e+00 1.0000e+00
</event>
<event>
 5      4 +6.9480500e-03 9.11880000e+01 7.81616400e-03 1.18400000e-01
      -11 -1    0    0    0    0 +0.0000000000e+00 +0.0000000000e+00 +4.5593999997e+01 4.5594000000e+01 5.1100000000e-04 0.0000e+00 1.0000e+00
       11 -1    0    0    0    0 -0.0000000000e+00 -0.0000000000e+00 -4.5593999997e+01 4.5594000000e+01 5.1100000000e-04 0.0000e+00 -1.0000e+00
       23  2    1    2    0    0 +0.0000000000e+00 +0.0000000000e+00 +0.0000000000e+00 9.1188000000e+01 9.1188000000e+01 1.3091e-13 0.0000e+00
  9900012  1    3    3    0    0 +1.3353143035e+00 +1.8650000254e+01 -1.0361446577e+00 7.2461570294e+01 7.0000000000e+01 3.9722e-05 -1.0000e+00
      -12  1    3    3    0    0 -1.3353143035e+00 -1.8650000254e+01 +1.0361446577e+00 1.8726429706e+01 0.0000000000e+00 0.0000e+00 1.0000e+00
</event>
<event>
 5      5 +6.9480500e-03 9.11880000e+01 7.81616400e-03 1.18400000e-01
      -11 -1    0    0    0    0 +0.0000000000e+00 +0.0000000000e+00 +4.5593999997e+01 4.5594000000e+01 5.1100000000e-04 0.0000e+00 1.0000e+00
       11 -1    0    0    0    0 -0.0000000000e+00 -0.0000000000e+00 -4.5593999997e+01 4.5594000000e+01 5.1100000000e-04 0.0000e+00 -1.0000e+00
       23  2    1    2    0    0 +0.0000000000e+00 +0.0000000000e+00 +0.0000000000e+00 9.1188000000e+01 9.1188000000e+01 1.0132e-13 0.0000e+00
  9900012  1    3    3    0    0 +1.5801578927e+01 +2.0106273852e+00 +9.8461490163e+00 7.2461570294e+01 7.0000000000e+01 4.2305e-05 1.0000e+00
       12  1    3    3    0    0 -1.5801578927e+01 -2.0106273852e+00 -9.8461490163e+00 1.8726429706e+01 0.0000000000e+00 0.0000e+00 -1.0000e+00
</event>
<event>
 5      3 +6.9480500e-03 9.11880000e+01 7.81616400e-03 1.18400000e-01
      -11 -1    0    0    0    0 +0.0000000000e+00 +0.0000000000e+00 +4.5593999997e+01 4.5594000000e+01 5.1100000000e-04 0.0000e+00 -1.0000e+00
       11 -1    0    0    0    0 -0.0000000000e+00 -0.0000000000e+00 -4.5593999997e+01 4.5594000000e+01 5.1100000000e-04 0.0000e+00 1.0000e+00
       23  2    1    2    0    0 +0.0000000000e+00 +0.0000000000e+00 +0.0000000000e+00 9.1188000000e+01 9.1188000000e+01 4.2997e-14 0.0000e+00
  9900012  1    3    3    0    0 -4.7679533535e+00 -1.5949557098e+01 -8.5765621745e+00 7.2461570294e+01 7.0000000000e+01 1.3270e-05 1.0000e+00
       12  1    3    3    0    0 +4.7679533535e+00 +1.5949557098e+01 +8.5765621745e+00 1.8726429706e+01 0.0000000000e+00 0.0000e+00 -1.0000e+00
</event>
<event>
 5      5 +6.9480500e-03 9.11880000e+01 7.81616400e-03 1.18400000e-01
      -11 -1    0    0    0    0 +0.0000000000e+00 +0.0000000000e+00 +4.5593999997e+01 4.5594000000e+01 5.1100000000e-04 0.0000e+00 -1.0000e+00
       11 -1    0    0    0    0 -0.0000000000e+00 -0.0000000000e+00 -4.5593999997e+01 4.5594000000e+01 5.1100000000e-04 0.0000e+00 1.0000e+00
       23  2    1    2    0    0 +0.0000000000e+00 +0.0000000000e+00 +0.0000000000e+00 9.1188000000e+01 9.1188000000e+01 2.6531e-14 0.0000e+00
  9900012  1    3    3    0    0 +8.9407107794e+00 +9.7932381964e+00 -1.3222531751e+01 7.2461570294e+01 7.0000000000e+01 1.5122e-05 1.0000e+00
       12  1    3    3    0    0 -8.9407107794e+00 -9.7932381964e+00 +1.3222531751e+01 1.8726429706e+01 0.0000000000e+00 0.0000e+00 -1.0000e+00
</event>
<event>
 5      3 +6.9480500e-03 9.11880000e+01 7.81616400e-03 1.18400000e-01
      -11 -1    0    0    0    0 +0.0000000000e+00 +0.0000000000e+00 +4.5593999997e+01 4.5594000000e+01 5.1100000000e-04 0.0000e+00 -1.0000e+00
       11 -1    0    0    0    0 -0.0000000000e+00 -0.0000000000e+00 -4.5593999997e+01 4.5594000000e+01 5.1100000000e-04 0.0000e+00 1.0000e+00
       23  2    1    2    0    0 +0.0000000000e+00 +0.0000000000e+00 +0.0000000000e+00 9.1188000000e+01 9.1188000000e+01 1.2987e-14 0.0000e+00
  9900012  1    3    3    0    0 +6.5344009062e+00 +1.6360385150e+01 +6.3496907063e+00 7.2461570294e+01 7.0000000000e+01 4.0693e-04 -1.0000e+00
       12  1    3    3    0    0 -6.5344009062e+00 -1.6360385150e+01 -6.3496907063e+00 1.8726429706e+01 0.0000000000e+00 0.0000e+00 -1.0000e+00
</event>
<event>
 5      1 +6.9480500e-03 9.11880000e+01 7.81616400e-03 1.18400000e-01
      -11 -1    0    0    0    0 +0.0000000000e+00 +0.0000000000e+00 +4.5593999997e+01 4.5594000000e+01 5.1100000000e-04 0.0000e+00 1.0000e+00
       11 -1    0    0    0    0 -0.0000000000e+00 -0.0000000000e+00 -4.5593999997e+01 4.5594000000e+01 5.1100000000e-04 0.0000e+00 -1.0000e+00
       23  2    1    2    0    0 +0.0000000000e+00 +0.0000000000e+00 +0.0000000000e+00 9.1188000000e+01 9.1188000000e+01 1.9546e-14 0.0000e+00
  9900012  1    3    3    0    0 -3.6953038616e+00 -4.8923356930e-01 +1.8351690642e+01 7.2461570294e+01 7.0000000000e+01 8.8266e-07 1.0000e+00
       12  1    3    3    0    0 +3.6953038616e+00 +4.8923356930e-01 -1.8351690642e+01 1.8726429706e+01 0.0000000000e+00 0.0000e+00 -1.0000e+00
</event>
<event>
 5      5 +6.9480500e-03 9.11880000e+01 7.81616400e-03 1.18400000e-01
      -11 -1    0    0    0    0 +0.0000000000e+00 +0.0000000000e+00 +4.5593999997e+01 4.5594000000e+01 5.1100000000e-04 0.0000e+00 1.0000e+00
       11 -1    0    0    0    0 -0.0000000000e+00 -0.0000000000e+00 -4.5593999997e+01 4.5594000000e+01 5.1100000000e-04 0.0000e+00 -1.0000e+00
       23  2    1    2    0    0 +0.0000000000e+00 +0.0000000000e+00 +0.0000000000e+00 9.1188000000e+01 9.1188000000e+01 2.9878e-14 0.0000e+00
  9900012  1    3    3    0    0 -1.3355952737e+01 +1.1717467292e+01 +5.9159662166e+00 7.2461570294e+01 7.0000000000e+01 5.7853e-06 1.0000e+00
       12  1    3    3    0    0 +1.3355952737e+01 -1.1717467292e+01 -5.9159662166e+00 1.8726429706e+01 0.0000000000e+00 0.0000e+00 -1.0000e+00
</event>
<event>
 5      4 +6.9480500e-03 9.11880000e+01 7.81616400e-03 1.18400000e-01
      -11 -1    0    0    0    0 +0.0000000000e+00 +0.0000000000e+00 +4.5593999997e+01 4.5594000000e+01 5.1100000000e-04 0.0000e+00 1.0000e+00
       11 -1    0    0    0    0 -0.0000000000e+00 -0.0000000000e+00 -4.5593999997e+01 4.5594000000e+01 5.1100000000e-04 0.0000e+00 -1.0000e+00
       23  2    1    2    0    0 +0.0000000000e+00 +0.0000000000e+00 +0.0000000000e+00 9.1188000000e+01 9.1188000000e+01 7.8552e-15 0.0000e+00
  9900012  1    3    3    0    0 -1.0020943376e+01 +1.3063027196e+01 -8.9228461743e+00 7.2461570294e+01 7.0000000000e+01 3.3522e-05 -1.0000e+00
      -12  1    3    3    0    0 +1.0020943376e+01 -1.3063027196e+01 +8.9228461743e+00 1.8726429706e+01 0.0000000000e+00 0.0000e+00 1.0000e+00
</event>
<event>
 5      1 +6.9480500e-03 9.11880000e+01 7.81616400e-03 1.18400000e-01
      -11 -1    0    0    0    0 +0.0000000000e+00 +0.0000000000e+00 +4.5593999997e+01 4.5594000000e+01 5.1100000000e-04 0.0000e+00 1.0000e+00
       11 -1    0    0    0    0 -0.0000000000e+00 -0.0000000000e+00 -4.5593999997e+01 4.5594000000e+01 5.1100000000e-04 0.0000e+00 -1.0000e+00
       23  2    1    2    0    0 +0.0000000000e+00 +0.0000000000e+00 +0.0000000000e+00 9.1188000000e+01 9.1188000000e+01 1.8289e-13 0.0000e+00
  9900012  1    3    3    0    0 -1.3714740367e+01 +9.4556245171e+00 -8.5543106783e+00 7.2461570294e+01 7.0000000000e+01 7.4434e-05 -1.0000e+00
       12  1    3    3    0    0 +1.3714740367e+01 -9.4556245171e+00 +8.5543106783e+00 1.8726429706e+01 0.0000000000e+00 0.0000e+00 -1.0000e+00
</event>
<event>
 5      4 +6.9480500e-03 9.11880000e+01 7.81616400e-03 1.18400000e-01
      -11 -1    0    0    0    0 +0.0000000000e+00 +0.0000000000e+00 +4.5593999997e+01 4.5594000000e+01 5.1100000000e-04 0.0000e+00 -1.0000e+00
       11 -1    0    0    0    0 -0.0000000000e+00 -0.0000000000e+00 -4.5593999997e+01 4.5594000000e+01 5.1100000000e-04 0.0000e+00 1.0000e+00
       23  2    1    2    0    0 +0.0000000000e+00 +0.0000000000e+00 +0.0000000000e+00 9.1188000000e+01 9.1188000000e+01 4.8994e-14 0.0000e+00
  9900012  1    3    3    0    0 -1.2912700897e+01 -1.2448584962e+01 -5.3827555687e+00 7.2461570294e+01 7.0000000000e+01 2.7045e-05 -1.0000e+00
      -12  1    3    3    0    0 +1.2912700897e+01 +1.2448584962e+01 +5.3827555687e+00 1.8726429706e+01 0.0000000000e+00 0.0000e+00 1.0000e+00
</event>
<event>
 5      6 +6.9480500e-03 9.11880000e+01 7.81616400e-03 1.18400000e-01
      -11 -1    0    0    0    0 +0.0000000000e+00 +0.0000000000e+00 +4.5593999997e+01 4.5594000000e+01 5.1100000000e-04 0.0000e+00 -1.0000e+00
       11 -1    0    0    0    0 -0.0000000000e+00 -0.0000000000e+00 -4.5593999997e+01 4.5594000000e+01 5.1100000000e-04 0.0000e+00 1.0000e+00
       23  2    1    2    0    0 +0.0000000000e+00 +0.0000000000e+00 +0.0000000000e+00 9.1188000000e+01 9.1188000000e+01 1.1841e-13 0.0000e+00
  9900012  1    3    3    0    0 +7.9337979425e+00 +2.4532773755e+00 +1.6784381128e+01 7.2461570294e+01 7.0000000000e+01 7.6057e-07 -1.0000e+00
      -12  1    3    3    0    0 -7.9337979425e+00 -2.4532773755e+00 -1.6784381128e+01 1.8726429706e+01 0.0000000000e+00 0.0000e+00 1.0000e+00
</event>
<event>
 5      1 +6.9480500e-03 9.11880000e+01 7.81616400e-03 1.18400000e-01
      -11 -1    0    0    0    0 +0.0000000000e+00 +0.0000000000e+00 +4.5593999997e+01 4.5594000000e+01 5.1100000000e-04 0.0000e+00 1.0000e+00
       11 -1    0    0    0    0 -0.0000000000e+00 -0.0000000000e+00 -4.5593999997e+01 4.5594000000e+01 5.1100000000e-04 0.0000e+00 -1.0000e+00
       23  2    1    2    0    0 +0.0000000000e+00 +0.0000000000e+00 +0.0000000000e+00 9.1188000000e+01 9.1188000000e+01 7.8557e-15 0.0000e+00
  9900012  1    3    3    0    0 -1.4235971762e+01 +7.6353484197e+00 +9.4719444692e+00 7.2461570294e+01 7.0000000000e+01 1.9471e-05 1.0000e+00
       12  1    3    3    0    0 +1.4235971762e+01 -7.6353484197e+00 -9.4719444692e+00 1.8726429706e+01 0.0000000000e+00 0.0000e+00 -1.0000e+00
</event>
<event>
 5      4 +6.9480500e-03 9.11880000e+01 7.81616400e-03 1.18400000e-01
      -11 -1    0    0    0    0 +0.0000000000e+00 +0.0000000000e+00 +4.5593999997e+01 4.5594000000e+01 5.1100000000e-04 0.0000e+00 1.0000e+00
       11 -1    0    0    0    0 -0.0000000000e+00 -0.0000000000e+00 -4.5593999997e+01 4.5594000000e+01 5.1100000000e-04 0.0000e+00 -1.0000e+00
       23  2    1    2    0    0 +0.0000000000e+00 +0.0000000000e+00 +0.0000000000e+00 9.1188000000e+01 9.1188000000e+01 3.3763e-14 0.0000e+00
  9900012  1    3    3    0    0 +5.9527207276e+00 +1.6526021609e+01 -6.4911397498e+00 7.2461570294e+01 7.0000000000e+01 3.1210e-06 -1.0000e+00
      -12  1    3    3    0    0 -5.9527207276e+00 -1.6526021609e+01 +6.4911397498e+00 1.8726429706e+01 0.0000000000e+00 0.0000e+00 1.0000e+00
</event>
<event>
 5      1 +6.9480500e-03 9.11880000e+01 7.81616400e-03 1.18400000e-01
      -11 -1    0    0    0    0 +0.0000000000e+00 +0.0000000000e+00 +4.5593999997e+01 4.5594000000e+01 5.1100000000e-04 0.0000e+00 -1.0000e+00
       11 -1    0    0    0    0 -0.0000000000e+00 -0.0000000000e+00 -4.5593999997e+01 4.5594000000e+01 5.1100000000e-04 0.0000e+00 1.0000e+00
       23  2    1    2    0    0 +0.0000000000e+00 +0.0000000000e+00 +0.0000000000e+00 9.1188000000e+01 9.1188000000e+01 7.8990e-14 0.0000e+00
  9900012  1    3    3    0    0 -1.7213284798e+01 -3.1175756294e+00 +6.6830171455e+00 7.2461570294e+01 7.0000000000e+01 1.7126e-04 1.0000e+00
       12  1    3    3    0    0 +1.7213284798e+01 +3.1175756294e+00 -6.6830171455e+00 1.8726429706e+01 0.0000000000e+00 0.0000e+00 -1.0000e+00
</event>
<event>
 5      1 +6.9480500e-03 9.11880000e+01 7.81616400e-03 1.18400000e-01
      -11 -1    0    0    0    0 +0.0000000000e+00 +0.0000000000e+00 +4.5593999997e+01 4.5594000000e+01 5.1100000000e-04 0.0000e+00 1.0000e+00
       11 -1    0    0    0    0 -0.0000000000e+00 -0.0000000000e+00 -4.5593999997e+01 4.5594000000e+01 5.1100000000e-04 0.0000e+00 -1.0000e+00
       23  2    1    2    0    0 +0.0000000000e+00 +0.0000000000e+00 +0.0000000000e+00 9.1188000000e+01 9.1188000000e+01 1.6271e-14 0.0000e+00
  9900012  1    3    3    0    0 -1.2960933762e+01 +3.7445406114e+00 +1.2987370063e+01 7.2461570294e+01 7.0000000000e+01 9.3548e-05 1.0000e+00
       12  1    3    3    0    0 +1.2960933762e+01 -3.7445406114e+00 -1.2987370063e+01 1.8726429706e+01 0.0000000000e+00 0.0000e+00 -1.0000e+00
</event>
<event>
 5      8 +6.9480500e-03 9.11880000e+01 7.81616400e-03 1.18400000e-01
      -11 -1    0    0    0    0 +0.0000000000e+00 +0.0000000000e+00 +4.5593999997e+01 4.5594000000e+01 5.1100000000e-04 0.0000e+00 1.0000e+00
       11 -1    0    0    0    0 -0.0000000000e+00 -0.0000000000e+00 -4.5593999997e+01 4.5594000000e+01 5.1100000000e-04 0.0000e+00 -1.0000e+00
       23  2    1    2    0    0 +0.0000000000e+00 +0.0000000000e+00 +0.0000000000e+00 9.1188000000e+01 9.1188000000e+01 1.9469e-14 0.0000e+00
  9900012  1    3    3    0    0 -4.8507120808e+00 +1.6964102186e+01 +6.2744719992e+00 7.2461570294e+01 7.0000000000e+01 1.4214e-04 -1.0000e+00
      -12  1    3    3    0    0 +4.8507120808e+00 -1.6964102186e+01 -6.2744719992e+00 1.8726429706e+01 0.0000000000e+00 0.0000e+00 1.0000e+00
</event>
<event>
 5      2 +6.9480500e-03 9.11880000e+01 7.81616400e-03 1.18400000e-01
      -11 -1    0    0    0    0 +0.0000000000e+00 +0.0000000000e+00 +4.5593999997e+01 4.5594000000e+01 5.1100000000e-04 0.0000e+00 1.0000e+00
       11 -1    0    0    0    0 -0.0000000000e+00 -0.0000000000e+00 -4.5593999997e+01 4.5594000000e+01 5.1100000000e-04 0.0000e+00 -1.0000e+00
       23  2    1    2    0    0 +0.0000000000e+00 +0.0000000000e+00 +0.0000000000e+00 9.1188000000e+01 9.1188000000e+01 5.1524e-14 0.0000e+00
  9900012  1    3    3    0    0 -1.7887635525e+01 +3.4569531087e+00 -4.3314131707e+00 7.2461570294e+01 7.0000000000e+01 3.6104e-04 1.0000e+00
      -12  1    3    3    0    0 +1.7887635525e+01 -3.4569531087e+00 +4.3314131707e+00 1.8726429706e+01 0.0000000000e+00 0.0000e+00 1.0000e+00
</event>
<event>
 5      1 +6.9480500e-03 9.11880000e+01 7.81616400e-03 1.18400000e-01
      -11 -1    0    0    0    0 +0.0000000000e+00 +0.0000000000e+00 +4.5593999997e+01 4.5594000000e+01 5.1100000000e-04 0.0000e+00 -1.0000e+00
       11 -1    0    0    0    0 -0.0000000000e+00 -0.0000000000e+00 -4.5593999997e+01 4.5594000000e+01 5.1100000000e-04 0.0000e+00 1.0000e+00
       23  2    1    2    0    0 +0.0000000000e+00 +0.0000000000e+00 +0.0000000000e+00 9.1188000000e+01 9.1188000000e+01 1.8115e-14 0.0000e+00
  9900012  1    3    3    0    0 -1.6207961548e+01 -8.2918599928e+00 +4.3847702162e+00 7.2461570294e+01 7.0000000000e+01 1.4442e-04 1.0000e+00
       12  1    3    3    0    0 +1.6207961548e+01 +8.2918599928e+00 -4.3847702162e+00 1.8726429706e+01 0.0000000000e+00 0.0000e+00 -1.0000e+00
</event>
<event>
 5      8 +6.9480500e-03 9.11880000e+01 7.81616400e-03 1.18400000e-01
      -11 -1    0    0    0    0 +0.0000000000e+00 +0.0000000000e+00 +4.5593999997e+01 4.5594000000e+01 5.1100000000e-04 0.0000e+00 1.0000e+00
       11 -1    0    0    0    0 -0.0000000000e+00 -0.0000000000e+00 -4.5593999997e+01 4.5594000000e+01 5.1100000000e-04 0.0000e+00 -1.0000e+00
       23  2    1    2    0    0 +0.0000000000e+00 +0.0000000000e+00 +0.0000000000e+00 9.1188000000e+01 9.1188000000e+01 9.0918e-14 0.0000e+00
  9900012  1    3    3    0    0 +9.6211471622e+00 +6.9755589903e+00 -1.4472535147e+01 7.2461570294e+01 7.0000000000e+01 3.8439e-04 -1.0000e+00
      -12  1    3    3    0    0 -9.6211471622e+00 -6.9755589903e+00 +1.4472535147e+01 1.8726429706e+01 0.0000000000e+00 0.0000e+00 1.0000e+00
</event>
<event>
 5      3 +6.9480500e-03 9.11880000e+01 7.81616400e-03 1.18400000e-01
      -11 -1    0    0    0    0 +0.0000000000e+00 +0.0000000000e+00 +4.5593999997e+01 4.5594000000e+01 5.1100000000e-04 0.0000e+00 -1.0000e+00
       11 -1    0    0    0    0 -0.0000000000e+00 -0.0000000000e+00 -4.5593999997e+01 4.5594000000e+01 5.1100000000e-04 0.0000e+00 1.0000e+00
       23  2    1    2    0    0 +0.0000000000e+00 +0.0000000000e+00 +0.0000000000e+00 9.1188000000e+01 9.1188000000e+01 1.0601e-13 0.0000e+00
  9900012  1    3    3    0    0 -1.8157709879e+01 -2.2888855750e+00 -3.9670825927e+00 7.2461570294e+01 7.0000000000e+01 1.7283e-04 1.0000e+00
       12  1    3    3    0    0 +1.8157709879e+01 +2.2888855750e+00 +3.9670825927e+00 1.8726429706e+01 0.0000000000e+00 0.0000e+00 -1.0000e+00
</event>
<event>
 5      1 +6.9480500e-03 9.11880000e+01 7.81616400e-03 1.18400000e-01
      -11 -1    0    0    0    0 +0.0000000000e+00 +0.0000000000e+00 +4.5593999997e+01 4.5594000000e+01 5.1100000000e-04 0.0000e+00 -1.0000e+00
       11 -1    0    0    0    0 -0.0000000000e+00 -0.0000000000e+00 -4.5593999997e+01 4.5594000000e+01 5.1100000000e-04 0.0000e+00 1.0000e+00
       23  2    1    2    0    0 +0.0000000000e+00 +0.0000000000e+00 +0.0000000000e+00 9.1188000000e+01 9.1188000000e+01 2.2960e-14 0.0000e+00
  9900012  1    3    3    0    0 -3.9615490698e+00 -6.2495319185e+00 -1.7202576821e+01 7.2461570294e+01 7.0000000000e+01 6.4376e-05 1.0000e+00
       12  1    3    3    0    0 +3.9615490698e+00 +6.2495319185e+00 +1.7202576821e+01 1.8726429706e+01 0.0000000000e+00 0.0000e+00 -1.0000e+00
</event>
<event>
 5      4 +6.9480500e-03 9.11880000e+01 7.81616400e-03 1.18400000e-01
      -11 -1    0    0    0    0 +0.0000000000e+00 +0.0000000000e+00 +4.5593999997e+01 4.5594000000e+01 5.1100000000e-04 0.0000e+00 -1.0000e+00
       11 -1    0    0    0    0 -0.0000000000e+00 -0.0000000000e+00 -4.5593999997e+01 4.5594000000e+01 5.1100000000e-04 0.0000e+00 1.0000e+00
       23  2    1    2    0    0 +0.0000000000e+00 +0.0000000000e+00 +0.0000000000e+00 9.1188000000e+01 9.1188000000e+01 1.4446e-14 0.0000e+00
  9900012  1    3    3    0    0 +3.6012924712e-01 +1.3546441077e+01 +1.2924527480e+01 7.2461570294e+01 7.0000000000e+01 1.3946e-05 -1.0000e+00
      -12  1    3    3    0    0 -3.6012924712e-01 -1.3546441077e+01 -1.2924527480e+01 1.8726429706e+01 0.0000000000e+00 0.0000e+00 1.0000e+00
</event>
<event>
 5      8 +6.9480500e-03 9.11880000e+01 7.81616400e-03 1.18400000e-01
      -11 -1    0    0    0    0 +0.0000000000e+00 +0.0000000000e+00 +4.5593999997e+01 4.5594000000e+01 5.1100000000e-04 0.0000e+00 1.0000e+00
       11 -1    0    0    0    0 -0.0000000000e+00 -0.0000000000e+00 -4.5593999997e+01 4.5594000000e+01 5.1100000000e-04 0.0000e+00 -1.0000e+00
       23  2    1    2    0    0 +0.0000000000e+00 +0.0000000000e+00 +0.0000000000e+00 9.1188000000e+01 9.1188000000e+01 1.0023e-13 0.0000e+00
  9900012  1    3    3    0    0 -3.0329116938e+00 -1.4034352305e+01 -1.2021546138e+01 7.2461570294e+01 7.0000000000e+01 4.2255e-05 -1.0000e+00
      -12  1    3    3    0    0 +3.0329116938e+00 +1.4034352305e+01 +1.2021546138e+01 1.8726429706e+01 0.0000000000e+00 0.0000e+00 1.0000e+00
</event>
<event>
 5      6 +6.9480500e-03 9.11880000e+01 7.81616400e-03 1.18400000e-01
      -11 -1    0    0    0    0 +0.0000000000e+00 +0.0000000000e+00 +4.5593999997e+01 4.5594000000e+01 5.1100000000e-04 0.0000e+00 1.0000e+00
       11 -1    0    0    0    0 -0.0000000000e+00 -0.0000000000e+00 -4.5593999997e+01 4.5594000000e+01 5.1100000000e-04 0.0000e+00 -1.0000e+00
       23  2    1    2    0    0 +0.0000000000e+00 +0.0000000000e+00 +0.0000000000e+00 9.1188000000e+01 9.1188000000e+01 4.4900e-14 0.0000e+00
  9900012  1    3    3    0    0 +1.1707318606e+01 +6.7256524279e+00 -1.2976265257e+01 7.2461570294e+01 7.0000000000e+01 2.2340e-05 1.0000e+00
      -12  1    3    3    0    0 -1.1707318606e+01 -6.7256524279e+00 +1.2976265257e+01 1.8726429706e+01 0.0000000000e+00 0.0000e+00 1.0000e+00
</event>
<event>
 5      1 +6.9480500e-03 9.11880000e+01 7.81616400e-03 1.18400000e-01
      -11 -1    0    0    0    0 +0.0000000000e+00 +0.0000000000e+00 +4.5593999997e+01 4.5594000000e+01 5.1100000000e-04 0.0000e+00 1.0000e+00
       11 -1    0    0    0    0 -0.0000000000e+00 -0.0000000000e+00 -4.5593999997e+01 4.5594000000e+01 5.1100000000e-04 0.0000e+00 -1.0000e+00
       23  2    1    2    0    0 +0.0000000000e+00 +0.0000000000e+00 +0.0000000000e+00 9.1188000000e+01 9.1188000000e+01 1.0395e-13 0.0000e+00
  9900012  1    3    3    0    0 +1.4595575714e+01 +6.2967852733e+00 -9.8994360602e+00 7.2461570294e+01 7.0000000000e+01 1.7780e-04 -1.0000e+00
       12  1    3    3    0    0 -1.4595575714e+01 -6.2967852733e+00 +9.8994360602e+00 1.8726429706e+01 0.0000000000e+00 0.0000e+00 -1.0000e+00
</event>
<event>
 5      8 +6.9480500e-03 9.11880000e+01 7.81616400e-03 1.18400000e-01
      -11 -1    0    0    0    0 +0.0000000000e+00 +0.0000000000e+00 +4.5593999997e+01 4.5594000000e+01 5.1100000000e-04 0.0000e+00 -1.0000e+00
       11 -1    0    0    0    0 -0.0000000000e+00 -0.0000000000e+00 -4.5593999997e+01 4.5594000000e+01 5.1100000000e-04 0.0000e+00 1.0000e+00
       23  2    1    2    0    0 +0.0000000000e+00 +0.0000000000e+00 +0.0000000000e+00 9.1188000000e+01 9.1188000000e+01 6.7419e-14 0.0000e+00
  9900012  1    3    3    0    0 +4.9043894803e+00 +1.7122855623e+01 +5.7822096699e+00 7.2461570294e+01 7.0000000000e+01 1.8053e-04 1.0000e+00
      -12  1    3    3    0    0 -4.9043894803e+00 -1.7122855623e+01 -5.7822096699e+00 1.8726429706e+01 0.0000000000e+00 0.0000e+00 1.0000e+00
</event>
<event>
 5      3 +6.9480500e-03 9.11880000e+01 7.81616400e-03 1.18400000e-01
      -11 -1    0    0    0    0 +0.0000000000e+00 +0.0000000000e+00 +4.5593999997e+01 4.5594000000e+01 5.1100000000e-04 0.0000e+00 -1.0000e+00
       11 -1    0    0    0    0 -0.0000000000e+00 -0.0000000000e+00 -4.5593999997e+01 4.5594000000e+01 5.1100000000e-04 0.0000e+00 1.0000e+00
       23  2    1    2    0    0 +0.0000000000e+00 +0.0000000000e+00 +0.0000000000e+00 9.1188000000e+01 9.1188000000e+01 8.0238e-14 0.0000e+00
  9900012  1    3    3    0    0 -1.7695943965e+01 -5.8699961676e+00 -1.7538191790e+00 7.2461570294e+01 7.0000000000e+01 8.7024e-05 1.0000e+00
       12  1    3    3    0    0 +1.7695943965e+01 +5.8699961676e+00 +1.7538191790e+00 1.8726429706e+01 0.0000000000e+00 0.0000e+00 -1.0000e+00
</event>
<event>
 5      4 +6.9480500e-03 9.11880000e+01 7.81616400e-03 1.18400000e-01
      -11 -1    0    0    0    0 +0.0000000000e+00 +0.0000000000e+00 +4.5593999997e+01 4.5594000000e+01 5.1100000000e-04 0.0000e+00 1.0000e+00
       11 -1    0    0    0    0 -0.0000000000e+00 -0.0000000000e+00 -4.5593999997e+01 4.5594000000e+01 5.1100000000e-04 0.0000e+00 -1.0000e+00
       23  2    1    2    0    0 +0.0000000000e+00 +0.0000000000e+00 +0.0000000000e+00 9.1188000000e+01 9.1188000000e+01 4.3131e-14 0.0000e+00
  9900012  1    3    3    0    0 -2.7476604413e+00 +1.7665202698e+01 -5.5740600341e+00 7.2461570294e+01 7.0000000000e+01 6.8229e-06 -1.0000e+00
      -12  1    3    3    0    0 +2.7476604413e+00 -1.7665202698e+01 +5.5740600341e+00 1.8726429706e+01 0.0000000000e+00 0.0000e+00 1.0000e+00
</event>
<event>
 5      3 +6.9480500e-03 9.11880000e+01 7.81616400e-03 1.18400000e-01
      -11 -1    0    0    0    0 +0.0000000000e+00 +0.0000000000e+00 +4.5593999997e+01 4.5594000000e+01 5.1100000000e-04 0.0000e+00 1.0000e+00
       11 -1    0    0    0    0 -0.0000000000e+00 -0.0000000000e+00 -4.5593999997e+01 4.5594000000e+01 5.1100000000e-04 0.0000e+00 -1.0000e+00
       23  2    1    2    0    0 +0.0000000000e+00 +0.0000000000e+00 +0.0000000000e+00 9.1188000000e+01 9.1188000000e+01 2.2422e-15 0.0000e+00
  9900012  1    3    3    0    0 +1.4189088111e+01 +1.1869871802e+01 -2.9077640063e+00 7.2461570294e+01 7.0000000000e+01 6.5885e-05 -1.0000e+00
       12  1    3    3    0    0 -1.4189088111e+01 -1.1869871802e+01 +2.9077640063e+00 1.8726429706e+01 0.0000000000e+00 0.0000e+00 -1.0000e+00
</event>
<event>
 5      3 +6.9480500e-03 9.11880000e+01 7.81616400e-03 1.18400000e-01
      -11 -1    0    0    0    0 +0.0000000000e+00 +0.0000000000e+00 +4.5593999997e+01 4.5594000000e+01 5.1100000000e-04 0.0000e+00 1.0000e+00
       11 -1    0    0    0    0 -0.0000000000e+00 -0.0000000000e+00 -4.5593999997e+01 4.5594000000e+01 5.1100000000e-04 0.0000e+00 -1.0000e+00
       23  2    1    2    0    0 +0.0000000000e+00 +0.0000000000e+00 +0.0000000000e+00 9.1188000000e+01 9.1188000000e+01 2.6749e-15 0.0000e+00
  9900012  1    3    3    0    0 +1.4278269738e+01 +5.7460301219e+00 +1.0667395214e+01 7.2461570294e+01 7.0000000000e+01 2.4465e-05 1.0000e+00
       12  1    3    3    0    0 -1.4278269738e+01 -5.7460301219e+00 -1.0667395214e+01 1.8726429706e+01 0.0000000000e+00 0.0000e+00 -1.0000e+00
</event>
<event>
 5      6 +6.9480500e-03 9.11880000e+01 7.81616400e-03 1.18400000e-01
      -11 -1    0    0    0    0 +0.0000000000e+00 +0.0000000000e+00 +4.5593999997e+01 4.5594000000e+01 5.1100000000e-04 0.0000e+00 -1.0000e+00
       11 -1    0    0    0    0 -0.0000000000e+00 -0.0000000000e+00 -4.5593999997e+01 4.5594000000e+01 5.1100000000e-04 0.0000e+00 1.0000e+00
       23  2    1    2    0    0 +0.0000000000e+00 +0.0000000000e+00 +0.0000000000e+00 9.1188000000e+01 9.1188000000e+01 1.3322e-14 0.0000e+00
  9900012  1    3    3    0    0 +8.1660806269e+00 +4.6791739078e+00 +1.6189491291e+01 7.2461570294e+01 7.0000000000e+01 8.4690e-06 -1.0000e+00
      -12  1    3    3    0    0 -8.1660806269e+00 -4.6791739078e+00 -1.6189491291e+01 1.8726429706e+01 0.0000000000e+00 0.0000e+00 1.0000e+00
</event>
<event>
 5      4 +6.9480500e-03 9.11880000e+01 7.81616400e-03 1.18400000e-01
      -11 -1    0    0    0    0 +0.0000000000e+00 +0.0000000000e+00 +4.5593999997e+01 4.5594000000e+01 5.1100000000e-04 0.0000e+00 -1.0000e+00
       11 -1    0    0    0    0 -0.0000000000e+00 -0.0000000000e+00 -4.5593999997e+01 4.5594000000e+01 5.1100000000e-04 0.0000e+00 1.0000e+00
       23  2    1    2    0    0 +0.0000000000e+00 +0.0000000000e+00 +0.0000000000e+00 9.1188000000e+01 9.1188000000e+01 7.9870e-14 0.0000e+00
  9900012  1    3    3    0    0 -4.9525747216e+00 +1.6158179078e+01 +8.0662520442e+00 7.2461570294e+01 7.0000000000e+01 3.5663e-06 -1.0000e+00
      -12  1    3    3    0    0 +4.9525747216e+00 -1.6158179078e+01 -8.0662520442e+00 1.8726429706e+01 0.0000000000e+00 0.0000e+00 1.0000e+00
</event>
<event>
 5      5 +6.9480500e-03 9.11880000e+01 7.81616400e-03 1.18400000e-01
      -11 -1    0    0    0    0 +0.0000000000e+00 +0.0000000000e+00 +4.5593999997e+01 4.5594000000e+01 5.1100000000e-04 0.0000e+00 1.0000e+00
       11 -1    0    0    0    0 -0.0000000000e+00 -0.0000000000e+00 -4.5593999997e+01 4.5594000000e+01 5.1100000000e-04 0.0000e+00 -1.0000e+00
       23  2    1    2    0    0 +0.0000000000e+00 +0.0000000000e+00 +0.0000000000e+00 9.1188000000e+01 9.1188000000e+01 8.5437e-14 0.0000e+00
  9900012  1    3    3    0    0 -3.4276589707e+00 +1.1594196688e+01 +1.4300521901e+01 7.2461570294e+01 7.0000000000e+01 3.0924e-05 1.0000e+00
       12  1    3    3    0    0 +3.4276589707e+00 -1.1594196688e+01 -1.4300521901e+01 1.8726429706e+01 0.0000000000e+00 0.0000e+00 -1.0000e+00
</event>
<event>
 5      7 +6.9480500e-03 9.11880000e+01 7.81616400e-03 1.18400000e-01
      -11 -1    0    0    0    0 +0.0000000000e+00 +0.0000000000e+00 +4.5593999997e+01 4.5594000000e+01 5.1100000000e-04 0.0000e+00 -1.0000e+00
       11 -1    0    0    0    0 -0.0000000000e+00 -0.0000000000e+00 -4.5593999997e+01 4.5594000000e+01 5.1100000000e-04 0.0000e+00 1.0000e+00
       23  2    1    2    0    0 +0.0000000000e+00 +0.0000000000e+00 +0.0000000000e+00 9.1188000000e+01 9.1188000000e+01 1.6646e-14 0.0000e+00
  9900012  1    3    3    0    0 +1.3228323480e+01 -1.2442317384e-01 +1.3254250122e+01 7.2461570294e+01 7.0000000000e+01 1.3387e-04 1.0000e+00
       12  1    3    3    0    0 -1.3228323480e+01 +1.2442317384e-01 -1.3254250122e+01 1.8726429706e+01 0.0000000000e+00 0.0000e+00 -1.0000e+00
</event>
<event>
 5      4 +6.9480500e-03 9.11880000e+01 7.81616400e-03 1.18400000e-01
      -11 -1    0    0    0    0 +0.0000000000e+00 +0.0000000000e+00 +4.5593999997e+01 4.5594000000e+01 5.1100000000e-04 0.0000e+00 1.0000e+00
       11 -1    0    0    0    0 -0.0000000000e+00 -0.0000000000e+00 -4.5593999997e+01 4.5594000000e+01 5.1100000000e-04 0.0000e+00 -1.0000e+00
       23  2    1    2    0    0 +0.0000000000e+00 +0.0000000000e+00 +0.0000000000e+00 9.1188000000e+01 9.1188000000e+01 2.2587e-14 0.0000e+00
  9900012  1    3    3    0    0 +1.5482462843e+01 +6.0315171233e+00 -8.6367421544e+00 7.2461570294e+01 7.0000000000e+01 1.2911e-04 -1.0000e+00
      -12  1    3    3    0    0 -1.5482462843e+01 -6.0315171233e+00 +8.6367421544e+00 1.8726429706e+01 0.0000000000e+00 0.0000e+00 1.0000e+00
</event>
<event>
 5      5 +6.9480500e-03 9.11880000e+01 7.81616400e-03 1.18400000e-01
      -11 -1    0    0    0    0 +0.0000000000e+00 +0.0000000000e+00 +4.5593999997e+01 4.5594000000e+01 5.1100000000e-04 0.0000e+00 1.0000e+00
       11 -1    0    0    0    0 -0.0000000000e+00 -0.0000000000e+00 -4.5593999997e+01 4.5594000000e+01 5.1100000000e-04 0.0000e+00 -1.0000e+00
       23  2    1    2    0    0 +0.0000000000e+00 +0.0000000000e+00 +0.0000000000e+00 9.1188000000e+01 9.1188000000e+01 2.2141e-14 0.0000e+00
  9900012  1    3    3    0    0 +5.1441450219e+00 -1.7054629144e+01 -5.7755143720e+00 7.2461570294e+01 7.0000000000e+01 1.2226e-04 -1.0000e+00
       12  1    3    3    0    0 -5.1441450219e+00 +1.7054629144e+01 +5.7755143720e+00 1.8726429706e+01 0.0000000000e+00 0.0000e+00 -1.0000e+00
</event>
<event>
 5      3 +6.9480500e-03 9.11880000e+01 7.81616400e-03 1.18400000e-01
      -11 -1    0    0    0    0 +0.0000000000e+00 +0.0000000000e+00 +4.5593999997e+01 4.5594000000e+01 5.1100000000e-04 0.0000e+00 -1.0000e+00
       11 -1    0    0    0    0 -0.0000000000e+00 -0.0000000000e+00 -4.5593999997e+01 4.5594000000e+01 5.1100000000e-04 0.0000e+00 1.0000e+00
       23  2    1    2    0    0 +0.0000000000e+00 +0.0000000000e+00 +0.0000000000e+00 9.1188000000e+01 9.1188000000e+01 2.2899e-15 0.0000e+00
  9900012  1    3    3    0    0 +3.3473805326e+00 +1.5311410765e+00 -1.8361095286e+01 7.2461570294e+01 7.0000000000e+01 1.0492e-05 1.0000e+00
       12  1    3    3    0    0 -3.3473805326e+00 -1.5311410765e+00 +1.8361095286e+01 1.8726429706e+01 0.0000000000e+00 0.0000e+00 -1.0000e+00
</event>
<event>
 5      5 +6.9480500e-03 9.11880000e+01 7.81616400e-03 1.18400000e-01
      -11 -1    0    0    0    0 +0.0000000000e+00 +0.0000000000e+00 +4.5593999997e+01 4.5594000000e+01 5.1100000000e-04 0.0000e+00 -1.0000e+00
       11 -1    0    0    0    0 -0.0000000000e+00 -0.0000000000e+00 -4.5593999997e+01 4.5594000000e+01 5.1100000000e-04 0.0000e+00 1.0000e+00
       23  2    1    2    0    0 +0.0000000000e+00 +0.0000000000e+00 +0.0000000000e+00 9.1188000000e+01 9.1188000000e+01 1.4582e-13 0.0000e+00
  9900012  1    3    3    0    0 +6.4407877694e+00 -5.2407055076e+00 -1.6784827322e+01 7.2461570294e+01 7.0000000000e+01 3.4302e-06 1.0000e+00
       12  1    3    3    0    0 -6.4407877694e+00 +5.2407055076e+00 +1.6784827322e+01 1.8726429706e+01 0.0000000000e+00 0.0000e+00 -1.0000e+00
</event>
<event>
 5      6 +6.9480500e-03 9.11880000e+01 7.81616400e-03 1.18400000e-01
      -11 -1    0    0    0    0 +0.0000000000e+00 +0.0000000000e+00 +4.5593999997e+01 4.5594000000e+01 5.1100000000e-04 0.0000e+00 1.0000e+00
       11 -1    0    0    0    0 -0.0000000000e+00 -0.0000000000e+00 -4.5593999997e+01 4.5594000000e+01 5.1100000000e-04 0.0000e+00 -1.0000e+00
       23  2    1    2    0    0 +0.0000000000e+00 +0.0000000000e+00 +0.0000000000e+00 9.1188000000e+01 9.1188000000e+01 3.0041e-14 0.0000e+00
  9900012  1    3    3    0    0 +7.7372230279e+00 -1.2194131621e+01 -1.1921312988e+01 7.2461570294e+01 7.0000000000e+01 3.3523e-05 1.0000e+00
      -12  1    3    3    0    0 -7.7372230279e+00 +1.2194131621e+01 +1.1921312988e+01 1.8726429706e+01 0.0000000000e+00 0.0000e+00 1.0000e+00
</event>
<event>
 5      8 +6.9480500e-03 9.11880000e+01 7.81616400e-03 1.18400000e-01
      -11 -1    0    0    0    0 +0.0000000000e+00 +0.0000000000e+00 +4.5593999997e+01 4.5594000000e+01 5.1100000000e-04 0.0000e+00 1.0000e+00
       11 -1    0    0    0    0 -0.0000000000e+00 -0.0000000000e+00 -4.5593999997e+01 4.5594000000e+01 5.1100000000e-04 0.0000e+00 -1.0000e+00
       23  2    1    2    0    0 +0.0000000000e+00 +0.0000000000e+00 +0.0000000000e+00 9.1188000000e+01 9.1188000000e+01 4.9396e-15 0.0000e+00
  9900012  1    3    3    0    0 -1.5478594821e+01 +4.9885656872e+00 -9.2847447068e+00 7.2461570294e+01 7.0000000000e+01 2.4948e-04 -1.0000e+00
      -12  1    3    3    0    0 +1.5478594821e+01 -4.9885656872e+00 +9.2847447068e+00 1.8726429706e+01 0.0000000000e+00 0.0000e+00 1.0000e+00
</event>
<event>
 5      6 +6.9480500e-03 9.11880000e+01 7.81616400e-03 1.18400000e-01
      -11 -1    0    0    0    0 +0.0000000000e+00 +0.0000000000e+00 +4.5593999997e+01 4.5594000000e+01 5.1100000000e-04 0.0000e+00 1.0000e+00
       11 -1    0    0    0    0 -0.0000000000e+00 -0.0000000000e+00 -4.5593999997e+01 4.5594000000e+01 5.1100000000e-04 0.0000e+00 -1.0000e+00
       23  2    1    2    0    0 +0.0000000000e+00 +0.0000000000e+00 +0.0000000000e+00 9.1188000000e+01 9.1188000000e+01 9.7850e-14 0.0000e+00
  9900012  1    3    3    0    0 +1.8621253931e+01 -1.7995269042e+00 +8.3052663189e-01 7.2461570294e+01 7.0000000000e+01 5.7555e-05 1.0000e+00
      -12  1    3    3    0    0 -1.8621253931e+01 +1.7995269042e+00 -8.3052663189e-01 1.8726429706e+01 0.0000000000e+00 0.0000e+00 1.0000e+00
</event>
<event>
 5      5 +6.9480500e-03 9.11880000e+01 7.81616400e-03 1.18400000e-01
      -11 -1    0    0    0    0 +0.0000000000e+00 +0.0000000000e+00 +4.5593999997e+01 4.5594000000e+01 5.1100000000e-04 0.0000e+00 1.0000e+00
       11 -1    0    0    0    0 -0.0000000000e+00 -0.0000000000e+00 -4.5593999997e+01 4.5594000000e+01 5.1100000000e-04 0.0000e+00 -1.0000e+00
       23  2    1    2    0    0 +0.0000000000e+00 +0.0000000000e+00 +0.0000000000e+00 9.1188000000e+01 9.1188000000e+01 1.4380e-13 0.0000e+00
  9900012  1    3    3    0    0 -4.0805109605e+00 +1.7372709509e+01 +5.6760518104e+00 7.2461570294e+01 7.0000000000e+01 7.3642e-06 1.0000e+00
       12  1    3    3    0    0 +4.0805109605e+00 -1.7372709509e+01 -5.6760518104e+00 1.8726429706e+01 0.0000000000e+00 0.0000e+00 -1.0000e+00
</event>
<event>
 5      2 +6.9480500e-03 9.11880000e+01 7.81616400e-03 1.18400000e-01
      -11 -1    0    0    0    0 +0.0000000000e+00 +0.0000000000e+00 +4.5593999997e+01 4.5594000000e+01 5.1100000000e-04 0.0000e+00 -1.0000e+00
       11 -1    0    0    0    0 -0.0000000000e+00 -0.0000000000e+00 -4.5593999997e+01 4.5594000000e+01 5.1100000000e-04 0.0000e+00 1.0000e+00
       23  2    1    2    0    0 +0.0000000000e+00 +0.0000000000e+00 +0.0000000000e+00 9.1188000000e+01 9.1188000000e+01 1.0905e-14 0.0000e+00
  9900012  1    3    3    0    0 -5.8900833568e+00 +1.8404743710e+00 +1.7680462145e+01 7.2461570294e+01 7.0000000000e+01 2.6984e-05 -1.0000e+00
      -12  1    3    3    0    0 +5.8900833568e+00 -1.8404743710e+00 -1.7680462145e+01 1.8726429706e+01 0.0000000000e+00 0.0000e+00 1.0000e+00
</event>
<event>
 5      2 +6.9480500e-03 9.11880000e+01 7.81616400e-03 1.18400000e-01
      -11 -1    0    0    0    0 +0.0000000000e+00 +0.0000000000e+00 +4.5593999997e+01 4.5594000000e+01 5.1100000000e-04 0.0000e+00 1.0000e+00
       11 -1    0    0    0    0 -0.0000000000e+00 -0.0000000000e+00 -4.5593999997e+01 4.5594000000e+01 5.1100000000e-04 0.0000e+00 -1.0000e+00
       23  2    1    2    0    0 +0.0000000000e+00 +0.0000000000e+00 +0.0000000000e+00 9.1188000000e+01 9.1188000000e+01 5.6283e-14 0.0000e+00
  9900012  1    3    3    0    0 -7.3144461047e+00 +1.7118192290e+01 +2.0360600279e+00 7.2461570294e+01 7.0000000000e+01 1.4699e-04 -1.0000e+00
      -12  1    3    3    0    0 +7.3144461047e+00 -1.7118192290e+01 -2.0360600279e+00 1.8726429706e+01 0.0000000000e+00 0.0000e+00 1.0000e+00
</event>
<event>
 5      7 +6.9480500e-03 9.11880000e+01 7.81616400e-03 1.18400000e-01
      -11 -1    0    0    0    0 +0.0000000000e+00 +0.0000000000e+00 +4.5593999997e+01 4.5594000000e+01 5.1100000000e-04 0.0000e+00 -1.0000e+00
       11 -1    0    0    0    0 -0.0000000000e+00 -0.0000000000e+00 -4.5593999997e+01 4.5594000000e+01 5.1100000000e-04 0.0000e+00 1.0000e+00
       23  2    1    2    0    0 +0.0000000000e+00 +0.0000000000e+00 +0.0000000000e+00 9.1188000000e+01 9.1188000000e+01 9.3890e-14 0.0000e+00
  9900012  1    3    3    0    0 -6.9119750151e+00 +1.7046536449e+01 +3.5098954425e+00 7.2461570294e+01 7.0000000000e+01 8.7712e-05 -1.0000e+00
       12  1    3    3    0    0 +6.9119750151e+00 -1.7046536449e+01 -3.5098954425e+00 1.8726429706e+01 0.0000000000e+00 0.0000e+00 -1.0000e+00
</event>
<event>
 5      8 +6.9480500e-03 9.11880000e+01 7.81616400e-03 1.18400000e-01
      -11 -1    0    0    0    0 +0.0000000000e+00 +0.0000000000e+00 +4.5593999997e+01 4.5594000000e+01 5.1100000000e-04 0.0000e+00 1.0000e+00
       11 -1    0    0    0    0 -0.0000000000e+00 -0.0000000000e+00 -4.5593999997e+01 4.5594000000e+01 5.1100000000e-04 0.0000e+00 -1.0000e+00
       23  2    1    2    0    0 +0.0000000000e+00 +0.0000000000e+00 +0.0000000000e+00 9.1188000000e+01 9.1188000000e+01 1.8983e-16 0.0000e+00
  9900012  1    3    3    0    0 +1.1074619088e+01 -1.5099665683e+01 -1.7910285784e-01 7.2461570294e+01 7.0000000000e+01 2.3389e-05 -1.0000e+00
      -12  1    3    3    0    0 -1.1074619088e+01 +1.5099665683e+01 +1.7910285784e-01 1.8726429706e+01 0.0000000000e+00 0.0000e+00 1.0000e+00
</event>
<event>
 5      2 +6.9480500e-03 9.11880000e+01 7.81616400e-03 1.18400000e-01
      -11 -1    0    0    0    0 +0.0000000000e+00 +0.0000000000e+00 +4.5593999997e+01 4.5594000000e+01 5.1100000000e-04 0.0000e+00 -1.0000e+00
       11 -1    0    0    0    0 -0.0000000000e+00 -0.0000000000e+00 -4.5593999997e+01 4.5594000000e+01 5.1100000000e-04 0.0000e+00 1.0000e+00
       23  2    1    2    0    0 +0.0000000000e+00 +0.0000000000e+00 +0.0000000000e+00 9.1188000000e+01 9.1188000000e+01 2.3211e-15 0.0000e+00
  9900012  1    3    3    0    0 +1.6986569177e+01 +7.4764956608e+00 +2.4975287254e+00 7.2461570294e+01 7.0000000000e+01 2.8687e-06 -1.0000e+00
      -12  1    3    3    0    0 -1.6986569177e+01 -7.4764956608e+00 -2.4975287254e+00 1.8726429706e+01 0.0000000000e+00 0.0000e+00 1.0000e+00
</event>
<event>
 5      2 +6.9480500e-03 9.11880000e+01 7.81616400e-03 1.18400000e-01
      -11 -1    0    0    0    0 +0.0000000000e+00 +0.0000000000e+00 +4.5593999997e+01 4.5594000000e+01 5.1100000000e-04 0.0000e+00 -1.0000e+00
       11 -1    0    0    0    0 -0.0000000000e+00 -0.0000000000e+00 -4.5593999997e+01 4.5594000000e+01 5.1100000000e-04 0.0000e+00 1.0000e+00
       23  2    1    2    0    0 +0.0000000000e+00 +0.0000000000e+00 +0.0000000000e+00 9.1188000000e+01 9.1188000000e+01 1.2926e-14 0.0000e+00
  9900012  1    3    3    0    0 +7.2680466259e+00 -1.5013616509e+01 +8.5115208445e+00 7.2461570294e+01 7.0000000000e+01 2.3305e-04 -1.0000e+00
      -12  1    3    3    0    0 -7.2680466259e+00 +1.5013616509e+01 -8.5115208445e+00 1.8726429706e+01 0.0000000000e+00 0.0000e+00 1.0000e+00
</event>
<event>
 5      8 +6.9480500e-03 9.11880000e+01 7.81616400e-03 1.18400000e-01
      -11 -1    0    0    0    0 +0.0000000000e+00 +0.0000000000e+00 +4.5593999997e+01 4.5594000000e+01 5.1100000000e-04 0.0000e+00 -1.0000e+00
       11 -1    0    0    0    0 -0.0000000000e+00 -0.0000000000e+00 -4.5593999997e+01 4.5594000000e+01 5.1100000000e-04 0.0000e+00 1.0000e+00
       23  2    1    2    0    0 +0.0000000000e+00 +0.0000000000e+00 +0.0000000000e+00 9.1188000000e+01 9.1188000000e+01 1.0025e-13 0.0000e+00
  9900012  1    3    3    0    0 +1.2513441525e+00 -1.3980586638e+01 +1.2395826095e+01 7.2461570294e+01 7.0000000000e+01 2.0121e-05 -1.0000e+00
      -12  1    3    3    0    0 -1.2513441525e+00 +1.3980586638e+01 -1.2395826095e+01 1.8726429706e+01 0.0000000000e+00 0.0000e+00 1.0000e+00
</event>
<event>
 5      1 +6.9480500e-03 9.11880000e+01 7.81616400e-03 1.18400000e-01
      -11 -1    0    0    0    0 +0.0000000000e+00 +0.0000000000e+00 +4.5593999997e+01 4.5594000000e+01 5.1100000000e-04 0.0000e+00 1.0000e+00
       11 -1    0    0    0    0 -0.0000000000e+00 -0.0000000000e+00 -4.5593999997e+01 4.5594000000e+01 5.1100000000e-04 0.0000e+00 -1.0000e+00
       23  2    1    2    0    0 +0.0000000000e+00 +0.0000000000e+00 +0.0000000000e+00 9.1188000000e+01 9.1188000000e+01 4.6544e-14 0.0000e+00
  9900012  1    3    3    0    0 +3.2956611213e+00 +3.5349143724e+00 +1.8092047084e+01 7.2461570294e+01 7.0000000000e+01 1.9943e-04 -1.0000e+00
       12  1    3    3    0    0 -3.2956611213e+00 -3.5349143724e+00 -1.8092047084e+01 1.8726429706e+01 0.0000000000e+00 0.0000e+00 -1.0000e+00
</event>
<event>
 5      2 +6.9480500e-03 9.11880000e+01 7.81616400e-03 1.18400000e-01
      -11 -1    0    0    0    0 +0.0000000000e+00 +0.0000000000e+00 +4.5593999997e+01 4.5594000000e+01 5.1100000000e-04 0.0000e+00 -1.0000e+00
       11 -1    0    0    0    0 -0.0000000000e+00 -0.0000000000e+00 -4.5593999997e+01 4.5594000000e+01 5.1100000000e-04 0.0000e+00 1.0000e+00
       23  2    1    2    0    0 +0.0000000000e+00 +0.0000000000e+00 +0.0000000000e+00 9.1188000000e+01 9.1188000000e+01 7.0374e-14 0.0000e+00
  9900012  1    3    3    0    0 -3.5419971910e+00 +1.1939012616e+01 +1.3985471146e+01 7.2461570294e+01 7.0000000000e+01 5.4419e-05 -1.0000e+00
      -12  1    3    3    0    0 +3.5419971910e+00 -1.1939012616e+01 -1.3985471146e+01 1.8726429706e+01 0.0000000000e+00 0.0000e+00 1.0000e+00
</event>
<event>
 5      3 +6.9480500e-03 9.11880000e+01 7.81616400e-03 1.18400000e-01
      -11 -1    0    0    0    0 +0.0000000000e+00 +0.0000000000e+00 +4.5593999997e+01 4.5594000000e+01 5.1100000000e-04 0.0000e+00 1.0000e+00
       11 -1    0    0    0    0 -0.0000000000e+00 -0.0000000000e+00 -4.5593999997e+01 4.5594000000e+01 5.1100000000e-04 0.0000e+00 -1.0000e+00
       23  2    1    2    0    0 +0.0000000000e+00 +0.0000000000e+00 +0.0000000000e+00 9.1188000000e+01 9.1188000000e+01 1.5673e-14 0.0000e+00
  9900012  1    3    3    0    0 -1.0393150113e+01 -9.5158087674e+00 +1.2333328170e+01 7.2461570294e+01 7.0000000000e+01 2.3809e-04 1.0000e+00
       12  1    3    3    0    0 +1.0393150113e+01 +9.5158087674e+00 -1.2333328170e+01 1.8726429706e+01 0.0000000000e+00 0.0000e+00 -1.0000e+00
</event>
<event>
 5      6 +6.9480500e-03 9.11880000e+01 7.81616400e-03 1.18400000e-01
      -11 -1    0    0    0    0 +0.0000000000e+00 +0.0000000000e+00 +4.5593999997e+01 4.5594000000e+01 5.1100000000e-04 0.0000e+00 1.0000e+00
       11 -1    0    0    0    0 -0.0000000000e+00 -0.0000000000e+00 -4.5593999997e+01 4.5594000000e+01 5.1100000000e-04 0.0000e+00 -1.0000e+00
       23  2    1    2    0    0 +0.0000000000e+00 +0.0000000000e+00 +0.0000000000e+00 9.1188000000e+01 9.1188000000e+01 4.2232e-14 0.0000e+00
  9900012  1    3    3    0    0 +5.0280189378e+00 -6.0836962129e+00 -1.6981956173e+01 7.2461570294e+01 7.0000000000e+01 7.7848e-06 -1.0000e+00
      -12  1    3    3    0    0 -5.0280189378e+00 +6.0836962129e+00 +1.6981956173e+01 1.8726429706e+01 0.0000000000e+00 0.0000e+00 1.0000e+00
</event>
<event>
 5      7 +6.9480500e-03 9.11880000e+01 7.81616400e-03 1.18400000e-01
      -11 -1    0    0    0    0 +0.0000000000e+00 +0.0000000000e+00 +4.5593999997e+01 4.5594000000e+01 5.1100000000e-04 0.0000e+00 -1.0000e+00
       11 -1    0    0    0    0 -0.0000000000e+00 -0.0000000000e+00 -4.5593999997e+01 4.5594000000e+01 5.1100000000e-04 0.0000e+00 1.0000e+00
       23  2    1    2    0    0 +0.0000000000e+00 +0.0000000000e+00 +0.0000000000e+00 9.1188000000e+01 9.1188000000e+01 2.6744e-14 0.0000e+00
  9900012  1    3    3    0    0 +1.7513322702e+01 +3.7499979947e-03 -6.6304361394e+00 7.2461570294e+01 7.0000000000e+01 1.1691e-04 -1.0000e+00
       12  1    3    3    0    0 -1.7513322702e+01 -3.7499979947e-03 +6.6304361394e+00 1.8726429706e+01 0.0000000000e+00 0.0000e+00 -1.0000e+00
</event>
<event>
 5      2 +6.9480500e-03 9.11880000e+01 7.81616400e-03 1.18400000e-01
      -11 -1    0    0    0    0 +0.0000000000e+00 +0.0000000000e+00 +4.5593999997e+01 4.5594000000e+01 5.1100000000e-04 0.0000e+00 1.0000e+00
       11 -1    0    0    0    0 -0.0000000000e+00 -0.0000000000e+00 -4.5593999997e+01 4.5594000000e+01 5.1100000000e-04 0.0000e+00 -1.0000e+00
       23  2    1    2    0    0 +0.0000000000e+00 +0.0000000000e+00 +0.0000000000e+00 9.1188000000e+01 9.1188000000e+01 3.0352e-14 0.0000e+00
  9900012  1    3    3    0    0 +1.2722073705e+01 -1.1894004705e+01 +6.8819083291e+00 7.2461570294e+01 7.0000000000e+01 4.3910e-05 1.0000e+00
      -12  1    3    3    0    0 -1.2722073705e+01 +1.1894004705e+01 -6.8819083291e+00 1.8726429706e+01 0.0000000000e+00 0.0000e+00 1.0000e+00
</event>
<event>
 5      5 +6.9480500e-03 9.11880000e+01 7.81616400e-03 1.18400000e-01
      -11 -1    0    0    0    0 +0.0000000000e+00 +0.0000000000e+00 +4.5593999997e+01 4.5594000000e+01 5.1100000000e-04 0.0000e+00 1.0000e+00
       11 -1    0    0    0    0 -0.0000000000e+00 -0.0000000000e+00 -4.5593999997e+01 4.5594000000e+01 5.1100000000e-04 0.0000e+00 -1.0000e+00
       23  2    1    2    0    0 +0.0000000000e+00 +0.0000000000e+00 +0.0000000000e+00 9.1188000000e+01 9.1188000000e+01 6.7389e-14 0.0000e+00
  9900012  1    3    3    0    0 +5.1305656847e+00 -1.6532282507e+00 +1.7933859084e+01 7.2461570294e+01 7.0000000000e+01 3.0808e-04 1.0000e+00
       12  1    3    3    0    0 -5.1305656847e+00 +1.6532282507e+00 -1.7933859084e+01 1.8726429706e+01 0.0000000000e+00 0.0000e+00 -1.0000e+00
</event>
<event>
 5      7 +6.9480500e-03 9.11880000e+01 7.81616400e-03 1.18400000e-01
      -11 -1    0    0    0    0 +0.0000000000e+00 +0.0000000000e+00 +4.5593999997e+01 4.5594000000e+01 5.1100000000e-04 0.0000e+00 1.0000e+00
       11 -1    0    0    0    0 -0.0000000000e+00 -0.0000000000e+00 -4.5593999997e+01 4.5594000000e+01 5.1100000000e-04 0.0000e+00 -1.0000e+00
       23  2    1    2    0    0 +0.0000000000e+00 +0.0000000000e+00 +0.0000000000e+00 9.1188000000e+01 9.1188000000e+01 4.3224e-13 0.0000e+00
  9900012  1    3    3    0    0 +4.5150760497e+00 +7.7793115954e+00 +1.6424846084e+01 7.2461570294e+01 7.0000000000e+01 5.4465e-04 1.0000e+00
       12  1    3    3    0    0 -4.5150760497e+00 -7.7793115954e+00 -1.6424846084e+01 1.8726429706e+01 0.0000000000e+00 0.0000e+00 -1.0000e+00
</event>
<event>
 5      3 +6.9480500e-03 9.11880000e+01 7.81616400e-03 1.18400000e-01
      -11 -1    0    0    0    0 +0.0000000000e+00 +0.0000000000e+00 +4.5593999997e+01 4.5594000000e+01 5.1100000000e-04 0.0000e+00 -1.0000e+00
       11 -1    0    0    0    0 -0.0000000000e+00 -0.0000000000e+00 -4.5593999997e+01 4.5594000000e+01 5.1100000000e-04 0.0000e+00 1.0000e+00
       23  2    1    2    0    0 +0.0000000000e+00 +0.0000000000e+00 +0.0000000000e+00 9.1188000000e+01 9.1188000000e+01 4.0662e-14 0.0000e+00
  9900012  1    3    3    0    0 +1.2980720619e+01 -1.3497251713e+01 +6.5252821301e-02 7.2461570294e+01 7.0000000000e+01 1.0002e-05 -1.0000e+00
       12  1    3    3    0    0 -1.2980720619e+01 +1.3497251713e+01 -6.5252821301e-02 1.8726429706e+01 0.0000000000e+00 0.0000e+00 -1.0000e+00
</event>
<event>
 5      5 +6.9480500e-03 9.11880000e+01 7.81616400e-03 1.18400000e-01
      -11 -1    0    0    0    0 +0.0000000000e+00 +0.0000000000e+00 +4.5593999997e+01 4.5594000000e+01 5.1100000000e-04 0.0000e+00 -1.0000e+00
       11 -1    0    0    0    0 -0.0000000000e+00 -0.0000000000e+00 -4.5593999997e+01 4.5594000000e+01 5.1100000000e-04 0.0000e+00 1.0000e+00
       23  2    1    2    0    0 +0.0000000000e+00 +0.0000000000e+00 +0.0000000000e+00 9.1188000000e+01 9.1188000000e+01 8.6183e-14 0.0000e+00
  9900012  1    3    3    0    0 -6.4803800086e+00 +1.7176481218e+01 -3.6949069578e+00 7.2461570294e+01 7.0000000000e+01 2.9380e-06 1.0000e+00
       12  1    3    3    0    0 +6.4803800086e+00 -1.7176481218e+01 +3.6949069578e+00 1.8726429706e+01 0.0000000000e+00 0.0000e+00 -1.0000e+00
</event>
<event>
 5      3 +6.9480500e-03 9.11880000e+01 7.81616400e-03 1.18400000e-01
      -11 -1    0    0    0    0 +0.0000000000e+00 +0.0000000000e+00 +4.5593999997e+01 4.5594000000e+01 5.1100000000e-04 0.0000e+00 1.0000e+00
       11 -1    0    0    0    0 -0.0000000000e+00 -0.0000000000e+00 -4.5593999997e+01 4.5594000000e+01 5.1100000000e-04 0.0000e+00 -1.0000e+00
       23  2    1    2    0    0 +0.0000000000e+00 +0.0000000000e+00 +0.0000000000e+00 9.1188000000e+01 9.1188000000e+01 1.5915e-14 0.0000e+00
  9900012  1    3    3    0    0 +1.4316797382e+01 -1.0133495386e+01 +6.5590207742e+00 7.2461570294e+01 7.0000000000e+01 1.8246e-04 -1.0000e+00
       12  1    3    3    0    0 -1.4316797382e+01 +1.0133495386e+01 -6.5590207742e+00 1.8726429706e+01 0.0000000000e+00 0.0000e+00 -1.0000e+00
</event>
<event>
 5      6 +6.9480500e-03 9.11880000e+01 7.81616400e-03 1.18400000e-01
      -11 -1    0    0    0    0 +0.0000000000e+00 +0.0000000000e+00 +4.5593999997e+01 4.5594000000e+01 5.1100000000e-04 0.0000e+00 1.0000e+00
       11 -1    0    0    0    0 -0.0000000000e+00 -0.0000000000e+00 -4.5593999997e+01 4.5594000000e+01 5.1100000000e-04 0.0000e+00 -1.0000e+00
       23  2    1    2    0    0 +0.0000000000e+00 +0.0000000000e+00 +0.0000000000e+00 9.1188000000e+01 9.1188000000e+01 2.6636e-14 0.0000e+00
  9900012  1    3    3    0    0 -8.8274649221e+00 +1.6506790181e+01 -5.3000988207e-01 7.2461570294e+01 7.0000000000e+01 2.3048e-04 -1.0000e+00
      -12  1    3    3    0    0 +8.8274649221e+00 -1.6506790181e+01 +5.3000988207e-01 1.8726429706e+01 0.0000000000e+00 0.0000e+00 1.0000e+00
</event>
<event>
 5      2 +6.9480500e-03 9.11880000e+01 7.81616400e-03 1.18400000e-01
      -11 -1    0    0    0    0 +0.0000000000e+00 +0.0000000000e+00 +4.5593999997e+01 4.5594000000e+01 5.1100000000e-04 0.0000e+00 -1.0000e+00
       11 -1    0    0    0    0 -0.0000000000e+00 -0.0000000000e+00 -4.5593999997e+01 4.5594000000e+01 5.1100000000e-04 0.0000e+00 1.0000e+00
       23  2    1    2    0    0 +0.0000000000e+00 +0.0000000000e+00 +0.0000000000e+00 9.1188000000e+01 9.1188000000e+01 1.0632e-13 0.0000e+00
  9900012  1    3    3    0    0 -1.1689544115e+01 -1.3150036675e+01 +6.4117285774e+00 7.2461570294e+01 7.0000000000e+01 6.2832e-05 1.0000e+00
      -12  1    3    3    0    0 +1.1689544115e+01 +1.3150036675e+01 -6.4117285774e+00 1.8726429706e+01 0.0000000000e+00 0.0000e+00 1.0000e+00
</event>
<event>
 5      4 +6.9480500e-03 9.11880000e+01 7.81616400e-03 1.18400000e-01
      -11 -1    0    0    0    0 +0.0000000000e+00 +0.0000000000e+00 +4.5593999997e+01 4.5594000000e+01 5.1100000000e-04 0.0000e+00 -1.0000e+00
       11 -1    0    0    0    0 -0.0000000000e+00 -0.0000000000e+00 -4.5593999997e+01 4.5594000000e+01 5.1100000000e-04 0.0000e+00 1.0000e+00
       23  2    1    2    0    0 +0.0000000000e+00 +0.0000000000e+00 +0.0000000000e+00 9.1188000000e+01 9.1188000000e+01 3.9877e-15 0.0000e+00
  9900012  1    3    3    0    0 -6.3771017241e+00 -1.2741014215e+01 +1.2152296075e+01 7.2461570294e+01 7.0000000000e+01 2.9692e-05 1.0000e+00
      -12  1    3    3    0    0 +6.3771017241e+00 +1.2741014215e+01 -1.2152296075e+01 1.8726429706e+01 0.0000000000e+00 0.0000e+00 1.0000e+00
</event>
<event>
 5      4 +6.9480500e-03 9.11880000e+01 7.81616400e-03 1.18400000e-01
      -11 -1    0    0    0    0 +0.0000000000e+00 +0.0000000000e+00 +4.5593999997e+01 4.5594000000e+01 5.1100000000e-04 0.0000e+00 1.0000e+00
       11 -1    0    0    0    0 -0.0000000000e+00 -0.0000000000e+00 -4.5593999997e+01 4.5594000000e+01 5.1100000000e-04 0.0000e+00 -1.0000e+00
       23  2    1    2    0    0 +0.0000000000e+00 +0.0000000000e+00 +0.0000000000e+00 9.1188000000e+01 9.1188000000e+01 9.7868e-14 0.0000e+00
  9900012  1    3    3    0    0 +1.4692696113e+00 -7.8701502343e+00 -1.6928707913e+01 7.2461570294e+01 7.0000000000e+01 1.5077e-04 -1.0000e+00
      -12  1    3    3    0    0 -1.4692696113e+00 +7.8701502343e+00 +1.6928707913e+01 1.8726429706e+01 0.0000000000e+00 0.0000e+00 1.0000e+00
</event>
<event>
 5      8 +6.9480500e-03 9.11880000e+01 7.81616400e-03 1.18400000e-01
      -11 -1    0    0    0    0 +0.0000000000e+00 +0.0000000000e+00 +4.5593999997e+01 4.5594000000e+01 5.1100000000e-04 0.0000e+00 -1.0000e+00
       11 -1    0    0    0    0 -0.0000000000e+00 -0.0000000000e+00 -4.5593999997e+01 4.5594000000e+01 5.1100000000e-04 0.0000e+00 1.0000e+00
       23  2    1    2    0    0 +0.0000000000e+00 +0.0000000000e+00 +0.0000000000e+00 9.1188000000e+01 9.1188000000e+01 2.2066e-14 0.0000e+00
  9900012  1    3    3    0    0 -4.9445181169e+00 -1.6391101808e+01 -7.5870080819e+00 7.2461570294e+01 7.0000000000e+01 5.2098e-05 1.0000e+00
      -12  1    3    3    0    0 +4.9445181169e+00 +1.6391101808e+01 +7.5870080819e+00 1.8726429706e+01 0.0000000000e+00 0.0000e+00 1.0000e+00
</event>
</LesHouchesEvents>
