<event>
 8    1  0.2971508E-007  0.9118800E+02  0.7816164E-02  0.1184000E+00
        -11   -1    0    0    0    0  0.00000000000E+00  0.00000000000E+00  0.45593999997E+02  0.45594000000E+02  0.51100000000E-03 0.  1.
         11   -1    0    0    0    0 -0.00000000000E+00 -0.00000000000E+00 -0.45593999997E+02  0.45594000000E+02  0.51100000000E-03 0. -1.
         23    2    1    2    0    0  0.00000000000E+00  0.00000000000E+00  0.00000000000E+00  0.91188000000E+02  0.91188000000E+02 0.  0.
    9900012    2    3    3    0    0  0.11934112647E+02 -0.16970548338E+02 -0.30419722304E+02  0.54367054051E+02  0.39999931320E+02 0.  0.
        -12    1    3    3    0    0 -0.11934112647E+02  0.16970548338E+02  0.30419722304E+02  0.36820945949E+02  0.00000000000E+00 0.  1.
         11    1    4    4    0    0  0.20977582104E+02 -0.12546620820E+02 -0.32816196450E+02  0.40919181255E+02  0.51100000000E-03 0. -1.
        -11    1    4    4    0    0 -0.13823103025E+01 -0.26764110533E+01  0.44057695977E+01  0.53371119444E+01  0.51100000000E-03 0.  1.
         12    1    4    4    0    0 -0.76611591537E+01 -0.17475164643E+01 -0.20092954515E+01  0.81107608510E+01  0.00000000000E+00 0. -1.
</event>
<event>
 8    1  0.2971508E-007  0.9118800E+02  0.7816164E-02  0.1184000E+00
        -11   -1    0    0    0    0  0.00000000000E+00  0.00000000000E+00  0.45593999997E+02  0.45594000000E+02  0.51100000000E-03 0. -1.
         11   -1    0    0    0    0 -0.00000000000E+00 -0.00000000000E+00 -0.45593999997E+02  0.45594000000E+02  0.51100000000E-03 0.  1.
         23    2    1    2    0    0  0.35527136788E-14 -0.17763568394E-14  0.00000000000E+00  0.91188000000E+02  0.91188000000E+02 0.  0.
    9900012    2    3    3    0    0  0.25999019802E+02 -0.12007331887E+02  0.23144159917E+02  0.54367120217E+02  0.40000082159E+02 0.  0.
        -12    1    3    3    0    0 -0.25999019802E+02  0.12007331887E+02 -0.23144159917E+02  0.36820879783E+02  0.00000000000E+00 0.  1.
         11    1    4    4    0    0  0.28615460906E+01 -0.49269778001E+01  0.25837839219E+02  0.26458599586E+02  0.51100000000E-03 0. -1.
        -11    1    4    4    0    0  0.15181369490E+02 -0.60412518413E+00  0.39348570418E+01  0.15694650268E+02  0.51100000000E-03 0.  1.
         12    1    4    4    0    0  0.79561042211E+01 -0.64762289031E+01 -0.66285363437E+01  0.12213870363E+02  0.00000000000E+00 0. -1.
</event>
<event>
 8    1  0.2971508E-007  0.9118800E+02  0.7816164E-02  0.1184000E+00
        -11   -1    0    0    0    0  0.00000000000E+00  0.00000000000E+00  0.45593999997E+02  0.45594000000E+02  0.51100000000E-03 0.  1.
         11   -1    0    0    0    0 -0.00000000000E+00 -0.00000000000E+00 -0.45593999997E+02  0.45594000000E+02  0.51100000000E-03 0. -1.
         23    2    1    2    0    0  0.00000000000E+00  0.00000000000E+00  0.00000000000E+00  0.91188000000E+02  0.91188000000E+02 0.  0.
    9900012    2    3    3    0    0 -0.21156697896E+02 -0.18063522869E+02 -0.24122275160E+02  0.54367070039E+02  0.39999967768E+02 0.  0.
        -12    1    3    3    0    0  0.21156697896E+02  0.18063522869E+02  0.24122275160E+02  0.36820929961E+02  0.00000000000E+00 0.  1.
         11    1    4    4    0    0 -0.17488789591E+02  0.18043440952E+01 -0.68004958716E+00  0.17594768730E+02  0.51100000000E-03 0. -1.
        -11    1    4    4    0    0 -0.99111551483E+01 -0.17319611809E+02 -0.11429621908E+02  0.22996439003E+02  0.51100000000E-03 0.  1.
        -12    1    4    4    0    0  0.62432468428E+01 -0.25482551549E+01 -0.12012603665E+02  0.13775862306E+02  0.00000000000E+00 0.  1.
</event>
<event>
 8    1  0.2971508E-007  0.9118800E+02  0.7816164E-02  0.1184000E+00
        -11   -1    0    0    0    0  0.00000000000E+00  0.00000000000E+00  0.45593999997E+02  0.45594000000E+02  0.51100000000E-03 0.  1.
         11   -1    0    0    0    0 -0.00000000000E+00 -0.00000000000E+00 -0.45593999997E+02  0.45594000000E+02  0.51100000000E-03 0. -1.
         23    2    1    2    0    0 -0.17763568394E-14  0.00000000000E+00  0.00000000000E+00  0.91188000000E+02  0.91188000000E+02 0.  0.
    9900012    2    3    3    0    0  0.15243650516E+02  0.70068452044E+01  0.32776733918E+02  0.54367094971E+02  0.40000024606E+02 0.  0.
         12    1    3    3    0    0 -0.15243650516E+02 -0.70068452044E+01 -0.32776733918E+02  0.36820905029E+02  0.00000000000E+00 0. -1.
         11    1    4    4    0    0 -0.29117996290E+01 -0.72015522067E+01  0.25075748710E+02  0.26251363867E+02  0.51100000000E-03 0.  1.
        -11    1    4    4    0    0 -0.75013826092E-01  0.45952268741E+01 -0.23766925843E+01  0.51740124661E+01  0.51100000000E-03 0. -1.
        -12    1    4    4    0    0  0.18230463971E+02  0.96131705370E+01  0.10077677793E+02  0.22941718638E+02  0.00000000000E+00 0.  1.
</event>
<event>
 8    1  0.2971508E-007  0.9118800E+02  0.7816164E-02  0.1184000E+00
        -11   -1    0    0    0    0  0.00000000000E+00  0.00000000000E+00  0.45593999997E+02  0.45594000000E+02  0.51100000000E-03 0.  1.
         11   -1    0    0    0    0 -0.00000000000E+00 -0.00000000000E+00 -0.45593999997E+02  0.45594000000E+02  0.51100000000E-03 0. -1.
         23    2    1    2    0    0  0.00000000000E+00  0.00000000000E+00  0.00000000000E+00  0.91188000000E+02  0.91188000000E+02 0.  0.
    9900012    2    3    3    0    0  0.22916159115E+02  0.21847432949E+02  0.18796856061E+02  0.54367048453E+02  0.39999918558E+02 0.  0.
         12    1    3    3    0    0 -0.22916159115E+02 -0.21847432949E+02 -0.18796856061E+02  0.36820951547E+02  0.00000000000E+00 0. -1.
         11    1    4    4    0    0  0.18734662731E+01 -0.53177080697E+01 -0.71950221913E+01  0.91409102165E+01  0.51100000000E-03 0. -1.
        -11    1    4    4    0    0  0.75380561004E+01  0.14269424487E+02  0.44963795327E+01  0.16752796606E+02  0.51100000000E-03 0.  1.
        -12    1    4    4    0    0  0.13504636741E+02  0.12895716532E+02  0.21495498720E+02  0.28473341630E+02  0.00000000000E+00 0.  1.
</event>
<event>
 8    1  0.2971508E-007  0.9118800E+02  0.7816164E-02  0.1184000E+00
        -11   -1    0    0    0    0  0.00000000000E+00  0.00000000000E+00  0.45593999997E+02  0.45594000000E+02  0.51100000000E-03 0. -1.
         11   -1    0    0    0    0 -0.00000000000E+00 -0.00000000000E+00 -0.45593999997E+02  0.45594000000E+02  0.51100000000E-03 0.  1.
         23    2    1    2    0    0  0.00000000000E+00  0.00000000000E+00  0.17763568394E-14  0.91188000000E+02  0.91188000000E+02 0.  0.
    9900012    2    3    3    0    0  0.32514859539E+02  0.12524988094E+02  0.11903293550E+02  0.54367084545E+02  0.40000000837E+02 0.  0.
        -12    1    3    3    0    0 -0.32514859539E+02 -0.12524988094E+02 -0.11903293550E+02  0.36820915455E+02  0.00000000000E+00 0.  1.
         11    1    4    4    0    0 -0.46695106529E+00  0.10198284762E+02  0.96311129059E+01  0.14035005930E+02  0.51100000000E-03 0. -1.
        -11    1    4    4    0    0  0.14542506795E+02 -0.41004121546E+01 -0.91942944340E+01  0.17687083822E+02  0.51100000000E-03 0.  1.
         12    1    4    4    0    0  0.18439303809E+02  0.64271154872E+01  0.11466475078E+02  0.22644994793E+02  0.00000000000E+00 0. -1.
</event>
<event>
 8    1  0.2971508E-007  0.9118800E+02  0.7816164E-02  0.1184000E+00
        -11   -1    0    0    0    0  0.00000000000E+00  0.00000000000E+00  0.45593999997E+02  0.45594000000E+02  0.51100000000E-03 0. -1.
         11   -1    0    0    0    0 -0.00000000000E+00 -0.00000000000E+00 -0.45593999997E+02  0.45594000000E+02  0.51100000000E-03 0.  1.
         23    2    1    2    0    0  0.53290705182E-14  0.00000000000E+00  0.00000000000E+00  0.91188000000E+02  0.91188000000E+02 0.  0.
    9900012    2    3    3    0    0  0.11638668546E+02 -0.18164053884E+02  0.29839377918E+02  0.54367082934E+02  0.39999997165E+02 0.  0.
        -12    1    3    3    0    0 -0.11638668546E+02  0.18164053884E+02 -0.29839377918E+02  0.36820917066E+02  0.00000000000E+00 0.  1.
         11    1    4    4    0    0 -0.31684133627E+01  0.13028592403E+01 -0.56226722347E+00  0.34716610043E+01  0.51100000000E-03 0. -1.
        -11    1    4    4    0    0  0.20611064596E+02 -0.40265999024E+01  0.26736351904E+02  0.33997970586E+02  0.51100000000E-03 0.  1.
         12    1    4    4    0    0 -0.58039826877E+01 -0.15440313221E+02  0.36652932383E+01  0.16897451344E+02  0.00000000000E+00 0. -1.
</event>
<event>
 8    1  0.2971508E-007  0.9118800E+02  0.7816164E-02  0.1184000E+00
        -11   -1    0    0    0    0  0.00000000000E+00  0.00000000000E+00  0.45593999997E+02  0.45594000000E+02  0.51100000000E-03 0. -1.
         11   -1    0    0    0    0 -0.00000000000E+00 -0.00000000000E+00 -0.45593999997E+02  0.45594000000E+02  0.51100000000E-03 0.  1.
         23    2    1    2    0    0 -0.35527136788E-14  0.00000000000E+00  0.35527136788E-14  0.91188000000E+02  0.91188000000E+02 0.  0.
    9900012    2    3    3    0    0  0.24585054552E+02  0.40212946864E+01 -0.27114281040E+02  0.54367082649E+02  0.39999996514E+02 0.  0.
         12    1    3    3    0    0 -0.24585054552E+02 -0.40212946864E+01  0.27114281040E+02  0.36820917351E+02  0.00000000000E+00 0. -1.
         11    1    4    4    0    0 -0.24329738737E+01  0.78186232698E+01 -0.98527758022E+01  0.12811222540E+02  0.51100000000E-03 0. -1.
        -11    1    4    4    0    0  0.23090771628E+02  0.64172392687E+01 -0.38941121696E+01  0.24280214251E+02  0.51100000000E-03 0.  1.
        -12    1    4    4    0    0  0.39272567971E+01 -0.10214567852E+02 -0.13367393068E+02  0.17275645857E+02  0.00000000000E+00 0.  1.
</event>
<event>
 8    1  0.2971508E-007  0.9118800E+02  0.7816164E-02  0.1184000E+00
        -11   -1    0    0    0    0  0.00000000000E+00  0.00000000000E+00  0.45593999997E+02  0.45594000000E+02  0.51100000000E-03 0.  1.
         11   -1    0    0    0    0 -0.00000000000E+00 -0.00000000000E+00 -0.45593999997E+02  0.45594000000E+02  0.51100000000E-03 0. -1.
         23    2    1    2    0    0  0.00000000000E+00  0.53290705182E-14 -0.17763568394E-14  0.91188000000E+02  0.91188000000E+02 0.  0.
    9900012    2    3    3    0    0 -0.32984678335E+02 -0.12557475795E+02  0.10492802080E+02  0.54367107850E+02  0.40000053966E+02 0.  0.
         12    1    3    3    0    0  0.32984678335E+02  0.12557475795E+02 -0.10492802080E+02  0.36820892150E+02  0.00000000000E+00 0. -1.
         11    1    4    4    0    0  0.30704773105E+01 -0.10176924400E+02  0.50733943062E+00  0.10642133936E+02  0.51100000000E-03 0. -1.
        -11    1    4    4    0    0 -0.31113810697E+02 -0.80687432522E+01  0.14145688701E+02  0.35118005963E+02  0.51100000000E-03 0.  1.
        -12    1    4    4    0    0 -0.49413449487E+01  0.56881918573E+01 -0.41602260517E+01  0.86069679510E+01  0.00000000000E+00 0.  1.
</event>
<event>
 8    1  0.2971508E-007  0.9118800E+02  0.7816164E-02  0.1184000E+00
        -11   -1    0    0    0    0  0.00000000000E+00  0.00000000000E+00  0.45593999997E+02  0.45594000000E+02  0.51100000000E-03 0.  1.
         11   -1    0    0    0    0 -0.00000000000E+00 -0.00000000000E+00 -0.45593999997E+02  0.45594000000E+02  0.51100000000E-03 0. -1.
         23    2    1    2    0    0  0.35527136788E-14  0.00000000000E+00  0.35527136788E-14  0.91188000000E+02  0.91188000000E+02 0.  0.
    9900012    2    3    3    0    0  0.16993068816E+02  0.24244756309E+02  0.21890814459E+02  0.54367077226E+02  0.39999984153E+02 0.  0.
         12    1    3    3    0    0 -0.16993068816E+02 -0.24244756309E+02 -0.21890814459E+02  0.36820922774E+02  0.00000000000E+00 0. -1.
         11    1    4    4    0    0  0.48188564006E+01 -0.47821138235E+01 -0.37308833743E+01  0.77465786412E+01  0.51100000000E-03 0. -1.
        -11    1    4    4    0    0  0.17234093405E+02  0.17938576702E+02  0.23554628935E+02  0.34258240674E+02  0.51100000000E-03 0.  1.
         12    1    4    4    0    0 -0.50598809893E+01  0.11088293430E+02  0.20670688977E+01  0.12362257911E+02  0.00000000000E+00 0. -1.
</event>
<event>
 8    1  0.2971508E-007  0.9118800E+02  0.7816164E-02  0.1184000E+00
        -11   -1    0    0    0    0  0.00000000000E+00  0.00000000000E+00  0.45593999997E+02  0.45594000000E+02  0.51100000000E-03 0. -1.
         11   -1    0    0    0    0 -0.00000000000E+00 -0.00000000000E+00 -0.45593999997E+02  0.45594000000E+02  0.51100000000E-03 0.  1.
         23    2    1    2    0    0  0.00000000000E+00  0.35527136788E-14  0.35527136788E-14  0.91188000000E+02  0.91188000000E+02 0.  0.
    9900012    2    3    3    0    0 -0.20696137021E+02 -0.24070798775E+02 -0.18656019863E+02  0.54367074993E+02  0.39999979061E+02 0.  0.
         12    1    3    3    0    0  0.20696137021E+02  0.24070798775E+02  0.18656019863E+02  0.36820925007E+02  0.00000000000E+00 0. -1.
         11    1    4    4    0    0 -0.27392882880E+01 -0.82393003141E+01 -0.11302844498E+02  0.14252861607E+02  0.51100000000E-03 0. -1.
        -11    1    4    4    0    0  0.71396987175E+01  0.14555427388E+01 -0.62827922798E+01  0.96211943923E+01  0.51100000000E-03 0.  1.
         12    1    4    4    0    0 -0.25096547450E+02 -0.17287041200E+02 -0.10703830849E+01  0.30493018993E+02  0.00000000000E+00 0. -1.
</event>
<event>
 8    1  0.2971508E-007  0.9118800E+02  0.7816164E-02  0.1184000E+00
        -11   -1    0    0    0    0  0.00000000000E+00  0.00000000000E+00  0.45593999997E+02  0.45594000000E+02  0.51100000000E-03 0.  1.
         11   -1    0    0    0    0 -0.00000000000E+00 -0.00000000000E+00 -0.45593999997E+02  0.45594000000E+02  0.51100000000E-03 0. -1.
         23    2    1    2    0    0  0.35527136788E-14  0.35527136788E-14  0.26645352591E-14  0.91188000000E+02  0.91188000000E+02 0.  0.
    9900012    2    3    3    0    0 -0.21389203846E+02 -0.28985287454E+02 -0.76246291127E+01  0.54367083403E+02  0.39999998233E+02 0.  0.
        -12    1    3    3    0    0  0.21389203846E+02  0.28985287454E+02  0.76246291127E+01  0.36820916597E+02  0.00000000000E+00 0.  1.
         11    1    4    4    0    0  0.21852789136E+01 -0.44756476599E+01  0.30194632290E+01  0.58244333937E+01  0.51100000000E-03 0. -1.
        -11    1    4    4    0    0  0.15172984898E+01 -0.59113701333E+01  0.95618691726E+01  0.11343537098E+02  0.51100000000E-03 0.  1.
         12    1    4    4    0    0 -0.25091781249E+02 -0.18598269661E+02 -0.20205961514E+02  0.37199112911E+02  0.00000000000E+00 0. -1.
</event>
<event>
 8    1  0.2971508E-007  0.9118800E+02  0.7816164E-02  0.1184000E+00
        -11   -1    0    0    0    0  0.00000000000E+00  0.00000000000E+00  0.45593999997E+02  0.45594000000E+02  0.51100000000E-03 0.  1.
         11   -1    0    0    0    0 -0.00000000000E+00 -0.00000000000E+00 -0.45593999997E+02  0.45594000000E+02  0.51100000000E-03 0. -1.
         23    2    1    2    0    0  0.00000000000E+00 -0.35527136788E-14 -0.35527136788E-14  0.91188000000E+02  0.91188000000E+02 0.  0.
    9900012    2    3    3    0    0 -0.22358009575E+02 -0.21082708164E+02 -0.20283555066E+02  0.54367030678E+02  0.39999878037E+02 0.  0.
        -12    1    3    3    0    0  0.22358009575E+02  0.21082708164E+02  0.20283555066E+02  0.36820969322E+02  0.00000000000E+00 0.  1.
         11    1    4    4    0    0 -0.63328303493E+00  0.85179997930E+01 -0.89583160261E+01  0.12377754003E+02  0.51100000000E-03 0.  1.
        -11    1    4    4    0    0 -0.16095869831E+02 -0.26619136656E+02 -0.26405147022E+01  0.31219029135E+02  0.51100000000E-03 0. -1.
         12    1    4    4    0    0 -0.56288567085E+01 -0.29815713003E+01 -0.86847243377E+01  0.10770247541E+02  0.00000000000E+00 0. -1.
</event>
<event>
 8    1  0.2971508E-007  0.9118800E+02  0.7816164E-02  0.1184000E+00
        -11   -1    0    0    0    0  0.00000000000E+00  0.00000000000E+00  0.45593999997E+02  0.45594000000E+02  0.51100000000E-03 0. -1.
         11   -1    0    0    0    0 -0.00000000000E+00 -0.00000000000E+00 -0.45593999997E+02  0.45594000000E+02  0.51100000000E-03 0.  1.
         23    2    1    2    0    0  0.00000000000E+00 -0.17763568394E-14 -0.88817841970E-15  0.91188000000E+02  0.91188000000E+02 0.  0.
    9900012    2    3    3    0    0 -0.33465065391E+02 -0.14706303836E+02  0.44264653803E+01  0.54367087872E+02  0.40000008422E+02 0.  0.
        -12    1    3    3    0    0  0.33465065391E+02  0.14706303836E+02 -0.44264653803E+01  0.36820912128E+02  0.00000000000E+00 0.  1.
         11    1    4    4    0    0 -0.31890116200E+01 -0.55579827184E+01 -0.30759611449E+01  0.71079184180E+01  0.51100000000E-03 0. -1.
        -11    1    4    4    0    0 -0.37055945253E+01 -0.15983715558E+02 -0.49383240634E+01  0.17134691086E+02  0.51100000000E-03 0.  1.
        -12    1    4    4    0    0 -0.26570459246E+02  0.68353944398E+01  0.12440750589E+02  0.30124478367E+02  0.00000000000E+00 0.  1.
</event>
<event>
 8    1  0.2971508E-007  0.9118800E+02  0.7816164E-02  0.1184000E+00
        -11   -1    0    0    0    0  0.00000000000E+00  0.00000000000E+00  0.45593999997E+02  0.45594000000E+02  0.51100000000E-03 0. -1.
         11   -1    0    0    0    0 -0.00000000000E+00 -0.00000000000E+00 -0.45593999997E+02  0.45594000000E+02  0.51100000000E-03 0.  1.
         23    2    1    2    0    0  0.17763568394E-14  0.00000000000E+00  0.17763568394E-14  0.91188000000E+02  0.91188000000E+02 0.  0.
    9900012    2    3    3    0    0  0.76037683003E+01 -0.32869445176E+02  0.14749993304E+02  0.54367081747E+02  0.39999994458E+02 0.  0.
        -12    1    3    3    0    0 -0.76037683003E+01  0.32869445176E+02 -0.14749993304E+02  0.36820918253E+02  0.00000000000E+00 0.  1.
         11    1    4    4    0    0  0.14550295816E+02 -0.25917000870E+02 -0.34443601061E+01  0.29920990278E+02  0.51100000000E-03 0. -1.
        -11    1    4    4    0    0  0.36903425668E+01 -0.23400043560E+01  0.28611564683E+01  0.52230704805E+01  0.51100000000E-03 0.  1.
        -12    1    4    4    0    0 -0.10636870082E+02 -0.46124399497E+01  0.15333196942E+02  0.19223020988E+02  0.00000000000E+00 0.  1.
</event>
<event>
 8    1  0.2971508E-007  0.9118800E+02  0.7816164E-02  0.1184000E+00
        -11   -1    0    0    0    0  0.00000000000E+00  0.00000000000E+00  0.45593999997E+02  0.45594000000E+02  0.51100000000E-03 0.  1.
         11   -1    0    0    0    0 -0.00000000000E+00 -0.00000000000E+00 -0.45593999997E+02  0.45594000000E+02  0.51100000000E-03 0. -1.
         23    2    1    2    0    0  0.00000000000E+00 -0.17763568394E-14  0.00000000000E+00  0.91188000000E+02  0.91188000000E+02 0.  0.
    9900012    2    3    3    0    0  0.21892956056E+02 -0.12137124657E+02  0.27003120302E+02  0.54367084396E+02  0.40000000498E+02 0.  0.
         12    1    3    3    0    0 -0.21892956056E+02  0.12137124657E+02 -0.27003120302E+02  0.36820915604E+02  0.00000000000E+00 0. -1.
         11    1    4    4    0    0  0.26048338250E+02 -0.31240848313E+01  0.20033655762E+02  0.33009440999E+02  0.51100000000E-03 0.  1.
        -11    1    4    4    0    0 -0.10471316213E+02 -0.89715732707E+01  0.38685795501E+01  0.14321434920E+02  0.51100000000E-03 0. -1.
         12    1    4    4    0    0  0.63159340190E+01 -0.41466555315E-01  0.31008849902E+01  0.70362084769E+01  0.00000000000E+00 0. -1.
</event>
<event>
 8    1  0.2971508E-007  0.9118800E+02  0.7816164E-02  0.1184000E+00
        -11   -1    0    0    0    0  0.00000000000E+00  0.00000000000E+00  0.45593999997E+02  0.45594000000E+02  0.51100000000E-03 0. -1.
         11   -1    0    0    0    0 -0.00000000000E+00 -0.00000000000E+00 -0.45593999997E+02  0.45594000000E+02  0.51100000000E-03 0.  1.
         23    2    1    2    0    0  0.00000000000E+00  0.00000000000E+00  0.00000000000E+00  0.91188000000E+02  0.91188000000E+02 0.  0.
    9900012    2    3    3    0    0  0.18837483255E+02  0.24604885434E+02  0.19887890844E+02  0.54367090657E+02  0.40000014771E+02 0.  0.
        -12    1    3    3    0    0 -0.18837483255E+02 -0.24604885434E+02 -0.19887890844E+02  0.36820909343E+02  0.00000000000E+00 0.  1.
         11    1    4    4    0    0  0.24109820878E+02  0.85029900228E+01  0.20127420450E+01  0.25644403539E+02  0.51100000000E-03 0. -1.
        -11    1    4    4    0    0 -0.46720486085E+01  0.14220291005E+02  0.51260899800E+01  0.15821552175E+02  0.51100000000E-03 0.  1.
         12    1    4    4    0    0 -0.60028901401E+00  0.18816044059E+01  0.12749058819E+02  0.12901134943E+02  0.00000000000E+00 0. -1.
</event>
<event>
 8    1  0.2971508E-007  0.9118800E+02  0.7816164E-02  0.1184000E+00
        -11   -1    0    0    0    0  0.00000000000E+00  0.00000000000E+00  0.45593999997E+02  0.45594000000E+02  0.51100000000E-03 0.  1.
         11   -1    0    0    0    0 -0.00000000000E+00 -0.00000000000E+00 -0.45593999997E+02  0.45594000000E+02  0.51100000000E-03 0. -1.
         23    2    1    2    0    0  0.00000000000E+00  0.00000000000E+00  0.88817841970E-15  0.91188000000E+02  0.91188000000E+02 0.  0.
    9900012    2    3    3    0    0 -0.27395962979E+01  0.36713310105E+02  0.63808361924E+00  0.54367086412E+02  0.40000005094E+02 0.  0.
        -12    1    3    3    0    0  0.27395962979E+01 -0.36713310105E+02 -0.63808361924E+00  0.36820913588E+02  0.00000000000E+00 0.  1.
         11    1    4    4    0    0 -0.23516416286E+01  0.30094925658E+02 -0.17187159757E+02  0.34736626628E+02  0.51100000000E-03 0. -1.
        -11    1    4    4    0    0  0.19491809400E+01  0.11490725146E+01  0.54074866709E+01  0.58617903697E+01  0.51100000000E-03 0.  1.
        -12    1    4    4    0    0 -0.23371356093E+01  0.54693119321E+01  0.12417756705E+02  0.13768669415E+02  0.00000000000E+00 0.  1.
</event>
<event>
 8    1  0.2971508E-007  0.9118800E+02  0.7816164E-02  0.1184000E+00
        -11   -1    0    0    0    0  0.00000000000E+00  0.00000000000E+00  0.45593999997E+02  0.45594000000E+02  0.51100000000E-03 0. -1.
         11   -1    0    0    0    0 -0.00000000000E+00 -0.00000000000E+00 -0.45593999997E+02  0.45594000000E+02  0.51100000000E-03 0.  1.
         23    2    1    2    0    0 -0.35527136788E-14  0.00000000000E+00  0.00000000000E+00  0.91188000000E+02  0.91188000000E+02 0.  0.
    9900012    2    3    3    0    0 -0.21298016736E+02 -0.28415548655E+02 -0.97329900464E+01  0.54367081795E+02  0.39999994567E+02 0.  0.
        -12    1    3    3    0    0  0.21298016736E+02  0.28415548655E+02  0.97329900464E+01  0.36820918205E+02  0.00000000000E+00 0.  1.
         11    1    4    4    0    0  0.50528686379E+01 -0.14210669005E+02 -0.47458480809E+01  0.15811314597E+02  0.51100000000E-03 0. -1.
        -11    1    4    4    0    0 -0.19094046717E+02  0.18642525807E+01  0.26012615745E+01  0.19360387903E+02  0.51100000000E-03 0.  1.
         12    1    4    4    0    0 -0.72568386563E+01 -0.16069132231E+02 -0.75884035400E+01  0.19195379294E+02  0.00000000000E+00 0. -1.
</event>
<event>
 8    1  0.2971508E-007  0.9118800E+02  0.7816164E-02  0.1184000E+00
        -11   -1    0    0    0    0  0.00000000000E+00  0.00000000000E+00  0.45593999997E+02  0.45594000000E+02  0.51100000000E-03 0. -1.
         11   -1    0    0    0    0 -0.00000000000E+00 -0.00000000000E+00 -0.45593999997E+02  0.45594000000E+02  0.51100000000E-03 0.  1.
         23    2    1    2    0    0  0.00000000000E+00  0.00000000000E+00  0.00000000000E+00  0.91188000000E+02  0.91188000000E+02 0.  0.
    9900012    2    3    3    0    0  0.14233758554E+02 -0.90404295882E+01  0.32732995401E+02  0.54367105964E+02  0.40000049666E+02 0.  0.
        -12    1    3    3    0    0 -0.14233758554E+02  0.90404295882E+01 -0.32732995401E+02  0.36820894036E+02  0.00000000000E+00 0.  1.
         11    1    4    4    0    0  0.77482255034E+01 -0.13749161161E+02  0.22512135469E+02  0.27493102311E+02  0.51100000000E-03 0.  1.
        -11    1    4    4    0    0  0.30350388691E+01 -0.20723474196E+01  0.16564886243E+02  0.16967661632E+02  0.51100000000E-03 0. -1.
        -12    1    4    4    0    0  0.34504941812E+01  0.67810789922E+01 -0.63440263110E+01  0.99063420205E+01  0.00000000000E+00 0.  1.
</event>
<event>
 8    1  0.2971508E-007  0.9118800E+02  0.7816164E-02  0.1184000E+00
        -11   -1    0    0    0    0  0.00000000000E+00  0.00000000000E+00  0.45593999997E+02  0.45594000000E+02  0.51100000000E-03 0. -1.
         11   -1    0    0    0    0 -0.00000000000E+00 -0.00000000000E+00 -0.45593999997E+02  0.45594000000E+02  0.51100000000E-03 0.  1.
         23    2    1    2    0    0  0.00000000000E+00  0.00000000000E+00  0.35527136788E-14  0.91188000000E+02  0.91188000000E+02 0.  0.
    9900012    2    3    3    0    0  0.82453554443E+01 -0.26118307670E+02 -0.24609511673E+02  0.54367082755E+02  0.39999996758E+02 0.  0.
         12    1    3    3    0    0 -0.82453554443E+01  0.26118307670E+02  0.24609511673E+02  0.36820917245E+02  0.00000000000E+00 0. -1.
         11    1    4    4    0    0  0.61587362347E+00 -0.79878811982E+01 -0.10889721171E+02  0.13519303746E+02  0.51100000000E-03 0.  1.
        -11    1    4    4    0    0  0.99406591386E+01 -0.87495388529E+01 -0.23579385520E+02  0.27043641693E+02  0.51100000000E-03 0. -1.
         12    1    4    4    0    0 -0.23111773178E+01 -0.93808876191E+01  0.98595950180E+01  0.13804137316E+02  0.00000000000E+00 0. -1.
</event>
<event>
 8    1  0.2971508E-007  0.9118800E+02  0.7816164E-02  0.1184000E+00
        -11   -1    0    0    0    0  0.00000000000E+00  0.00000000000E+00  0.45593999997E+02  0.45594000000E+02  0.51100000000E-03 0.  1.
         11   -1    0    0    0    0 -0.00000000000E+00 -0.00000000000E+00 -0.45593999997E+02  0.45594000000E+02  0.51100000000E-03 0. -1.
         23    2    1    2    0    0  0.17763568394E-14 -0.35527136788E-14 -0.35527136788E-14  0.91188000000E+02  0.91188000000E+02 0.  0.
    9900012    2    3    3    0    0 -0.80136192286E+01  0.20005164609E+02  0.29855571338E+02  0.54367084150E+02  0.39999999936E+02 0.  0.
         12    1    3    3    0    0  0.80136192286E+01 -0.20005164609E+02 -0.29855571338E+02  0.36820915850E+02  0.00000000000E+00 0. -1.
         11    1    4    4    0    0  0.34128791984E+01 -0.29752947479E+01 -0.55048757181E+01  0.71276770545E+01  0.51100000000E-03 0. -1.
        -11    1    4    4    0    0  0.14850559768E+01  0.12363209386E+02  0.23969704370E+02  0.27011128547E+02  0.51100000000E-03 0.  1.
        -12    1    4    4    0    0 -0.12911554404E+02  0.10617249971E+02  0.11390742686E+02  0.20228278548E+02  0.00000000000E+00 0.  1.
</event>
<event>
 8    1  0.2971508E-007  0.9118800E+02  0.7816164E-02  0.1184000E+00
        -11   -1    0    0    0    0  0.00000000000E+00  0.00000000000E+00  0.45593999997E+02  0.45594000000E+02  0.51100000000E-03 0.  1.
         11   -1    0    0    0    0 -0.00000000000E+00 -0.00000000000E+00 -0.45593999997E+02  0.45594000000E+02  0.51100000000E-03 0. -1.
         23    2    1    2    0    0  0.88817841970E-15  0.00000000000E+00 -0.88817841970E-15  0.91188000000E+02  0.91188000000E+02 0.  0.
    9900012    2    3    3    0    0  0.78267170486E+01  0.35716427426E+02 -0.43425911295E+01  0.54367098523E+02  0.40000032704E+02 0.  0.
         12    1    3    3    0    0 -0.78267170486E+01 -0.35716427426E+02  0.43425911295E+01  0.36820901477E+02  0.00000000000E+00 0. -1.
         11    1    4    4    0    0 -0.57432162451E+01  0.65112697969E+01 -0.25800842068E+01  0.90574832035E+01  0.51100000000E-03 0. -1.
        -11    1    4    4    0    0 -0.25329984206E+01  0.27115976925E+02 -0.72274979506E+01  0.28176745953E+02  0.51100000000E-03 0.  1.
        -12    1    4    4    0    0  0.16102931714E+02  0.20891807038E+01  0.54649910279E+01  0.17132869367E+02  0.00000000000E+00 0.  1.
</event>
<event>
 8    1  0.2971508E-007  0.9118800E+02  0.7816164E-02  0.1184000E+00
        -11   -1    0    0    0    0  0.00000000000E+00  0.00000000000E+00  0.45593999997E+02  0.45594000000E+02  0.51100000000E-03 0. -1.
         11   -1    0    0    0    0 -0.00000000000E+00 -0.00000000000E+00 -0.45593999997E+02  0.45594000000E+02  0.51100000000E-03 0.  1.
         23    2    1    2    0    0  0.00000000000E+00  0.17763568394E-14 -0.35527136788E-14  0.91188000000E+02  0.91188000000E+02 0.  0.
    9900012    2    3    3    0    0  0.20148290982E+02  0.99876402881E+01  0.29156020326E+02  0.54367080548E+02  0.39999991726E+02 0.  0.
        -12    1    3    3    0    0 -0.20148290982E+02 -0.99876402881E+01 -0.29156020326E+02  0.36820919452E+02  0.00000000000E+00 0.  1.
         11    1    4    4    0    0  0.97402844251E-01 -0.44487285334E+01 -0.42550532319E+01  0.61567971499E+01  0.51100000000E-03 0.  1.
        -11    1    4    4    0    0  0.15333674255E+02 -0.62085075371E+00  0.27244380878E+02  0.31269207082E+02  0.51100000000E-03 0. -1.
         12    1    4    4    0    0  0.47172138827E+01  0.15057219575E+02  0.61666926794E+01  0.16941076316E+02  0.00000000000E+00 0. -1.
</event>
<event>
 8    1  0.2971508E-007  0.9118800E+02  0.7816164E-02  0.1184000E+00
        -11   -1    0    0    0    0  0.00000000000E+00  0.00000000000E+00  0.45593999997E+02  0.45594000000E+02  0.51100000000E-03 0.  1.
         11   -1    0    0    0    0 -0.00000000000E+00 -0.00000000000E+00 -0.45593999997E+02  0.45594000000E+02  0.51100000000E-03 0. -1.
         23    2    1    2    0    0 -0.71054273576E-14 -0.13322676296E-14  0.00000000000E+00  0.91188000000E+02  0.91188000000E+02 0.  0.
    9900012    2    3    3    0    0  0.32822532391E+02  0.31834954506E+01 -0.16380709476E+02  0.54367069555E+02  0.39999966665E+02 0.  0.
        -12    1    3    3    0    0 -0.32822532391E+02 -0.31834954506E+01  0.16380709476E+02  0.36820930445E+02  0.00000000000E+00 0.  1.
         11    1    4    4    0    0  0.15455205146E+02 -0.23085229561E+01  0.28690325801E+01  0.15887856764E+02  0.51100000000E-03 0.  1.
        -11    1    4    4    0    0 -0.12030941410E+01  0.83284849532E+01 -0.17737837224E+02  0.19632675996E+02  0.51100000000E-03 0. -1.
         12    1    4    4    0    0  0.18570421387E+02 -0.28364665465E+01 -0.15119048321E+01  0.18846536795E+02  0.00000000000E+00 0. -1.
</event>
<event>
 8    1  0.2971508E-007  0.9118800E+02  0.7816164E-02  0.1184000E+00
        -11   -1    0    0    0    0  0.00000000000E+00  0.00000000000E+00  0.45593999997E+02  0.45594000000E+02  0.51100000000E-03 0.  1.
         11   -1    0    0    0    0 -0.00000000000E+00 -0.00000000000E+00 -0.45593999997E+02  0.45594000000E+02  0.51100000000E-03 0. -1.
         23    2    1    2    0    0  0.00000000000E+00  0.00000000000E+00  0.35527136788E-14  0.91188000000E+02  0.91188000000E+02 0.  0.
    9900012    2    3    3    0    0  0.18975480178E+02 -0.60659937984E+01  0.30966357178E+02  0.54367076524E+02  0.39999982551E+02 0.  0.
         12    1    3    3    0    0 -0.18975480178E+02  0.60659937984E+01 -0.30966357178E+02  0.36820923476E+02  0.00000000000E+00 0. -1.
         11    1    4    4    0    0  0.37297110099E+00 -0.49318845186E+01 -0.62949834899E+01  0.80055861588E+01  0.51100000000E-03 0. -1.
        -11    1    4    4    0    0  0.65615733045E+00  0.70343157143E+01  0.53997744159E+01  0.88921147099E+01  0.51100000000E-03 0.  1.
        -12    1    4    4    0    0  0.17946351747E+02 -0.81684249941E+01  0.31861566252E+02  0.37469375655E+02  0.00000000000E+00 0.  1.
</event>
<event>
 8    1  0.2971508E-007  0.9118800E+02  0.7816164E-02  0.1184000E+00
        -11   -1    0    0    0    0  0.00000000000E+00  0.00000000000E+00  0.45593999997E+02  0.45594000000E+02  0.51100000000E-03 0.  1.
         11   -1    0    0    0    0 -0.00000000000E+00 -0.00000000000E+00 -0.45593999997E+02  0.45594000000E+02  0.51100000000E-03 0. -1.
         23    2    1    2    0    0  0.00000000000E+00  0.00000000000E+00  0.00000000000E+00  0.91188000000E+02  0.91188000000E+02 0.  0.
    9900012    2    3    3    0    0 -0.13129067146E+02 -0.33759986814E+02  0.66083562880E+01  0.54367089003E+02  0.40000011001E+02 0.  0.
         12    1    3    3    0    0  0.13129067146E+02  0.33759986814E+02 -0.66083562880E+01  0.36820910997E+02  0.00000000000E+00 0. -1.
         11    1    4    4    0    0 -0.27975044454E+01 -0.84264407776E+01  0.16050014867E+02  0.18342134903E+02  0.51100000000E-03 0. -1.
        -11    1    4    4    0    0  0.28229138380E+01 -0.72259921598E+01  0.51459443613E+01  0.93093796174E+01  0.51100000000E-03 0.  1.
         12    1    4    4    0    0 -0.13154476539E+02 -0.18107553876E+02 -0.14587602941E+02  0.26715574483E+02  0.00000000000E+00 0. -1.
</event>
<event>
 8    1  0.2971508E-007  0.9118800E+02  0.7816164E-02  0.1184000E+00
        -11   -1    0    0    0    0  0.00000000000E+00  0.00000000000E+00  0.45593999997E+02  0.45594000000E+02  0.51100000000E-03 0.  1.
         11   -1    0    0    0    0 -0.00000000000E+00 -0.00000000000E+00 -0.45593999997E+02  0.45594000000E+02  0.51100000000E-03 0. -1.
         23    2    1    2    0    0  0.88817841970E-15  0.44408920985E-15  0.00000000000E+00  0.91188000000E+02  0.91188000000E+02 0.  0.
    9900012    2    3    3    0    0 -0.54965296218E+01  0.32686968314E+01 -0.36261342914E+02  0.54367065645E+02  0.39999957750E+02 0.  0.
        -12    1    3    3    0    0  0.54965296218E+01 -0.32686968314E+01  0.36261342914E+02  0.36820934355E+02  0.00000000000E+00 0.  1.
         11    1    4    4    0    0 -0.11929917234E+02 -0.43059627239E+01  0.31308848067E+01  0.13063945810E+02  0.51100000000E-03 0. -1.
        -11    1    4    4    0    0 -0.27859406271E+00  0.43847922531E+01 -0.89953601401E+01  0.10011020031E+02  0.51100000000E-03 0.  1.
         12    1    4    4    0    0  0.67119816746E+01  0.31898673022E+01 -0.30396867581E+02  0.31292099804E+02  0.00000000000E+00 0. -1.
</event>
<event>
 8    1  0.2971508E-007  0.9118800E+02  0.7816164E-02  0.1184000E+00
        -11   -1    0    0    0    0  0.00000000000E+00  0.00000000000E+00  0.45593999997E+02  0.45594000000E+02  0.51100000000E-03 0. -1.
         11   -1    0    0    0    0 -0.00000000000E+00 -0.00000000000E+00 -0.45593999997E+02  0.45594000000E+02  0.51100000000E-03 0.  1.
         23    2    1    2    0    0  0.00000000000E+00  0.00000000000E+00  0.00000000000E+00  0.91188000000E+02  0.91188000000E+02 0.  0.
    9900012    2    3    3    0    0 -0.26183705100E+02 -0.23770581183E+02  0.10254371181E+02  0.54367094649E+02  0.40000023871E+02 0.  0.
        -12    1    3    3    0    0  0.26183705100E+02  0.23770581183E+02 -0.10254371181E+02  0.36820905351E+02  0.00000000000E+00 0.  1.
         11    1    4    4    0    0 -0.17556999526E+02 -0.22382210734E+01 -0.12258824002E+02  0.21529900884E+02  0.51100000000E-03 0.  1.
        -11    1    4    4    0    0 -0.50501070129E+01 -0.12919686750E+02  0.17226034711E+02  0.22116920190E+02  0.51100000000E-03 0. -1.
        -12    1    4    4    0    0 -0.35765985617E+01 -0.86126733598E+01  0.52871604716E+01  0.10720273575E+02  0.00000000000E+00 0.  1.
</event>
<event>
 8    1  0.2971508E-007  0.9118800E+02  0.7816164E-02  0.1184000E+00
        -11   -1    0    0    0    0  0.00000000000E+00  0.00000000000E+00  0.45593999997E+02  0.45594000000E+02  0.51100000000E-03 0. -1.
         11   -1    0    0    0    0 -0.00000000000E+00 -0.00000000000E+00 -0.45593999997E+02  0.45594000000E+02  0.51100000000E-03 0.  1.
         23    2    1    2    0    0 -0.17763568394E-14  0.00000000000E+00  0.00000000000E+00  0.91188000000E+02  0.91188000000E+02 0.  0.
    9900012    2    3    3    0    0 -0.11183019097E+02 -0.23590438555E+02 -0.25965554218E+02  0.54367099507E+02  0.40000034945E+02 0.  0.
         12    1    3    3    0    0  0.11183019097E+02  0.23590438555E+02  0.25965554218E+02  0.36820900493E+02  0.00000000000E+00 0. -1.
         11    1    4    4    0    0 -0.18026670308E+02 -0.11578427140E+02 -0.12787810586E+02  0.24950930188E+02  0.51100000000E-03 0. -1.
        -11    1    4    4    0    0  0.11131501910E+02 -0.14339630296E+02 -0.33718727404E+01  0.18463609014E+02  0.51100000000E-03 0.  1.
         12    1    4    4    0    0 -0.42878506981E+01  0.23276188815E+01 -0.98058708916E+01  0.10952560304E+02  0.00000000000E+00 0. -1.
</event>
<event>
 8    1  0.2971508E-007  0.9118800E+02  0.7816164E-02  0.1184000E+00
        -11   -1    0    0    0    0  0.00000000000E+00  0.00000000000E+00  0.45593999997E+02  0.45594000000E+02  0.51100000000E-03 0. -1.
         11   -1    0    0    0    0 -0.00000000000E+00 -0.00000000000E+00 -0.45593999997E+02  0.45594000000E+02  0.51100000000E-03 0.  1.
         23    2    1    2    0    0  0.00000000000E+00  0.00000000000E+00 -0.17763568394E-14  0.91188000000E+02  0.91188000000E+02 0.  0.
    9900012    2    3    3    0    0  0.22272757485E+02 -0.28015926889E+02  0.86494213575E+01  0.54367076936E+02  0.39999983491E+02 0.  0.
        -12    1    3    3    0    0 -0.22272757485E+02  0.28015926889E+02 -0.86494213575E+01  0.36820923064E+02  0.00000000000E+00 0.  1.
         11    1    4    4    0    0  0.69215186986E+01 -0.24949041006E+02  0.10534704526E+02  0.27952496632E+02  0.51100000000E-03 0. -1.
        -11    1    4    4    0    0  0.15609506925E+02  0.61635355697E+01  0.78975649411E+00  0.16800880713E+02  0.51100000000E-03 0.  1.
        -12    1    4    4    0    0 -0.25826813879E+00 -0.92304214528E+01 -0.26750396630E+01  0.96136995911E+01  0.00000000000E+00 0.  1.
</event>
<event>
 8    1  0.2971508E-007  0.9118800E+02  0.7816164E-02  0.1184000E+00
        -11   -1    0    0    0    0  0.00000000000E+00  0.00000000000E+00  0.45593999997E+02  0.45594000000E+02  0.51100000000E-03 0. -1.
         11   -1    0    0    0    0 -0.00000000000E+00 -0.00000000000E+00 -0.45593999997E+02  0.45594000000E+02  0.51100000000E-03 0.  1.
         23    2    1    2    0    0  0.00000000000E+00  0.00000000000E+00 -0.35527136788E-14  0.91188000000E+02  0.91188000000E+02 0.  0.
    9900012    2    3    3    0    0 -0.31219094337E+02 -0.31300376886E+01 -0.19270424887E+02  0.54367105626E+02  0.40000048896E+02 0.  0.
         12    1    3    3    0    0  0.31219094337E+02  0.31300376886E+01  0.19270424887E+02  0.36820894374E+02  0.00000000000E+00 0. -1.
         11    1    4    4    0    0 -0.19619943195E+02  0.54854529770E+01 -0.28967265799E+02  0.35413766440E+02  0.51100000000E-03 0. -1.
        -11    1    4    4    0    0 -0.81888730372E+01 -0.26016604740E+01  0.24433011006E+01  0.89328606488E+01  0.51100000000E-03 0.  1.
         12    1    4    4    0    0 -0.34102781050E+01 -0.60138301916E+01  0.72535398112E+01  0.10020478537E+02  0.00000000000E+00 0. -1.
</event>
<event>
 8    1  0.2971508E-007  0.9118800E+02  0.7816164E-02  0.1184000E+00
        -11   -1    0    0    0    0  0.00000000000E+00  0.00000000000E+00  0.45593999997E+02  0.45594000000E+02  0.51100000000E-03 0.  1.
         11   -1    0    0    0    0 -0.00000000000E+00 -0.00000000000E+00 -0.45593999997E+02  0.45594000000E+02  0.51100000000E-03 0. -1.
         23    2    1    2    0    0  0.66613381478E-15  0.00000000000E+00  0.00000000000E+00  0.91188000000E+02  0.91188000000E+02 0.  0.
    9900012    2    3    3    0    0  0.18859832294E+01 -0.34850917796E+02 -0.11731920983E+02  0.54367063376E+02  0.39999952578E+02 0.  0.
        -12    1    3    3    0    0 -0.18859832294E+01  0.34850917796E+02  0.11731920983E+02  0.36820936624E+02  0.00000000000E+00 0.  1.
         11    1    4    4    0    0 -0.15252497641E+02 -0.75447269370E+01  0.17265348959E+01  0.17103874177E+02  0.51100000000E-03 0.  1.
        -11    1    4    4    0    0  0.58218736857E+01 -0.19278062642E+02 -0.11665568016E+02  0.23272803653E+02  0.51100000000E-03 0. -1.
        -12    1    4    4    0    0  0.11316607185E+02 -0.80281282162E+01 -0.17928878623E+01  0.13990385546E+02  0.00000000000E+00 0.  1.
</event>
<event>
 8    1  0.2971508E-007  0.9118800E+02  0.7816164E-02  0.1184000E+00
        -11   -1    0    0    0    0  0.00000000000E+00  0.00000000000E+00  0.45593999997E+02  0.45594000000E+02  0.51100000000E-03 0. -1.
         11   -1    0    0    0    0 -0.00000000000E+00 -0.00000000000E+00 -0.45593999997E+02  0.45594000000E+02  0.51100000000E-03 0.  1.
         23    2    1    2    0    0 -0.77715611724E-15  0.00000000000E+00  0.71054273576E-14  0.91188000000E+02  0.91188000000E+02 0.  0.
    9900012    2    3    3    0    0 -0.85276681701E+00 -0.18021640623E+02  0.32097865032E+02  0.54367086356E+02  0.40000004966E+02 0.  0.
        -12    1    3    3    0    0  0.85276681701E+00  0.18021640623E+02 -0.32097865032E+02  0.36820913644E+02  0.00000000000E+00 0.  1.
         11    1    4    4    0    0  0.67455960835E+00 -0.98143242197E+01  0.28879543550E+02  0.30509081049E+02  0.51100000000E-03 0. -1.
        -11    1    4    4    0    0  0.87573556832E+01 -0.66780281270E+01 -0.34079989876E+01  0.11528304107E+02  0.51100000000E-03 0.  1.
         12    1    4    4    0    0 -0.10284682109E+02 -0.15292882761E+01  0.66263204694E+01  0.12329701199E+02  0.00000000000E+00 0. -1.
</event>
<event>
 8    1  0.2971508E-007  0.9118800E+02  0.7816164E-02  0.1184000E+00
        -11   -1    0    0    0    0  0.00000000000E+00  0.00000000000E+00  0.45593999997E+02  0.45594000000E+02  0.51100000000E-03 0.  1.
         11   -1    0    0    0    0 -0.00000000000E+00 -0.00000000000E+00 -0.45593999997E+02  0.45594000000E+02  0.51100000000E-03 0. -1.
         23    2    1    2    0    0  0.17763568394E-14  0.00000000000E+00 -0.39968028887E-14  0.91188000000E+02  0.91188000000E+02 0.  0.
    9900012    2    3    3    0    0 -0.15740194508E+02  0.33063317575E+02 -0.38522687547E+01  0.54367127295E+02  0.40000098294E+02 0.  0.
         12    1    3    3    0    0  0.15740194508E+02 -0.33063317575E+02  0.38522687547E+01  0.36820872705E+02  0.00000000000E+00 0. -1.
         11    1    4    4    0    0 -0.95915185384E+01 -0.53537145877E-01 -0.69098042199E+01  0.11821399609E+02  0.51100000000E-03 0. -1.
        -11    1    4    4    0    0  0.11915167306E+01  0.12881256611E+02 -0.10878724681E+02  0.16902459434E+02  0.51100000000E-03 0.  1.
        -12    1    4    4    0    0 -0.73401927001E+01  0.20235598110E+02  0.13936260146E+02  0.25643268251E+02  0.00000000000E+00 0.  1.
</event>
<event>
 8    1  0.2971508E-007  0.9118800E+02  0.7816164E-02  0.1184000E+00
        -11   -1    0    0    0    0  0.00000000000E+00  0.00000000000E+00  0.45593999997E+02  0.45594000000E+02  0.51100000000E-03 0. -1.
         11   -1    0    0    0    0 -0.00000000000E+00 -0.00000000000E+00 -0.45593999997E+02  0.45594000000E+02  0.51100000000E-03 0.  1.
         23    2    1    2    0    0  0.00000000000E+00  0.00000000000E+00  0.35527136788E-14  0.91188000000E+02  0.91188000000E+02 0.  0.
    9900012    2    3    3    0    0  0.25781531334E+02 -0.76953210289E+01 -0.25137066492E+02  0.54367116856E+02  0.40000074497E+02 0.  0.
         12    1    3    3    0    0 -0.25781531334E+02  0.76953210289E+01  0.25137066492E+02  0.36820883144E+02  0.00000000000E+00 0. -1.
         11    1    4    4    0    0  0.67428755212E+01 -0.99482035801E+01 -0.11201450998E+02  0.16428804871E+02  0.51100000000E-03 0. -1.
        -11    1    4    4    0    0  0.18047809249E+02 -0.84118254934E+01 -0.17643472363E+02  0.26604028719E+02  0.51100000000E-03 0.  1.
         12    1    4    4    0    0  0.99084656398E+00  0.10664708045E+02  0.37078568689E+01  0.11334283266E+02  0.00000000000E+00 0. -1.
</event>
<event>
 8    1  0.2971508E-007  0.9118800E+02  0.7816164E-02  0.1184000E+00
        -11   -1    0    0    0    0  0.00000000000E+00  0.00000000000E+00  0.45593999997E+02  0.45594000000E+02  0.51100000000E-03 0. -1.
         11   -1    0    0    0    0 -0.00000000000E+00 -0.00000000000E+00 -0.45593999997E+02  0.45594000000E+02  0.51100000000E-03 0.  1.
         23    2    1    2    0    0  0.13322676296E-14  0.35527136788E-14 -0.35527136788E-14  0.91188000000E+02  0.91188000000E+02 0.  0.
    9900012    2    3    3    0    0 -0.24815161984E+01  0.28566481040E+02 -0.23099324973E+02  0.54367074212E+02  0.39999977282E+02 0.  0.
         12    1    3    3    0    0  0.24815161984E+01 -0.28566481040E+02  0.23099324973E+02  0.36820925788E+02  0.00000000000E+00 0. -1.
         11    1    4    4    0    0  0.11233638496E+02  0.14835155712E+02 -0.10782188964E+02  0.21506558952E+02  0.51100000000E-03 0. -1.
        -11    1    4    4    0    0  0.18951297061E+01 -0.21688620984E+01 -0.10060108833E+02  0.10464285422E+02  0.51100000000E-03 0.  1.
         12    1    4    4    0    0 -0.15610284401E+02  0.15900187427E+02 -0.22570271760E+01  0.22396229838E+02  0.00000000000E+00 0. -1.
</event>
<event>
 8    1  0.2971508E-007  0.9118800E+02  0.7816164E-02  0.1184000E+00
        -11   -1    0    0    0    0  0.00000000000E+00  0.00000000000E+00  0.45593999997E+02  0.45594000000E+02  0.51100000000E-03 0. -1.
         11   -1    0    0    0    0 -0.00000000000E+00 -0.00000000000E+00 -0.45593999997E+02  0.45594000000E+02  0.51100000000E-03 0.  1.
         23    2    1    2    0    0  0.00000000000E+00  0.00000000000E+00  0.35527136788E-14  0.91188000000E+02  0.91188000000E+02 0.  0.
    9900012    2    3    3    0    0  0.19086498023E+02 -0.23013477709E+02 -0.21491051259E+02  0.54367084106E+02  0.39999999837E+02 0.  0.
         12    1    3    3    0    0 -0.19086498023E+02  0.23013477709E+02  0.21491051259E+02  0.36820915894E+02  0.00000000000E+00 0. -1.
         11    1    4    4    0    0 -0.33320902468E+01 -0.10627936130E+02 -0.84028451947E+01  0.13952191921E+02  0.51100000000E-03 0. -1.
        -11    1    4    4    0    0  0.11668140649E+02 -0.79111430110E+01 -0.21738283759E+02  0.25909161912E+02  0.51100000000E-03 0.  1.
         12    1    4    4    0    0  0.10750447621E+02 -0.44743985682E+01  0.86500776952E+01  0.14505730273E+02  0.00000000000E+00 0. -1.
</event>
<event>
 8    1  0.2971508E-007  0.9118800E+02  0.7816164E-02  0.1184000E+00
        -11   -1    0    0    0    0  0.00000000000E+00  0.00000000000E+00  0.45593999997E+02  0.45594000000E+02  0.51100000000E-03 0. -1.
         11   -1    0    0    0    0 -0.00000000000E+00 -0.00000000000E+00 -0.45593999997E+02  0.45594000000E+02  0.51100000000E-03 0.  1.
         23    2    1    2    0    0  0.00000000000E+00  0.00000000000E+00  0.17763568394E-14  0.91188000000E+02  0.91188000000E+02 0.  0.
    9900012    2    3    3    0    0 -0.29029905239E+02  0.16436233282E+02  0.15584999694E+02  0.54367117635E+02  0.40000076272E+02 0.  0.
        -12    1    3    3    0    0  0.29029905239E+02 -0.16436233282E+02 -0.15584999694E+02  0.36820882365E+02  0.00000000000E+00 0.  1.
         11    1    4    4    0    0 -0.12377591211E+02  0.84145207388E+01  0.13198102015E+02  0.19954919707E+02  0.51100000000E-03 0. -1.
        -11    1    4    4    0    0  0.30335572045E+01  0.61548925734E+01  0.10902670589E+02  0.12882290097E+02  0.51100000000E-03 0.  1.
        -12    1    4    4    0    0 -0.19685871232E+02  0.18668199700E+01 -0.85157729094E+01  0.21529907831E+02  0.00000000000E+00 0.  1.
</event>
<event>
 8    1  0.2971508E-007  0.9118800E+02  0.7816164E-02  0.1184000E+00
        -11   -1    0    0    0    0  0.00000000000E+00  0.00000000000E+00  0.45593999997E+02  0.45594000000E+02  0.51100000000E-03 0. -1.
         11   -1    0    0    0    0 -0.00000000000E+00 -0.00000000000E+00 -0.45593999997E+02  0.45594000000E+02  0.51100000000E-03 0.  1.
         23    2    1    2    0    0 -0.53290705182E-14  0.00000000000E+00 -0.35527136788E-14  0.91188000000E+02  0.91188000000E+02 0.  0.
    9900012    2    3    3    0    0 -0.61677337937E+01  0.22796486742E+02 -0.28250019455E+02  0.54367023001E+02  0.39999860536E+02 0.  0.
        -12    1    3    3    0    0  0.61677337937E+01 -0.22796486742E+02  0.28250019455E+02  0.36820976999E+02  0.00000000000E+00 0.  1.
         11    1    4    4    0    0 -0.16874961255E+02  0.13246489473E+02 -0.32287632415E+02  0.38764997201E+02  0.51100000000E-03 0. -1.
        -11    1    4    4    0    0  0.52328039969E+01  0.61908601368E+01  0.42956950497E+01  0.91739840377E+01  0.51100000000E-03 0.  1.
         12    1    4    4    0    0  0.54744234647E+01  0.33591371316E+01 -0.25808208960E+00  0.64280417628E+01  0.00000000000E+00 0. -1.
</event>
<event>
 8    1  0.2971508E-007  0.9118800E+02  0.7816164E-02  0.1184000E+00
        -11   -1    0    0    0    0  0.00000000000E+00  0.00000000000E+00  0.45593999997E+02  0.45594000000E+02  0.51100000000E-03 0.  1.
         11   -1    0    0    0    0 -0.00000000000E+00 -0.00000000000E+00 -0.45593999997E+02  0.45594000000E+02  0.51100000000E-03 0. -1.
         23    2    1    2    0    0 -0.17763568394E-14  0.35527136788E-14  0.53290705182E-14  0.91188000000E+02  0.91188000000E+02 0.  0.
    9900012    2    3    3    0    0  0.13593141590E+02  0.30520235458E+02  0.15476509598E+02  0.54367073612E+02  0.39999975914E+02 0.  0.
         12    1    3    3    0    0 -0.13593141590E+02 -0.30520235458E+02 -0.15476509598E+02  0.36820926388E+02  0.00000000000E+00 0. -1.
         11    1    4    4    0    0  0.69208590828E+01  0.16452839809E+02  0.26300094724E+02  0.31785046971E+02  0.51100000000E-03 0. -1.
        -11    1    4    4    0    0  0.26629848950E+01  0.11915694587E+02 -0.16220466639E+01  0.12316911207E+02  0.51100000000E-03 0.  1.
         12    1    4    4    0    0  0.40092976124E+01  0.21517010623E+01 -0.92015384619E+01  0.10265115434E+02  0.00000000000E+00 0. -1.
</event>
<event>
 8    1  0.2971508E-007  0.9118800E+02  0.7816164E-02  0.1184000E+00
        -11   -1    0    0    0    0  0.00000000000E+00  0.00000000000E+00  0.45593999997E+02  0.45594000000E+02  0.51100000000E-03 0.  1.
         11   -1    0    0    0    0 -0.00000000000E+00 -0.00000000000E+00 -0.45593999997E+02  0.45594000000E+02  0.51100000000E-03 0. -1.
         23    2    1    2    0    0  0.22204460493E-15  0.00000000000E+00  0.17763568394E-14  0.91188000000E+02  0.91188000000E+02 0.  0.
    9900012    2    3    3    0    0  0.12923328570E+01  0.34132944327E+02 -0.13749615079E+02  0.54367083017E+02  0.39999997354E+02 0.  0.
        -12    1    3    3    0    0 -0.12923328570E+01 -0.34132944327E+02  0.13749615079E+02  0.36820916983E+02  0.00000000000E+00 0.  1.
         11    1    4    4    0    0 -0.61764765320E+00  0.58941756744E+01 -0.36825464533E+01  0.69773880605E+01  0.51100000000E-03 0. -1.
        -11    1    4    4    0    0  0.71847900675E+01  0.33108580598E+02 -0.16560117404E+02  0.37709903291E+02  0.51100000000E-03 0.  1.
        -12    1    4    4    0    0 -0.52748095572E+01 -0.48698119457E+01  0.64930487782E+01  0.96797916655E+01  0.00000000000E+00 0.  1.
</event>
<event>
 8    1  0.2971508E-007  0.9118800E+02  0.7816164E-02  0.1184000E+00
        -11   -1    0    0    0    0  0.00000000000E+00  0.00000000000E+00  0.45593999997E+02  0.45594000000E+02  0.51100000000E-03 0. -1.
         11   -1    0    0    0    0 -0.00000000000E+00 -0.00000000000E+00 -0.45593999997E+02  0.45594000000E+02  0.51100000000E-03 0.  1.
         23    2    1    2    0    0  0.00000000000E+00  0.88817841970E-15 -0.35527136788E-14  0.91188000000E+02  0.91188000000E+02 0.  0.
    9900012    2    3    3    0    0  0.30909939821E+02 -0.74574359401E+01 -0.18567228709E+02  0.54367085936E+02  0.40000004009E+02 0.  0.
         12    1    3    3    0    0 -0.30909939821E+02  0.74574359401E+01  0.18567228709E+02  0.36820914064E+02  0.00000000000E+00 0. -1.
         11    1    4    4    0    0  0.40269036010E+01 -0.13063173523E+02 -0.15989761359E+01  0.13762964072E+02  0.51100000000E-03 0. -1.
        -11    1    4    4    0    0  0.36474914887E+01  0.99529594124E+01 -0.12768577716E+02  0.16595245475E+02  0.51100000000E-03 0.  1.
        -12    1    4    4    0    0  0.23235544731E+02 -0.43472218299E+01 -0.41996748577E+01  0.24008876390E+02  0.00000000000E+00 0.  1.
</event>
<event>
 8    1  0.2971508E-007  0.9118800E+02  0.7816164E-02  0.1184000E+00
        -11   -1    0    0    0    0  0.00000000000E+00  0.00000000000E+00  0.45593999997E+02  0.45594000000E+02  0.51100000000E-03 0. -1.
         11   -1    0    0    0    0 -0.00000000000E+00 -0.00000000000E+00 -0.45593999997E+02  0.45594000000E+02  0.51100000000E-03 0.  1.
         23    2    1    2    0    0  0.00000000000E+00  0.00000000000E+00  0.00000000000E+00  0.91188000000E+02  0.91188000000E+02 0.  0.
    9900012    2    3    3    0    0 -0.14347109820E+02 -0.12366496434E+02  0.31575462869E+02  0.54367086790E+02  0.40000005955E+02 0.  0.
        -12    1    3    3    0    0  0.14347109820E+02  0.12366496434E+02 -0.31575462869E+02  0.36820913210E+02  0.00000000000E+00 0.  1.
         11    1    4    4    0    0 -0.72612287724E+01 -0.59435741930E+01  0.56668591509E+01  0.10961971099E+02  0.51100000000E-03 0. -1.
        -11    1    4    4    0    0 -0.19565710466E+02 -0.58779482389E+01  0.22635852422E+02  0.30491787692E+02  0.51100000000E-03 0.  1.
        -12    1    4    4    0    0  0.12479829418E+02 -0.54497400228E+00  0.32727512960E+01  0.12913327999E+02  0.00000000000E+00 0.  1.
</event>
<event>
 8    1  0.2971508E-007  0.9118800E+02  0.7816164E-02  0.1184000E+00
        -11   -1    0    0    0    0  0.00000000000E+00  0.00000000000E+00  0.45593999997E+02  0.45594000000E+02  0.51100000000E-03 0. -1.
         11   -1    0    0    0    0 -0.00000000000E+00 -0.00000000000E+00 -0.45593999997E+02  0.45594000000E+02  0.51100000000E-03 0.  1.
         23    2    1    2    0    0  0.00000000000E+00  0.11102230246E-14 -0.35527136788E-14  0.91188000000E+02  0.91188000000E+02 0.  0.
    9900012    2    3    3    0    0 -0.25933674818E+02  0.12560422122E+01  0.26108368935E+02  0.54367081217E+02  0.39999993249E+02 0.  0.
        -12    1    3    3    0    0  0.25933674818E+02 -0.12560422122E+01 -0.26108368935E+02  0.36820918783E+02  0.00000000000E+00 0.  1.
         11    1    4    4    0    0 -0.11294564549E+02  0.13060029072E+02  0.26139337451E+01  0.17463224147E+02  0.51100000000E-03 0. -1.
        -11    1    4    4    0    0 -0.10896198708E+01 -0.10882861796E+02  0.14793487154E+01  0.11036866639E+02  0.51100000000E-03 0.  1.
         12    1    4    4    0    0 -0.13549490398E+02 -0.92112506379E+00  0.22015086475E+02  0.25866990430E+02  0.00000000000E+00 0. -1.
</event>
<event>
 8    1  0.2971508E-007  0.9118800E+02  0.7816164E-02  0.1184000E+00
        -11   -1    0    0    0    0  0.00000000000E+00  0.00000000000E+00  0.45593999997E+02  0.45594000000E+02  0.51100000000E-03 0. -1.
         11   -1    0    0    0    0 -0.00000000000E+00 -0.00000000000E+00 -0.45593999997E+02  0.45594000000E+02  0.51100000000E-03 0.  1.
         23    2    1    2    0    0  0.00000000000E+00  0.00000000000E+00  0.00000000000E+00  0.91188000000E+02  0.91188000000E+02 0.  0.
    9900012    2    3    3    0    0 -0.11317572889E+02  0.13647078559E+02  0.32271503899E+02  0.54367079680E+02  0.39999989746E+02 0.  0.
        -12    1    3    3    0    0  0.11317572889E+02 -0.13647078559E+02 -0.32271503899E+02  0.36820920320E+02  0.00000000000E+00 0.  1.
         11    1    4    4    0    0  0.18627646489E+01  0.33562770985E+01 -0.26138721391E+01  0.46440086046E+01  0.51100000000E-03 0. -1.
        -11    1    4    4    0    0 -0.31602213328E+01  0.20245562824E+02  0.15284797058E+02  0.25563545026E+02  0.51100000000E-03 0.  1.
        -12    1    4    4    0    0 -0.10020116205E+02 -0.99547613630E+01  0.19600578981E+02  0.24159526050E+02  0.00000000000E+00 0.  1.
</event>
<event>
 8    1  0.2971508E-007  0.9118800E+02  0.7816164E-02  0.1184000E+00
        -11   -1    0    0    0    0  0.00000000000E+00  0.00000000000E+00  0.45593999997E+02  0.45594000000E+02  0.51100000000E-03 0.  1.
         11   -1    0    0    0    0 -0.00000000000E+00 -0.00000000000E+00 -0.45593999997E+02  0.45594000000E+02  0.51100000000E-03 0. -1.
         23    2    1    2    0    0  0.00000000000E+00  0.00000000000E+00 -0.71054273576E-14  0.91188000000E+02  0.91188000000E+02 0.  0.
    9900012    2    3    3    0    0 -0.83596813439E+01  0.10086254921E+02 -0.34411658533E+02  0.54367094885E+02  0.40000024408E+02 0.  0.
        -12    1    3    3    0    0  0.83596813439E+01 -0.10086254921E+02  0.34411658533E+02  0.36820905115E+02  0.00000000000E+00 0.  1.
         11    1    4    4    0    0 -0.68181629168E+01  0.78736899156E+01  0.38006893568E+00  0.10422417719E+02  0.51100000000E-03 0. -1.
        -11    1    4    4    0    0  0.70293276477E+01  0.10044981794E+02 -0.77203423683E+01  0.14488505547E+02  0.51100000000E-03 0.  1.
         12    1    4    4    0    0 -0.85708460748E+01 -0.78324167889E+01 -0.27071385101E+02  0.29456171619E+02  0.00000000000E+00 0. -1.
</event>
<event>
 8    1  0.2971508E-007  0.9118800E+02  0.7816164E-02  0.1184000E+00
        -11   -1    0    0    0    0  0.00000000000E+00  0.00000000000E+00  0.45593999997E+02  0.45594000000E+02  0.51100000000E-03 0.  1.
         11   -1    0    0    0    0 -0.00000000000E+00 -0.00000000000E+00 -0.45593999997E+02  0.45594000000E+02  0.51100000000E-03 0. -1.
         23    2    1    2    0    0 -0.71054273576E-14  0.88817841970E-15  0.17763568394E-14  0.91188000000E+02  0.91188000000E+02 0.  0.
    9900012    2    3    3    0    0  0.33117434547E+02  0.46391826183E+01 -0.15410811639E+02  0.54367087441E+02  0.40000007439E+02 0.  0.
        -12    1    3    3    0    0 -0.33117434547E+02 -0.46391826183E+01  0.15410811639E+02  0.36820912559E+02  0.00000000000E+00 0.  1.
         11    1    4    4    0    0 -0.57484653627E+01  0.17305329672E+01 -0.10261149008E+02  0.11888262178E+02  0.51100000000E-03 0. -1.
        -11    1    4    4    0    0  0.23130083814E+02  0.96009141265E+01 -0.23825400595E+01  0.25156606025E+02  0.51100000000E-03 0.  1.
        -12    1    4    4    0    0  0.15735816095E+02 -0.66922644755E+01 -0.27671225712E+01  0.17322219237E+02  0.00000000000E+00 0.  1.
</event>
<event>
 8    1  0.2971508E-007  0.9118800E+02  0.7816164E-02  0.1184000E+00
        -11   -1    0    0    0    0  0.00000000000E+00  0.00000000000E+00  0.45593999997E+02  0.45594000000E+02  0.51100000000E-03 0. -1.
         11   -1    0    0    0    0 -0.00000000000E+00 -0.00000000000E+00 -0.45593999997E+02  0.45594000000E+02  0.51100000000E-03 0.  1.
         23    2    1    2    0    0  0.00000000000E+00  0.00000000000E+00  0.00000000000E+00  0.91188000000E+02  0.91188000000E+02 0.  0.
    9900012    2    3    3    0    0  0.23842320290E+02 -0.17470951572E+02 -0.21956832446E+02  0.54366907177E+02  0.39999596489E+02 0.  0.
         12    1    3    3    0    0 -0.23842320290E+02  0.17470951572E+02  0.21956832446E+02  0.36821092823E+02  0.00000000000E+00 0. -1.
         11    1    4    4    0    0  0.53076979724E+01 -0.55350929330E+01  0.66899342495E+01  0.10176646406E+02  0.51100000000E-03 0. -1.
        -11    1    4    4    0    0  0.14463717669E+02  0.46488116775E+01 -0.19802375119E+02  0.24958858936E+02  0.51100000000E-03 0.  1.
         12    1    4    4    0    0  0.40709046486E+01 -0.16584670317E+02 -0.88443915768E+01  0.19231401835E+02  0.00000000000E+00 0. -1.
</event>
<event>
 8    1  0.2971508E-007  0.9118800E+02  0.7816164E-02  0.1184000E+00
        -11   -1    0    0    0    0  0.00000000000E+00  0.00000000000E+00  0.45593999997E+02  0.45594000000E+02  0.51100000000E-03 0.  1.
         11   -1    0    0    0    0 -0.00000000000E+00 -0.00000000000E+00 -0.45593999997E+02  0.45594000000E+02  0.51100000000E-03 0. -1.
         23    2    1    2    0    0  0.00000000000E+00 -0.88817841970E-15  0.00000000000E+00  0.91188000000E+02  0.91188000000E+02 0.  0.
    9900012    2    3    3    0    0 -0.15846594792E+02  0.54889562715E+01  0.32780127236E+02  0.54367082724E+02  0.39999996685E+02 0.  0.
         12    1    3    3    0    0  0.15846594792E+02 -0.54889562715E+01 -0.32780127236E+02  0.36820917276E+02  0.00000000000E+00 0. -1.
         11    1    4    4    0    0 -0.15136159065E+02 -0.49575694020E+00  0.82888657219E+01  0.17264251545E+02  0.51100000000E-03 0. -1.
        -11    1    4    4    0    0 -0.64912445258E+01  0.92269948122E+01  0.27574305937E+02  0.29792885676E+02  0.51100000000E-03 0.  1.
         12    1    4    4    0    0  0.57808087984E+01 -0.32422816005E+01 -0.30830444229E+01  0.73099455028E+01  0.00000000000E+00 0. -1.
</event>
<event>
 8    1  0.2971508E-007  0.9118800E+02  0.7816164E-02  0.1184000E+00
        -11   -1    0    0    0    0  0.00000000000E+00  0.00000000000E+00  0.45593999997E+02  0.45594000000E+02  0.51100000000E-03 0. -1.
         11   -1    0    0    0    0 -0.00000000000E+00 -0.00000000000E+00 -0.45593999997E+02  0.45594000000E+02  0.51100000000E-03 0.  1.
         23    2    1    2    0    0 -0.35527136788E-14  0.00000000000E+00  0.00000000000E+00  0.91188000000E+02  0.91188000000E+02 0.  0.
    9900012    2    3    3    0    0 -0.20600136110E+02  0.19295721834E+02  0.23645097168E+02  0.54367066974E+02  0.39999960781E+02 0.  0.
        -12    1    3    3    0    0  0.20600136110E+02 -0.19295721834E+02 -0.23645097168E+02  0.36820933026E+02  0.00000000000E+00 0.  1.
         11    1    4    4    0    0 -0.99570867896E+01  0.85028090110E+00  0.94963611701E+01  0.13785769136E+02  0.51100000000E-03 0. -1.
        -11    1    4    4    0    0 -0.19177736423E+02  0.25437131383E+01  0.36019109596E+01  0.19678155749E+02  0.51100000000E-03 0.  1.
         12    1    4    4    0    0  0.85346871032E+01  0.15901727795E+02  0.10546825038E+02  0.20903142089E+02  0.00000000000E+00 0. -1.
</event>
<event>
 8    1  0.2971508E-007  0.9118800E+02  0.7816164E-02  0.1184000E+00
        -11   -1    0    0    0    0  0.00000000000E+00  0.00000000000E+00  0.45593999997E+02  0.45594000000E+02  0.51100000000E-03 0. -1.
         11   -1    0    0    0    0 -0.00000000000E+00 -0.00000000000E+00 -0.45593999997E+02  0.45594000000E+02  0.51100000000E-03 0.  1.
         23    2    1    2    0    0  0.00000000000E+00  0.17763568394E-14 -0.13322676296E-14  0.91188000000E+02  0.91188000000E+02 0.  0.
    9900012    2    3    3    0    0 -0.34265650943E+02 -0.12997425260E+02 -0.35656445966E+01  0.54367058685E+02  0.39999941884E+02 0.  0.
         12    1    3    3    0    0  0.34265650943E+02  0.12997425260E+02  0.35656445966E+01  0.36820941315E+02  0.00000000000E+00 0. -1.
         11    1    4    4    0    0  0.12360743183E+01  0.51108147499E+01 -0.13962407933E+01  0.54403856244E+01  0.51100000000E-03 0. -1.
        -11    1    4    4    0    0 -0.22733386014E+02 -0.10651392356E+02 -0.15089562093E+02  0.29290849820E+02  0.51100000000E-03 0.  1.
        -12    1    4    4    0    0 -0.12768339248E+02 -0.74568476546E+01  0.12920158290E+02  0.19635823240E+02  0.00000000000E+00 0.  1.
</event>
<event>
 8    1  0.2971508E-007  0.9118800E+02  0.7816164E-02  0.1184000E+00
        -11   -1    0    0    0    0  0.00000000000E+00  0.00000000000E+00  0.45593999997E+02  0.45594000000E+02  0.51100000000E-03 0.  1.
         11   -1    0    0    0    0 -0.00000000000E+00 -0.00000000000E+00 -0.45593999997E+02  0.45594000000E+02  0.51100000000E-03 0. -1.
         23    2    1    2    0    0 -0.35527136788E-14  0.00000000000E+00  0.35527136788E-14  0.91188000000E+02  0.91188000000E+02 0.  0.
    9900012    2    3    3    0    0 -0.19952187521E+02 -0.54759946787E+01  0.30458221818E+02  0.54367087723E+02  0.40000008081E+02 0.  0.
         12    1    3    3    0    0  0.19952187521E+02  0.54759946787E+01 -0.30458221818E+02  0.36820912277E+02  0.00000000000E+00 0. -1.
         11    1    4    4    0    0 -0.80685975859E+01 -0.53945380025E+01 -0.67783706641E+01  0.11838480324E+02  0.51100000000E-03 0. -1.
        -11    1    4    4    0    0 -0.37260903014E+01  0.63140195147E+01  0.55662879223E+01  0.92051155811E+01  0.51100000000E-03 0.  1.
        -12    1    4    4    0    0 -0.81574996339E+01 -0.63954761908E+01  0.31670304560E+02  0.33323491817E+02  0.00000000000E+00 0.  1.
</event>
<event>
 8    1  0.2971508E-007  0.9118800E+02  0.7816164E-02  0.1184000E+00
        -11   -1    0    0    0    0  0.00000000000E+00  0.00000000000E+00  0.45593999997E+02  0.45594000000E+02  0.51100000000E-03 0.  1.
         11   -1    0    0    0    0 -0.00000000000E+00 -0.00000000000E+00 -0.45593999997E+02  0.45594000000E+02  0.51100000000E-03 0. -1.
         23    2    1    2    0    0  0.00000000000E+00 -0.35527136788E-14 -0.35527136788E-14  0.91188000000E+02  0.91188000000E+02 0.  0.
    9900012    2    3    3    0    0  0.21497887067E+02  0.24220163575E+02  0.17521540319E+02  0.54367084108E+02  0.39999999842E+02 0.  0.
         12    1    3    3    0    0 -0.21497887067E+02 -0.24220163575E+02 -0.17521540319E+02  0.36820915892E+02  0.00000000000E+00 0. -1.
         11    1    4    4    0    0 -0.91471081994E+01  0.10180976001E+02  0.96235992279E+01  0.16731273804E+02  0.51100000000E-03 0. -1.
        -11    1    4    4    0    0  0.21164057462E+02  0.18585348032E+01  0.30916625155E+01  0.21469277054E+02  0.51100000000E-03 0.  1.
         12    1    4    4    0    0  0.94809378047E+01  0.12180652771E+02  0.48062785755E+01  0.16166533250E+02  0.00000000000E+00 0. -1.
</event>
<event>
 8    1  0.2971508E-007  0.9118800E+02  0.7816164E-02  0.1184000E+00
        -11   -1    0    0    0    0  0.00000000000E+00  0.00000000000E+00  0.45593999997E+02  0.45594000000E+02  0.51100000000E-03 0.  1.
         11   -1    0    0    0    0 -0.00000000000E+00 -0.00000000000E+00 -0.45593999997E+02  0.45594000000E+02  0.51100000000E-03 0. -1.
         23    2    1    2    0    0  0.00000000000E+00 -0.17763568394E-14  0.35527136788E-14  0.91188000000E+02  0.91188000000E+02 0.  0.
    9900012    2    3    3    0    0  0.24018171776E+02  0.73913283068E+01 -0.26912376487E+02  0.54367077717E+02  0.39999985272E+02 0.  0.
        -12    1    3    3    0    0 -0.24018171776E+02 -0.73913283068E+01  0.26912376487E+02  0.36820922283E+02  0.00000000000E+00 0.  1.
         11    1    4    4    0    0 -0.28052813537E+01  0.72290933371E+00 -0.62235689070E+01  0.68647659523E+01  0.51100000000E-03 0. -1.
        -11    1    4    4    0    0  0.26591081510E+02  0.15430321215E+02 -0.74644383122E+01  0.31636976282E+02  0.51100000000E-03 0.  1.
        -12    1    4    4    0    0  0.23237161919E+00 -0.87619022418E+01 -0.13224369268E+02  0.15865335483E+02  0.00000000000E+00 0.  1.
</event>
<event>
 8    1  0.2971508E-007  0.9118800E+02  0.7816164E-02  0.1184000E+00
        -11   -1    0    0    0    0  0.00000000000E+00  0.00000000000E+00  0.45593999997E+02  0.45594000000E+02  0.51100000000E-03 0. -1.
         11   -1    0    0    0    0 -0.00000000000E+00 -0.00000000000E+00 -0.45593999997E+02  0.45594000000E+02  0.51100000000E-03 0.  1.
         23    2    1    2    0    0  0.00000000000E+00  0.00000000000E+00  0.17763568394E-14  0.91188000000E+02  0.91188000000E+02 0.  0.
    9900012    2    3    3    0    0  0.18767309973E+02  0.30769287950E+02 -0.75375861007E+01  0.54367133514E+02  0.40000112471E+02 0.  0.
         12    1    3    3    0    0 -0.18767309973E+02 -0.30769287950E+02  0.75375861007E+01  0.36820866486E+02  0.00000000000E+00 0. -1.
         11    1    4    4    0    0  0.14059413587E+02  0.31793443069E+02 -0.31691614548E+01  0.34907502305E+02  0.51100000000E-03 0. -1.
        -11    1    4    4    0    0  0.26665753843E+01 -0.36570530781E+00 -0.11604401979E+02  0.11912451897E+02  0.51100000000E-03 0.  1.
         12    1    4    4    0    0  0.20413210012E+01 -0.65844981105E+00  0.72359773334E+01  0.75471793110E+01  0.00000000000E+00 0. -1.
</event>
<event>
 8    1  0.2971508E-007  0.9118800E+02  0.7816164E-02  0.1184000E+00
        -11   -1    0    0    0    0  0.00000000000E+00  0.00000000000E+00  0.45593999997E+02  0.45594000000E+02  0.51100000000E-03 0.  1.
         11   -1    0    0    0    0 -0.00000000000E+00 -0.00000000000E+00 -0.45593999997E+02  0.45594000000E+02  0.51100000000E-03 0. -1.
         23    2    1    2    0    0  0.35527136788E-14 -0.35527136788E-14 -0.17763568394E-14  0.91188000000E+02  0.91188000000E+02 0.  0.
    9900012    2    3    3    0    0 -0.29534805331E+02  0.19153015903E+02  0.10799889382E+02  0.54367077215E+02  0.39999984126E+02 0.  0.
         12    1    3    3    0    0  0.29534805331E+02 -0.19153015903E+02 -0.10799889382E+02  0.36820922785E+02  0.00000000000E+00 0. -1.
         11    1    4    4    0    0  0.65053452133E+00 -0.57279788855E+01  0.64340792744E+00  0.58005957710E+01  0.51100000000E-03 0. -1.
        -11    1    4    4    0    0 -0.53939724271E+01 -0.56500324679E+01  0.39420488941E+01  0.87497174342E+01  0.51100000000E-03 0.  1.
         12    1    4    4    0    0 -0.24791367425E+02  0.30531027256E+02  0.62144325608E+01  0.39816764009E+02  0.00000000000E+00 0. -1.
</event>
<event>
 8    1  0.2971508E-007  0.9118800E+02  0.7816164E-02  0.1184000E+00
        -11   -1    0    0    0    0  0.00000000000E+00  0.00000000000E+00  0.45593999997E+02  0.45594000000E+02  0.51100000000E-03 0. -1.
         11   -1    0    0    0    0 -0.00000000000E+00 -0.00000000000E+00 -0.45593999997E+02  0.45594000000E+02  0.51100000000E-03 0.  1.
         23    2    1    2    0    0 -0.35527136788E-14  0.00000000000E+00  0.00000000000E+00  0.91188000000E+02  0.91188000000E+02 0.  0.
    9900012    2    3    3    0    0 -0.29759705879E+02  0.80326770610E+01  0.20139979705E+02  0.54367044319E+02  0.39999909134E+02 0.  0.
        -12    1    3    3    0    0  0.29759705879E+02 -0.80326770610E+01 -0.20139979705E+02  0.36820955681E+02  0.00000000000E+00 0.  1.
         11    1    4    4    0    0  0.24903158777E+01  0.59533888733E+01  0.11860296776E+02  0.13502264703E+02  0.51100000000E-03 0. -1.
        -11    1    4    4    0    0  0.16762300707E+01  0.26016068364E+01  0.61294305792E+01  0.68664419365E+01  0.51100000000E-03 0.  1.
         12    1    4    4    0    0 -0.33926251827E+02 -0.52231864859E+00  0.21502523497E+01  0.33998337679E+02  0.00000000000E+00 0. -1.
</event>
<event>
 8    1  0.2971508E-007  0.9118800E+02  0.7816164E-02  0.1184000E+00
        -11   -1    0    0    0    0  0.00000000000E+00  0.00000000000E+00  0.45593999997E+02  0.45594000000E+02  0.51100000000E-03 0.  1.
         11   -1    0    0    0    0 -0.00000000000E+00 -0.00000000000E+00 -0.45593999997E+02  0.45594000000E+02  0.51100000000E-03 0. -1.
         23    2    1    2    0    0  0.17763568394E-14  0.71054273576E-14  0.00000000000E+00  0.91188000000E+02  0.91188000000E+02 0.  0.
    9900012    2    3    3    0    0  0.68271441556E+01  0.25631591904E+02  0.25538042604E+02  0.54367081748E+02  0.39999994461E+02 0.  0.
        -12    1    3    3    0    0 -0.68271441556E+01 -0.25631591904E+02 -0.25538042604E+02  0.36820918252E+02  0.00000000000E+00 0.  1.
         11    1    4    4    0    0 -0.30876986538E+01 -0.44521221399E+01 -0.46483238958E+01  0.71387806960E+01  0.51100000000E-03 0. -1.
        -11    1    4    4    0    0 -0.60101358998E+00 -0.20287882388E+01  0.38254113107E+01  0.43716096590E+01  0.51100000000E-03 0.  1.
         12    1    4    4    0    0  0.10515856399E+02  0.32112502283E+02  0.26360955189E+02  0.42856691393E+02  0.00000000000E+00 0. -1.
</event>
<event>
 8    1  0.2971508E-007  0.9118800E+02  0.7816164E-02  0.1184000E+00
        -11   -1    0    0    0    0  0.00000000000E+00  0.00000000000E+00  0.45593999997E+02  0.45594000000E+02  0.51100000000E-03 0. -1.
         11   -1    0    0    0    0 -0.00000000000E+00 -0.00000000000E+00 -0.45593999997E+02  0.45594000000E+02  0.51100000000E-03 0.  1.
         23    2    1    2    0    0  0.44408920985E-15  0.35527136788E-14 -0.35527136788E-14  0.91188000000E+02  0.91188000000E+02 0.  0.
    9900012    2    3    3    0    0 -0.27373891797E+01 -0.24497438631E+02  0.27352476124E+02  0.54367139756E+02  0.40000126701E+02 0.  0.
        -12    1    3    3    0    0  0.27373891797E+01  0.24497438631E+02 -0.27352476124E+02  0.36820860244E+02  0.00000000000E+00 0.  1.
         11    1    4    4    0    0  0.13020706198E+01 -0.11415046303E+02  0.13110287479E+02  0.17432105669E+02  0.51100000000E-03 0. -1.
        -11    1    4    4    0    0 -0.84928279294E+01 -0.21610903590E+02  0.14381574108E+02  0.27312798361E+02  0.51100000000E-03 0.  1.
        -12    1    4    4    0    0  0.44533681299E+01  0.85285112625E+01 -0.13938546354E+00  0.96222357258E+01  0.00000000000E+00 0.  1.
</event>
<event>
 8    1  0.2971508E-007  0.9118800E+02  0.7816164E-02  0.1184000E+00
        -11   -1    0    0    0    0  0.00000000000E+00  0.00000000000E+00  0.45593999997E+02  0.45594000000E+02  0.51100000000E-03 0.  1.
         11   -1    0    0    0    0 -0.00000000000E+00 -0.00000000000E+00 -0.45593999997E+02  0.45594000000E+02  0.51100000000E-03 0. -1.
         23    2    1    2    0    0 -0.71054273576E-14 -0.17763568394E-14  0.00000000000E+00  0.91188000000E+02  0.91188000000E+02 0.  0.
    9900012    2    3    3    0    0 -0.33278438632E+02  0.14249172726E+02  0.67296150466E+01  0.54367066826E+02  0.39999960442E+02 0.  0.
        -12    1    3    3    0    0  0.33278438632E+02 -0.14249172726E+02 -0.67296150466E+01  0.36820933174E+02  0.00000000000E+00 0.  1.
         11    1    4    4    0    0 -0.86431966298E+01  0.52664650405E+01  0.73809283751E+00  0.10148166500E+02  0.51100000000E-03 0. -1.
        -11    1    4    4    0    0 -0.24860625649E+02 -0.32695354069E+01  0.14809695658E+02  0.29121601178E+02  0.51100000000E-03 0.  1.
        -12    1    4    4    0    0  0.22538364698E+00  0.12252243093E+02 -0.88181734489E+01  0.15097299148E+02  0.00000000000E+00 0.  1.
</event>
<event>
 8    1  0.2971508E-007  0.9118800E+02  0.7816164E-02  0.1184000E+00
        -11   -1    0    0    0    0  0.00000000000E+00  0.00000000000E+00  0.45593999997E+02  0.45594000000E+02  0.51100000000E-03 0.  1.
         11   -1    0    0    0    0 -0.00000000000E+00 -0.00000000000E+00 -0.45593999997E+02  0.45594000000E+02  0.51100000000E-03 0. -1.
         23    2    1    2    0    0  0.00000000000E+00  0.35527136788E-14  0.35527136788E-14  0.91188000000E+02  0.91188000000E+02 0.  0.
    9900012    2    3    3    0    0 -0.55960471539E+01 -0.26591317678E+02 -0.24846708030E+02  0.54367179538E+02  0.40000217391E+02 0.  0.
        -12    1    3    3    0    0  0.55960471539E+01  0.26591317678E+02  0.24846708030E+02  0.36820820462E+02  0.00000000000E+00 0.  1.
         11    1    4    4    0    0 -0.56783464522E+00 -0.24167909511E+01 -0.14413749700E+02  0.14625986988E+02  0.51100000000E-03 0. -1.
        -11    1    4    4    0    0  0.11991474065E+02 -0.12699512921E+02 -0.74901324949E+01  0.19004609013E+02  0.51100000000E-03 0.  1.
        -12    1    4    4    0    0 -0.17019686574E+02 -0.11475013806E+02 -0.29428258351E+01  0.20736583538E+02  0.00000000000E+00 0.  1.
</event>
<event>
 8    1  0.2971508E-007  0.9118800E+02  0.7816164E-02  0.1184000E+00
        -11   -1    0    0    0    0  0.00000000000E+00  0.00000000000E+00  0.45593999997E+02  0.45594000000E+02  0.51100000000E-03 0.  1.
         11   -1    0    0    0    0 -0.00000000000E+00 -0.00000000000E+00 -0.45593999997E+02  0.45594000000E+02  0.51100000000E-03 0. -1.
         23    2    1    2    0    0  0.00000000000E+00  0.00000000000E+00 -0.35527136788E-14  0.91188000000E+02  0.91188000000E+02 0.  0.
    9900012    2    3    3    0    0  0.27856257965E+02  0.10793851623E+01 -0.24055025156E+02  0.54367076391E+02  0.39999982249E+02 0.  0.
        -12    1    3    3    0    0 -0.27856257965E+02 -0.10793851623E+01  0.24055025156E+02  0.36820923609E+02  0.00000000000E+00 0.  1.
         11    1    4    4    0    0  0.15576406924E+01 -0.62773943270E+01  0.19694746373E+01  0.67609729086E+01  0.51100000000E-03 0. -1.
        -11    1    4    4    0    0  0.16992573026E+02  0.13244816877E+02 -0.25730570617E+01  0.21697772583E+02  0.51100000000E-03 0.  1.
         12    1    4    4    0    0  0.93060442464E+01 -0.58880373881E+01 -0.23451442732E+02  0.25908330900E+02  0.00000000000E+00 0. -1.
</event>
<event>
 8    1  0.2971508E-007  0.9118800E+02  0.7816164E-02  0.1184000E+00
        -11   -1    0    0    0    0  0.00000000000E+00  0.00000000000E+00  0.45593999997E+02  0.45594000000E+02  0.51100000000E-03 0. -1.
         11   -1    0    0    0    0 -0.00000000000E+00 -0.00000000000E+00 -0.45593999997E+02  0.45594000000E+02  0.51100000000E-03 0.  1.
         23    2    1    2    0    0  0.00000000000E+00 -0.17763568394E-14  0.00000000000E+00  0.91188000000E+02  0.91188000000E+02 0.  0.
    9900012    2    3    3    0    0  0.33137086195E+02  0.12409669579E+02  0.10183933633E+02  0.54367097176E+02  0.40000029633E+02 0.  0.
         12    1    3    3    0    0 -0.33137086195E+02 -0.12409669579E+02 -0.10183933633E+02  0.36820902824E+02  0.00000000000E+00 0. -1.
         11    1    4    4    0    0  0.21201301904E+02  0.16265530954E+01 -0.60729080222E+01  0.22113821232E+02  0.51100000000E-03 0. -1.
        -11    1    4    4    0    0  0.10568505444E+02  0.11551924239E+02 -0.26296583937E+00  0.15659163842E+02  0.51100000000E-03 0.  1.
         12    1    4    4    0    0  0.13672788471E+01 -0.76880775580E+00  0.16519807494E+02  0.16594112102E+02  0.00000000000E+00 0. -1.
</event>
<event>
 8    1  0.2971508E-007  0.9118800E+02  0.7816164E-02  0.1184000E+00
        -11   -1    0    0    0    0  0.00000000000E+00  0.00000000000E+00  0.45593999997E+02  0.45594000000E+02  0.51100000000E-03 0. -1.
         11   -1    0    0    0    0 -0.00000000000E+00 -0.00000000000E+00 -0.45593999997E+02  0.45594000000E+02  0.51100000000E-03 0.  1.
         23    2    1    2    0    0  0.00000000000E+00  0.17763568394E-14  0.00000000000E+00  0.91188000000E+02  0.91188000000E+02 0.  0.
    9900012    2    3    3    0    0 -0.11072534361E+02 -0.14183652809E+02  0.32124810486E+02  0.54367075610E+02  0.39999980467E+02 0.  0.
        -12    1    3    3    0    0  0.11072534361E+02  0.14183652809E+02 -0.32124810486E+02  0.36820924390E+02  0.00000000000E+00 0.  1.
         11    1    4    4    0    0  0.13235537087E+02 -0.40228113824E+01  0.13965054985E+02  0.19656683708E+02  0.51100000000E-03 0. -1.
        -11    1    4    4    0    0 -0.11948558209E+02 -0.11567405126E+02  0.71639626393E+01  0.18107878550E+02  0.51100000000E-03 0.  1.
         12    1    4    4    0    0 -0.12359513239E+02  0.14065636996E+01  0.10995792862E+02  0.16602513352E+02  0.00000000000E+00 0. -1.
</event>
<event>
 8    1  0.2971508E-007  0.9118800E+02  0.7816164E-02  0.1184000E+00
        -11   -1    0    0    0    0  0.00000000000E+00  0.00000000000E+00  0.45593999997E+02  0.45594000000E+02  0.51100000000E-03 0.  1.
         11   -1    0    0    0    0 -0.00000000000E+00 -0.00000000000E+00 -0.45593999997E+02  0.45594000000E+02  0.51100000000E-03 0. -1.
         23    2    1    2    0    0  0.88817841970E-15 -0.44408920985E-14 -0.71054273576E-14  0.91188000000E+02  0.91188000000E+02 0.  0.
    9900012    2    3    3    0    0  0.57947589107E+01 -0.69354522146E+01 -0.35694567772E+02  0.54367056277E+02  0.39999936394E+02 0.  0.
        -12    1    3    3    0    0 -0.57947589107E+01  0.69354522146E+01  0.35694567772E+02  0.36820943723E+02  0.00000000000E+00 0.  1.
         11    1    4    4    0    0  0.39518390459E+00 -0.13841775818E+02 -0.11352208944E+02  0.17905964824E+02  0.51100000000E-03 0. -1.
        -11    1    4    4    0    0  0.11489706411E+02 -0.32874036496E+01 -0.34647882266E+01  0.12442874824E+02  0.51100000000E-03 0.  1.
         12    1    4    4    0    0 -0.60901314050E+01  0.10193727253E+02 -0.20877570601E+02  0.24018216629E+02  0.00000000000E+00 0. -1.
</event>
<event>
 8    1  0.2971508E-007  0.9118800E+02  0.7816164E-02  0.1184000E+00
        -11   -1    0    0    0    0  0.00000000000E+00  0.00000000000E+00  0.45593999997E+02  0.45594000000E+02  0.51100000000E-03 0. -1.
         11   -1    0    0    0    0 -0.00000000000E+00 -0.00000000000E+00 -0.45593999997E+02  0.45594000000E+02  0.51100000000E-03 0.  1.
         23    2    1    2    0    0  0.00000000000E+00  0.00000000000E+00 -0.17763568394E-14  0.91188000000E+02  0.91188000000E+02 0.  0.
    9900012    2    3    3    0    0 -0.17220000463E+02 -0.30098156754E+02  0.12383555854E+02  0.54367083234E+02  0.39999997848E+02 0.  0.
        -12    1    3    3    0    0  0.17220000463E+02  0.30098156754E+02 -0.12383555854E+02  0.36820916766E+02  0.00000000000E+00 0.  1.
         11    1    4    4    0    0 -0.15342017398E+02 -0.22708070218E+02  0.83460529602E+01  0.28647697135E+02  0.51100000000E-03 0. -1.
        -11    1    4    4    0    0 -0.12635626539E+02 -0.47919337801E+01 -0.10187294649E+01  0.13552103061E+02  0.51100000000E-03 0.  1.
        -12    1    4    4    0    0  0.10757643474E+02 -0.25981527561E+01  0.50562323584E+01  0.12167283038E+02  0.00000000000E+00 0.  1.
</event>
<event>
 8    1  0.2971508E-007  0.9118800E+02  0.7816164E-02  0.1184000E+00
        -11   -1    0    0    0    0  0.00000000000E+00  0.00000000000E+00  0.45593999997E+02  0.45594000000E+02  0.51100000000E-03 0.  1.
         11   -1    0    0    0    0 -0.00000000000E+00 -0.00000000000E+00 -0.45593999997E+02  0.45594000000E+02  0.51100000000E-03 0. -1.
         23    2    1    2    0    0 -0.17763568394E-14 -0.17763568394E-14  0.00000000000E+00  0.91188000000E+02  0.91188000000E+02 0.  0.
    9900012    2    3    3    0    0 -0.35106374957E+01 -0.12948740208E+02 -0.34289730015E+02  0.54367081583E+02  0.39999994084E+02 0.  0.
        -12    1    3    3    0    0  0.35106374957E+01  0.12948740208E+02  0.34289730015E+02  0.36820918417E+02  0.00000000000E+00 0.  1.
         11    1    4    4    0    0 -0.13235810657E+02  0.26986510492E+01 -0.12838700658E+01  0.13568998630E+02  0.51100000000E-03 0.  1.
        -11    1    4    4    0    0  0.54667254345E+01 -0.15227669453E+02 -0.14248786261E+02  0.21559102814E+02  0.51100000000E-03 0. -1.
        -12    1    4    4    0    0  0.42584477263E+01 -0.41972180424E+00 -0.18757073688E+02  0.19238980139E+02  0.00000000000E+00 0.  1.
</event>
<event>
 8    1  0.2971508E-007  0.9118800E+02  0.7816164E-02  0.1184000E+00
        -11   -1    0    0    0    0  0.00000000000E+00  0.00000000000E+00  0.45593999997E+02  0.45594000000E+02  0.51100000000E-03 0. -1.
         11   -1    0    0    0    0 -0.00000000000E+00 -0.00000000000E+00 -0.45593999997E+02  0.45594000000E+02  0.51100000000E-03 0.  1.
         23    2    1    2    0    0 -0.35527136788E-14  0.35527136788E-14  0.00000000000E+00  0.91188000000E+02  0.91188000000E+02 0.  0.
    9900012    2    3    3    0    0 -0.19923481616E+02  0.29658906759E+02 -0.88983164897E+01  0.54367137623E+02  0.40000121838E+02 0.  0.
         12    1    3    3    0    0  0.19923481616E+02 -0.29658906759E+02  0.88983164897E+01  0.36820862377E+02  0.00000000000E+00 0. -1.
         11    1    4    4    0    0 -0.24410973795E+02  0.22468452361E+02 -0.70487858941E+01  0.33917729522E+02  0.51100000000E-03 0. -1.
        -11    1    4    4    0    0 -0.59037944557E+00 -0.39614203048E+01  0.50039902100E+01  0.64094708833E+01  0.51100000000E-03 0.  1.
        -12    1    4    4    0    0  0.50778716240E+01  0.11151874703E+02 -0.68535208056E+01  0.14039937217E+02  0.00000000000E+00 0.  1.
</event>
<event>
 8    1  0.2971508E-007  0.9118800E+02  0.7816164E-02  0.1184000E+00
        -11   -1    0    0    0    0  0.00000000000E+00  0.00000000000E+00  0.45593999997E+02  0.45594000000E+02  0.51100000000E-03 0.  1.
         11   -1    0    0    0    0 -0.00000000000E+00 -0.00000000000E+00 -0.45593999997E+02  0.45594000000E+02  0.51100000000E-03 0. -1.
         23    2    1    2    0    0  0.00000000000E+00 -0.35527136788E-14 -0.35527136788E-14  0.91188000000E+02  0.91188000000E+02 0.  0.
    9900012    2    3    3    0    0  0.41663532256E+01 -0.25529712310E+02  0.26204092933E+02  0.54367092946E+02  0.40000019989E+02 0.  0.
         12    1    3    3    0    0 -0.41663532256E+01  0.25529712310E+02 -0.26204092933E+02  0.36820907054E+02  0.00000000000E+00 0. -1.
         11    1    4    4    0    0  0.12764712581E+02 -0.17969490881E+02  0.54385626588E+00  0.22048498128E+02  0.51100000000E-03 0. -1.
        -11    1    4    4    0    0  0.26222367650E+01 -0.36999694200E+01  0.57867151813E+00  0.45717349385E+01  0.51100000000E-03 0.  1.
        -12    1    4    4    0    0 -0.11220596120E+02 -0.38602520090E+01  0.25081565149E+02  0.27746859880E+02  0.00000000000E+00 0.  1.
</event>
<event>
 8    1  0.2971508E-007  0.9118800E+02  0.7816164E-02  0.1184000E+00
        -11   -1    0    0    0    0  0.00000000000E+00  0.00000000000E+00  0.45593999997E+02  0.45594000000E+02  0.51100000000E-03 0.  1.
         11   -1    0    0    0    0 -0.00000000000E+00 -0.00000000000E+00 -0.45593999997E+02  0.45594000000E+02  0.51100000000E-03 0. -1.
         23    2    1    2    0    0  0.17763568394E-14  0.00000000000E+00  0.00000000000E+00  0.91188000000E+02  0.91188000000E+02 0.  0.
    9900012    2    3    3    0    0  0.13921247666E+02 -0.23138424707E+02 -0.25031825820E+02  0.54367080153E+02  0.39999990826E+02 0.  0.
        -12    1    3    3    0    0 -0.13921247666E+02  0.23138424707E+02  0.25031825820E+02  0.36820919847E+02  0.00000000000E+00 0.  1.
         11    1    4    4    0    0 -0.94837219602E+00 -0.52352653111E+01 -0.11969095583E+02  0.13098345775E+02  0.51100000000E-03 0. -1.
        -11    1    4    4    0    0  0.24159954282E+02 -0.89211225125E+01 -0.56347056558E+01  0.26363606087E+02  0.51100000000E-03 0.  1.
         12    1    4    4    0    0 -0.92903344207E+01 -0.89820368833E+01 -0.74280245809E+01  0.14905128292E+02  0.00000000000E+00 0. -1.
</event>
<event>
 8    1  0.2971508E-007  0.9118800E+02  0.7816164E-02  0.1184000E+00
        -11   -1    0    0    0    0  0.00000000000E+00  0.00000000000E+00  0.45593999997E+02  0.45594000000E+02  0.51100000000E-03 0.  1.
         11   -1    0    0    0    0 -0.00000000000E+00 -0.00000000000E+00 -0.45593999997E+02  0.45594000000E+02  0.51100000000E-03 0. -1.
         23    2    1    2    0    0  0.13322676296E-14  0.35527136788E-14  0.00000000000E+00  0.91188000000E+02  0.91188000000E+02 0.  0.
    9900012    2    3    3    0    0 -0.17593100332E+01 -0.31451375960E+02  0.19065551606E+02  0.54367089098E+02  0.40000011217E+02 0.  0.
         12    1    3    3    0    0  0.17593100332E+01  0.31451375960E+02 -0.19065551606E+02  0.36820910902E+02  0.00000000000E+00 0. -1.
         11    1    4    4    0    0 -0.13044724861E+02 -0.21850261461E+02  0.12095192679E+02  0.28176097296E+02  0.51100000000E-03 0. -1.
        -11    1    4    4    0    0 -0.12257612444E+01 -0.12265846792E+02  0.47364796118E+01  0.13205594554E+02  0.51100000000E-03 0.  1.
         12    1    4    4    0    0  0.12511176072E+02  0.26647322923E+01  0.22338793154E+01  0.12985397248E+02  0.00000000000E+00 0. -1.
</event>
<event>
 8    1  0.2971508E-007  0.9118800E+02  0.7816164E-02  0.1184000E+00
        -11   -1    0    0    0    0  0.00000000000E+00  0.00000000000E+00  0.45593999997E+02  0.45594000000E+02  0.51100000000E-03 0.  1.
         11   -1    0    0    0    0 -0.00000000000E+00 -0.00000000000E+00 -0.45593999997E+02  0.45594000000E+02  0.51100000000E-03 0. -1.
         23    2    1    2    0    0  0.00000000000E+00  0.00000000000E+00 -0.17763568394E-14  0.91188000000E+02  0.91188000000E+02 0.  0.
    9900012    2    3    3    0    0 -0.22706423644E+02  0.26438251814E+02 -0.11883377494E+02  0.54367116057E+02  0.40000072675E+02 0.  0.
        -12    1    3    3    0    0  0.22706423644E+02 -0.26438251814E+02  0.11883377494E+02  0.36820883943E+02  0.00000000000E+00 0.  1.
         11    1    4    4    0    0 -0.81395370503E+00  0.52948805093E+00  0.64760398317E+01  0.65484326669E+01  0.51100000000E-03 0. -1.
        -11    1    4    4    0    0  0.35693124374E+01  0.12300539698E+02  0.13251785359E+01  0.12876310285E+02  0.51100000000E-03 0.  1.
         12    1    4    4    0    0 -0.25461782377E+02  0.13608224065E+02 -0.19684595862E+02  0.34942373105E+02  0.00000000000E+00 0. -1.
</event>
<event>
 8    1  0.2971508E-007  0.9118800E+02  0.7816164E-02  0.1184000E+00
        -11   -1    0    0    0    0  0.00000000000E+00  0.00000000000E+00  0.45593999997E+02  0.45594000000E+02  0.51100000000E-03 0.  1.
         11   -1    0    0    0    0 -0.00000000000E+00 -0.00000000000E+00 -0.45593999997E+02  0.45594000000E+02  0.51100000000E-03 0. -1.
         23    2    1    2    0    0  0.35527136788E-14  0.17763568394E-14  0.17763568394E-14  0.91188000000E+02  0.91188000000E+02 0.  0.
    9900012    2    3    3    0    0 -0.31977781005E+02 -0.11323892599E+02 -0.14316408503E+02  0.54367237188E+02  0.40000348816E+02 0.  0.
         12    1    3    3    0    0  0.31977781005E+02  0.11323892599E+02  0.14316408503E+02  0.36820762812E+02  0.00000000000E+00 0. -1.
         11    1    4    4    0    0  0.66726661207E+00  0.33720176446E+01 -0.54958157048E+01  0.64822633585E+01  0.51100000000E-03 0. -1.
        -11    1    4    4    0    0 -0.38147577880E+02 -0.16049869130E+02 -0.73974461778E+01  0.42042338272E+02  0.51100000000E-03 0.  1.
        -12    1    4    4    0    0  0.55025302621E+01  0.13539588872E+01 -0.14231466204E+01  0.58426355574E+01  0.00000000000E+00 0.  1.
</event>
<event>
 8    1  0.2971508E-007  0.9118800E+02  0.7816164E-02  0.1184000E+00
        -11   -1    0    0    0    0  0.00000000000E+00  0.00000000000E+00  0.45593999997E+02  0.45594000000E+02  0.51100000000E-03 0. -1.
         11   -1    0    0    0    0 -0.00000000000E+00 -0.00000000000E+00 -0.45593999997E+02  0.45594000000E+02  0.51100000000E-03 0.  1.
         23    2    1    2    0    0  0.00000000000E+00  0.00000000000E+00  0.00000000000E+00  0.91188000000E+02  0.91188000000E+02 0.  0.
    9900012    2    3    3    0    0  0.10060049879E+02 -0.22379170230E+02  0.27454454898E+02  0.54367096189E+02  0.40000027381E+02 0.  0.
         12    1    3    3    0    0 -0.10060049879E+02  0.22379170230E+02 -0.27454454898E+02  0.36820903811E+02  0.00000000000E+00 0. -1.
         11    1    4    4    0    0  0.41132875637E+01 -0.24076271633E+02  0.30991758339E+02  0.39459790617E+02  0.51100000000E-03 0. -1.
        -11    1    4    4    0    0 -0.36911242149E+01 -0.18710479399E+01 -0.37805062167E+00  0.41554952650E+01  0.51100000000E-03 0.  1.
        -12    1    4    4    0    0  0.96378865299E+01  0.35681493433E+01 -0.31592528190E+01  0.10751810307E+02  0.00000000000E+00 0.  1.
</event>
<event>
 8    1  0.2971508E-007  0.9118800E+02  0.7816164E-02  0.1184000E+00
        -11   -1    0    0    0    0  0.00000000000E+00  0.00000000000E+00  0.45593999997E+02  0.45594000000E+02  0.51100000000E-03 0.  1.
         11   -1    0    0    0    0 -0.00000000000E+00 -0.00000000000E+00 -0.45593999997E+02  0.45594000000E+02  0.51100000000E-03 0. -1.
         23    2    1    2    0    0  0.00000000000E+00  0.00000000000E+00  0.17763568394E-14  0.91188000000E+02  0.91188000000E+02 0.  0.
    9900012    2    3    3    0    0  0.29866665825E+02  0.20584796203E+02  0.63268318924E+01  0.54367077089E+02  0.39999983839E+02 0.  0.
         12    1    3    3    0    0 -0.29866665825E+02 -0.20584796203E+02 -0.63268318924E+01  0.36820922911E+02  0.00000000000E+00 0. -1.
         11    1    4    4    0    0 -0.67642103497E+01 -0.20789935591E+01 -0.23809374503E+01  0.74662989008E+01  0.51100000000E-03 0. -1.
        -11    1    4    4    0    0  0.31469507072E+02  0.24452719872E+02  0.10389740422E+02  0.41185095493E+02  0.51100000000E-03 0.  1.
         12    1    4    4    0    0  0.51613691032E+01 -0.17889301093E+01 -0.16819710793E+01  0.57156826948E+01  0.00000000000E+00 0. -1.
</event>
<event>
 8    1  0.2971508E-007  0.9118800E+02  0.7816164E-02  0.1184000E+00
        -11   -1    0    0    0    0  0.00000000000E+00  0.00000000000E+00  0.45593999997E+02  0.45594000000E+02  0.51100000000E-03 0. -1.
         11   -1    0    0    0    0 -0.00000000000E+00 -0.00000000000E+00 -0.45593999997E+02  0.45594000000E+02  0.51100000000E-03 0.  1.
         23    2    1    2    0    0  0.44408920985E-15 -0.88817841970E-15  0.00000000000E+00  0.91188000000E+02  0.91188000000E+02 0.  0.
    9900012    2    3    3    0    0 -0.29598215253E+01  0.74498696502E+01  0.35937705445E+02  0.54367085102E+02  0.40000002107E+02 0.  0.
        -12    1    3    3    0    0  0.29598215253E+01 -0.74498696502E+01 -0.35937705445E+02  0.36820914898E+02  0.00000000000E+00 0.  1.
         11    1    4    4    0    0  0.60172908308E+01  0.64943222860E+01 -0.48902597700E+00  0.88669700329E+01  0.51100000000E-03 0.  1.
        -11    1    4    4    0    0 -0.17068903774E+02 -0.26770936728E+01  0.29731259384E+02  0.34386946526E+02  0.51100000000E-03 0. -1.
         12    1    4    4    0    0  0.80917914174E+01  0.36326410370E+01  0.66954720378E+01  0.11113168543E+02  0.00000000000E+00 0. -1.
</event>
<event>
 8    1  0.2971508E-007  0.9118800E+02  0.7816164E-02  0.1184000E+00
        -11   -1    0    0    0    0  0.00000000000E+00  0.00000000000E+00  0.45593999997E+02  0.45594000000E+02  0.51100000000E-03 0.  1.
         11   -1    0    0    0    0 -0.00000000000E+00 -0.00000000000E+00 -0.45593999997E+02  0.45594000000E+02  0.51100000000E-03 0. -1.
         23    2    1    2    0    0  0.71054273576E-14  0.00000000000E+00  0.00000000000E+00  0.91188000000E+02  0.91188000000E+02 0.  0.
    9900012    2    3    3    0    0 -0.24323855753E+02 -0.20196910430E+02  0.18873645145E+02  0.54367087047E+02  0.40000006542E+02 0.  0.
         12    1    3    3    0    0  0.24323855753E+02  0.20196910430E+02 -0.18873645145E+02  0.36820912953E+02  0.00000000000E+00 0. -1.
         11    1    4    4    0    0 -0.75752222672E+01 -0.14605515947E+02  0.43051707582E+01  0.17007045128E+02  0.51100000000E-03 0. -1.
        -11    1    4    4    0    0 -0.21984519492E+02 -0.12827003188E+02  0.11314383933E+02  0.27854378329E+02  0.51100000000E-03 0.  1.
         12    1    4    4    0    0  0.52358860061E+01  0.72356087047E+01  0.32540904537E+01  0.95056635895E+01  0.00000000000E+00 0. -1.
</event>
<event>
 8    1  0.2971508E-007  0.9118800E+02  0.7816164E-02  0.1184000E+00
        -11   -1    0    0    0    0  0.00000000000E+00  0.00000000000E+00  0.45593999997E+02  0.45594000000E+02  0.51100000000E-03 0. -1.
         11   -1    0    0    0    0 -0.00000000000E+00 -0.00000000000E+00 -0.45593999997E+02  0.45594000000E+02  0.51100000000E-03 0.  1.
         23    2    1    2    0    0  0.00000000000E+00  0.71054273576E-14 -0.44408920985E-15  0.91188000000E+02  0.91188000000E+02 0.  0.
    9900012    2    3    3    0    0  0.13527709258E+02 -0.34149655936E+02 -0.25654522801E+01  0.54367089314E+02  0.40000011710E+02 0.  0.
        -12    1    3    3    0    0 -0.13527709258E+02  0.34149655936E+02  0.25654522801E+01  0.36820910686E+02  0.00000000000E+00 0.  1.
         11    1    4    4    0    0  0.31223261128E+01  0.44971855834E+01 -0.40841238388E+01  0.68303489162E+01  0.51100000000E-03 0. -1.
        -11    1    4    4    0    0  0.10264583867E+02 -0.28629722898E+02 -0.10237570651E+02  0.32090973314E+02  0.51100000000E-03 0.  1.
         12    1    4    4    0    0  0.14079927787E+00 -0.10017118622E+02  0.11756242209E+02  0.15445767083E+02  0.00000000000E+00 0. -1.
</event>
<event>
 8    1  0.2971508E-007  0.9118800E+02  0.7816164E-02  0.1184000E+00
        -11   -1    0    0    0    0  0.00000000000E+00  0.00000000000E+00  0.45593999997E+02  0.45594000000E+02  0.51100000000E-03 0. -1.
         11   -1    0    0    0    0 -0.00000000000E+00 -0.00000000000E+00 -0.45593999997E+02  0.45594000000E+02  0.51100000000E-03 0.  1.
         23    2    1    2    0    0  0.00000000000E+00 -0.35527136788E-14  0.00000000000E+00  0.91188000000E+02  0.91188000000E+02 0.  0.
    9900012    2    3    3    0    0 -0.24129678741E+02  0.25354207023E+02 -0.11432536474E+02  0.54367080672E+02  0.39999992009E+02 0.  0.
         12    1    3    3    0    0  0.24129678741E+02 -0.25354207023E+02  0.11432536474E+02  0.36820919328E+02  0.00000000000E+00 0. -1.
         11    1    4    4    0    0 -0.18535199945E+01  0.38089775284E+01 -0.13604364229E+02  0.14248598967E+02  0.51100000000E-03 0. -1.
        -11    1    4    4    0    0 -0.52273929508E+01  0.19028758277E+02 -0.65647099044E+01  0.20796987643E+02  0.51100000000E-03 0.  1.
        -12    1    4    4    0    0 -0.17048765796E+02  0.25164712178E+01  0.87365376593E+01  0.19321494063E+02  0.00000000000E+00 0.  1.
</event>
<event>
 8    1  0.2971508E-007  0.9118800E+02  0.7816164E-02  0.1184000E+00
        -11   -1    0    0    0    0  0.00000000000E+00  0.00000000000E+00  0.45593999997E+02  0.45594000000E+02  0.51100000000E-03 0.  1.
         11   -1    0    0    0    0 -0.00000000000E+00 -0.00000000000E+00 -0.45593999997E+02  0.45594000000E+02  0.51100000000E-03 0. -1.
         23    2    1    2    0    0  0.00000000000E+00  0.00000000000E+00  0.00000000000E+00  0.91188000000E+02  0.91188000000E+02 0.  0.
    9900012    2    3    3    0    0 -0.36550726980E+02 -0.16958869697E+01  0.41165317273E+01  0.54367115860E+02  0.40000072225E+02 0.  0.
        -12    1    3    3    0    0  0.36550726980E+02  0.16958869697E+01 -0.41165317273E+01  0.36820884140E+02  0.00000000000E+00 0.  1.
         11    1    4    4    0    0 -0.11054079195E+02 -0.57435660596E+01 -0.46068630721E+01  0.13281732024E+02  0.51100000000E-03 0. -1.
        -11    1    4    4    0    0 -0.28017081121E+02  0.12360390663E+01 -0.35279297503E+01  0.28265366010E+02  0.51100000000E-03 0.  1.
        -12    1    4    4    0    0  0.25204333354E+01  0.28116400236E+01  0.12251324550E+02  0.12820017825E+02  0.00000000000E+00 0.  1.
</event>
<event>
 8    1  0.2971508E-007  0.9118800E+02  0.7816164E-02  0.1184000E+00
        -11   -1    0    0    0    0  0.00000000000E+00  0.00000000000E+00  0.45593999997E+02  0.45594000000E+02  0.51100000000E-03 0.  1.
         11   -1    0    0    0    0 -0.00000000000E+00 -0.00000000000E+00 -0.45593999997E+02  0.45594000000E+02  0.51100000000E-03 0. -1.
         23    2    1    2    0    0  0.35527136788E-14  0.00000000000E+00  0.00000000000E+00  0.91188000000E+02  0.91188000000E+02 0.  0.
    9900012    2    3    3    0    0  0.18603621355E+02 -0.17271834935E+02 -0.26671492978E+02  0.54367088180E+02  0.40000009125E+02 0.  0.
        -12    1    3    3    0    0 -0.18603621355E+02  0.17271834935E+02  0.26671492978E+02  0.36820911820E+02  0.00000000000E+00 0.  1.
         11    1    4    4    0    0  0.10251170607E+02  0.54732128810E+00  0.80775649481E+01  0.13062661105E+02  0.51100000000E-03 0. -1.
        -11    1    4    4    0    0  0.52620099286E+00  0.13353165873E+01 -0.39271109327E+01  0.41811671113E+01  0.51100000000E-03 0.  1.
         12    1    4    4    0    0  0.78262497559E+01 -0.19154472810E+02 -0.30821946993E+02  0.37123259964E+02  0.00000000000E+00 0. -1.
</event>
<event>
 8    1  0.2971508E-007  0.9118800E+02  0.7816164E-02  0.1184000E+00
        -11   -1    0    0    0    0  0.00000000000E+00  0.00000000000E+00  0.45593999997E+02  0.45594000000E+02  0.51100000000E-03 0.  1.
         11   -1    0    0    0    0 -0.00000000000E+00 -0.00000000000E+00 -0.45593999997E+02  0.45594000000E+02  0.51100000000E-03 0. -1.
         23    2    1    2    0    0  0.17763568394E-14  0.00000000000E+00 -0.71054273576E-14  0.91188000000E+02  0.91188000000E+02 0.  0.
    9900012    2    3    3    0    0  0.13578277450E+02  0.13373260207E+02  0.31505030772E+02  0.54367072920E+02  0.39999974337E+02 0.  0.
         12    1    3    3    0    0 -0.13578277450E+02 -0.13373260207E+02 -0.31505030772E+02  0.36820927080E+02  0.00000000000E+00 0. -1.
         11    1    4    4    0    0  0.68507755256E+01  0.17253584721E+01  0.69216712592E+01  0.98903751416E+01  0.51100000000E-03 0. -1.
        -11    1    4    4    0    0 -0.25048001973E+01  0.15519562893E+02  0.29421257228E+02  0.33357776208E+02  0.51100000000E-03 0.  1.
         12    1    4    4    0    0  0.92323021221E+01 -0.38716611586E+01 -0.48378977150E+01  0.11118921571E+02  0.00000000000E+00 0. -1.
</event>
<event>
 8    1  0.2971508E-007  0.9118800E+02  0.7816164E-02  0.1184000E+00
        -11   -1    0    0    0    0  0.00000000000E+00  0.00000000000E+00  0.45593999997E+02  0.45594000000E+02  0.51100000000E-03 0.  1.
         11   -1    0    0    0    0 -0.00000000000E+00 -0.00000000000E+00 -0.45593999997E+02  0.45594000000E+02  0.51100000000E-03 0. -1.
         23    2    1    2    0    0  0.00000000000E+00  0.88817841970E-15  0.00000000000E+00  0.91188000000E+02  0.91188000000E+02 0.  0.
    9900012    2    3    3    0    0 -0.69429690161E+01  0.38433805089E+01  0.35955577798E+02  0.54367082476E+02  0.39999996121E+02 0.  0.
         12    1    3    3    0    0  0.69429690161E+01 -0.38433805089E+01 -0.35955577798E+02  0.36820917524E+02  0.00000000000E+00 0. -1.
         11    1    4    4    0    0  0.52180551035E+01  0.57691047487E+01  0.98182159860E+01  0.12526293709E+02  0.51100000000E-03 0. -1.
        -11    1    4    4    0    0  0.15851987146E+01  0.11404473861E+02  0.31781917399E+01  0.11944696816E+02  0.51100000000E-03 0.  1.
         12    1    4    4    0    0 -0.13746222834E+02 -0.13330198101E+02  0.22959170072E+02  0.29896091952E+02  0.00000000000E+00 0. -1.
</event>
<event>
 8    1  0.2971508E-007  0.9118800E+02  0.7816164E-02  0.1184000E+00
        -11   -1    0    0    0    0  0.00000000000E+00  0.00000000000E+00  0.45593999997E+02  0.45594000000E+02  0.51100000000E-03 0.  1.
         11   -1    0    0    0    0 -0.00000000000E+00 -0.00000000000E+00 -0.45593999997E+02  0.45594000000E+02  0.51100000000E-03 0. -1.
         23    2    1    2    0    0  0.38857805862E-15  0.35527136788E-14  0.35527136788E-14  0.91188000000E+02  0.91188000000E+02 0.  0.
    9900012    2    3    3    0    0  0.28690200124E+00  0.26256639895E+02  0.25812529232E+02  0.54367080448E+02  0.39999991497E+02 0.  0.
         12    1    3    3    0    0 -0.28690200124E+00 -0.26256639895E+02 -0.25812529232E+02  0.36820919552E+02  0.00000000000E+00 0. -1.
         11    1    4    4    0    0 -0.57912846103E+01  0.27678107612E+01  0.22540668670E+02  0.23436755283E+02  0.51100000000E-03 0.  1.
        -11    1    4    4    0    0  0.58701992253E+01  0.58666030526E+01 -0.67135078698E+01  0.10674617487E+02  0.51100000000E-03 0. -1.
         12    1    4    4    0    0  0.20798738625E+00  0.17622226081E+02  0.99853684314E+01  0.20255707678E+02  0.00000000000E+00 0. -1.
</event>
<event>
 8    1  0.2971508E-007  0.9118800E+02  0.7816164E-02  0.1184000E+00
        -11   -1    0    0    0    0  0.00000000000E+00  0.00000000000E+00  0.45593999997E+02  0.45594000000E+02  0.51100000000E-03 0. -1.
         11   -1    0    0    0    0 -0.00000000000E+00 -0.00000000000E+00 -0.45593999997E+02  0.45594000000E+02  0.51100000000E-03 0.  1.
         23    2    1    2    0    0  0.00000000000E+00  0.00000000000E+00  0.00000000000E+00  0.91188000000E+02  0.91188000000E+02 0.  0.
    9900012    2    3    3    0    0  0.82609359966E+01 -0.10815014955E+02 -0.34213592334E+02  0.54367115811E+02  0.40000072115E+02 0.  0.
         12    1    3    3    0    0 -0.82609359966E+01  0.10815014955E+02  0.34213592334E+02  0.36820884189E+02  0.00000000000E+00 0. -1.
         11    1    4    4    0    0 -0.36362646451E+01  0.55690250944E+01 -0.26437054525E+01  0.71572089429E+01  0.51100000000E-03 0. -1.
        -11    1    4    4    0    0 -0.12423671473E+01 -0.17199981442E+01  0.51357292331E+01  0.55567602757E+01  0.51100000000E-03 0.  1.
        -12    1    4    4    0    0  0.13139567789E+02 -0.14664041905E+02 -0.36705616115E+02  0.41653146593E+02  0.00000000000E+00 0.  1.
</event>
<event>
 8    1  0.2971508E-007  0.9118800E+02  0.7816164E-02  0.1184000E+00
        -11   -1    0    0    0    0  0.00000000000E+00  0.00000000000E+00  0.45593999997E+02  0.45594000000E+02  0.51100000000E-03 0.  1.
         11   -1    0    0    0    0 -0.00000000000E+00 -0.00000000000E+00 -0.45593999997E+02  0.45594000000E+02  0.51100000000E-03 0. -1.
         23    2    1    2    0    0  0.35527136788E-14  0.00000000000E+00  0.00000000000E+00  0.91188000000E+02  0.91188000000E+02 0.  0.
    9900012    2    3    3    0    0  0.11648436547E+02  0.33916347641E+02 -0.83533727158E+01  0.54367033866E+02  0.39999885304E+02 0.  0.
         12    1    3    3    0    0 -0.11648436547E+02 -0.33916347641E+02  0.83533727158E+01  0.36820966134E+02  0.00000000000E+00 0. -1.
         11    1    4    4    0    0  0.16145500429E+01  0.25012507334E+01 -0.76943362899E+01  0.82502023173E+01  0.51100000000E-03 0. -1.
        -11    1    4    4    0    0  0.17932464464E+02  0.10833479357E+02  0.80079835075E+01  0.22429118503E+02  0.51100000000E-03 0.  1.
         12    1    4    4    0    0 -0.78985779597E+01  0.20581617551E+02 -0.86670199334E+01  0.23687713046E+02  0.00000000000E+00 0. -1.
</event>
<event>
 8    1  0.2971508E-007  0.9118800E+02  0.7816164E-02  0.1184000E+00
        -11   -1    0    0    0    0  0.00000000000E+00  0.00000000000E+00  0.45593999997E+02  0.45594000000E+02  0.51100000000E-03 0.  1.
         11   -1    0    0    0    0 -0.00000000000E+00 -0.00000000000E+00 -0.45593999997E+02  0.45594000000E+02  0.51100000000E-03 0. -1.
         23    2    1    2    0    0  0.00000000000E+00 -0.44408920985E-15  0.00000000000E+00  0.91188000000E+02  0.91188000000E+02 0.  0.
    9900012    2    3    3    0    0 -0.15315202085E+02  0.17710434371E+01  0.33437816394E+02  0.54367087803E+02  0.40000008266E+02 0.  0.
         12    1    3    3    0    0  0.15315202085E+02 -0.17710434371E+01 -0.33437816394E+02  0.36820912197E+02  0.00000000000E+00 0. -1.
         11    1    4    4    0    0 -0.99197752809E+01  0.61628835809E+01  0.23837473845E+01  0.11919116054E+02  0.51100000000E-03 0. -1.
        -11    1    4    4    0    0  0.23574585383E+01 -0.96167756431E+01 -0.11991768771E+00  0.99022404052E+01  0.51100000000E-03 0.  1.
        -12    1    4    4    0    0 -0.77528853423E+01  0.52249354993E+01  0.31173986698E+02  0.32545731344E+02  0.00000000000E+00 0.  1.
</event>
<event>
 8    1  0.2971508E-007  0.9118800E+02  0.7816164E-02  0.1184000E+00
        -11   -1    0    0    0    0  0.00000000000E+00  0.00000000000E+00  0.45593999997E+02  0.45594000000E+02  0.51100000000E-03 0. -1.
         11   -1    0    0    0    0 -0.00000000000E+00 -0.00000000000E+00 -0.45593999997E+02  0.45594000000E+02  0.51100000000E-03 0.  1.
         23    2    1    2    0    0 -0.17763568394E-14  0.00000000000E+00  0.71054273576E-14  0.91188000000E+02  0.91188000000E+02 0.  0.
    9900012    2    3    3    0    0 -0.11234732178E+02 -0.16538916404E+02  0.30919645855E+02  0.54367089328E+02  0.40000011741E+02 0.  0.
        -12    1    3    3    0    0  0.11234732178E+02  0.16538916404E+02 -0.30919645855E+02  0.36820910672E+02  0.00000000000E+00 0.  1.
         11    1    4    4    0    0  0.35500382393E+01 -0.10819251927E+01  0.39889042507E+01  0.54483659023E+01  0.51100000000E-03 0. -1.
        -11    1    4    4    0    0 -0.48320288505E+01 -0.13192425328E+02 -0.53721493571E+01  0.15041561682E+02  0.51100000000E-03 0.  1.
        -12    1    4    4    0    0 -0.99527415664E+01 -0.22645658828E+01  0.32302890962E+02  0.33877161744E+02  0.00000000000E+00 0.  1.
</event>
<event>
 8    1  0.2971508E-007  0.9118800E+02  0.7816164E-02  0.1184000E+00
        -11   -1    0    0    0    0  0.00000000000E+00  0.00000000000E+00  0.45593999997E+02  0.45594000000E+02  0.51100000000E-03 0.  1.
         11   -1    0    0    0    0 -0.00000000000E+00 -0.00000000000E+00 -0.45593999997E+02  0.45594000000E+02  0.51100000000E-03 0. -1.
         23    2    1    2    0    0  0.00000000000E+00  0.00000000000E+00 -0.17763568394E-14  0.91188000000E+02  0.91188000000E+02 0.  0.
    9900012    2    3    3    0    0 -0.25633017565E+02  0.25351782249E+02  0.74843224201E+01  0.54367088350E+02  0.40000009510E+02 0.  0.
         12    1    3    3    0    0  0.25633017565E+02 -0.25351782249E+02 -0.74843224201E+01  0.36820911650E+02  0.00000000000E+00 0. -1.
         11    1    4    4    0    0  0.35981307810E+01 -0.53568928504E+00 -0.86609214196E+00  0.37394684096E+01  0.51100000000E-03 0. -1.
        -11    1    4    4    0    0  0.54878161184E+00  0.22187896548E+01 -0.86606381190E+01  0.89571670566E+01  0.51100000000E-03 0.  1.
        -12    1    4    4    0    0 -0.29779929958E+02  0.23668681879E+02  0.17011052681E+02  0.41670452883E+02  0.00000000000E+00 0.  1.
</event>
<event>
 8    1  0.2971508E-007  0.9118800E+02  0.7816164E-02  0.1184000E+00
        -11   -1    0    0    0    0  0.00000000000E+00  0.00000000000E+00  0.45593999997E+02  0.45594000000E+02  0.51100000000E-03 0. -1.
         11   -1    0    0    0    0 -0.00000000000E+00 -0.00000000000E+00 -0.45593999997E+02  0.45594000000E+02  0.51100000000E-03 0.  1.
         23    2    1    2    0    0  0.00000000000E+00 -0.88817841970E-15  0.35527136788E-14  0.91188000000E+02  0.91188000000E+02 0.  0.
    9900012    2    3    3    0    0 -0.23778101456E+02 -0.69807050848E+01 -0.27233272072E+02  0.54367089364E+02  0.40000011823E+02 0.  0.
         12    1    3    3    0    0  0.23778101456E+02  0.69807050848E+01  0.27233272072E+02  0.36820910636E+02  0.00000000000E+00 0. -1.
         11    1    4    4    0    0 -0.10837979949E+02 -0.16177106436E+02 -0.74043386047E+01  0.20832302140E+02  0.51100000000E-03 0. -1.
        -11    1    4    4    0    0  0.21683044116E+01  0.11177035485E+02 -0.11441925274E+02  0.16141416310E+02  0.51100000000E-03 0.  1.
        -12    1    4    4    0    0 -0.15108425919E+02 -0.19806341338E+01 -0.83870081932E+01  0.17393370914E+02  0.00000000000E+00 0.  1.
</event>
<event>
 8    1  0.2971508E-007  0.9118800E+02  0.7816164E-02  0.1184000E+00
        -11   -1    0    0    0    0  0.00000000000E+00  0.00000000000E+00  0.45593999997E+02  0.45594000000E+02  0.51100000000E-03 0. -1.
         11   -1    0    0    0    0 -0.00000000000E+00 -0.00000000000E+00 -0.45593999997E+02  0.45594000000E+02  0.51100000000E-03 0.  1.
         23    2    1    2    0    0  0.00000000000E+00 -0.88817841970E-15  0.00000000000E+00  0.91188000000E+02  0.91188000000E+02 0.  0.
    9900012    2    3    3    0    0 -0.18613315512E+02  0.44414668725E+01  0.31457869804E+02  0.54367085903E+02  0.40000003934E+02 0.  0.
        -12    1    3    3    0    0  0.18613315512E+02 -0.44414668725E+01 -0.31457869804E+02  0.36820914097E+02  0.00000000000E+00 0.  1.
         11    1    4    4    0    0  0.54841861764E+01  0.13372031278E+02  0.67296964214E+01  0.15942908539E+02  0.51100000000E-03 0. -1.
        -11    1    4    4    0    0 -0.35631787337E+01  0.93684461196E+00  0.11509712041E+02  0.12085006911E+02  0.51100000000E-03 0.  1.
        -12    1    4    4    0    0 -0.20534322955E+02 -0.98674090170E+01  0.13218461341E+02  0.26339170453E+02  0.00000000000E+00 0.  1.
</event>
<event>
 8    1  0.2971508E-007  0.9118800E+02  0.7816164E-02  0.1184000E+00
        -11   -1    0    0    0    0  0.00000000000E+00  0.00000000000E+00  0.45593999997E+02  0.45594000000E+02  0.51100000000E-03 0. -1.
         11   -1    0    0    0    0 -0.00000000000E+00 -0.00000000000E+00 -0.45593999997E+02  0.45594000000E+02  0.51100000000E-03 0.  1.
         23    2    1    2    0    0  0.00000000000E+00  0.00000000000E+00  0.00000000000E+00  0.91188000000E+02  0.91188000000E+02 0.  0.
    9900012    2    3    3    0    0 -0.69850254546E+01 -0.91818824284E+01  0.34966882679E+02  0.54367076196E+02  0.39999981803E+02 0.  0.
        -12    1    3    3    0    0  0.69850254546E+01  0.91818824284E+01 -0.34966882679E+02  0.36820923804E+02  0.00000000000E+00 0.  1.
         11    1    4    4    0    0 -0.58047538290E+01 -0.15978535722E+01  0.84230824714E+01  0.10353580136E+02  0.51100000000E-03 0.  1.
        -11    1    4    4    0    0  0.13872656786E+02 -0.12549413368E+02  0.10463038838E+02  0.21433934874E+02  0.51100000000E-03 0. -1.
         12    1    4    4    0    0 -0.15052928412E+02  0.49653845119E+01  0.16080761369E+02  0.22579561185E+02  0.00000000000E+00 0. -1.
</event>
<event>
 8    1  0.2971508E-007  0.9118800E+02  0.7816164E-02  0.1184000E+00
        -11   -1    0    0    0    0  0.00000000000E+00  0.00000000000E+00  0.45593999997E+02  0.45594000000E+02  0.51100000000E-03 0. -1.
         11   -1    0    0    0    0 -0.00000000000E+00 -0.00000000000E+00 -0.45593999997E+02  0.45594000000E+02  0.51100000000E-03 0.  1.
         23    2    1    2    0    0  0.00000000000E+00  0.00000000000E+00 -0.35527136788E-14  0.91188000000E+02  0.91188000000E+02 0.  0.
    9900012    2    3    3    0    0 -0.18326806869E+02 -0.16129161988E+02 -0.27563712810E+02  0.54367082299E+02  0.39999995717E+02 0.  0.
         12    1    3    3    0    0  0.18326806869E+02  0.16129161988E+02  0.27563712810E+02  0.36820917701E+02  0.00000000000E+00 0. -1.
         11    1    4    4    0    0 -0.11637936295E+02 -0.78202048680E+01 -0.18164028381E+02  0.22946221752E+02  0.51100000000E-03 0. -1.
        -11    1    4    4    0    0 -0.89932721803E+01 -0.17900201068E+02 -0.74037238321E+01  0.21356761684E+02  0.51100000000E-03 0.  1.
         12    1    4    4    0    0  0.23044016069E+01  0.95912439475E+01 -0.19959605966E+01  0.10064098863E+02  0.00000000000E+00 0. -1.
</event>
<event>
 8    1  0.2971508E-007  0.9118800E+02  0.7816164E-02  0.1184000E+00
        -11   -1    0    0    0    0  0.00000000000E+00  0.00000000000E+00  0.45593999997E+02  0.45594000000E+02  0.51100000000E-03 0.  1.
         11   -1    0    0    0    0 -0.00000000000E+00 -0.00000000000E+00 -0.45593999997E+02  0.45594000000E+02  0.51100000000E-03 0. -1.
         23    2    1    2    0    0  0.71054273576E-14  0.00000000000E+00 -0.13322676296E-14  0.91188000000E+02  0.91188000000E+02 0.  0.
    9900012    2    3    3    0    0  0.32449938949E+02  0.17365399039E+02 -0.11063674714E+01  0.54367086506E+02  0.40000005308E+02 0.  0.
         12    1    3    3    0    0 -0.32449938949E+02 -0.17365399039E+02  0.11063674714E+01  0.36820913494E+02  0.00000000000E+00 0. -1.
         11    1    4    4    0    0  0.99648358752E+01  0.12355767725E+02 -0.60756462080E+01  0.16996365118E+02  0.51100000000E-03 0. -1.
        -11    1    4    4    0    0  0.97033837463E+01 -0.26885473267E+01 -0.11407734444E+02  0.15215792725E+02  0.51100000000E-03 0.  1.
        -12    1    4    4    0    0  0.12781719327E+02  0.76981786405E+01  0.16377013181E+02  0.22154928663E+02  0.00000000000E+00 0.  1.
</event>
<event>
 8    1  0.2971508E-007  0.9118800E+02  0.7816164E-02  0.1184000E+00
        -11   -1    0    0    0    0  0.00000000000E+00  0.00000000000E+00  0.45593999997E+02  0.45594000000E+02  0.51100000000E-03 0. -1.
         11   -1    0    0    0    0 -0.00000000000E+00 -0.00000000000E+00 -0.45593999997E+02  0.45594000000E+02  0.51100000000E-03 0.  1.
         23    2    1    2    0    0  0.00000000000E+00 -0.88817841970E-15  0.00000000000E+00  0.91188000000E+02  0.91188000000E+02 0.  0.
    9900012    2    3    3    0    0  0.34647540055E+02  0.61279703050E+01 -0.10852543951E+02  0.54367058104E+02  0.39999940559E+02 0.  0.
         12    1    3    3    0    0 -0.34647540055E+02 -0.61279703050E+01  0.10852543951E+02  0.36820941896E+02  0.00000000000E+00 0. -1.
         11    1    4    4    0    0  0.25306468500E+02  0.14389553726E+01 -0.57084170924E+01  0.25982185559E+02  0.51100000000E-03 0.  1.
        -11    1    4    4    0    0 -0.26839877674E+01  0.10232713967E+02  0.50033373895E+01  0.11702376287E+02  0.51100000000E-03 0. -1.
         12    1    4    4    0    0  0.12025059322E+02 -0.55436990350E+01 -0.10147464248E+02  0.16682496257E+02  0.00000000000E+00 0. -1.
</event>
<event>
 8    1  0.2971508E-007  0.9118800E+02  0.7816164E-02  0.1184000E+00
        -11   -1    0    0    0    0  0.00000000000E+00  0.00000000000E+00  0.45593999997E+02  0.45594000000E+02  0.51100000000E-03 0.  1.
         11   -1    0    0    0    0 -0.00000000000E+00 -0.00000000000E+00 -0.45593999997E+02  0.45594000000E+02  0.51100000000E-03 0. -1.
         23    2    1    2    0    0  0.00000000000E+00  0.88817841970E-15  0.71054273576E-14  0.91188000000E+02  0.91188000000E+02 0.  0.
    9900012    2    3    3    0    0 -0.45251473179E+01  0.61477441951E+01  0.36020924290E+02  0.54367099636E+02  0.40000035239E+02 0.  0.
         12    1    3    3    0    0  0.45251473179E+01 -0.61477441951E+01 -0.36020924290E+02  0.36820900364E+02  0.00000000000E+00 0. -1.
         11    1    4    4    0    0 -0.11992709856E+02  0.11680809831E+01  0.15481062935E+02  0.19617665833E+02  0.51100000000E-03 0. -1.
        -11    1    4    4    0    0  0.58256315975E+01  0.75252592282E+01  0.26449047487E+02  0.28109066566E+02  0.51100000000E-03 0.  1.
         12    1    4    4    0    0  0.16419309402E+01 -0.25455960163E+01 -0.59091861326E+01  0.66403672368E+01  0.00000000000E+00 0. -1.
</event>
<event>
 8    1  0.2971508E-007  0.9118800E+02  0.7816164E-02  0.1184000E+00
        -11   -1    0    0    0    0  0.00000000000E+00  0.00000000000E+00  0.45593999997E+02  0.45594000000E+02  0.51100000000E-03 0. -1.
         11   -1    0    0    0    0 -0.00000000000E+00 -0.00000000000E+00 -0.45593999997E+02  0.45594000000E+02  0.51100000000E-03 0.  1.
         23    2    1    2    0    0  0.00000000000E+00 -0.17763568394E-14  0.00000000000E+00  0.91188000000E+02  0.91188000000E+02 0.  0.
    9900012    2    3    3    0    0 -0.87846169448E+01  0.11847950735E+02 -0.33737752070E+02  0.54367090910E+02  0.40000015347E+02 0.  0.
         12    1    3    3    0    0  0.87846169448E+01 -0.11847950735E+02  0.33737752070E+02  0.36820909090E+02  0.00000000000E+00 0. -1.
         11    1    4    4    0    0 -0.32631231588E+01  0.48528151235E+01 -0.20977456648E+02  0.21777315607E+02  0.51100000000E-03 0. -1.
        -11    1    4    4    0    0 -0.17213823526E+02  0.22544587059E+01 -0.78074771325E+01  0.19035624599E+02  0.51100000000E-03 0.  1.
         12    1    4    4    0    0  0.11692329740E+02  0.47406769059E+01 -0.49528182894E+01  0.13554150703E+02  0.00000000000E+00 0. -1.
</event>
<event>
 8    1  0.2971508E-007  0.9118800E+02  0.7816164E-02  0.1184000E+00
        -11   -1    0    0    0    0  0.00000000000E+00  0.00000000000E+00  0.45593999997E+02  0.45594000000E+02  0.51100000000E-03 0.  1.
         11   -1    0    0    0    0 -0.00000000000E+00 -0.00000000000E+00 -0.45593999997E+02  0.45594000000E+02  0.51100000000E-03 0. -1.
         23    2    1    2    0    0  0.00000000000E+00  0.71054273576E-14  0.00000000000E+00  0.91188000000E+02  0.91188000000E+02 0.  0.
    9900012    2    3    3    0    0 -0.18102514918E+01 -0.33519892713E+02  0.15130137866E+02  0.54367064518E+02  0.39999955181E+02 0.  0.
         12    1    3    3    0    0  0.18102514918E+01  0.33519892713E+02 -0.15130137866E+02  0.36820935482E+02  0.00000000000E+00 0. -1.
         11    1    4    4    0    0 -0.13936549569E+02 -0.80469572494E+01  0.52176420228E+01  0.16917586217E+02  0.51100000000E-03 0. -1.
        -11    1    4    4    0    0  0.14172717301E+02 -0.21446997830E+02  0.15689690044E+02  0.30116540398E+02  0.51100000000E-03 0.  1.
        -12    1    4    4    0    0 -0.20464192237E+01 -0.40259376335E+01 -0.57771942001E+01  0.73329379033E+01  0.00000000000E+00 0.  1.
</event>
<event>
 8    1  0.2971508E-007  0.9118800E+02  0.7816164E-02  0.1184000E+00
        -11   -1    0    0    0    0  0.00000000000E+00  0.00000000000E+00  0.45593999997E+02  0.45594000000E+02  0.51100000000E-03 0. -1.
         11   -1    0    0    0    0 -0.00000000000E+00 -0.00000000000E+00 -0.45593999997E+02  0.45594000000E+02  0.51100000000E-03 0.  1.
         23    2    1    2    0    0  0.00000000000E+00  0.00000000000E+00  0.00000000000E+00  0.91188000000E+02  0.91188000000E+02 0.  0.
    9900012    2    3    3    0    0  0.31220402879E+01 -0.35780070323E+02  0.81129492553E+01  0.54367075059E+02  0.39999979213E+02 0.  0.
         12    1    3    3    0    0 -0.31220402879E+01  0.35780070323E+02 -0.81129492553E+01  0.36820924941E+02  0.00000000000E+00 0. -1.
         11    1    4    4    0    0  0.66203281083E+01  0.32719848666E+01  0.60635462008E+01  0.95551672941E+01  0.51100000000E-03 0. -1.
        -11    1    4    4    0    0  0.68813982785E+01 -0.17229042913E+02 -0.57428176350E+01  0.19420955605E+02  0.51100000000E-03 0.  1.
        -12    1    4    4    0    0 -0.10379686099E+02 -0.21823012276E+02  0.77922206896E+01  0.25390952160E+02  0.00000000000E+00 0.  1.
</event>
<event>
 8    1  0.2971508E-007  0.9118800E+02  0.7816164E-02  0.1184000E+00
        -11   -1    0    0    0    0  0.00000000000E+00  0.00000000000E+00  0.45593999997E+02  0.45594000000E+02  0.51100000000E-03 0. -1.
         11   -1    0    0    0    0 -0.00000000000E+00 -0.00000000000E+00 -0.45593999997E+02  0.45594000000E+02  0.51100000000E-03 0.  1.
         23    2    1    2    0    0  0.35527136788E-14  0.35527136788E-14  0.44408920985E-15  0.91188000000E+02  0.91188000000E+02 0.  0.
    9900012    2    3    3    0    0  0.24068248373E+02  0.27716399452E+02  0.28811754807E+01  0.54367074557E+02  0.39999978068E+02 0.  0.
         12    1    3    3    0    0 -0.24068248373E+02 -0.27716399452E+02 -0.28811754807E+01  0.36820925443E+02  0.00000000000E+00 0. -1.
         11    1    4    4    0    0  0.16939096315E+02  0.98735052406E+01  0.29832493521E+01  0.19832268319E+02  0.51100000000E-03 0. -1.
        -11    1    4    4    0    0 -0.10872781335E+02  0.74029522793E+01 -0.30884869241E+01  0.13511470244E+02  0.51100000000E-03 0.  1.
        -12    1    4    4    0    0  0.18001933393E+02  0.10439941932E+02  0.29864130527E+01  0.21023335995E+02  0.00000000000E+00 0.  1.
</event>
<event>
 8    1  0.2971508E-007  0.9118800E+02  0.7816164E-02  0.1184000E+00
        -11   -1    0    0    0    0  0.00000000000E+00  0.00000000000E+00  0.45593999997E+02  0.45594000000E+02  0.51100000000E-03 0.  1.
         11   -1    0    0    0    0 -0.00000000000E+00 -0.00000000000E+00 -0.45593999997E+02  0.45594000000E+02  0.51100000000E-03 0. -1.
         23    2    1    2    0    0 -0.35527136788E-14  0.35527136788E-14  0.17763568394E-14  0.91188000000E+02  0.91188000000E+02 0.  0.
    9900012    2    3    3    0    0  0.25005166204E+02 -0.23263021619E+02 -0.13760577700E+02  0.54367081891E+02  0.39999994788E+02 0.  0.
        -12    1    3    3    0    0 -0.25005166204E+02  0.23263021619E+02  0.13760577700E+02  0.36820918109E+02  0.00000000000E+00 0.  1.
         11    1    4    4    0    0 -0.21890108337E+01  0.44392006078E+01  0.36373147145E+00  0.49629196357E+01  0.51100000000E-03 0.  1.
        -11    1    4    4    0    0  0.68867375788E+01 -0.22445174941E+02 -0.15895318337E+02  0.28352674969E+02  0.51100000000E-03 0. -1.
        -12    1    4    4    0    0  0.20307439459E+02 -0.52570472856E+01  0.17710091650E+01  0.21051487287E+02  0.00000000000E+00 0.  1.
</event>
<event>
 8    1  0.2971508E-007  0.9118800E+02  0.7816164E-02  0.1184000E+00
        -11   -1    0    0    0    0  0.00000000000E+00  0.00000000000E+00  0.45593999997E+02  0.45594000000E+02  0.51100000000E-03 0.  1.
         11   -1    0    0    0    0 -0.00000000000E+00 -0.00000000000E+00 -0.45593999997E+02  0.45594000000E+02  0.51100000000E-03 0. -1.
         23    2    1    2    0    0  0.17763568394E-14  0.00000000000E+00  0.00000000000E+00  0.91188000000E+02  0.91188000000E+02 0.  0.
    9900012    2    3    3    0    0  0.12054460259E+02 -0.88267428662E+01  0.33653265790E+02  0.54367303373E+02  0.40000499696E+02 0.  0.
         12    1    3    3    0    0 -0.12054460259E+02  0.88267428662E+01 -0.33653265790E+02  0.36820696627E+02  0.00000000000E+00 0. -1.
         11    1    4    4    0    0 -0.74553321239E+01 -0.41829899428E+01  0.31996065526E+01  0.91278072006E+01  0.51100000000E-03 0. -1.
        -11    1    4    4    0    0 -0.65119739744E+01 -0.28933251948E+00  0.96277344622E+01  0.11626813385E+02  0.51100000000E-03 0.  1.
        -12    1    4    4    0    0  0.26021766357E+02 -0.43544204039E+01  0.20825924776E+02  0.33612682787E+02  0.00000000000E+00 0.  1.
</event>
<event>
 8    1  0.2971508E-007  0.9118800E+02  0.7816164E-02  0.1184000E+00
        -11   -1    0    0    0    0  0.00000000000E+00  0.00000000000E+00  0.45593999997E+02  0.45594000000E+02  0.51100000000E-03 0. -1.
         11   -1    0    0    0    0 -0.00000000000E+00 -0.00000000000E+00 -0.45593999997E+02  0.45594000000E+02  0.51100000000E-03 0.  1.
         23    2    1    2    0    0  0.00000000000E+00 -0.35527136788E-14  0.00000000000E+00  0.91188000000E+02  0.91188000000E+02 0.  0.
    9900012    2    3    3    0    0  0.22539017911E+01  0.26040515194E+02  0.25934368108E+02  0.54367082657E+02  0.39999996532E+02 0.  0.
        -12    1    3    3    0    0 -0.22539017911E+01 -0.26040515194E+02 -0.25934368108E+02  0.36820917343E+02  0.00000000000E+00 0.  1.
         11    1    4    4    0    0  0.22395122502E+01 -0.58209005037E+00  0.82556285761E+01  0.85737767287E+01  0.51100000000E-03 0. -1.
        -11    1    4    4    0    0 -0.48689125580E+01  0.28888064869E+02  0.21687501029E+01  0.29375671544E+02  0.51100000000E-03 0.  1.
        -12    1    4    4    0    0  0.48833020989E+01 -0.22654596243E+01  0.15509989428E+02  0.16417634384E+02  0.00000000000E+00 0.  1.
</event>
<event>
 8    1  0.2971508E-007  0.9118800E+02  0.7816164E-02  0.1184000E+00
        -11   -1    0    0    0    0  0.00000000000E+00  0.00000000000E+00  0.45593999997E+02  0.45594000000E+02  0.51100000000E-03 0.  1.
         11   -1    0    0    0    0 -0.00000000000E+00 -0.00000000000E+00 -0.45593999997E+02  0.45594000000E+02  0.51100000000E-03 0. -1.
         23    2    1    2    0    0  0.00000000000E+00  0.00000000000E+00 -0.35527136788E-14  0.91188000000E+02  0.91188000000E+02 0.  0.
    9900012    2    3    3    0    0  0.18706858586E+02 -0.28666493738E+01 -0.31585034940E+02  0.54367100107E+02  0.40000036313E+02 0.  0.
        -12    1    3    3    0    0 -0.18706858586E+02  0.28666493738E+01  0.31585034940E+02  0.36820899893E+02  0.00000000000E+00 0.  1.
         11    1    4    4    0    0  0.73716168612E+00 -0.14113452414E+01  0.65861024646E+01  0.67758430233E+01  0.51100000000E-03 0. -1.
        -11    1    4    4    0    0  0.19747993047E+02  0.29888495233E+01 -0.18089819736E+02  0.26947319518E+02  0.51100000000E-03 0.  1.
         12    1    4    4    0    0 -0.17782961473E+01 -0.44441536557E+01 -0.20081317669E+02  0.20643937566E+02  0.00000000000E+00 0. -1.
</event>
<event>
 8    1  0.2971508E-007  0.9118800E+02  0.7816164E-02  0.1184000E+00
        -11   -1    0    0    0    0  0.00000000000E+00  0.00000000000E+00  0.45593999997E+02  0.45594000000E+02  0.51100000000E-03 0. -1.
         11   -1    0    0    0    0 -0.00000000000E+00 -0.00000000000E+00 -0.45593999997E+02  0.45594000000E+02  0.51100000000E-03 0.  1.
         23    2    1    2    0    0  0.00000000000E+00  0.00000000000E+00  0.00000000000E+00  0.91188000000E+02  0.91188000000E+02 0.  0.
    9900012    2    3    3    0    0  0.41141136379E+01  0.13700559848E+02  0.33928593119E+02  0.54367072496E+02  0.39999973370E+02 0.  0.
        -12    1    3    3    0    0 -0.41141136379E+01 -0.13700559848E+02 -0.33928593119E+02  0.36820927504E+02  0.00000000000E+00 0.  1.
         11    1    4    4    0    0  0.98479491559E+00 -0.22184448538E+01  0.15729851688E+02  0.15916015612E+02  0.51100000000E-03 0. -1.
        -11    1    4    4    0    0  0.28380130914E+01  0.25929567698E+01 -0.81007651768E+01  0.89666125057E+01  0.51100000000E-03 0.  1.
         12    1    4    4    0    0  0.29130563092E+00  0.13326047932E+02  0.26299506608E+02  0.29484444378E+02  0.00000000000E+00 0. -1.
</event>
<event>
 8    1  0.2971508E-007  0.9118800E+02  0.7816164E-02  0.1184000E+00
        -11   -1    0    0    0    0  0.00000000000E+00  0.00000000000E+00  0.45593999997E+02  0.45594000000E+02  0.51100000000E-03 0. -1.
         11   -1    0    0    0    0 -0.00000000000E+00 -0.00000000000E+00 -0.45593999997E+02  0.45594000000E+02  0.51100000000E-03 0.  1.
         23    2    1    2    0    0  0.00000000000E+00 -0.35527136788E-14  0.00000000000E+00  0.91188000000E+02  0.91188000000E+02 0.  0.
    9900012    2    3    3    0    0  0.65052001115E+01  0.29707839617E+02  0.20758294944E+02  0.54367079694E+02  0.39999989778E+02 0.  0.
        -12    1    3    3    0    0 -0.65052001115E+01 -0.29707839617E+02 -0.20758294944E+02  0.36820920306E+02  0.00000000000E+00 0.  1.
         11    1    4    4    0    0  0.92461366344E+01  0.68896472312E+01  0.89501409756E+00  0.11565436962E+02  0.51100000000E-03 0. -1.
        -11    1    4    4    0    0  0.80132214195E+01 -0.38697395485E+01  0.68125975284E+01  0.11207055235E+02  0.51100000000E-03 0.  1.
         12    1    4    4    0    0 -0.10754157942E+02  0.26687931935E+02  0.13050683318E+02  0.31594587497E+02  0.00000000000E+00 0. -1.
</event>
<event>
 8    1  0.2971508E-007  0.9118800E+02  0.7816164E-02  0.1184000E+00
        -11   -1    0    0    0    0  0.00000000000E+00  0.00000000000E+00  0.45593999997E+02  0.45594000000E+02  0.51100000000E-03 0.  1.
         11   -1    0    0    0    0 -0.00000000000E+00 -0.00000000000E+00 -0.45593999997E+02  0.45594000000E+02  0.51100000000E-03 0. -1.
         23    2    1    2    0    0  0.00000000000E+00 -0.35527136788E-14  0.00000000000E+00  0.91188000000E+02  0.91188000000E+02 0.  0.
    9900012    2    3    3    0    0  0.20449064779E+02 -0.27900157138E+02 -0.12617341532E+02  0.54367077605E+02  0.39999985017E+02 0.  0.
        -12    1    3    3    0    0 -0.20449064779E+02  0.27900157138E+02  0.12617341532E+02  0.36820922395E+02  0.00000000000E+00 0.  1.
         11    1    4    4    0    0  0.27198135762E+02 -0.16798111870E+02 -0.17776387236E+02  0.36577521715E+02  0.51100000000E-03 0. -1.
        -11    1    4    4    0    0 -0.50223683101E+01 -0.10334872264E+01 -0.17938945163E+01  0.54323417682E+01  0.51100000000E-03 0.  1.
        -12    1    4    4    0    0 -0.17267026735E+01 -0.10068558042E+02  0.69529402204E+01  0.12357214122E+02  0.00000000000E+00 0.  1.
</event>
<event>
 8    1  0.2971508E-007  0.9118800E+02  0.7816164E-02  0.1184000E+00
        -11   -1    0    0    0    0  0.00000000000E+00  0.00000000000E+00  0.45593999997E+02  0.45594000000E+02  0.51100000000E-03 0.  1.
         11   -1    0    0    0    0 -0.00000000000E+00 -0.00000000000E+00 -0.45593999997E+02  0.45594000000E+02  0.51100000000E-03 0. -1.
         23    2    1    2    0    0  0.00000000000E+00  0.00000000000E+00  0.00000000000E+00  0.91188000000E+02  0.91188000000E+02 0.  0.
    9900012    2    3    3    0    0  0.17649158630E+02 -0.17277249813E+02 -0.27309041146E+02  0.54367083529E+02  0.39999998522E+02 0.  0.
        -12    1    3    3    0    0 -0.17649158630E+02  0.17277249813E+02  0.27309041146E+02  0.36820916471E+02  0.00000000000E+00 0.  1.
         11    1    4    4    0    0  0.18414819090E+02 -0.83654308689E+00 -0.87559956651E+01  0.20407665883E+02  0.51100000000E-03 0. -1.
        -11    1    4    4    0    0 -0.69416104750E+01 -0.11629076462E+02 -0.21652443472E+02  0.25539179390E+02  0.51100000000E-03 0.  1.
        -12    1    4    4    0    0  0.61759500144E+01 -0.48116302643E+01  0.30993979911E+01  0.84202382560E+01  0.00000000000E+00 0.  1.
</event>
<event>
 8    1  0.2971508E-007  0.9118800E+02  0.7816164E-02  0.1184000E+00
        -11   -1    0    0    0    0  0.00000000000E+00  0.00000000000E+00  0.45593999997E+02  0.45594000000E+02  0.51100000000E-03 0.  1.
         11   -1    0    0    0    0 -0.00000000000E+00 -0.00000000000E+00 -0.45593999997E+02  0.45594000000E+02  0.51100000000E-03 0. -1.
         23    2    1    2    0    0  0.00000000000E+00  0.00000000000E+00 -0.22204460493E-15  0.91188000000E+02  0.91188000000E+02 0.  0.
    9900012    2    3    3    0    0  0.23975727839E+02 -0.27929636644E+02 -0.93811763244E+00  0.54367079409E+02  0.39999989129E+02 0.  0.
         12    1    3    3    0    0 -0.23975727839E+02  0.27929636644E+02  0.93811763244E+00  0.36820920591E+02  0.00000000000E+00 0. -1.
         11    1    4    4    0    0  0.20288677103E+02  0.15694175564E+01  0.12772138978E+01  0.20389329701E+02  0.51100000000E-03 0. -1.
        -11    1    4    4    0    0  0.31060525020E+01 -0.29385333142E+02  0.20985271619E+01  0.29623456627E+02  0.51100000000E-03 0.  1.
         12    1    4    4    0    0  0.58099823441E+00 -0.11372105835E+00 -0.43138586921E+01  0.43542930819E+01  0.00000000000E+00 0. -1.
</event>
<event>
 8    1  0.2971508E-007  0.9118800E+02  0.7816164E-02  0.1184000E+00
        -11   -1    0    0    0    0  0.00000000000E+00  0.00000000000E+00  0.45593999997E+02  0.45594000000E+02  0.51100000000E-03 0.  1.
         11   -1    0    0    0    0 -0.00000000000E+00 -0.00000000000E+00 -0.45593999997E+02  0.45594000000E+02  0.51100000000E-03 0. -1.
         23    2    1    2    0    0 -0.71054273576E-14  0.00000000000E+00 -0.88817841970E-15  0.91188000000E+02  0.91188000000E+02 0.  0.
    9900012    2    3    3    0    0  0.32324122266E+02 -0.16477396657E+02 -0.62790071260E+01  0.54367090025E+02  0.40000013331E+02 0.  0.
        -12    1    3    3    0    0 -0.32324122266E+02  0.16477396657E+02  0.62790071260E+01  0.36820909975E+02  0.00000000000E+00 0.  1.
         11    1    4    4    0    0  0.23138865929E+02 -0.68683202371E+00 -0.12486601144E+02  0.26301978312E+02  0.51100000000E-03 0.  1.
        -11    1    4    4    0    0  0.42369796974E+01  0.46015067210E+01  0.28541625338E+00  0.62615751819E+01  0.51100000000E-03 0. -1.
         12    1    4    4    0    0  0.49482766398E+01 -0.20392071354E+02  0.59221777651E+01  0.21803536532E+02  0.00000000000E+00 0. -1.
</event>
<event>
 8    1  0.2971508E-007  0.9118800E+02  0.7816164E-02  0.1184000E+00
        -11   -1    0    0    0    0  0.00000000000E+00  0.00000000000E+00  0.45593999997E+02  0.45594000000E+02  0.51100000000E-03 0. -1.
         11   -1    0    0    0    0 -0.00000000000E+00 -0.00000000000E+00 -0.45593999997E+02  0.45594000000E+02  0.51100000000E-03 0.  1.
         23    2    1    2    0    0  0.00000000000E+00  0.00000000000E+00 -0.35527136788E-14  0.91188000000E+02  0.91188000000E+02 0.  0.
    9900012    2    3    3    0    0  0.21026141869E+02 -0.14782102296E+01 -0.30191059259E+02  0.54367030342E+02  0.39999877271E+02 0.  0.
         12    1    3    3    0    0 -0.21026141869E+02  0.14782102296E+01  0.30191059259E+02  0.36820969658E+02  0.00000000000E+00 0. -1.
         11    1    4    4    0    0  0.49437429119E+01  0.23093264264E+01 -0.32713020929E+02  0.33164971296E+02  0.51100000000E-03 0.  1.
        -11    1    4    4    0    0 -0.19268541469E+01 -0.82243281717E+00  0.20693724445E+01  0.29447351693E+01  0.51100000000E-03 0. -1.
         12    1    4    4    0    0  0.18009253104E+02 -0.29651038388E+01  0.45258922577E+00  0.18257323877E+02  0.00000000000E+00 0. -1.
</event>
<event>
 8    1  0.2971508E-007  0.9118800E+02  0.7816164E-02  0.1184000E+00
        -11   -1    0    0    0    0  0.00000000000E+00  0.00000000000E+00  0.45593999997E+02  0.45594000000E+02  0.51100000000E-03 0. -1.
         11   -1    0    0    0    0 -0.00000000000E+00 -0.00000000000E+00 -0.45593999997E+02  0.45594000000E+02  0.51100000000E-03 0.  1.
         23    2    1    2    0    0 -0.22204460493E-15  0.00000000000E+00  0.00000000000E+00  0.91188000000E+02  0.91188000000E+02 0.  0.
    9900012    2    3    3    0    0  0.11677624311E+01  0.31141022376E+02  0.19612576467E+02  0.54367080682E+02  0.39999992032E+02 0.  0.
        -12    1    3    3    0    0 -0.11677624311E+01 -0.31141022376E+02 -0.19612576467E+02  0.36820919318E+02  0.00000000000E+00 0.  1.
         11    1    4    4    0    0 -0.19816144289E+01  0.89760121531E+01  0.19529880318E+02  0.21584990512E+02  0.51100000000E-03 0. -1.
        -11    1    4    4    0    0  0.71323900044E+01  0.12306588425E+02  0.10666988892E+02  0.17779419510E+02  0.51100000000E-03 0.  1.
        -12    1    4    4    0    0 -0.39830131444E+01  0.98584217982E+01 -0.10584292743E+02  0.15002670660E+02  0.00000000000E+00 0.  1.
</event>
<event>
 8    1  0.2971508E-007  0.9118800E+02  0.7816164E-02  0.1184000E+00
        -11   -1    0    0    0    0  0.00000000000E+00  0.00000000000E+00  0.45593999997E+02  0.45594000000E+02  0.51100000000E-03 0. -1.
         11   -1    0    0    0    0 -0.00000000000E+00 -0.00000000000E+00 -0.45593999997E+02  0.45594000000E+02  0.51100000000E-03 0.  1.
         23    2    1    2    0    0 -0.35527136788E-14  0.00000000000E+00  0.35527136788E-14  0.91188000000E+02  0.91188000000E+02 0.  0.
    9900012    2    3    3    0    0  0.29338516551E+02  0.48183505500E+01 -0.21721330939E+02  0.54367064743E+02  0.39999955695E+02 0.  0.
         12    1    3    3    0    0 -0.29338516551E+02 -0.48183505500E+01  0.21721330939E+02  0.36820935257E+02  0.00000000000E+00 0. -1.
         11    1    4    4    0    0  0.19555605031E+01  0.26248228770E+01 -0.17482332324E+02  0.17786114128E+02  0.51100000000E-03 0. -1.
        -11    1    4    4    0    0  0.22272589731E+02 -0.70679824720E+01  0.32894140706E+01  0.23597560780E+02  0.51100000000E-03 0.  1.
        -12    1    4    4    0    0  0.51103663165E+01  0.92615101450E+01 -0.75284126853E+01  0.12983389835E+02  0.00000000000E+00 0.  1.
</event>
<event>
 8    1  0.2971508E-007  0.9118800E+02  0.7816164E-02  0.1184000E+00
        -11   -1    0    0    0    0  0.00000000000E+00  0.00000000000E+00  0.45593999997E+02  0.45594000000E+02  0.51100000000E-03 0. -1.
         11   -1    0    0    0    0 -0.00000000000E+00 -0.00000000000E+00 -0.45593999997E+02  0.45594000000E+02  0.51100000000E-03 0.  1.
         23    2    1    2    0    0  0.00000000000E+00  0.00000000000E+00  0.00000000000E+00  0.91188000000E+02  0.91188000000E+02 0.  0.
    9900012    2    3    3    0    0  0.85906689681E+01 -0.35639777450E+02  0.34329769404E+01  0.54367100219E+02  0.40000036569E+02 0.  0.
        -12    1    3    3    0    0 -0.85906689681E+01  0.35639777450E+02 -0.34329769404E+01  0.36820899781E+02  0.00000000000E+00 0.  1.
         11    1    4    4    0    0  0.19870003274E+01 -0.20182401848E+01  0.59919063570E+01  0.66275490038E+01  0.51100000000E-03 0. -1.
        -11    1    4    4    0    0  0.83462107612E+01  0.39763329292E+01  0.29411332866E+01  0.97015835257E+01  0.51100000000E-03 0.  1.
         12    1    4    4    0    0 -0.17425421205E+01 -0.37597870195E+02 -0.55000627032E+01  0.38037967690E+02  0.00000000000E+00 0. -1.
</event>
<event>
 8    1  0.2971508E-007  0.9118800E+02  0.7816164E-02  0.1184000E+00
        -11   -1    0    0    0    0  0.00000000000E+00  0.00000000000E+00  0.45593999997E+02  0.45594000000E+02  0.51100000000E-03 0. -1.
         11   -1    0    0    0    0 -0.00000000000E+00 -0.00000000000E+00 -0.45593999997E+02  0.45594000000E+02  0.51100000000E-03 0.  1.
         23    2    1    2    0    0  0.71054273576E-14 -0.35527136788E-14 -0.35527136788E-14  0.91188000000E+02  0.91188000000E+02 0.  0.
    9900012    2    3    3    0    0  0.17064634840E+02  0.17522212138E+02 -0.27523575550E+02  0.54367124243E+02  0.40000091338E+02 0.  0.
        -12    1    3    3    0    0 -0.17064634840E+02 -0.17522212138E+02  0.27523575550E+02  0.36820875757E+02  0.00000000000E+00 0.  1.
         11    1    4    4    0    0  0.17582620317E+02  0.24660770100E+02 -0.32827762857E+02  0.44665021365E+02  0.51100000000E-03 0. -1.
        -11    1    4    4    0    0 -0.14135882385E+01 -0.70554251291E+01  0.44427231633E+01  0.84566568352E+01  0.51100000000E-03 0.  1.
         12    1    4    4    0    0  0.89560276194E+00 -0.83132833612E-01  0.86146414325E+00  0.12454460427E+01  0.00000000000E+00 0. -1.
</event>
<event>
 8    1  0.2971508E-007  0.9118800E+02  0.7816164E-02  0.1184000E+00
        -11   -1    0    0    0    0  0.00000000000E+00  0.00000000000E+00  0.45593999997E+02  0.45594000000E+02  0.51100000000E-03 0.  1.
         11   -1    0    0    0    0 -0.00000000000E+00 -0.00000000000E+00 -0.45593999997E+02  0.45594000000E+02  0.51100000000E-03 0. -1.
         23    2    1    2    0    0 -0.35527136788E-14 -0.35527136788E-14  0.35527136788E-14  0.91188000000E+02  0.91188000000E+02 0.  0.
    9900012    2    3    3    0    0 -0.20497449721E+02  0.20782291366E+02 -0.22444006585E+02  0.54367047934E+02  0.39999917374E+02 0.  0.
        -12    1    3    3    0    0  0.20497449721E+02 -0.20782291366E+02  0.22444006585E+02  0.36820952066E+02  0.00000000000E+00 0.  1.
         11    1    4    4    0    0 -0.97125285593E+01  0.15451290384E+02 -0.14840580692E+02  0.23522721379E+02  0.51100000000E-03 0. -1.
        -11    1    4    4    0    0 -0.10618026173E+02 -0.73765284118E+01  0.41044679811E+01  0.13564745072E+02  0.51100000000E-03 0.  1.
        -12    1    4    4    0    0 -0.16689498909E+00  0.12707529394E+02 -0.11707893874E+02  0.17279581482E+02  0.00000000000E+00 0.  1.
</event>
<event>
 8    1  0.2971508E-007  0.9118800E+02  0.7816164E-02  0.1184000E+00
        -11   -1    0    0    0    0  0.00000000000E+00  0.00000000000E+00  0.45593999997E+02  0.45594000000E+02  0.51100000000E-03 0.  1.
         11   -1    0    0    0    0 -0.00000000000E+00 -0.00000000000E+00 -0.45593999997E+02  0.45594000000E+02  0.51100000000E-03 0. -1.
         23    2    1    2    0    0 -0.35527136788E-14  0.00000000000E+00  0.41633363423E-15  0.91188000000E+02  0.91188000000E+02 0.  0.
    9900012    2    3    3    0    0 -0.21023389272E+02 -0.30228996347E+02 -0.78552823582E-01  0.54367064553E+02  0.39999955262E+02 0.  0.
         12    1    3    3    0    0  0.21023389272E+02  0.30228996347E+02  0.78552823582E-01  0.36820935447E+02  0.00000000000E+00 0. -1.
         11    1    4    4    0    0  0.61165794176E+01 -0.14287062730E+02 -0.50949282100E+01  0.16355152061E+02  0.51100000000E-03 0. -1.
        -11    1    4    4    0    0 -0.79163045154E+01 -0.14012077750E+02  0.87733900785E+01  0.18329718323E+02  0.51100000000E-03 0.  1.
         12    1    4    4    0    0 -0.19223664174E+02 -0.19298558675E+01 -0.37570146921E+01  0.19682194170E+02  0.00000000000E+00 0. -1.
</event>
<event>
 8    1  0.2971508E-007  0.9118800E+02  0.7816164E-02  0.1184000E+00
        -11   -1    0    0    0    0  0.00000000000E+00  0.00000000000E+00  0.45593999997E+02  0.45594000000E+02  0.51100000000E-03 0. -1.
         11   -1    0    0    0    0 -0.00000000000E+00 -0.00000000000E+00 -0.45593999997E+02  0.45594000000E+02  0.51100000000E-03 0.  1.
         23    2    1    2    0    0  0.00000000000E+00  0.88817841970E-15  0.00000000000E+00  0.91188000000E+02  0.91188000000E+02 0.  0.
    9900012    2    3    3    0    0  0.35975260667E+02 -0.64437377862E+01  0.44764432823E+01  0.54367086362E+02  0.40000004979E+02 0.  0.
         12    1    3    3    0    0 -0.35975260667E+02  0.64437377862E+01 -0.44764432823E+01  0.36820913638E+02  0.00000000000E+00 0. -1.
         11    1    4    4    0    0  0.23398962580E+02 -0.80801930463E+00  0.10658708422E+02  0.25724937522E+02  0.51100000000E-03 0. -1.
        -11    1    4    4    0    0  0.15490318881E+02 -0.12888179671E+02 -0.44077514652E+01  0.20627249635E+02  0.51100000000E-03 0.  1.
         12    1    4    4    0    0 -0.29140207944E+01  0.72524611892E+01 -0.17745136743E+01  0.80148992053E+01  0.00000000000E+00 0. -1.
</event>
<event>
 8    1  0.2971508E-007  0.9118800E+02  0.7816164E-02  0.1184000E+00
        -11   -1    0    0    0    0  0.00000000000E+00  0.00000000000E+00  0.45593999997E+02  0.45594000000E+02  0.51100000000E-03 0.  1.
         11   -1    0    0    0    0 -0.00000000000E+00 -0.00000000000E+00 -0.45593999997E+02  0.45594000000E+02  0.51100000000E-03 0. -1.
         23    2    1    2    0    0  0.00000000000E+00  0.00000000000E+00  0.35527136788E-14  0.91188000000E+02  0.91188000000E+02 0.  0.
    9900012    2    3    3    0    0  0.14325689276E+02 -0.12579192744E+02  0.31501101239E+02  0.54367070590E+02  0.39999969024E+02 0.  0.
         12    1    3    3    0    0 -0.14325689276E+02  0.12579192744E+02 -0.31501101239E+02  0.36820929410E+02  0.00000000000E+00 0. -1.
         11    1    4    4    0    0  0.37120008434E+01 -0.67022775709E+01  0.34893238036E+01  0.84187205540E+01  0.51100000000E-03 0. -1.
        -11    1    4    4    0    0  0.59827247396E+01 -0.13546384270E+02 -0.17086266057E+01  0.14906942250E+02  0.51100000000E-03 0.  1.
        -12    1    4    4    0    0  0.46309636931E+01  0.76694690965E+01  0.29720404041E+02  0.31041407786E+02  0.00000000000E+00 0.  1.
</event>
<event>
 8    1  0.2971508E-007  0.9118800E+02  0.7816164E-02  0.1184000E+00
        -11   -1    0    0    0    0  0.00000000000E+00  0.00000000000E+00  0.45593999997E+02  0.45594000000E+02  0.51100000000E-03 0. -1.
         11   -1    0    0    0    0 -0.00000000000E+00 -0.00000000000E+00 -0.45593999997E+02  0.45594000000E+02  0.51100000000E-03 0.  1.
         23    2    1    2    0    0 -0.17763568394E-14  0.17763568394E-14  0.00000000000E+00  0.91188000000E+02  0.91188000000E+02 0.  0.
    9900012    2    3    3    0    0  0.14303810364E+02  0.15091053101E+02 -0.30388178201E+02  0.54367078651E+02  0.39999987400E+02 0.  0.
         12    1    3    3    0    0 -0.14303810364E+02 -0.15091053101E+02  0.30388178201E+02  0.36820921349E+02  0.00000000000E+00 0. -1.
         11    1    4    4    0    0  0.13106895275E+02  0.13238007991E+02 -0.14120279841E+02  0.23375582610E+02  0.51100000000E-03 0. -1.
        -11    1    4    4    0    0  0.29302055976E+01 -0.53879720768E+01 -0.21194163341E+02  0.22063746462E+02  0.51100000000E-03 0.  1.
         12    1    4    4    0    0 -0.17332905086E+01  0.72410171867E+01  0.49262649806E+01  0.89277495789E+01  0.00000000000E+00 0. -1.
</event>
<event>
 8    1  0.2971508E-007  0.9118800E+02  0.7816164E-02  0.1184000E+00
        -11   -1    0    0    0    0  0.00000000000E+00  0.00000000000E+00  0.45593999997E+02  0.45594000000E+02  0.51100000000E-03 0. -1.
         11   -1    0    0    0    0 -0.00000000000E+00 -0.00000000000E+00 -0.45593999997E+02  0.45594000000E+02  0.51100000000E-03 0.  1.
         23    2    1    2    0    0 -0.35527136788E-14 -0.17763568394E-14  0.00000000000E+00  0.91188000000E+02  0.91188000000E+02 0.  0.
    9900012    2    3    3    0    0 -0.17778654546E+02 -0.33300999922E+01 -0.32071942158E+02  0.54367087502E+02  0.40000007579E+02 0.  0.
         12    1    3    3    0    0  0.17778654546E+02  0.33300999922E+01  0.32071942158E+02  0.36820912498E+02  0.00000000000E+00 0. -1.
         11    1    4    4    0    0  0.71153236320E+01 -0.10276746930E+02 -0.16441587578E+02  0.20653453953E+02  0.51100000000E-03 0. -1.
        -11    1    4    4    0    0 -0.50260580730E+01 -0.27172816898E+01  0.13234027104E+01  0.58648337172E+01  0.51100000000E-03 0.  1.
        -12    1    4    4    0    0 -0.19867920105E+02  0.96639286277E+01 -0.16953757290E+02  0.27848799832E+02  0.00000000000E+00 0.  1.
</event>
<event>
 8    1  0.2971508E-007  0.9118800E+02  0.7816164E-02  0.1184000E+00
        -11   -1    0    0    0    0  0.00000000000E+00  0.00000000000E+00  0.45593999997E+02  0.45594000000E+02  0.51100000000E-03 0.  1.
         11   -1    0    0    0    0 -0.00000000000E+00 -0.00000000000E+00 -0.45593999997E+02  0.45594000000E+02  0.51100000000E-03 0. -1.
         23    2    1    2    0    0  0.35527136788E-14  0.00000000000E+00  0.00000000000E+00  0.91188000000E+02  0.91188000000E+02 0.  0.
    9900012    2    3    3    0    0  0.17370612138E+02 -0.25052931079E+02  0.20649252794E+02  0.54367093403E+02  0.40000021030E+02 0.  0.
         12    1    3    3    0    0 -0.17370612138E+02  0.25052931079E+02 -0.20649252794E+02  0.36820906597E+02  0.00000000000E+00 0. -1.
         11    1    4    4    0    0 -0.42566984923E+01  0.61056097601E+01 -0.13071369996E+01  0.75568882481E+01  0.51100000000E-03 0. -1.
        -11    1    4    4    0    0  0.24889961066E+01 -0.40740947528E+00 -0.21393046780E+01  0.33072207162E+01  0.51100000000E-03 0.  1.
        -12    1    4    4    0    0  0.19138314524E+02 -0.30751131364E+02  0.24095694472E+02  0.43502984438E+02  0.00000000000E+00 0.  1.
</event>
<event>
 8    1  0.2971508E-007  0.9118800E+02  0.7816164E-02  0.1184000E+00
        -11   -1    0    0    0    0  0.00000000000E+00  0.00000000000E+00  0.45593999997E+02  0.45594000000E+02  0.51100000000E-03 0. -1.
         11   -1    0    0    0    0 -0.00000000000E+00 -0.00000000000E+00 -0.45593999997E+02  0.45594000000E+02  0.51100000000E-03 0.  1.
         23    2    1    2    0    0  0.00000000000E+00  0.00000000000E+00 -0.17763568394E-14  0.91188000000E+02  0.91188000000E+02 0.  0.
    9900012    2    3    3    0    0 -0.37106256408E+01 -0.34539517786E+02  0.12207967512E+02  0.54367061632E+02  0.39999948602E+02 0.  0.
        -12    1    3    3    0    0  0.37106256408E+01  0.34539517786E+02 -0.12207967512E+02  0.36820938368E+02  0.00000000000E+00 0.  1.
         11    1    4    4    0    0 -0.73238733653E+01 -0.15057627518E+02  0.18864431385E+02  0.25223759420E+02  0.51100000000E-03 0. -1.
        -11    1    4    4    0    0 -0.68126239958E+01 -0.98313083721E+01  0.25292955697E+01  0.12225539103E+02  0.51100000000E-03 0.  1.
        -12    1    4    4    0    0  0.10425871720E+02 -0.96505818959E+01 -0.91857594426E+01  0.16917763108E+02  0.00000000000E+00 0.  1.
</event>
<event>
 8    1  0.2971508E-007  0.9118800E+02  0.7816164E-02  0.1184000E+00
        -11   -1    0    0    0    0  0.00000000000E+00  0.00000000000E+00  0.45593999997E+02  0.45594000000E+02  0.51100000000E-03 0. -1.
         11   -1    0    0    0    0 -0.00000000000E+00 -0.00000000000E+00 -0.45593999997E+02  0.45594000000E+02  0.51100000000E-03 0.  1.
         23    2    1    2    0    0 -0.88817841970E-15 -0.11102230246E-14  0.00000000000E+00  0.91188000000E+02  0.91188000000E+02 0.  0.
    9900012    2    3    3    0    0  0.58079499871E+01 -0.10283627306E+01  0.36345429272E+02  0.54367081463E+02  0.39999993811E+02 0.  0.
        -12    1    3    3    0    0 -0.58079499871E+01  0.10283627306E+01 -0.36345429272E+02  0.36820918537E+02  0.00000000000E+00 0.  1.
         11    1    4    4    0    0  0.16170693662E+02  0.12857316360E+02  0.21716756891E+02  0.29973645884E+02  0.51100000000E-03 0.  1.
        -11    1    4    4    0    0 -0.73181997779E+01 -0.11536682804E+02  0.59509043789E+01  0.14901824093E+02  0.51100000000E-03 0. -1.
        -12    1    4    4    0    0 -0.30445438970E+01 -0.23489962860E+01  0.86777680025E+01  0.94916114858E+01  0.00000000000E+00 0.  1.
</event>
<event>
 8    1  0.2971508E-007  0.9118800E+02  0.7816164E-02  0.1184000E+00
        -11   -1    0    0    0    0  0.00000000000E+00  0.00000000000E+00  0.45593999997E+02  0.45594000000E+02  0.51100000000E-03 0. -1.
         11   -1    0    0    0    0 -0.00000000000E+00 -0.00000000000E+00 -0.45593999997E+02  0.45594000000E+02  0.51100000000E-03 0.  1.
         23    2    1    2    0    0  0.17763568394E-14  0.00000000000E+00  0.00000000000E+00  0.91188000000E+02  0.91188000000E+02 0.  0.
    9900012    2    3    3    0    0  0.80433435921E+01 -0.11975560114E+02  0.33877284843E+02  0.54367084143E+02  0.39999999922E+02 0.  0.
        -12    1    3    3    0    0 -0.80433435921E+01  0.11975560114E+02 -0.33877284843E+02  0.36820915857E+02  0.00000000000E+00 0.  1.
         11    1    4    4    0    0 -0.23126731174E+01  0.25078314976E+00 -0.48578175790E+01  0.53860691629E+01  0.51100000000E-03 0. -1.
        -11    1    4    4    0    0  0.31738580929E+01  0.73859751179E+01  0.17174906544E+02  0.18963212246E+02  0.51100000000E-03 0.  1.
         12    1    4    4    0    0  0.71821586167E+01 -0.19612318382E+02  0.21560195878E+02  0.30017802734E+02  0.00000000000E+00 0. -1.
</event>
<event>
 8    1  0.2971508E-007  0.9118800E+02  0.7816164E-02  0.1184000E+00
        -11   -1    0    0    0    0  0.00000000000E+00  0.00000000000E+00  0.45593999997E+02  0.45594000000E+02  0.51100000000E-03 0.  1.
         11   -1    0    0    0    0 -0.00000000000E+00 -0.00000000000E+00 -0.45593999997E+02  0.45594000000E+02  0.51100000000E-03 0. -1.
         23    2    1    2    0    0 -0.12212453271E-14  0.00000000000E+00  0.00000000000E+00  0.91188000000E+02  0.91188000000E+02 0.  0.
    9900012    2    3    3    0    0 -0.95842247877E+00 -0.63223829596E+01 -0.36261391828E+02  0.54367086958E+02  0.40000006338E+02 0.  0.
        -12    1    3    3    0    0  0.95842247877E+00  0.63223829596E+01  0.36261391828E+02  0.36820913042E+02  0.00000000000E+00 0.  1.
         11    1    4    4    0    0 -0.44434537441E+01 -0.57837573423E+01  0.66941633056E+01  0.98998966052E+01  0.51100000000E-03 0. -1.
        -11    1    4    4    0    0 -0.23173145215E+01  0.35920480517E+01 -0.13388021584E+02  0.14053891916E+02  0.51100000000E-03 0.  1.
        -12    1    4    4    0    0  0.58023457869E+01 -0.41306736691E+01 -0.29567533550E+02  0.30413298437E+02  0.00000000000E+00 0.  1.
</event>
<event>
 8    1  0.2971508E-007  0.9118800E+02  0.7816164E-02  0.1184000E+00
        -11   -1    0    0    0    0  0.00000000000E+00  0.00000000000E+00  0.45593999997E+02  0.45594000000E+02  0.51100000000E-03 0. -1.
         11   -1    0    0    0    0 -0.00000000000E+00 -0.00000000000E+00 -0.45593999997E+02  0.45594000000E+02  0.51100000000E-03 0.  1.
         23    2    1    2    0    0  0.00000000000E+00  0.00000000000E+00  0.00000000000E+00  0.91188000000E+02  0.91188000000E+02 0.  0.
    9900012    2    3    3    0    0 -0.46703469796E+01  0.26965257605E+02 -0.24634022565E+02  0.54367186235E+02  0.40000232659E+02 0.  0.
         12    1    3    3    0    0  0.46703469796E+01 -0.26965257605E+02  0.24634022565E+02  0.36820813765E+02  0.00000000000E+00 0. -1.
         11    1    4    4    0    0 -0.14737793315E+00 -0.48077370673E+01 -0.10430679288E+02  0.11486301695E+02  0.51100000000E-03 0. -1.
        -11    1    4    4    0    0  0.84008657760E+01  0.23677759475E+02 -0.10190096289E+02  0.27111785301E+02  0.51100000000E-03 0.  1.
        -12    1    4    4    0    0 -0.12923834823E+02  0.80952351970E+01 -0.40132469876E+01  0.15769099239E+02  0.00000000000E+00 0.  1.
</event>
<event>
 8    1  0.2971508E-007  0.9118800E+02  0.7816164E-02  0.1184000E+00
        -11   -1    0    0    0    0  0.00000000000E+00  0.00000000000E+00  0.45593999997E+02  0.45594000000E+02  0.51100000000E-03 0. -1.
         11   -1    0    0    0    0 -0.00000000000E+00 -0.00000000000E+00 -0.45593999997E+02  0.45594000000E+02  0.51100000000E-03 0.  1.
         23    2    1    2    0    0  0.17763568394E-14  0.00000000000E+00  0.00000000000E+00  0.91188000000E+02  0.91188000000E+02 0.  0.
    9900012    2    3    3    0    0  0.12018132490E+02 -0.26633633157E+02 -0.22405243312E+02  0.54367070469E+02  0.39999968748E+02 0.  0.
         12    1    3    3    0    0 -0.12018132490E+02  0.26633633157E+02  0.22405243312E+02  0.36820929531E+02  0.00000000000E+00 0. -1.
         11    1    4    4    0    0  0.14880216824E+01  0.20712496289E+01 -0.25885039828E+01  0.36338184714E+01  0.51100000000E-03 0. -1.
        -11    1    4    4    0    0  0.16602171140E+02 -0.18748911837E+02 -0.27166965398E+02  0.36948583069E+02  0.51100000000E-03 0.  1.
         12    1    4    4    0    0 -0.60720603321E+01 -0.99559709482E+01  0.73502260687E+01  0.13784668928E+02  0.00000000000E+00 0. -1.
</event>
<event>
 8    1  0.2971508E-007  0.9118800E+02  0.7816164E-02  0.1184000E+00
        -11   -1    0    0    0    0  0.00000000000E+00  0.00000000000E+00  0.45593999997E+02  0.45594000000E+02  0.51100000000E-03 0.  1.
         11   -1    0    0    0    0 -0.00000000000E+00 -0.00000000000E+00 -0.45593999997E+02  0.45594000000E+02  0.51100000000E-03 0. -1.
         23    2    1    2    0    0  0.00000000000E+00 -0.71054273576E-14  0.17763568394E-14  0.91188000000E+02  0.91188000000E+02 0.  0.
    9900012    2    3    3    0    0  0.14514765446E+02 -0.29991432352E+02  0.15672117735E+02  0.54367086041E+02  0.40000004248E+02 0.  0.
         12    1    3    3    0    0 -0.14514765446E+02  0.29991432352E+02 -0.15672117735E+02  0.36820913959E+02  0.00000000000E+00 0. -1.
         11    1    4    4    0    0 -0.21247283930E+01 -0.31795018860E+02  0.10707012779E+02  0.33616630080E+02  0.51100000000E-03 0. -1.
        -11    1    4    4    0    0  0.34463545737E+01  0.53407741100E+01  0.26953631579E+01  0.69040720416E+01  0.51100000000E-03 0.  1.
        -12    1    4    4    0    0  0.13193139265E+02 -0.35371876022E+01  0.22697417979E+01  0.13846383919E+02  0.00000000000E+00 0.  1.
</event>
<event>
 8    1  0.2971508E-007  0.9118800E+02  0.7816164E-02  0.1184000E+00
        -11   -1    0    0    0    0  0.00000000000E+00  0.00000000000E+00  0.45593999997E+02  0.45594000000E+02  0.51100000000E-03 0. -1.
         11   -1    0    0    0    0 -0.00000000000E+00 -0.00000000000E+00 -0.45593999997E+02  0.45594000000E+02  0.51100000000E-03 0.  1.
         23    2    1    2    0    0  0.00000000000E+00 -0.88817841970E-15 -0.35527136788E-14  0.91188000000E+02  0.91188000000E+02 0.  0.
    9900012    2    3    3    0    0 -0.24687083008E+02  0.10164099717E+01 -0.27300075316E+02  0.54367091960E+02  0.40000017740E+02 0.  0.
         12    1    3    3    0    0  0.24687083008E+02 -0.10164099717E+01  0.27300075316E+02  0.36820908040E+02  0.00000000000E+00 0. -1.
         11    1    4    4    0    0  0.51224658232E+01  0.10094697240E+02 -0.35960625779E+01  0.11877467525E+02  0.51100000000E-03 0. -1.
        -11    1    4    4    0    0  0.19409232936E+01  0.65652269418E+00 -0.12154164263E+01  0.23823187508E+01  0.51100000000E-03 0.  1.
        -12    1    4    4    0    0 -0.31750472124E+02 -0.97348099628E+01 -0.22488596312E+02  0.40107305684E+02  0.00000000000E+00 0.  1.
</event>
<event>
 8    1  0.2971508E-007  0.9118800E+02  0.7816164E-02  0.1184000E+00
        -11   -1    0    0    0    0  0.00000000000E+00  0.00000000000E+00  0.45593999997E+02  0.45594000000E+02  0.51100000000E-03 0.  1.
         11   -1    0    0    0    0 -0.00000000000E+00 -0.00000000000E+00 -0.45593999997E+02  0.45594000000E+02  0.51100000000E-03 0. -1.
         23    2    1    2    0    0  0.00000000000E+00  0.88817841970E-15  0.00000000000E+00  0.91188000000E+02  0.91188000000E+02 0.  0.
    9900012    2    3    3    0    0 -0.14307254826E+02 -0.11509404853E+01  0.33908087466E+02  0.54367073881E+02  0.39999976525E+02 0.  0.
         12    1    3    3    0    0  0.14307254826E+02  0.11509404853E+01 -0.33908087466E+02  0.36820926119E+02  0.00000000000E+00 0. -1.
         11    1    4    4    0    0  0.48936402683E+01 -0.84539123250E+01  0.13902727345E+02  0.16991238229E+02  0.51100000000E-03 0. -1.
        -11    1    4    4    0    0  0.17026945816E+01  0.27344089213E+01  0.15078759376E+02  0.15418986528E+02  0.51100000000E-03 0.  1.
         12    1    4    4    0    0 -0.20903589676E+02  0.45685629184E+01  0.49266007453E+01  0.21956849123E+02  0.00000000000E+00 0. -1.
</event>
<event>
 8    1  0.2971508E-007  0.9118800E+02  0.7816164E-02  0.1184000E+00
        -11   -1    0    0    0    0  0.00000000000E+00  0.00000000000E+00  0.45593999997E+02  0.45594000000E+02  0.51100000000E-03 0. -1.
         11   -1    0    0    0    0 -0.00000000000E+00 -0.00000000000E+00 -0.45593999997E+02  0.45594000000E+02  0.51100000000E-03 0.  1.
         23    2    1    2    0    0 -0.44408920985E-15  0.00000000000E+00 -0.35527136788E-14  0.91188000000E+02  0.91188000000E+02 0.  0.
    9900012    2    3    3    0    0  0.93262709141E+00  0.31311555068E+02 -0.19351849895E+02  0.54367117767E+02  0.40000076574E+02 0.  0.
         12    1    3    3    0    0 -0.93262709141E+00 -0.31311555068E+02  0.19351849895E+02  0.36820882233E+02  0.00000000000E+00 0. -1.
         11    1    4    4    0    0 -0.71383146344E+01  0.18017702641E+02 -0.27354813139E+02  0.33524303817E+02  0.51100000000E-03 0. -1.
        -11    1    4    4    0    0  0.57633917826E+01  0.72818440164E-01  0.31712517498E+01  0.65786643999E+01  0.51100000000E-03 0.  1.
         12    1    4    4    0    0  0.23075499432E+01  0.13221033986E+02  0.48317114949E+01  0.14264149550E+02  0.00000000000E+00 0. -1.
</event>
<event>
 8    1  0.2971508E-007  0.9118800E+02  0.7816164E-02  0.1184000E+00
        -11   -1    0    0    0    0  0.00000000000E+00  0.00000000000E+00  0.45593999997E+02  0.45594000000E+02  0.51100000000E-03 0.  1.
         11   -1    0    0    0    0 -0.00000000000E+00 -0.00000000000E+00 -0.45593999997E+02  0.45594000000E+02  0.51100000000E-03 0. -1.
         23    2    1    2    0    0  0.00000000000E+00  0.00000000000E+00 -0.13322676296E-14  0.91188000000E+02  0.91188000000E+02 0.  0.
    9900012    2    3    3    0    0  0.95939506602E+01  0.35478333335E+02  0.22413704317E+01  0.54367085198E+02  0.40000002325E+02 0.  0.
        -12    1    3    3    0    0 -0.95939506602E+01 -0.35478333335E+02 -0.22413704317E+01  0.36820914802E+02  0.00000000000E+00 0.  1.
         11    1    4    4    0    0  0.93442814781E+01  0.87878183114E+01 -0.43889130008E+01  0.13557429867E+02  0.51100000000E-03 0. -1.
        -11    1    4    4    0    0 -0.58087371100E+01 -0.27931618166E+00 -0.77195504347E+01  0.96649316355E+01  0.51100000000E-03 0.  1.
         12    1    4    4    0    0  0.60584062922E+01  0.26969831205E+02  0.14349833867E+02  0.31144723695E+02  0.00000000000E+00 0. -1.
</event>
<event>
 8    1  0.2971508E-007  0.9118800E+02  0.7816164E-02  0.1184000E+00
        -11   -1    0    0    0    0  0.00000000000E+00  0.00000000000E+00  0.45593999997E+02  0.45594000000E+02  0.51100000000E-03 0.  1.
         11   -1    0    0    0    0 -0.00000000000E+00 -0.00000000000E+00 -0.45593999997E+02  0.45594000000E+02  0.51100000000E-03 0. -1.
         23    2    1    2    0    0  0.35527136788E-14  0.88817841970E-15  0.00000000000E+00  0.91188000000E+02  0.91188000000E+02 0.  0.
    9900012    2    3    3    0    0 -0.31512942108E+02 -0.66764168834E+01  0.17836475123E+02  0.54367083288E+02  0.39999997972E+02 0.  0.
         12    1    3    3    0    0  0.31512942108E+02  0.66764168834E+01 -0.17836475123E+02  0.36820916712E+02  0.00000000000E+00 0. -1.
         11    1    4    4    0    0 -0.37619810975E+01  0.38725874609E+01  0.32328814787E+01  0.62929292334E+01  0.51100000000E-03 0.  1.
        -11    1    4    4    0    0 -0.53219812807E+01 -0.44691713887E+01 -0.11305286054E+02  0.13270511319E+02  0.51100000000E-03 0. -1.
         12    1    4    4    0    0 -0.22428979730E+02 -0.60798329556E+01  0.25908879698E+02  0.34803642736E+02  0.00000000000E+00 0. -1.
</event>
<event>
 8    1  0.2971508E-007  0.9118800E+02  0.7816164E-02  0.1184000E+00
        -11   -1    0    0    0    0  0.00000000000E+00  0.00000000000E+00  0.45593999997E+02  0.45594000000E+02  0.51100000000E-03 0.  1.
         11   -1    0    0    0    0 -0.00000000000E+00 -0.00000000000E+00 -0.45593999997E+02  0.45594000000E+02  0.51100000000E-03 0. -1.
         23    2    1    2    0    0  0.53290705182E-14 -0.33306690739E-15  0.00000000000E+00  0.91188000000E+02  0.91188000000E+02 0.  0.
    9900012    2    3    3    0    0 -0.15719471601E+02  0.41337555866E+00 -0.33294251770E+02  0.54367083828E+02  0.39999999203E+02 0.  0.
        -12    1    3    3    0    0  0.15719471601E+02 -0.41337555866E+00  0.33294251770E+02  0.36820916172E+02  0.00000000000E+00 0.  1.
         11    1    4    4    0    0  0.37856760987E+01 -0.36955303782E+01  0.11506998322E+01  0.54140925985E+01  0.51100000000E-03 0.  1.
        -11    1    4    4    0    0 -0.21163167590E+02  0.43155263585E+01 -0.38734593699E+02  0.44349432685E+02  0.51100000000E-03 0. -1.
         12    1    4    4    0    0  0.16580198908E+01 -0.20662042160E+00  0.42896420964E+01  0.46035585445E+01  0.00000000000E+00 0. -1.
</event>
<event>
 8    1  0.2971508E-007  0.9118800E+02  0.7816164E-02  0.1184000E+00
        -11   -1    0    0    0    0  0.00000000000E+00  0.00000000000E+00  0.45593999997E+02  0.45594000000E+02  0.51100000000E-03 0. -1.
         11   -1    0    0    0    0 -0.00000000000E+00 -0.00000000000E+00 -0.45593999997E+02  0.45594000000E+02  0.51100000000E-03 0.  1.
         23    2    1    2    0    0 -0.35527136788E-14  0.26645352591E-14  0.00000000000E+00  0.91188000000E+02  0.91188000000E+02 0.  0.
    9900012    2    3    3    0    0  0.30746482783E+02  0.59260192986E+01  0.19373068778E+02  0.54367086077E+02  0.40000004329E+02 0.  0.
        -12    1    3    3    0    0 -0.30746482783E+02 -0.59260192986E+01 -0.19373068778E+02  0.36820913923E+02  0.00000000000E+00 0.  1.
         11    1    4    4    0    0  0.12401172158E+02 -0.52984619871E+01  0.11980246989E+01  0.13538760421E+02  0.51100000000E-03 0. -1.
        -11    1    4    4    0    0  0.22326555242E+02  0.17864754928E+02  0.12388203966E+02  0.31162351249E+02  0.51100000000E-03 0.  1.
         12    1    4    4    0    0 -0.39812446157E+01 -0.66402736421E+01  0.57868401133E+01  0.96659744066E+01  0.00000000000E+00 0. -1.
</event>
<event>
 8    1  0.2971508E-007  0.9118800E+02  0.7816164E-02  0.1184000E+00
        -11   -1    0    0    0    0  0.00000000000E+00  0.00000000000E+00  0.45593999997E+02  0.45594000000E+02  0.51100000000E-03 0.  1.
         11   -1    0    0    0    0 -0.00000000000E+00 -0.00000000000E+00 -0.45593999997E+02  0.45594000000E+02  0.51100000000E-03 0. -1.
         23    2    1    2    0    0  0.00000000000E+00  0.00000000000E+00 -0.35527136788E-14  0.91188000000E+02  0.91188000000E+02 0.  0.
    9900012    2    3    3    0    0  0.10784781365E+02  0.32573634508E+02  0.13358059205E+02  0.54366933749E+02  0.39999657066E+02 0.  0.
         12    1    3    3    0    0 -0.10784781365E+02 -0.32573634508E+02 -0.13358059205E+02  0.36821066251E+02  0.00000000000E+00 0. -1.
         11    1    4    4    0    0  0.62209685170E+01  0.44116496636E+01 -0.64000838774E+01  0.99561124915E+01  0.51100000000E-03 0. -1.
        -11    1    4    4    0    0 -0.29697688319E+01  0.10687743907E+02  0.22595431390E+02  0.25171430566E+02  0.51100000000E-03 0.  1.
        -12    1    4    4    0    0  0.75335816798E+01  0.17474240937E+02 -0.28372883077E+01  0.19239390692E+02  0.00000000000E+00 0.  1.
</event>
<event>
 8    1  0.2971508E-007  0.9118800E+02  0.7816164E-02  0.1184000E+00
        -11   -1    0    0    0    0  0.00000000000E+00  0.00000000000E+00  0.45593999997E+02  0.45594000000E+02  0.51100000000E-03 0.  1.
         11   -1    0    0    0    0 -0.00000000000E+00 -0.00000000000E+00 -0.45593999997E+02  0.45594000000E+02  0.51100000000E-03 0. -1.
         23    2    1    2    0    0 -0.35527136788E-14  0.17763568394E-14 -0.35527136788E-14  0.91188000000E+02  0.91188000000E+02 0.  0.
    9900012    2    3    3    0    0 -0.29281154343E+02  0.46301605281E+01 -0.21839336121E+02  0.54367068610E+02  0.39999964511E+02 0.  0.
        -12    1    3    3    0    0  0.29281154343E+02 -0.46301605281E+01  0.21839336121E+02  0.36820931390E+02  0.00000000000E+00 0.  1.
         11    1    4    4    0    0 -0.12240739883E+01  0.15547571720E+02 -0.11766494250E+02  0.19536522994E+02  0.51100000000E-03 0. -1.
        -11    1    4    4    0    0 -0.33416243859E+01 -0.66300976216E+01  0.84596479090E+00  0.74726370645E+01  0.51100000000E-03 0.  1.
        -12    1    4    4    0    0 -0.24715455969E+02 -0.42873135699E+01 -0.10918806662E+02  0.27357908552E+02  0.00000000000E+00 0.  1.
</event>
<event>
 8    1  0.2971508E-007  0.9118800E+02  0.7816164E-02  0.1184000E+00
        -11   -1    0    0    0    0  0.00000000000E+00  0.00000000000E+00  0.45593999997E+02  0.45594000000E+02  0.51100000000E-03 0. -1.
         11   -1    0    0    0    0 -0.00000000000E+00 -0.00000000000E+00 -0.45593999997E+02  0.45594000000E+02  0.51100000000E-03 0.  1.
         23    2    1    2    0    0  0.35527136788E-14  0.44408920985E-15 -0.35527136788E-14  0.91188000000E+02  0.91188000000E+02 0.  0.
    9900012    2    3    3    0    0 -0.22449575555E+02 -0.22785275826E+01  0.29096462977E+02  0.54367091696E+02  0.40000017140E+02 0.  0.
        -12    1    3    3    0    0  0.22449575555E+02  0.22785275826E+01 -0.29096462977E+02  0.36820908304E+02  0.00000000000E+00 0.  1.
         11    1    4    4    0    0  0.76800039128E+01 -0.18088540550E+01  0.16224982741E+02  0.18041742663E+02  0.51100000000E-03 0.  1.
        -11    1    4    4    0    0 -0.25868916599E+02 -0.35966898747E+01  0.46151701362E+01  0.26522383372E+02  0.51100000000E-03 0. -1.
        -12    1    4    4    0    0 -0.42606628684E+01  0.31270163472E+01  0.82563100994E+01  0.98029656620E+01  0.00000000000E+00 0.  1.
</event>
<event>
 8    1  0.2971508E-007  0.9118800E+02  0.7816164E-02  0.1184000E+00
        -11   -1    0    0    0    0  0.00000000000E+00  0.00000000000E+00  0.45593999997E+02  0.45594000000E+02  0.51100000000E-03 0.  1.
         11   -1    0    0    0    0 -0.00000000000E+00 -0.00000000000E+00 -0.45593999997E+02  0.45594000000E+02  0.51100000000E-03 0. -1.
         23    2    1    2    0    0 -0.17763568394E-14  0.00000000000E+00  0.00000000000E+00  0.91188000000E+02  0.91188000000E+02 0.  0.
    9900012    2    3    3    0    0  0.11108661389E+02 -0.21762201661E+02 -0.27546047836E+02  0.54367074830E+02  0.39999978689E+02 0.  0.
        -12    1    3    3    0    0 -0.11108661389E+02  0.21762201661E+02  0.27546047836E+02  0.36820925170E+02  0.00000000000E+00 0.  1.
         11    1    4    4    0    0  0.27985790096E+01 -0.79849055015E+01 -0.13559794592E+01  0.85690980212E+01  0.51100000000E-03 0. -1.
        -11    1    4    4    0    0  0.72634146444E+01 -0.42998525141E+00  0.69460832008E+01  0.10059331574E+02  0.51100000000E-03 0.  1.
         12    1    4    4    0    0  0.10466677347E+01 -0.13347310908E+02 -0.33136151578E+02  0.35738645235E+02  0.00000000000E+00 0. -1.
</event>
<event>
 8    1  0.2971508E-007  0.9118800E+02  0.7816164E-02  0.1184000E+00
        -11   -1    0    0    0    0  0.00000000000E+00  0.00000000000E+00  0.45593999997E+02  0.45594000000E+02  0.51100000000E-03 0.  1.
         11   -1    0    0    0    0 -0.00000000000E+00 -0.00000000000E+00 -0.45593999997E+02  0.45594000000E+02  0.51100000000E-03 0. -1.
         23    2    1    2    0    0 -0.35527136788E-14 -0.35527136788E-14 -0.88817841970E-15  0.91188000000E+02  0.91188000000E+02 0.  0.
    9900012    2    3    3    0    0 -0.26451636595E+02  0.25380859227E+02 -0.34502800932E+01  0.54367061305E+02  0.39999947856E+02 0.  0.
         12    1    3    3    0    0  0.26451636595E+02 -0.25380859227E+02  0.34502800932E+01  0.36820938695E+02  0.00000000000E+00 0. -1.
         11    1    4    4    0    0 -0.17810017509E+02  0.19253133230E+02 -0.13027856624E+02  0.29284892202E+02  0.51100000000E-03 0. -1.
        -11    1    4    4    0    0 -0.88020484048E+01  0.61530747912E+01 -0.40321526944E+01  0.11471470748E+02  0.51100000000E-03 0.  1.
        -12    1    4    4    0    0  0.16042931799E+00 -0.25348793717E-01  0.13609729225E+02  0.13610698355E+02  0.00000000000E+00 0.  1.
</event>
<event>
 8    1  0.2971508E-007  0.9118800E+02  0.7816164E-02  0.1184000E+00
        -11   -1    0    0    0    0  0.00000000000E+00  0.00000000000E+00  0.45593999997E+02  0.45594000000E+02  0.51100000000E-03 0. -1.
         11   -1    0    0    0    0 -0.00000000000E+00 -0.00000000000E+00 -0.45593999997E+02  0.45594000000E+02  0.51100000000E-03 0.  1.
         23    2    1    2    0    0  0.11102230246E-15 -0.33306690739E-15 -0.71054273576E-14  0.91188000000E+02  0.91188000000E+02 0.  0.
    9900012    2    3    3    0    0  0.14083110410E+00  0.79914904176E+00 -0.36811991338E+02  0.54367066024E+02  0.39999958615E+02 0.  0.
         12    1    3    3    0    0 -0.14083110410E+00 -0.79914904176E+00  0.36811991338E+02  0.36820933976E+02  0.00000000000E+00 0. -1.
         11    1    4    4    0    0  0.46706923849E+01  0.77493510088E+01 -0.23344020023E+01  0.93443695016E+01  0.51100000000E-03 0. -1.
        -11    1    4    4    0    0 -0.12346751632E+01 -0.14089157715E+02 -0.57991248727E+01  0.15285896683E+02  0.51100000000E-03 0.  1.
        -12    1    4    4    0    0 -0.32951861176E+01  0.71389557475E+01 -0.28678464463E+02  0.29736799839E+02  0.00000000000E+00 0.  1.
</event>
<event>
 8    1  0.2971508E-007  0.9118800E+02  0.7816164E-02  0.1184000E+00
        -11   -1    0    0    0    0  0.00000000000E+00  0.00000000000E+00  0.45593999997E+02  0.45594000000E+02  0.51100000000E-03 0. -1.
         11   -1    0    0    0    0 -0.00000000000E+00 -0.00000000000E+00 -0.45593999997E+02  0.45594000000E+02  0.51100000000E-03 0.  1.
         23    2    1    2    0    0  0.17763568394E-14 -0.17763568394E-14  0.00000000000E+00  0.91188000000E+02  0.91188000000E+02 0.  0.
    9900012    2    3    3    0    0  0.14993634310E+02 -0.40502051270E+01 -0.33385128189E+02  0.54367081821E+02  0.39999994627E+02 0.  0.
         12    1    3    3    0    0 -0.14993634310E+02  0.40502051270E+01  0.33385128189E+02  0.36820918179E+02  0.00000000000E+00 0. -1.
         11    1    4    4    0    0  0.17659545538E+01 -0.66190852847E+01 -0.66431480683E+00  0.68827465387E+01  0.51100000000E-03 0. -1.
        -11    1    4    4    0    0  0.10286684368E+02 -0.10227654591E+02 -0.27509823713E+01  0.14764440321E+02  0.51100000000E-03 0.  1.
         12    1    4    4    0    0  0.29409953876E+01  0.12796534749E+02 -0.29969831011E+02  0.32719894961E+02  0.00000000000E+00 0. -1.
</event>
<event>
 8    1  0.2971508E-007  0.9118800E+02  0.7816164E-02  0.1184000E+00
        -11   -1    0    0    0    0  0.00000000000E+00  0.00000000000E+00  0.45593999997E+02  0.45594000000E+02  0.51100000000E-03 0. -1.
         11   -1    0    0    0    0 -0.00000000000E+00 -0.00000000000E+00 -0.45593999997E+02  0.45594000000E+02  0.51100000000E-03 0.  1.
         23    2    1    2    0    0  0.17763568394E-14 -0.88817841970E-15  0.00000000000E+00  0.91188000000E+02  0.91188000000E+02 0.  0.
    9900012    2    3    3    0    0  0.13275697015E+02 -0.42276723633E+01  0.34083198519E+02  0.54367058049E+02  0.39999940435E+02 0.  0.
        -12    1    3    3    0    0 -0.13275697015E+02  0.42276723633E+01 -0.34083198519E+02  0.36820941951E+02  0.00000000000E+00 0.  1.
         11    1    4    4    0    0  0.72458197935E+01 -0.47131614224E+00  0.47818375110E+01  0.86942517579E+01  0.51100000000E-03 0. -1.
        -11    1    4    4    0    0  0.12011464008E+02 -0.88253108280E+01 -0.44377265481E+00  0.14911683784E+02  0.51100000000E-03 0.  1.
        -12    1    4    4    0    0 -0.59815867871E+01  0.50689546069E+01  0.29745133663E+02  0.30761122508E+02  0.00000000000E+00 0.  1.
</event>
<event>
 8    1  0.2971508E-007  0.9118800E+02  0.7816164E-02  0.1184000E+00
        -11   -1    0    0    0    0  0.00000000000E+00  0.00000000000E+00  0.45593999997E+02  0.45594000000E+02  0.51100000000E-03 0. -1.
         11   -1    0    0    0    0 -0.00000000000E+00 -0.00000000000E+00 -0.45593999997E+02  0.45594000000E+02  0.51100000000E-03 0.  1.
         23    2    1    2    0    0  0.00000000000E+00  0.88817841970E-15  0.00000000000E+00  0.91188000000E+02  0.91188000000E+02 0.  0.
    9900012    2    3    3    0    0 -0.36740956222E+01  0.58203130561E+01 -0.36171864789E+02  0.54367097987E+02  0.40000031481E+02 0.  0.
         12    1    3    3    0    0  0.36740956222E+01 -0.58203130561E+01  0.36171864789E+02  0.36820902013E+02  0.00000000000E+00 0. -1.
         11    1    4    4    0    0 -0.73334667775E+01 -0.12620585624E+02 -0.70797297072E+01  0.16222869335E+02  0.51100000000E-03 0. -1.
        -11    1    4    4    0    0  0.69610339816E+01  0.18149898408E+02 -0.28893300098E+02  0.34823807906E+02  0.51100000000E-03 0.  1.
         12    1    4    4    0    0 -0.33016628264E+01  0.29100027257E+00 -0.19883498410E+00  0.33204207458E+01  0.00000000000E+00 0. -1.
</event>
<event>
 8    1  0.2971508E-007  0.9118800E+02  0.7816164E-02  0.1184000E+00
        -11   -1    0    0    0    0  0.00000000000E+00  0.00000000000E+00  0.45593999997E+02  0.45594000000E+02  0.51100000000E-03 0.  1.
         11   -1    0    0    0    0 -0.00000000000E+00 -0.00000000000E+00 -0.45593999997E+02  0.45594000000E+02  0.51100000000E-03 0. -1.
         23    2    1    2    0    0  0.35527136788E-14 -0.35527136788E-14  0.00000000000E+00  0.91188000000E+02  0.91188000000E+02 0.  0.
    9900012    2    3    3    0    0 -0.17748854679E+02  0.31691565318E+02  0.60336429680E+01  0.54367054843E+02  0.39999933127E+02 0.  0.
        -12    1    3    3    0    0  0.17748854679E+02 -0.31691565318E+02 -0.60336429680E+01  0.36820945157E+02  0.00000000000E+00 0.  1.
         11    1    4    4    0    0 -0.28803650342E+02  0.21557955382E+02  0.10160520293E+02  0.37384915222E+02  0.51100000000E-03 0.  1.
        -11    1    4    4    0    0  0.32548327116E+01  0.10682045297E+01 -0.36612274948E+01  0.50139389633E+01  0.51100000000E-03 0. -1.
        -12    1    4    4    0    0  0.77999629513E+01  0.90654054070E+01 -0.46564983001E+00  0.11968200658E+02  0.00000000000E+00 0.  1.
</event>
<event>
 8    1  0.2971508E-007  0.9118800E+02  0.7816164E-02  0.1184000E+00
        -11   -1    0    0    0    0  0.00000000000E+00  0.00000000000E+00  0.45593999997E+02  0.45594000000E+02  0.51100000000E-03 0. -1.
         11   -1    0    0    0    0 -0.00000000000E+00 -0.00000000000E+00 -0.45593999997E+02  0.45594000000E+02  0.51100000000E-03 0.  1.
         23    2    1    2    0    0  0.00000000000E+00  0.00000000000E+00  0.35527136788E-14  0.91188000000E+02  0.91188000000E+02 0.  0.
    9900012    2    3    3    0    0 -0.21776050128E+01 -0.25526992087E+02 -0.26446361416E+02  0.54367091255E+02  0.40000016135E+02 0.  0.
         12    1    3    3    0    0  0.21776050128E+01  0.25526992087E+02  0.26446361416E+02  0.36820908745E+02  0.00000000000E+00 0. -1.
         11    1    4    4    0    0 -0.95244705007E+01 -0.35654831461E+01 -0.27586163671E+02  0.29401099210E+02  0.51100000000E-03 0. -1.
        -11    1    4    4    0    0  0.76812765145E+01 -0.14879179963E+02 -0.26070339214E+01  0.16946640711E+02  0.51100000000E-03 0.  1.
         12    1    4    4    0    0 -0.33441102659E+00 -0.70823289784E+01  0.37468361763E+01  0.80193513345E+01  0.00000000000E+00 0. -1.
</event>
<event>
 8    1  0.2971508E-007  0.9118800E+02  0.7816164E-02  0.1184000E+00
        -11   -1    0    0    0    0  0.00000000000E+00  0.00000000000E+00  0.45593999997E+02  0.45594000000E+02  0.51100000000E-03 0. -1.
         11   -1    0    0    0    0 -0.00000000000E+00 -0.00000000000E+00 -0.45593999997E+02  0.45594000000E+02  0.51100000000E-03 0.  1.
         23    2    1    2    0    0  0.00000000000E+00  0.00000000000E+00 -0.35527136788E-14  0.91188000000E+02  0.91188000000E+02 0.  0.
    9900012    2    3    3    0    0 -0.16502859126E+02 -0.23815868975E+02  0.22720745938E+02  0.54367186995E+02  0.40000234392E+02 0.  0.
         12    1    3    3    0    0  0.16502859126E+02  0.23815868975E+02 -0.22720745938E+02  0.36820813005E+02  0.00000000000E+00 0. -1.
         11    1    4    4    0    0 -0.75775485699E+01 -0.10742522535E+02  0.61001973646E+01  0.14492530521E+02  0.51100000000E-03 0. -1.
        -11    1    4    4    0    0 -0.82500551912E+01  0.83919769960E+01 -0.13850557538E+01  0.11849348854E+02  0.51100000000E-03 0.  1.
         12    1    4    4    0    0 -0.67525536500E+00 -0.21465323436E+02  0.18005604328E+02  0.28025307620E+02  0.00000000000E+00 0. -1.
</event>
<event>
 8    1  0.2971508E-007  0.9118800E+02  0.7816164E-02  0.1184000E+00
        -11   -1    0    0    0    0  0.00000000000E+00  0.00000000000E+00  0.45593999997E+02  0.45594000000E+02  0.51100000000E-03 0. -1.
         11   -1    0    0    0    0 -0.00000000000E+00 -0.00000000000E+00 -0.45593999997E+02  0.45594000000E+02  0.51100000000E-03 0.  1.
         23    2    1    2    0    0  0.00000000000E+00  0.00000000000E+00  0.17763568394E-14  0.91188000000E+02  0.91188000000E+02 0.  0.
    9900012    2    3    3    0    0  0.12545139769E+02  0.32680726453E+02  0.11417937098E+02  0.54367086093E+02  0.40000004367E+02 0.  0.
        -12    1    3    3    0    0 -0.12545139769E+02 -0.32680726453E+02 -0.11417937098E+02  0.36820913907E+02  0.00000000000E+00 0.  1.
         11    1    4    4    0    0  0.85197879157E+00  0.26242044578E+02  0.93215101345E+00  0.26272412856E+02  0.51100000000E-03 0. -1.
        -11    1    4    4    0    0  0.65105541899E+01 -0.68423252609E+01  0.10107142259E+02  0.13833259043E+02  0.51100000000E-03 0.  1.
        -12    1    4    4    0    0  0.51826067880E+01  0.13281007136E+02  0.37864382502E+00  0.14261414194E+02  0.00000000000E+00 0.  1.
</event>
<event>
 8    1  0.2971508E-007  0.9118800E+02  0.7816164E-02  0.1184000E+00
        -11   -1    0    0    0    0  0.00000000000E+00  0.00000000000E+00  0.45593999997E+02  0.45594000000E+02  0.51100000000E-03 0.  1.
         11   -1    0    0    0    0 -0.00000000000E+00 -0.00000000000E+00 -0.45593999997E+02  0.45594000000E+02  0.51100000000E-03 0. -1.
         23    2    1    2    0    0 -0.71054273576E-14  0.17763568394E-14 -0.44408920985E-15  0.91188000000E+02  0.91188000000E+02 0.  0.
    9900012    2    3    3    0    0 -0.33438501981E+02  0.14889211840E+02 -0.39947510532E+01  0.54367080947E+02  0.39999992634E+02 0.  0.
        -12    1    3    3    0    0  0.33438501981E+02 -0.14889211840E+02  0.39947510532E+01  0.36820919053E+02  0.00000000000E+00 0.  1.
         11    1    4    4    0    0 -0.12647712859E+02  0.13046550915E+02 -0.16902260007E+01  0.18249219039E+02  0.51100000000E-03 0.  1.
        -11    1    4    4    0    0 -0.24243185709E+02  0.10695749527E+02 -0.24822426475E+01  0.26613767867E+02  0.51100000000E-03 0. -1.
         12    1    4    4    0    0  0.34523965874E+01 -0.88530886017E+01  0.17771759498E+00  0.95040940404E+01  0.00000000000E+00 0. -1.
</event>
<event>
 8    1  0.2971508E-007  0.9118800E+02  0.7816164E-02  0.1184000E+00
        -11   -1    0    0    0    0  0.00000000000E+00  0.00000000000E+00  0.45593999997E+02  0.45594000000E+02  0.51100000000E-03 0.  1.
         11   -1    0    0    0    0 -0.00000000000E+00 -0.00000000000E+00 -0.45593999997E+02  0.45594000000E+02  0.51100000000E-03 0. -1.
         23    2    1    2    0    0  0.44408920985E-15  0.71054273576E-14 -0.88817841970E-15  0.91188000000E+02  0.91188000000E+02 0.  0.
    9900012    2    3    3    0    0 -0.27520515585E+01  0.36221605893E+02 -0.60168060374E+01  0.54367075567E+02  0.39999980370E+02 0.  0.
         12    1    3    3    0    0  0.27520515585E+01 -0.36221605893E+02  0.60168060374E+01  0.36820924433E+02  0.00000000000E+00 0. -1.
         11    1    4    4    0    0  0.14241359629E+02  0.23773123536E+02 -0.81282511243E+01  0.28879857918E+02  0.51100000000E-03 0. -1.
        -11    1    4    4    0    0 -0.23099756742E+01  0.47461642789E+01  0.64631178975E+01  0.83446962914E+01  0.51100000000E-03 0.  1.
         12    1    4    4    0    0 -0.14683435513E+02  0.77023180774E+01 -0.43516728106E+01  0.17142521357E+02  0.00000000000E+00 0. -1.
</event>
<event>
 8    1  0.2971508E-007  0.9118800E+02  0.7816164E-02  0.1184000E+00
        -11   -1    0    0    0    0  0.00000000000E+00  0.00000000000E+00  0.45593999997E+02  0.45594000000E+02  0.51100000000E-03 0.  1.
         11   -1    0    0    0    0 -0.00000000000E+00 -0.00000000000E+00 -0.45593999997E+02  0.45594000000E+02  0.51100000000E-03 0. -1.
         23    2    1    2    0    0  0.00000000000E+00 -0.35527136788E-14 -0.17763568394E-14  0.91188000000E+02  0.91188000000E+02 0.  0.
    9900012    2    3    3    0    0  0.23876691717E+02  0.27630955754E+02  0.47133016422E+01  0.54367063896E+02  0.39999953763E+02 0.  0.
         12    1    3    3    0    0 -0.23876691717E+02 -0.27630955754E+02 -0.47133016422E+01  0.36820936104E+02  0.00000000000E+00 0. -1.
         11    1    4    4    0    0  0.19566046709E+01 -0.29538736180E+01  0.18722861238E+01  0.40073840320E+01  0.51100000000E-03 0. -1.
        -11    1    4    4    0    0  0.74624531162E+01  0.25423905263E+02 -0.11927983692E+02  0.29057528466E+02  0.51100000000E-03 0.  1.
         12    1    4    4    0    0  0.14457633930E+02  0.51609241096E+01  0.14768999211E+02  0.21302151398E+02  0.00000000000E+00 0. -1.
</event>
<event>
 8    1  0.2971508E-007  0.9118800E+02  0.7816164E-02  0.1184000E+00
        -11   -1    0    0    0    0  0.00000000000E+00  0.00000000000E+00  0.45593999997E+02  0.45594000000E+02  0.51100000000E-03 0.  1.
         11   -1    0    0    0    0 -0.00000000000E+00 -0.00000000000E+00 -0.45593999997E+02  0.45594000000E+02  0.51100000000E-03 0. -1.
         23    2    1    2    0    0  0.00000000000E+00  0.71054273576E-14  0.41633363423E-15  0.91188000000E+02  0.91188000000E+02 0.  0.
    9900012    2    3    3    0    0  0.23258866544E+02  0.28544151634E+02  0.18853220700E+00  0.54367095478E+02  0.40000025762E+02 0.  0.
         12    1    3    3    0    0 -0.23258866544E+02 -0.28544151634E+02 -0.18853220700E+00  0.36820904522E+02  0.00000000000E+00 0. -1.
         11    1    4    4    0    0  0.51772227201E+01  0.97481173319E+01 -0.14976570103E+02  0.18604490827E+02  0.51100000000E-03 0. -1.
        -11    1    4    4    0    0  0.53613161885E+01  0.82190081107E+01  0.16465913955E+02  0.19168258351E+02  0.51100000000E-03 0.  1.
        -12    1    4    4    0    0  0.12720327635E+02  0.10577026192E+02 -0.13008116444E+01  0.16594346300E+02  0.00000000000E+00 0.  1.
</event>
<event>
 8    1  0.2971508E-007  0.9118800E+02  0.7816164E-02  0.1184000E+00
        -11   -1    0    0    0    0  0.00000000000E+00  0.00000000000E+00  0.45593999997E+02  0.45594000000E+02  0.51100000000E-03 0. -1.
         11   -1    0    0    0    0 -0.00000000000E+00 -0.00000000000E+00 -0.45593999997E+02  0.45594000000E+02  0.51100000000E-03 0.  1.
         23    2    1    2    0    0  0.00000000000E+00  0.10658141036E-13  0.17763568394E-14  0.91188000000E+02  0.91188000000E+02 0.  0.
    9900012    2    3    3    0    0  0.12103434301E+02  0.31736745195E+02 -0.14214993538E+02  0.54367079876E+02  0.39999990194E+02 0.  0.
         12    1    3    3    0    0 -0.12103434301E+02 -0.31736745195E+02  0.14214993538E+02  0.36820920124E+02  0.00000000000E+00 0. -1.
         11    1    4    4    0    0  0.10754641824E+02  0.34021935666E+02 -0.22897391846E+02  0.42396284989E+02  0.51100000000E-03 0.  1.
        -11    1    4    4    0    0 -0.28939210052E+01  0.40027532664E+00  0.48186805353E+01  0.56351292340E+01  0.51100000000E-03 0. -1.
        -12    1    4    4    0    0  0.42427134826E+01 -0.26854657972E+01  0.38637177732E+01  0.63356656536E+01  0.00000000000E+00 0.  1.
</event>
<event>
 8    1  0.2971508E-007  0.9118800E+02  0.7816164E-02  0.1184000E+00
        -11   -1    0    0    0    0  0.00000000000E+00  0.00000000000E+00  0.45593999997E+02  0.45594000000E+02  0.51100000000E-03 0. -1.
         11   -1    0    0    0    0 -0.00000000000E+00 -0.00000000000E+00 -0.45593999997E+02  0.45594000000E+02  0.51100000000E-03 0.  1.
         23    2    1    2    0    0  0.00000000000E+00  0.00000000000E+00  0.35527136788E-14  0.91188000000E+02  0.91188000000E+02 0.  0.
    9900012    2    3    3    0    0 -0.48687811558E+01  0.26411402637E+02 -0.25189520722E+02  0.54367093257E+02  0.40000020697E+02 0.  0.
         12    1    3    3    0    0  0.48687811558E+01 -0.26411402637E+02  0.25189520722E+02  0.36820906743E+02  0.00000000000E+00 0. -1.
         11    1    4    4    0    0 -0.59934687047E+01  0.17604349455E+02 -0.31320426959E+02  0.36425319930E+02  0.51100000000E-03 0. -1.
        -11    1    4    4    0    0  0.67248507009E+01  0.42723864999E+01 -0.71901530859E+00  0.79996179051E+01  0.51100000000E-03 0.  1.
         12    1    4    4    0    0 -0.56001631519E+01  0.45346666819E+01  0.68499215454E+01  0.99421554214E+01  0.00000000000E+00 0. -1.
</event>
<event>
 8    1  0.2971508E-007  0.9118800E+02  0.7816164E-02  0.1184000E+00
        -11   -1    0    0    0    0  0.00000000000E+00  0.00000000000E+00  0.45593999997E+02  0.45594000000E+02  0.51100000000E-03 0. -1.
         11   -1    0    0    0    0 -0.00000000000E+00 -0.00000000000E+00 -0.45593999997E+02  0.45594000000E+02  0.51100000000E-03 0.  1.
         23    2    1    2    0    0  0.17763568394E-14  0.00000000000E+00 -0.71054273576E-14  0.91188000000E+02  0.91188000000E+02 0.  0.
    9900012    2    3    3    0    0 -0.10503431426E+02 -0.13401038249E+02 -0.32647667005E+02  0.54367081235E+02  0.39999993290E+02 0.  0.
         12    1    3    3    0    0  0.10503431426E+02  0.13401038249E+02  0.32647667005E+02  0.36820918765E+02  0.00000000000E+00 0. -1.
         11    1    4    4    0    0 -0.34971632975E+01 -0.51013814559E+01 -0.32993614503E+02  0.33568330940E+02  0.51100000000E-03 0.  1.
        -11    1    4    4    0    0 -0.66300398389E+01 -0.72228411683E+01  0.82494965572E+01  0.12813315594E+02  0.51100000000E-03 0. -1.
         12    1    4    4    0    0 -0.37622828910E+00 -0.10768156246E+01 -0.79035490592E+01  0.79854346999E+01  0.00000000000E+00 0. -1.
</event>
<event>
 8    1  0.2971508E-007  0.9118800E+02  0.7816164E-02  0.1184000E+00
        -11   -1    0    0    0    0  0.00000000000E+00  0.00000000000E+00  0.45593999997E+02  0.45594000000E+02  0.51100000000E-03 0.  1.
         11   -1    0    0    0    0 -0.00000000000E+00 -0.00000000000E+00 -0.45593999997E+02  0.45594000000E+02  0.51100000000E-03 0. -1.
         23    2    1    2    0    0  0.00000000000E+00  0.88817841970E-15  0.88817841970E-15  0.91188000000E+02  0.91188000000E+02 0.  0.
    9900012    2    3    3    0    0  0.35707109434E+02  0.69050407125E+01  0.57535522551E+01  0.54367073682E+02  0.39999976073E+02 0.  0.
        -12    1    3    3    0    0 -0.35707109434E+02 -0.69050407125E+01 -0.57535522551E+01  0.36820926318E+02  0.00000000000E+00 0.  1.
         11    1    4    4    0    0  0.10663155440E+02  0.11130234584E+02 -0.22697507513E+01  0.15580012021E+02  0.51100000000E-03 0. -1.
        -11    1    4    4    0    0  0.21693789176E+01  0.99682940858E+01 -0.13305211460E+01  0.10288021124E+02  0.51100000000E-03 0.  1.
         12    1    4    4    0    0  0.22874575076E+02 -0.14193487957E+02  0.93538241524E+01  0.28499040537E+02  0.00000000000E+00 0. -1.
</event>
<event>
 8    1  0.2971508E-007  0.9118800E+02  0.7816164E-02  0.1184000E+00
        -11   -1    0    0    0    0  0.00000000000E+00  0.00000000000E+00  0.45593999997E+02  0.45594000000E+02  0.51100000000E-03 0.  1.
         11   -1    0    0    0    0 -0.00000000000E+00 -0.00000000000E+00 -0.45593999997E+02  0.45594000000E+02  0.51100000000E-03 0. -1.
         23    2    1    2    0    0 -0.35527136788E-14 -0.17763568394E-14 -0.35527136788E-14  0.91188000000E+02  0.91188000000E+02 0.  0.
    9900012    2    3    3    0    0 -0.24474303656E+02 -0.85670875179E+01 -0.26141799369E+02  0.54367079285E+02  0.39999988847E+02 0.  0.
        -12    1    3    3    0    0  0.24474303656E+02  0.85670875179E+01  0.26141799369E+02  0.36820920715E+02  0.00000000000E+00 0.  1.
         11    1    4    4    0    0 -0.36535808142E+01 -0.34669436281E+01  0.76372611150E+01  0.91485577271E+01  0.51100000000E-03 0. -1.
        -11    1    4    4    0    0  0.30591857511E+01 -0.85969661436E+00  0.51052582276E+00  0.32184363603E+01  0.51100000000E-03 0.  1.
         12    1    4    4    0    0 -0.23879908593E+02 -0.42404472755E+01 -0.34289586307E+02  0.42000085198E+02  0.00000000000E+00 0. -1.
</event>
<event>
 8    1  0.2971508E-007  0.9118800E+02  0.7816164E-02  0.1184000E+00
        -11   -1    0    0    0    0  0.00000000000E+00  0.00000000000E+00  0.45593999997E+02  0.45594000000E+02  0.51100000000E-03 0.  1.
         11   -1    0    0    0    0 -0.00000000000E+00 -0.00000000000E+00 -0.45593999997E+02  0.45594000000E+02  0.51100000000E-03 0. -1.
         23    2    1    2    0    0  0.00000000000E+00  0.00000000000E+00  0.13322676296E-14  0.91188000000E+02  0.91188000000E+02 0.  0.
    9900012    2    3    3    0    0 -0.65196776347E+01 -0.36052911989E+02 -0.36689336462E+01  0.54367085652E+02  0.40000003361E+02 0.  0.
         12    1    3    3    0    0  0.65196776347E+01  0.36052911989E+02  0.36689336462E+01  0.36820914348E+02  0.00000000000E+00 0. -1.
         11    1    4    4    0    0 -0.27780538067E+01 -0.42633596421E+01 -0.74504635067E+01  0.90223735855E+01  0.51100000000E-03 0. -1.
        -11    1    4    4    0    0  0.53947296044E+01 -0.20052297239E+02  0.15904363489E+02  0.26156194493E+02  0.51100000000E-03 0.  1.
         12    1    4    4    0    0 -0.91363534324E+01 -0.11737255107E+02 -0.12122833629E+02  0.19188517574E+02  0.00000000000E+00 0. -1.
</event>
<event>
 8    1  0.2971508E-007  0.9118800E+02  0.7816164E-02  0.1184000E+00
        -11   -1    0    0    0    0  0.00000000000E+00  0.00000000000E+00  0.45593999997E+02  0.45594000000E+02  0.51100000000E-03 0.  1.
         11   -1    0    0    0    0 -0.00000000000E+00 -0.00000000000E+00 -0.45593999997E+02  0.45594000000E+02  0.51100000000E-03 0. -1.
         23    2    1    2    0    0  0.00000000000E+00 -0.17763568394E-14  0.00000000000E+00  0.91188000000E+02  0.91188000000E+02 0.  0.
    9900012    2    3    3    0    0  0.27001520380E+02 -0.10611357952E+02  0.22673623427E+02  0.54367133366E+02  0.40000112133E+02 0.  0.
         12    1    3    3    0    0 -0.27001520380E+02  0.10611357952E+02 -0.22673623427E+02  0.36820866634E+02  0.00000000000E+00 0. -1.
         11    1    4    4    0    0  0.91023313968E+01  0.75935926760E+00 -0.41410183636E+01  0.10028813325E+02  0.51100000000E-03 0.  1.
        -11    1    4    4    0    0 -0.13680690526E+01  0.70606493435E+01  0.10639004351E+01  0.72702315287E+01  0.51100000000E-03 0. -1.
        -12    1    4    4    0    0  0.19267258035E+02 -0.18431366563E+02  0.25750741356E+02  0.37068088512E+02  0.00000000000E+00 0.  1.
</event>
<event>
 8    1  0.2971508E-007  0.9118800E+02  0.7816164E-02  0.1184000E+00
        -11   -1    0    0    0    0  0.00000000000E+00  0.00000000000E+00  0.45593999997E+02  0.45594000000E+02  0.51100000000E-03 0. -1.
         11   -1    0    0    0    0 -0.00000000000E+00 -0.00000000000E+00 -0.45593999997E+02  0.45594000000E+02  0.51100000000E-03 0.  1.
         23    2    1    2    0    0 -0.17763568394E-14  0.00000000000E+00  0.00000000000E+00  0.91188000000E+02  0.91188000000E+02 0.  0.
    9900012    2    3    3    0    0 -0.75184872671E+01 -0.10619572335E+02  0.34445287653E+02  0.54367071049E+02  0.39999970070E+02 0.  0.
        -12    1    3    3    0    0  0.75184872671E+01  0.10619572335E+02 -0.34445287653E+02  0.36820928951E+02  0.00000000000E+00 0.  1.
         11    1    4    4    0    0 -0.17513123267E+02 -0.10874744171E+01  0.85763212149E+01  0.19530626539E+02  0.51100000000E-03 0. -1.
        -11    1    4    4    0    0  0.11097952943E+02 -0.34447598296E+01  0.42879090711E+01  0.12386165439E+02  0.51100000000E-03 0.  1.
        -12    1    4    4    0    0 -0.11033169432E+01 -0.60873380887E+01  0.21581057367E+02  0.22450279070E+02  0.00000000000E+00 0.  1.
</event>
<event>
 8    1  0.2971508E-007  0.9118800E+02  0.7816164E-02  0.1184000E+00
        -11   -1    0    0    0    0  0.00000000000E+00  0.00000000000E+00  0.45593999997E+02  0.45594000000E+02  0.51100000000E-03 0. -1.
         11   -1    0    0    0    0 -0.00000000000E+00 -0.00000000000E+00 -0.45593999997E+02  0.45594000000E+02  0.51100000000E-03 0.  1.
         23    2    1    2    0    0  0.00000000000E+00  0.00000000000E+00  0.00000000000E+00  0.91188000000E+02  0.91188000000E+02 0.  0.
    9900012    2    3    3    0    0 -0.28427258910E+02 -0.19995180005E+02 -0.12159838044E+02  0.54367110089E+02  0.40000059070E+02 0.  0.
         12    1    3    3    0    0  0.28427258910E+02  0.19995180005E+02  0.12159838044E+02  0.36820889911E+02  0.00000000000E+00 0. -1.
         11    1    4    4    0    0 -0.11244603757E+02 -0.18895587580E+00 -0.27935112322E+01  0.11587947327E+02  0.51100000000E-03 0. -1.
        -11    1    4    4    0    0 -0.12100138399E+02 -0.34316362713E+01 -0.19245888192E+02  0.22991165462E+02  0.51100000000E-03 0.  1.
        -12    1    4    4    0    0 -0.50825167538E+01 -0.16374587858E+02  0.98795613801E+01  0.19787997300E+02  0.00000000000E+00 0.  1.
</event>
<event>
 8    1  0.2971508E-007  0.9118800E+02  0.7816164E-02  0.1184000E+00
        -11   -1    0    0    0    0  0.00000000000E+00  0.00000000000E+00  0.45593999997E+02  0.45594000000E+02  0.51100000000E-03 0. -1.
         11   -1    0    0    0    0 -0.00000000000E+00 -0.00000000000E+00 -0.45593999997E+02  0.45594000000E+02  0.51100000000E-03 0.  1.
         23    2    1    2    0    0  0.88817841970E-15  0.35527136788E-14  0.00000000000E+00  0.91188000000E+02  0.91188000000E+02 0.  0.
    9900012    2    3    3    0    0 -0.76265932960E+01  0.23878796459E+02  0.26970686782E+02  0.54367084869E+02  0.40000001575E+02 0.  0.
        -12    1    3    3    0    0  0.76265932960E+01 -0.23878796459E+02 -0.26970686782E+02  0.36820915131E+02  0.00000000000E+00 0.  1.
         11    1    4    4    0    0 -0.18835217588E+02  0.19445289700E+02  0.83684478807E+01  0.28335765974E+02  0.51100000000E-03 0.  1.
        -11    1    4    4    0    0 -0.30783709123E+01  0.10614305032E+01  0.53048889664E+01  0.62245360786E+01  0.51100000000E-03 0. -1.
         12    1    4    4    0    0  0.14286995204E+02  0.33720762554E+01  0.13297349935E+02  0.19806782816E+02  0.00000000000E+00 0. -1.
</event>
<event>
 8    1  0.2971508E-007  0.9118800E+02  0.7816164E-02  0.1184000E+00
        -11   -1    0    0    0    0  0.00000000000E+00  0.00000000000E+00  0.45593999997E+02  0.45594000000E+02  0.51100000000E-03 0. -1.
         11   -1    0    0    0    0 -0.00000000000E+00 -0.00000000000E+00 -0.45593999997E+02  0.45594000000E+02  0.51100000000E-03 0.  1.
         23    2    1    2    0    0  0.00000000000E+00  0.00000000000E+00  0.00000000000E+00  0.91188000000E+02  0.91188000000E+02 0.  0.
    9900012    2    3    3    0    0 -0.28273547079E+02  0.18875965019E+02 -0.14145164688E+02  0.54367065684E+02  0.39999957840E+02 0.  0.
         12    1    3    3    0    0  0.28273547079E+02 -0.18875965019E+02  0.14145164688E+02  0.36820934316E+02  0.00000000000E+00 0. -1.
         11    1    4    4    0    0 -0.92860007717E+01  0.58402101484E+01 -0.56035077413E+01  0.12318163994E+02  0.51100000000E-03 0. -1.
        -11    1    4    4    0    0 -0.76050361182E+01  0.24115931838E+02 -0.51361422278E+01  0.25802997889E+02  0.51100000000E-03 0.  1.
         12    1    4    4    0    0 -0.11382510189E+02 -0.11080176968E+02 -0.34055147189E+01  0.16245903802E+02  0.00000000000E+00 0. -1.
</event>
<event>
 8    1  0.2971508E-007  0.9118800E+02  0.7816164E-02  0.1184000E+00
        -11   -1    0    0    0    0  0.00000000000E+00  0.00000000000E+00  0.45593999997E+02  0.45594000000E+02  0.51100000000E-03 0.  1.
         11   -1    0    0    0    0 -0.00000000000E+00 -0.00000000000E+00 -0.45593999997E+02  0.45594000000E+02  0.51100000000E-03 0. -1.
         23    2    1    2    0    0  0.00000000000E+00  0.00000000000E+00 -0.17763568394E-14  0.91188000000E+02  0.91188000000E+02 0.  0.
    9900012    2    3    3    0    0  0.33166068945E+02  0.10855540659E+02  0.11745160438E+02  0.54367086297E+02  0.40000004830E+02 0.  0.
         12    1    3    3    0    0 -0.33166068945E+02 -0.10855540659E+02 -0.11745160438E+02  0.36820913703E+02  0.00000000000E+00 0. -1.
         11    1    4    4    0    0  0.98308372041E+01 -0.72433857409E+01  0.12116427328E+01  0.12271107346E+02  0.51100000000E-03 0. -1.
        -11    1    4    4    0    0 -0.12203198850E+01  0.12494451731E+02  0.11309672359E+02  0.16897017306E+02  0.51100000000E-03 0.  1.
         12    1    4    4    0    0  0.24555551625E+02  0.56044746688E+01 -0.77615465376E+00  0.25198961645E+02  0.00000000000E+00 0. -1.
</event>
<event>
 8    1  0.2971508E-007  0.9118800E+02  0.7816164E-02  0.1184000E+00
        -11   -1    0    0    0    0  0.00000000000E+00  0.00000000000E+00  0.45593999997E+02  0.45594000000E+02  0.51100000000E-03 0.  1.
         11   -1    0    0    0    0 -0.00000000000E+00 -0.00000000000E+00 -0.45593999997E+02  0.45594000000E+02  0.51100000000E-03 0. -1.
         23    2    1    2    0    0  0.00000000000E+00  0.00000000000E+00  0.35527136788E-14  0.91188000000E+02  0.91188000000E+02 0.  0.
    9900012    2    3    3    0    0  0.53652930649E+01 -0.20854970195E+02 -0.29867444208E+02  0.54367076939E+02  0.39999983498E+02 0.  0.
        -12    1    3    3    0    0 -0.53652930649E+01  0.20854970195E+02  0.29867444208E+02  0.36820923061E+02  0.00000000000E+00 0.  1.
         11    1    4    4    0    0 -0.46474544395E+01 -0.74979983318E+00  0.23438736660E+01  0.52587809025E+01  0.51100000000E-03 0. -1.
        -11    1    4    4    0    0  0.53795524099E+01 -0.58908299921E+01  0.47174625782E+01  0.92680049398E+01  0.51100000000E-03 0.  1.
         12    1    4    4    0    0  0.46331950945E+01 -0.14214340370E+02 -0.36928780453E+02  0.39840291097E+02  0.00000000000E+00 0. -1.
</event>
<event>
 8    1  0.2971508E-007  0.9118800E+02  0.7816164E-02  0.1184000E+00
        -11   -1    0    0    0    0  0.00000000000E+00  0.00000000000E+00  0.45593999997E+02  0.45594000000E+02  0.51100000000E-03 0.  1.
         11   -1    0    0    0    0 -0.00000000000E+00 -0.00000000000E+00 -0.45593999997E+02  0.45594000000E+02  0.51100000000E-03 0. -1.
         23    2    1    2    0    0  0.00000000000E+00  0.00000000000E+00  0.35527136788E-14  0.91188000000E+02  0.91188000000E+02 0.  0.
    9900012    2    3    3    0    0 -0.25124815288E+02  0.31654896076E+01  0.26730216722E+02  0.54367066366E+02  0.39999959393E+02 0.  0.
         12    1    3    3    0    0  0.25124815288E+02 -0.31654896076E+01 -0.26730216722E+02  0.36820933634E+02  0.00000000000E+00 0. -1.
         11    1    4    4    0    0  0.10945990422E+01 -0.11514286152E+01 -0.12083106464E+00  0.15932781698E+01  0.51100000000E-03 0. -1.
        -11    1    4    4    0    0 -0.24293205466E+02  0.73150488521E+01  0.35376510329E+02  0.43533518751E+02  0.51100000000E-03 0.  1.
        -12    1    4    4    0    0 -0.19262088640E+01 -0.29981306293E+01 -0.85254625420E+01  0.92402694449E+01  0.00000000000E+00 0.  1.
</event>
<event>
 8    1  0.2971508E-007  0.9118800E+02  0.7816164E-02  0.1184000E+00
        -11   -1    0    0    0    0  0.00000000000E+00  0.00000000000E+00  0.45593999997E+02  0.45594000000E+02  0.51100000000E-03 0.  1.
         11   -1    0    0    0    0 -0.00000000000E+00 -0.00000000000E+00 -0.45593999997E+02  0.45594000000E+02  0.51100000000E-03 0. -1.
         23    2    1    2    0    0  0.17763568394E-14  0.71054273576E-14 -0.17763568394E-14  0.91188000000E+02  0.91188000000E+02 0.  0.
    9900012    2    3    3    0    0  0.90012013648E+01  0.35432341451E+02 -0.43940423728E+01  0.54367081284E+02  0.39999993404E+02 0.  0.
        -12    1    3    3    0    0 -0.90012013648E+01 -0.35432341451E+02  0.43940423728E+01  0.36820918716E+02  0.00000000000E+00 0.  1.
         11    1    4    4    0    0  0.43495708817E+01  0.22151805765E+02  0.17016321597E+02  0.28269709345E+02  0.51100000000E-03 0.  1.
        -11    1    4    4    0    0  0.10555576703E+01  0.94244868411E+01 -0.15554642656E+02  0.18217630544E+02  0.51100000000E-03 0. -1.
        -12    1    4    4    0    0  0.35960728128E+01  0.38560488449E+01 -0.58557213130E+01  0.78797413959E+01  0.00000000000E+00 0.  1.
</event>
<event>
 8    1  0.2971508E-007  0.9118800E+02  0.7816164E-02  0.1184000E+00
        -11   -1    0    0    0    0  0.00000000000E+00  0.00000000000E+00  0.45593999997E+02  0.45594000000E+02  0.51100000000E-03 0. -1.
         11   -1    0    0    0    0 -0.00000000000E+00 -0.00000000000E+00 -0.45593999997E+02  0.45594000000E+02  0.51100000000E-03 0.  1.
         23    2    1    2    0    0  0.00000000000E+00  0.00000000000E+00  0.00000000000E+00  0.91188000000E+02  0.91188000000E+02 0.  0.
    9900012    2    3    3    0    0 -0.27861755458E+02 -0.53355728516E+01 -0.23474101932E+02  0.54367092673E+02  0.40000019367E+02 0.  0.
         12    1    3    3    0    0  0.27861755458E+02  0.53355728516E+01  0.23474101932E+02  0.36820907327E+02  0.00000000000E+00 0. -1.
         11    1    4    4    0    0 -0.24573121747E+02 -0.10539402388E+02 -0.11699394031E+02  0.29185495302E+02  0.51100000000E-03 0. -1.
        -11    1    4    4    0    0  0.61851906801E+01  0.86694762935E+01 -0.14520363500E+01  0.10748246963E+02  0.51100000000E-03 0.  1.
        -12    1    4    4    0    0 -0.94738243911E+01 -0.34656467571E+01 -0.10322671551E+02  0.14433350408E+02  0.00000000000E+00 0.  1.
</event>
<event>
 8    1  0.2971508E-007  0.9118800E+02  0.7816164E-02  0.1184000E+00
        -11   -1    0    0    0    0  0.00000000000E+00  0.00000000000E+00  0.45593999997E+02  0.45594000000E+02  0.51100000000E-03 0. -1.
         11   -1    0    0    0    0 -0.00000000000E+00 -0.00000000000E+00 -0.45593999997E+02  0.45594000000E+02  0.51100000000E-03 0.  1.
         23    2    1    2    0    0  0.00000000000E+00  0.17763568394E-14  0.00000000000E+00  0.91188000000E+02  0.91188000000E+02 0.  0.
    9900012    2    3    3    0    0  0.31595396218E+02  0.43000714864E+01  0.18412472172E+02  0.54367098213E+02  0.40000031995E+02 0.  0.
        -12    1    3    3    0    0 -0.31595396218E+02 -0.43000714864E+01 -0.18412472172E+02  0.36820901787E+02  0.00000000000E+00 0.  1.
         11    1    4    4    0    0 -0.56451345774E+00  0.14844597863E+02  0.51205200585E+01  0.15713067399E+02  0.51100000000E-03 0.  1.
        -11    1    4    4    0    0  0.12324271984E+02 -0.49472643506E+01  0.12170277470E+02  0.18013293936E+02  0.51100000000E-03 0. -1.
        -12    1    4    4    0    0  0.19835637692E+02 -0.55972620257E+01  0.11216746435E+01  0.20640736877E+02  0.00000000000E+00 0.  1.
</event>
<event>
 8    1  0.2971508E-007  0.9118800E+02  0.7816164E-02  0.1184000E+00
        -11   -1    0    0    0    0  0.00000000000E+00  0.00000000000E+00  0.45593999997E+02  0.45594000000E+02  0.51100000000E-03 0.  1.
         11   -1    0    0    0    0 -0.00000000000E+00 -0.00000000000E+00 -0.45593999997E+02  0.45594000000E+02  0.51100000000E-03 0. -1.
         23    2    1    2    0    0 -0.55511151231E-15  0.00000000000E+00  0.13322676296E-14  0.91188000000E+02  0.91188000000E+02 0.  0.
    9900012    2    3    3    0    0  0.54183906572E+00 -0.36799824634E+02 -0.11220071040E+01  0.54367087700E+02  0.40000008029E+02 0.  0.
        -12    1    3    3    0    0 -0.54183906572E+00  0.36799824634E+02  0.11220071040E+01  0.36820912300E+02  0.00000000000E+00 0.  1.
         11    1    4    4    0    0  0.10629949401E+01  0.44553806852E+01 -0.42352040495E+01  0.62383755012E+01  0.51100000000E-03 0.  1.
        -11    1    4    4    0    0 -0.10603857752E+02 -0.18726888696E+02  0.80154706393E+01  0.22964884700E+02  0.51100000000E-03 0. -1.
         12    1    4    4    0    0  0.10082701877E+02 -0.22528316623E+02 -0.49022736937E+01  0.25163827499E+02  0.00000000000E+00 0. -1.
</event>
<event>
 8    1  0.2971508E-007  0.9118800E+02  0.7816164E-02  0.1184000E+00
        -11   -1    0    0    0    0  0.00000000000E+00  0.00000000000E+00  0.45593999997E+02  0.45594000000E+02  0.51100000000E-03 0.  1.
         11   -1    0    0    0    0 -0.00000000000E+00 -0.00000000000E+00 -0.45593999997E+02  0.45594000000E+02  0.51100000000E-03 0. -1.
         23    2    1    2    0    0 -0.88817841970E-15  0.00000000000E+00  0.00000000000E+00  0.91188000000E+02  0.91188000000E+02 0.  0.
    9900012    2    3    3    0    0 -0.49301102347E+01  0.19855270483E+02 -0.30614420718E+02  0.54367075123E+02  0.39999979358E+02 0.  0.
        -12    1    3    3    0    0  0.49301102347E+01 -0.19855270483E+02  0.30614420718E+02  0.36820924877E+02  0.00000000000E+00 0.  1.
         11    1    4    4    0    0 -0.34278670663E+01  0.84838134977E+01 -0.11055419950E+02  0.14350877138E+02  0.51100000000E-03 0. -1.
        -11    1    4    4    0    0 -0.49760227037E+01  0.11155675174E+02  0.64238356769E+01  0.13801288186E+02  0.51100000000E-03 0.  1.
         12    1    4    4    0    0  0.34737795352E+01  0.21578181114E+00 -0.25982836445E+02  0.26214909799E+02  0.00000000000E+00 0. -1.
</event>
<event>
 8    1  0.2971508E-007  0.9118800E+02  0.7816164E-02  0.1184000E+00
        -11   -1    0    0    0    0  0.00000000000E+00  0.00000000000E+00  0.45593999997E+02  0.45594000000E+02  0.51100000000E-03 0.  1.
         11   -1    0    0    0    0 -0.00000000000E+00 -0.00000000000E+00 -0.45593999997E+02  0.45594000000E+02  0.51100000000E-03 0. -1.
         23    2    1    2    0    0  0.00000000000E+00  0.00000000000E+00  0.00000000000E+00  0.91188000000E+02  0.91188000000E+02 0.  0.
    9900012    2    3    3    0    0  0.64777995469E+01 -0.11882912140E+02  0.34243478098E+02  0.54367064648E+02  0.39999955479E+02 0.  0.
         12    1    3    3    0    0 -0.64777995469E+01  0.11882912140E+02 -0.34243478098E+02  0.36820935352E+02  0.00000000000E+00 0. -1.
         11    1    4    4    0    0 -0.60209006481E+01  0.37510861751E+01  0.96539233817E+01  0.11979988691E+02  0.51100000000E-03 0. -1.
        -11    1    4    4    0    0  0.59710435657E+00 -0.15737686931E+02  0.77989192422E+00  0.15768308573E+02  0.51100000000E-03 0.  1.
         12    1    4    4    0    0  0.11901595838E+02  0.10368861614E+00  0.23809662792E+02  0.26618767385E+02  0.00000000000E+00 0. -1.
</event>
<event>
 8    1  0.2971508E-007  0.9118800E+02  0.7816164E-02  0.1184000E+00
        -11   -1    0    0    0    0  0.00000000000E+00  0.00000000000E+00  0.45593999997E+02  0.45594000000E+02  0.51100000000E-03 0.  1.
         11   -1    0    0    0    0 -0.00000000000E+00 -0.00000000000E+00 -0.45593999997E+02  0.45594000000E+02  0.51100000000E-03 0. -1.
         23    2    1    2    0    0  0.35527136788E-14 -0.17763568394E-14  0.00000000000E+00  0.91188000000E+02  0.91188000000E+02 0.  0.
    9900012    2    3    3    0    0  0.21188453804E+02  0.95395667107E+01 -0.28562646310E+02  0.54367100068E+02  0.40000036224E+02 0.  0.
        -12    1    3    3    0    0 -0.21188453804E+02 -0.95395667107E+01  0.28562646310E+02  0.36820899932E+02  0.00000000000E+00 0.  1.
         11    1    4    4    0    0  0.33957073552E+01  0.15285474556E+02 -0.15802064084E+02  0.22245938739E+02  0.51100000000E-03 0.  1.
        -11    1    4    4    0    0  0.74241006401E+01  0.66547631402E+01 -0.12454927549E+02  0.15953945070E+02  0.51100000000E-03 0. -1.
        -12    1    4    4    0    0  0.10368645808E+02 -0.12400670985E+02 -0.30565467680E+00  0.16167216259E+02  0.00000000000E+00 0.  1.
</event>
<event>
 8    1  0.2971508E-007  0.9118800E+02  0.7816164E-02  0.1184000E+00
        -11   -1    0    0    0    0  0.00000000000E+00  0.00000000000E+00  0.45593999997E+02  0.45594000000E+02  0.51100000000E-03 0.  1.
         11   -1    0    0    0    0 -0.00000000000E+00 -0.00000000000E+00 -0.45593999997E+02  0.45594000000E+02  0.51100000000E-03 0. -1.
         23    2    1    2    0    0 -0.17763568394E-14  0.00000000000E+00  0.00000000000E+00  0.91188000000E+02  0.91188000000E+02 0.  0.
    9900012    2    3    3    0    0 -0.94151660388E+01 -0.32043909159E+02 -0.15502437504E+02  0.54367040829E+02  0.39999901177E+02 0.  0.
        -12    1    3    3    0    0  0.94151660388E+01  0.32043909159E+02  0.15502437504E+02  0.36820959171E+02  0.00000000000E+00 0.  1.
         11    1    4    4    0    0 -0.13308950230E+01 -0.23607745937E+02  0.73724045456E+01  0.24767908649E+02  0.51100000000E-03 0. -1.
        -11    1    4    4    0    0 -0.11825872614E+02 -0.91735792075E+01 -0.17984127160E+02  0.23397321397E+02  0.51100000000E-03 0.  1.
         12    1    4    4    0    0  0.37416015987E+01  0.73741598526E+00 -0.48907148891E+01  0.62018107827E+01  0.00000000000E+00 0. -1.
</event>
<event>
 8    1  0.2971508E-007  0.9118800E+02  0.7816164E-02  0.1184000E+00
        -11   -1    0    0    0    0  0.00000000000E+00  0.00000000000E+00  0.45593999997E+02  0.45594000000E+02  0.51100000000E-03 0.  1.
         11   -1    0    0    0    0 -0.00000000000E+00 -0.00000000000E+00 -0.45593999997E+02  0.45594000000E+02  0.51100000000E-03 0. -1.
         23    2    1    2    0    0 -0.35527136788E-14 -0.35527136788E-14  0.00000000000E+00  0.91188000000E+02  0.91188000000E+02 0.  0.
    9900012    2    3    3    0    0  0.26279378087E+02  0.25305726225E+02  0.49793421624E+01  0.54367090983E+02  0.40000015514E+02 0.  0.
         12    1    3    3    0    0 -0.26279378087E+02 -0.25305726225E+02 -0.49793421624E+01  0.36820909017E+02  0.00000000000E+00 0. -1.
         11    1    4    4    0    0  0.24694421292E+02  0.82107999288E+01 -0.10689396225E+02  0.28133518627E+02  0.51100000000E-03 0. -1.
        -11    1    4    4    0    0 -0.27889648741E+01  0.15761833411E+02  0.14290850108E+02  0.21457914964E+02  0.51100000000E-03 0.  1.
         12    1    4    4    0    0  0.43739216694E+01  0.13330928855E+01  0.13778882795E+01  0.47756573916E+01  0.00000000000E+00 0. -1.
</event>
<event>
 8    1  0.2971508E-007  0.9118800E+02  0.7816164E-02  0.1184000E+00
        -11   -1    0    0    0    0  0.00000000000E+00  0.00000000000E+00  0.45593999997E+02  0.45594000000E+02  0.51100000000E-03 0. -1.
         11   -1    0    0    0    0 -0.00000000000E+00 -0.00000000000E+00 -0.45593999997E+02  0.45594000000E+02  0.51100000000E-03 0.  1.
         23    2    1    2    0    0  0.35527136788E-14  0.00000000000E+00  0.00000000000E+00  0.91188000000E+02  0.91188000000E+02 0.  0.
    9900012    2    3    3    0    0  0.25708112703E+02  0.12532306311E+02  0.23190835780E+02  0.54367073553E+02  0.39999975780E+02 0.  0.
         12    1    3    3    0    0 -0.25708112703E+02 -0.12532306311E+02 -0.23190835780E+02  0.36820926447E+02  0.00000000000E+00 0. -1.
         11    1    4    4    0    0 -0.33772669937E+01 -0.66658707303E+01  0.51638985610E+01  0.90832600728E+01  0.51100000000E-03 0. -1.
        -11    1    4    4    0    0 -0.38693614507E+01  0.16927755758E+01  0.19659030070E+01  0.46585643797E+01  0.51100000000E-03 0.  1.
        -12    1    4    4    0    0  0.32954741147E+02  0.17505401466E+02  0.16061034212E+02  0.40625249101E+02  0.00000000000E+00 0.  1.
</event>
<event>
 8    1  0.2971508E-007  0.9118800E+02  0.7816164E-02  0.1184000E+00
        -11   -1    0    0    0    0  0.00000000000E+00  0.00000000000E+00  0.45593999997E+02  0.45594000000E+02  0.51100000000E-03 0. -1.
         11   -1    0    0    0    0 -0.00000000000E+00 -0.00000000000E+00 -0.45593999997E+02  0.45594000000E+02  0.51100000000E-03 0.  1.
         23    2    1    2    0    0 -0.88817841970E-15  0.00000000000E+00  0.00000000000E+00  0.91188000000E+02  0.91188000000E+02 0.  0.
    9900012    2    3    3    0    0 -0.70251696108E+01 -0.73490768412E+01 -0.35389513701E+02  0.54367087213E+02  0.40000006920E+02 0.  0.
         12    1    3    3    0    0  0.70251696108E+01  0.73490768412E+01  0.35389513701E+02  0.36820912787E+02  0.00000000000E+00 0. -1.
         11    1    4    4    0    0 -0.17584230914E+02 -0.12399316945E+02 -0.13919012063E+02  0.25625907489E+02  0.51100000000E-03 0. -1.
        -11    1    4    4    0    0  0.12195303384E+02 -0.12185481161E+01 -0.16607956415E+02  0.20640603205E+02  0.51100000000E-03 0.  1.
         12    1    4    4    0    0 -0.16362420804E+01  0.62687882203E+01 -0.48625452226E+01  0.81005765189E+01  0.00000000000E+00 0. -1.
</event>
<event>
 8    1  0.2971508E-007  0.9118800E+02  0.7816164E-02  0.1184000E+00
        -11   -1    0    0    0    0  0.00000000000E+00  0.00000000000E+00  0.45593999997E+02  0.45594000000E+02  0.51100000000E-03 0. -1.
         11   -1    0    0    0    0 -0.00000000000E+00 -0.00000000000E+00 -0.45593999997E+02  0.45594000000E+02  0.51100000000E-03 0.  1.
         23    2    1    2    0    0  0.00000000000E+00  0.00000000000E+00  0.00000000000E+00  0.91188000000E+02  0.91188000000E+02 0.  0.
    9900012    2    3    3    0    0  0.15850248013E+02 -0.61287569932E+01 -0.32664868270E+02  0.54367005399E+02  0.39999820407E+02 0.  0.
         12    1    3    3    0    0 -0.15850248013E+02  0.61287569932E+01  0.32664868270E+02  0.36820994601E+02  0.00000000000E+00 0. -1.
         11    1    4    4    0    0  0.14633337141E+02 -0.19279791645E+01 -0.84114153859E+01  0.16988336252E+02  0.51100000000E-03 0. -1.
        -11    1    4    4    0    0  0.14279739346E+02  0.63201817428E+00 -0.14600794547E+02  0.20432660239E+02  0.51100000000E-03 0.  1.
        -12    1    4    4    0    0 -0.13062828474E+02 -0.48327960030E+01 -0.96526583367E+01  0.16946008908E+02  0.00000000000E+00 0.  1.
</event>
<event>
 8    1  0.2971508E-007  0.9118800E+02  0.7816164E-02  0.1184000E+00
        -11   -1    0    0    0    0  0.00000000000E+00  0.00000000000E+00  0.45593999997E+02  0.45594000000E+02  0.51100000000E-03 0.  1.
         11   -1    0    0    0    0 -0.00000000000E+00 -0.00000000000E+00 -0.45593999997E+02  0.45594000000E+02  0.51100000000E-03 0. -1.
         23    2    1    2    0    0  0.88817841970E-15  0.55511151231E-15  0.00000000000E+00  0.91188000000E+02  0.91188000000E+02 0.  0.
    9900012    2    3    3    0    0  0.74620153374E+01 -0.50338955930E+00 -0.36053358290E+02  0.54367085863E+02  0.40000003841E+02 0.  0.
        -12    1    3    3    0    0 -0.74620153374E+01  0.50338955930E+00  0.36053358290E+02  0.36820914137E+02  0.00000000000E+00 0.  1.
         11    1    4    4    0    0 -0.14803297513E+01 -0.42485109032E+01  0.62184451569E+01  0.76753033490E+01  0.51100000000E-03 0.  1.
        -11    1    4    4    0    0  0.82202945025E+01 -0.57405275272E+01 -0.25653726276E+02  0.27543430616E+02  0.51100000000E-03 0. -1.
        -12    1    4    4    0    0  0.72205058613E+00  0.94856488711E+01 -0.16618077171E+02  0.19148351898E+02  0.00000000000E+00 0.  1.
</event>
<event>
 8    1  0.2971508E-007  0.9118800E+02  0.7816164E-02  0.1184000E+00
        -11   -1    0    0    0    0  0.00000000000E+00  0.00000000000E+00  0.45593999997E+02  0.45594000000E+02  0.51100000000E-03 0.  1.
         11   -1    0    0    0    0 -0.00000000000E+00 -0.00000000000E+00 -0.45593999997E+02  0.45594000000E+02  0.51100000000E-03 0. -1.
         23    2    1    2    0    0  0.00000000000E+00  0.00000000000E+00  0.17763568394E-14  0.91188000000E+02  0.91188000000E+02 0.  0.
    9900012    2    3    3    0    0  0.30358910453E+02 -0.15097021296E+02 -0.14359572773E+02  0.54367070814E+02  0.39999969535E+02 0.  0.
        -12    1    3    3    0    0 -0.30358910453E+02  0.15097021296E+02  0.14359572773E+02  0.36820929186E+02  0.00000000000E+00 0.  1.
         11    1    4    4    0    0  0.18031089439E+02  0.63766610225E+01 -0.82159678664E+01  0.20815477904E+02  0.51100000000E-03 0. -1.
        -11    1    4    4    0    0 -0.52902711979E+01 -0.99188612144E+00  0.12819842945E+01  0.55330182919E+01  0.51100000000E-03 0.  1.
         12    1    4    4    0    0  0.17618092212E+02 -0.20481796197E+02 -0.74255892005E+01  0.28018574618E+02  0.00000000000E+00 0. -1.
</event>
<event>
 8    1  0.2971508E-007  0.9118800E+02  0.7816164E-02  0.1184000E+00
        -11   -1    0    0    0    0  0.00000000000E+00  0.00000000000E+00  0.45593999997E+02  0.45594000000E+02  0.51100000000E-03 0.  1.
         11   -1    0    0    0    0 -0.00000000000E+00 -0.00000000000E+00 -0.45593999997E+02  0.45594000000E+02  0.51100000000E-03 0. -1.
         23    2    1    2    0    0  0.00000000000E+00 -0.44408920985E-15  0.00000000000E+00  0.91188000000E+02  0.91188000000E+02 0.  0.
    9900012    2    3    3    0    0  0.16993316186E+02 -0.28934760793E+01  0.32536680752E+02  0.54367073978E+02  0.39999976747E+02 0.  0.
         12    1    3    3    0    0 -0.16993316186E+02  0.28934760793E+01 -0.32536680752E+02  0.36820926022E+02  0.00000000000E+00 0. -1.
         11    1    4    4    0    0 -0.30554002722E+01  0.67570823109E+01  0.66015547034E+01  0.99284518905E+01  0.51100000000E-03 0. -1.
        -11    1    4    4    0    0  0.20457235814E+02 -0.98723774864E+01  0.31510320721E+02  0.38844081229E+02  0.51100000000E-03 0.  1.
        -12    1    4    4    0    0 -0.40851935604E+00  0.22181909617E+00 -0.55751946723E+01  0.55945408578E+01  0.00000000000E+00 0.  1.
</event>
<event>
 8    1  0.2971508E-007  0.9118800E+02  0.7816164E-02  0.1184000E+00
        -11   -1    0    0    0    0  0.00000000000E+00  0.00000000000E+00  0.45593999997E+02  0.45594000000E+02  0.51100000000E-03 0. -1.
         11   -1    0    0    0    0 -0.00000000000E+00 -0.00000000000E+00 -0.45593999997E+02  0.45594000000E+02  0.51100000000E-03 0.  1.
         23    2    1    2    0    0  0.17763568394E-14  0.11102230246E-15  0.00000000000E+00  0.91188000000E+02  0.91188000000E+02 0.  0.
    9900012    2    3    3    0    0 -0.30892748698E+01 -0.19549973202E+00 -0.36690576722E+02  0.54367078507E+02  0.39999987073E+02 0.  0.
         12    1    3    3    0    0  0.30892748698E+01  0.19549973202E+00  0.36690576722E+02  0.36820921493E+02  0.00000000000E+00 0. -1.
         11    1    4    4    0    0 -0.14355589004E+01 -0.34856427879E+01 -0.12796724051E+02  0.13340415349E+02  0.51100000000E-03 0.  1.
        -11    1    4    4    0    0 -0.71844219664E+01 -0.19842328518E+01  0.63750368970E+01  0.98078639214E+01  0.51100000000E-03 0. -1.
         12    1    4    4    0    0  0.55307059970E+01  0.52743759076E+01 -0.30268889569E+02  0.31218799236E+02  0.00000000000E+00 0. -1.
</event>
<event>
 8    1  0.2971508E-007  0.9118800E+02  0.7816164E-02  0.1184000E+00
        -11   -1    0    0    0    0  0.00000000000E+00  0.00000000000E+00  0.45593999997E+02  0.45594000000E+02  0.51100000000E-03 0. -1.
         11   -1    0    0    0    0 -0.00000000000E+00 -0.00000000000E+00 -0.45593999997E+02  0.45594000000E+02  0.51100000000E-03 0.  1.
         23    2    1    2    0    0  0.71054273576E-14  0.17763568394E-14  0.00000000000E+00  0.91188000000E+02  0.91188000000E+02 0.  0.
    9900012    2    3    3    0    0 -0.33376212271E+02  0.12991558827E+02 -0.85455872717E+01  0.54367092785E+02  0.40000019621E+02 0.  0.
        -12    1    3    3    0    0  0.33376212271E+02 -0.12991558827E+02  0.85455872717E+01  0.36820907215E+02  0.00000000000E+00 0.  1.
         11    1    4    4    0    0  0.52053968536E+01  0.20595706304E-01  0.67764700302E+01  0.85450059636E+01  0.51100000000E-03 0. -1.
        -11    1    4    4    0    0 -0.16165876021E+02  0.12241666583E+02 -0.38853211949E+01  0.20646783510E+02  0.51100000000E-03 0.  1.
        -12    1    4    4    0    0 -0.22415733104E+02  0.72929653754E+00 -0.11436736107E+02  0.25175303312E+02  0.00000000000E+00 0.  1.
</event>
<event>
 8    1  0.2971508E-007  0.9118800E+02  0.7816164E-02  0.1184000E+00
        -11   -1    0    0    0    0  0.00000000000E+00  0.00000000000E+00  0.45593999997E+02  0.45594000000E+02  0.51100000000E-03 0. -1.
         11   -1    0    0    0    0 -0.00000000000E+00 -0.00000000000E+00 -0.45593999997E+02  0.45594000000E+02  0.51100000000E-03 0.  1.
         23    2    1    2    0    0 -0.17763568394E-14 -0.17763568394E-14  0.00000000000E+00  0.91188000000E+02  0.91188000000E+02 0.  0.
    9900012    2    3    3    0    0  0.14929596657E+02  0.85845193289E+01 -0.32545236771E+02  0.54367092014E+02  0.40000017864E+02 0.  0.
         12    1    3    3    0    0 -0.14929596657E+02 -0.85845193289E+01  0.32545236771E+02  0.36820907986E+02  0.00000000000E+00 0. -1.
         11    1    4    4    0    0  0.41901797173E+01  0.20054574486E+01  0.29298054348E+01  0.54921057700E+01  0.51100000000E-03 0. -1.
        -11    1    4    4    0    0 -0.73461912069E+00  0.16154326749E+02 -0.27584988221E+02  0.31975514279E+02  0.51100000000E-03 0.  1.
         12    1    4    4    0    0  0.11474036060E+02 -0.95752648690E+01 -0.78900539849E+01  0.16899471965E+02  0.00000000000E+00 0. -1.
</event>
<event>
 8    1  0.2971508E-007  0.9118800E+02  0.7816164E-02  0.1184000E+00
        -11   -1    0    0    0    0  0.00000000000E+00  0.00000000000E+00  0.45593999997E+02  0.45594000000E+02  0.51100000000E-03 0.  1.
         11   -1    0    0    0    0 -0.00000000000E+00 -0.00000000000E+00 -0.45593999997E+02  0.45594000000E+02  0.51100000000E-03 0. -1.
         23    2    1    2    0    0 -0.17763568394E-14  0.35527136788E-14  0.00000000000E+00  0.91188000000E+02  0.91188000000E+02 0.  0.
    9900012    2    3    3    0    0 -0.14249670090E+02  0.11984514880E+02  0.31766331014E+02  0.54367061925E+02  0.39999949271E+02 0.  0.
         12    1    3    3    0    0  0.14249670090E+02 -0.11984514880E+02 -0.31766331014E+02  0.36820938075E+02  0.00000000000E+00 0. -1.
         11    1    4    4    0    0 -0.97825121780E+01  0.10882474912E+02  0.13657067184E+02  0.20016025806E+02  0.51100000000E-03 0. -1.
        -11    1    4    4    0    0 -0.58440718363E+01  0.95544378926E+01  0.22196304273E+02  0.24861946478E+02  0.51100000000E-03 0.  1.
         12    1    4    4    0    0  0.13769139241E+01 -0.84523979248E+01 -0.40870404427E+01  0.94890896410E+01  0.00000000000E+00 0. -1.
</event>
<event>
 8    1  0.2971508E-007  0.9118800E+02  0.7816164E-02  0.1184000E+00
        -11   -1    0    0    0    0  0.00000000000E+00  0.00000000000E+00  0.45593999997E+02  0.45594000000E+02  0.51100000000E-03 0. -1.
         11   -1    0    0    0    0 -0.00000000000E+00 -0.00000000000E+00 -0.45593999997E+02  0.45594000000E+02  0.51100000000E-03 0.  1.
         23    2    1    2    0    0  0.00000000000E+00  0.00000000000E+00  0.00000000000E+00  0.91188000000E+02  0.91188000000E+02 0.  0.
    9900012    2    3    3    0    0  0.30876537640E+02  0.77916935336E+01  0.18485375217E+02  0.54367079836E+02  0.39999990103E+02 0.  0.
         12    1    3    3    0    0 -0.30876537640E+02 -0.77916935336E+01 -0.18485375217E+02  0.36820920164E+02  0.00000000000E+00 0. -1.
         11    1    4    4    0    0  0.45252205435E+01 -0.74236937035E+01 -0.39829172840E+01  0.95630789771E+01  0.51100000000E-03 0. -1.
        -11    1    4    4    0    0  0.95121275779E+01  0.42158879957E+01 -0.43534420649E+01  0.11278596576E+02  0.51100000000E-03 0.  1.
         12    1    4    4    0    0  0.16839189519E+02  0.10999499241E+02  0.26821734566E+02  0.33525404283E+02  0.00000000000E+00 0. -1.
</event>
<event>
 8    1  0.2971508E-007  0.9118800E+02  0.7816164E-02  0.1184000E+00
        -11   -1    0    0    0    0  0.00000000000E+00  0.00000000000E+00  0.45593999997E+02  0.45594000000E+02  0.51100000000E-03 0.  1.
         11   -1    0    0    0    0 -0.00000000000E+00 -0.00000000000E+00 -0.45593999997E+02  0.45594000000E+02  0.51100000000E-03 0. -1.
         23    2    1    2    0    0  0.17763568394E-14  0.22204460493E-15  0.00000000000E+00  0.91188000000E+02  0.91188000000E+02 0.  0.
    9900012    2    3    3    0    0 -0.15933646143E+02 -0.54427866362E+00  0.33190418871E+02  0.54367065418E+02  0.39999957233E+02 0.  0.
         12    1    3    3    0    0  0.15933646143E+02  0.54427866362E+00 -0.33190418871E+02  0.36820934582E+02  0.00000000000E+00 0. -1.
         11    1    4    4    0    0  0.10063216508E+01 -0.38279039727E+01  0.17082066262E+00  0.39616552158E+01  0.51100000000E-03 0. -1.
        -11    1    4    4    0    0 -0.14488092363E+02  0.28847420799E+01  0.40188911342E+02  0.42817930267E+02  0.51100000000E-03 0.  1.
         12    1    4    4    0    0 -0.24518754308E+01  0.39888322914E+00 -0.71693131340E+01  0.75874799356E+01  0.00000000000E+00 0. -1.
</event>
<event>
 8    1  0.2971508E-007  0.9118800E+02  0.7816164E-02  0.1184000E+00
        -11   -1    0    0    0    0  0.00000000000E+00  0.00000000000E+00  0.45593999997E+02  0.45594000000E+02  0.51100000000E-03 0.  1.
         11   -1    0    0    0    0 -0.00000000000E+00 -0.00000000000E+00 -0.45593999997E+02  0.45594000000E+02  0.51100000000E-03 0. -1.
         23    2    1    2    0    0  0.00000000000E+00 -0.35527136788E-14  0.88817841970E-15  0.91188000000E+02  0.91188000000E+02 0.  0.
    9900012    2    3    3    0    0  0.32582046053E+02 -0.16452921509E+02  0.48465494204E+01  0.54367117440E+02  0.40000075829E+02 0.  0.
        -12    1    3    3    0    0 -0.32582046053E+02  0.16452921509E+02 -0.48465494204E+01  0.36820882560E+02  0.00000000000E+00 0.  1.
         11    1    4    4    0    0  0.17254102031E+02 -0.15958826947E+02 -0.53880489255E+01  0.24112637058E+02  0.51100000000E-03 0. -1.
        -11    1    4    4    0    0  0.62489037334E+01 -0.85308182466E+01 -0.42218892542E+01  0.11386307872E+02  0.51100000000E-03 0.  1.
        -12    1    4    4    0    0  0.90790402885E+01  0.80367236841E+01  0.14456487600E+02  0.18868172510E+02  0.00000000000E+00 0.  1.
</event>
<event>
 8    1  0.2971508E-007  0.9118800E+02  0.7816164E-02  0.1184000E+00
        -11   -1    0    0    0    0  0.00000000000E+00  0.00000000000E+00  0.45593999997E+02  0.45594000000E+02  0.51100000000E-03 0.  1.
         11   -1    0    0    0    0 -0.00000000000E+00 -0.00000000000E+00 -0.45593999997E+02  0.45594000000E+02  0.51100000000E-03 0. -1.
         23    2    1    2    0    0 -0.35527136788E-14  0.71054273576E-14 -0.13322676296E-14  0.91188000000E+02  0.91188000000E+02 0.  0.
    9900012    2    3    3    0    0  0.13859910700E+02 -0.34095602812E+02  0.10829191570E+01  0.54367082445E+02  0.39999996049E+02 0.  0.
         12    1    3    3    0    0 -0.13859910700E+02  0.34095602812E+02 -0.10829191570E+01  0.36820917555E+02  0.00000000000E+00 0. -1.
         11    1    4    4    0    0  0.76184097627E+01 -0.17158142387E+02  0.11014584509E+02  0.21766099551E+02  0.51100000000E-03 0.  1.
        -11    1    4    4    0    0  0.81082212212E+01 -0.13777395049E+02 -0.17796279187E+02  0.23922111506E+02  0.51100000000E-03 0. -1.
         12    1    4    4    0    0 -0.18667202833E+01 -0.31600653753E+01  0.78646138352E+01  0.86788713879E+01  0.00000000000E+00 0. -1.
</event>
<event>
 8    1  0.2971508E-007  0.9118800E+02  0.7816164E-02  0.1184000E+00
        -11   -1    0    0    0    0  0.00000000000E+00  0.00000000000E+00  0.45593999997E+02  0.45594000000E+02  0.51100000000E-03 0.  1.
         11   -1    0    0    0    0 -0.00000000000E+00 -0.00000000000E+00 -0.45593999997E+02  0.45594000000E+02  0.51100000000E-03 0. -1.
         23    2    1    2    0    0  0.00000000000E+00  0.35527136788E-14  0.00000000000E+00  0.91188000000E+02  0.91188000000E+02 0.  0.
    9900012    2    3    3    0    0  0.13197962750E+02  0.31776891145E+02 -0.13108083500E+02  0.54367097178E+02  0.40000029636E+02 0.  0.
         12    1    3    3    0    0 -0.13197962750E+02 -0.31776891145E+02  0.13108083500E+02  0.36820902822E+02  0.00000000000E+00 0. -1.
         11    1    4    4    0    0  0.13482315003E+02 -0.13959684462E+00  0.18858791211E+01  0.13614288283E+02  0.51100000000E-03 0. -1.
        -11    1    4    4    0    0 -0.69380123954E+01  0.28964412071E+01 -0.60942246428E+01  0.96780660219E+01  0.51100000000E-03 0.  1.
        -12    1    4    4    0    0  0.66536601428E+01  0.29020046783E+02 -0.88997379783E+01  0.31074742873E+02  0.00000000000E+00 0.  1.
</event>
<event>
 8    1  0.2971508E-007  0.9118800E+02  0.7816164E-02  0.1184000E+00
        -11   -1    0    0    0    0  0.00000000000E+00  0.00000000000E+00  0.45593999997E+02  0.45594000000E+02  0.51100000000E-03 0.  1.
         11   -1    0    0    0    0 -0.00000000000E+00 -0.00000000000E+00 -0.45593999997E+02  0.45594000000E+02  0.51100000000E-03 0. -1.
         23    2    1    2    0    0  0.00000000000E+00  0.00000000000E+00  0.71054273576E-14  0.91188000000E+02  0.91188000000E+02 0.  0.
    9900012    2    3    3    0    0  0.37260447983E+01 -0.15517381217E+02 -0.33182957729E+02  0.54367065556E+02  0.39999957548E+02 0.  0.
        -12    1    3    3    0    0 -0.37260447983E+01  0.15517381217E+02  0.33182957729E+02  0.36820934444E+02  0.00000000000E+00 0.  1.
         11    1    4    4    0    0  0.61835008264E+01  0.43046210540E+01  0.30890272937E+01  0.81429438639E+01  0.51100000000E-03 0.  1.
        -11    1    4    4    0    0 -0.57764572389E+01 -0.11044523416E+02 -0.47555840887E+01  0.13340334929E+02  0.51100000000E-03 0. -1.
         12    1    4    4    0    0  0.33190012108E+01 -0.87774788550E+01 -0.31516400934E+02  0.32883786764E+02  0.00000000000E+00 0. -1.
</event>
<event>
 8    1  0.2971508E-007  0.9118800E+02  0.7816164E-02  0.1184000E+00
        -11   -1    0    0    0    0  0.00000000000E+00  0.00000000000E+00  0.45593999997E+02  0.45594000000E+02  0.51100000000E-03 0.  1.
         11   -1    0    0    0    0 -0.00000000000E+00 -0.00000000000E+00 -0.45593999997E+02  0.45594000000E+02  0.51100000000E-03 0. -1.
         23    2    1    2    0    0  0.00000000000E+00  0.35527136788E-14  0.00000000000E+00  0.91188000000E+02  0.91188000000E+02 0.  0.
    9900012    2    3    3    0    0  0.11868314815E+02 -0.19283953282E+02  0.29035426353E+02  0.54367031324E+02  0.39999879510E+02 0.  0.
         12    1    3    3    0    0 -0.11868314815E+02  0.19283953282E+02 -0.29035426353E+02  0.36820968676E+02  0.00000000000E+00 0. -1.
         11    1    4    4    0    0  0.18979946288E+01 -0.68108555499E+00  0.19565875882E+02  0.19669513478E+02  0.51100000000E-03 0.  1.
        -11    1    4    4    0    0  0.10003793038E+02 -0.18883233171E+02 -0.35608382850E+01  0.21664070247E+02  0.51100000000E-03 0. -1.
         12    1    4    4    0    0 -0.33472852675E-01  0.28036544324E+00  0.13030388755E+02  0.13033447599E+02  0.00000000000E+00 0. -1.
</event>
<event>
 8    1  0.2971508E-007  0.9118800E+02  0.7816164E-02  0.1184000E+00
        -11   -1    0    0    0    0  0.00000000000E+00  0.00000000000E+00  0.45593999997E+02  0.45594000000E+02  0.51100000000E-03 0.  1.
         11   -1    0    0    0    0 -0.00000000000E+00 -0.00000000000E+00 -0.45593999997E+02  0.45594000000E+02  0.51100000000E-03 0. -1.
         23    2    1    2    0    0 -0.17763568394E-14 -0.35527136788E-14  0.00000000000E+00  0.91188000000E+02  0.91188000000E+02 0.  0.
    9900012    2    3    3    0    0 -0.26209715501E+01  0.30880747431E+02 -0.19881850100E+02  0.54367108957E+02  0.40000056490E+02 0.  0.
        -12    1    3    3    0    0  0.26209715501E+01 -0.30880747431E+02  0.19881850100E+02  0.36820891043E+02  0.00000000000E+00 0.  1.
         11    1    4    4    0    0  0.17415575760E+02  0.17673624298E+02 -0.15827974963E+02  0.29431005191E+02  0.51100000000E-03 0. -1.
        -11    1    4    4    0    0 -0.46511393024E+01  0.54102601200E+01 -0.27227209643E+01  0.76365712913E+01  0.51100000000E-03 0.  1.
        -12    1    4    4    0    0 -0.15385408008E+02  0.77968630130E+01 -0.13311541728E+01  0.17299532475E+02  0.00000000000E+00 0.  1.
</event>
<event>
 8    1  0.2971508E-007  0.9118800E+02  0.7816164E-02  0.1184000E+00
        -11   -1    0    0    0    0  0.00000000000E+00  0.00000000000E+00  0.45593999997E+02  0.45594000000E+02  0.51100000000E-03 0.  1.
         11   -1    0    0    0    0 -0.00000000000E+00 -0.00000000000E+00 -0.45593999997E+02  0.45594000000E+02  0.51100000000E-03 0. -1.
         23    2    1    2    0    0  0.35527136788E-14 -0.35527136788E-14  0.00000000000E+00  0.91188000000E+02  0.91188000000E+02 0.  0.
    9900012    2    3    3    0    0 -0.18132627368E+02  0.23889332602E+02 -0.21360889139E+02  0.54367082409E+02  0.39999995968E+02 0.  0.
         12    1    3    3    0    0  0.18132627368E+02 -0.23889332602E+02  0.21360889139E+02  0.36820917591E+02  0.00000000000E+00 0. -1.
         11    1    4    4    0    0 -0.31602095774E+01 -0.47002127827E+01  0.21365471657E+01  0.60534088602E+01  0.51100000000E-03 0. -1.
        -11    1    4    4    0    0 -0.12093394257E+02  0.23288299336E+01 -0.17201522652E+02  0.21155756080E+02  0.51100000000E-03 0.  1.
        -12    1    4    4    0    0 -0.28790235333E+01  0.26260715451E+02 -0.62959136523E+01  0.27157917469E+02  0.00000000000E+00 0.  1.
</event>
<event>
 8    1  0.2971508E-007  0.9118800E+02  0.7816164E-02  0.1184000E+00
        -11   -1    0    0    0    0  0.00000000000E+00  0.00000000000E+00  0.45593999997E+02  0.45594000000E+02  0.51100000000E-03 0. -1.
         11   -1    0    0    0    0 -0.00000000000E+00 -0.00000000000E+00 -0.45593999997E+02  0.45594000000E+02  0.51100000000E-03 0.  1.
         23    2    1    2    0    0 -0.35527136788E-14  0.44408920985E-15 -0.35527136788E-14  0.91188000000E+02  0.91188000000E+02 0.  0.
    9900012    2    3    3    0    0 -0.31100685022E+02 -0.24059908742E+01 -0.19563713255E+02  0.54367078267E+02  0.39999986526E+02 0.  0.
         12    1    3    3    0    0  0.31100685022E+02  0.24059908742E+01  0.19563713255E+02  0.36820921733E+02  0.00000000000E+00 0. -1.
         11    1    4    4    0    0 -0.20789329438E+02  0.87524404725E+01 -0.13968319953E+02  0.26531403944E+02  0.51100000000E-03 0.  1.
        -11    1    4    4    0    0 -0.12223600342E+02 -0.16841514625E+02 -0.64323442654E+01  0.21781369865E+02  0.51100000000E-03 0. -1.
         12    1    4    4    0    0  0.19122447584E+01  0.56830832778E+01  0.83695096304E+00  0.60543044582E+01  0.00000000000E+00 0. -1.
</event>
<event>
 8    1  0.2971508E-007  0.9118800E+02  0.7816164E-02  0.1184000E+00
        -11   -1    0    0    0    0  0.00000000000E+00  0.00000000000E+00  0.45593999997E+02  0.45594000000E+02  0.51100000000E-03 0. -1.
         11   -1    0    0    0    0 -0.00000000000E+00 -0.00000000000E+00 -0.45593999997E+02  0.45594000000E+02  0.51100000000E-03 0.  1.
         23    2    1    2    0    0  0.88817841970E-15  0.17763568394E-14  0.00000000000E+00  0.91188000000E+02  0.91188000000E+02 0.  0.
    9900012    2    3    3    0    0  0.52099328112E+01  0.24606416459E+01  0.36367296190E+02  0.54367103904E+02  0.40000044969E+02 0.  0.
        -12    1    3    3    0    0 -0.52099328112E+01 -0.24606416459E+01 -0.36367296190E+02  0.36820896096E+02  0.00000000000E+00 0.  1.
         11    1    4    4    0    0  0.45806763336E+01  0.17449463527E+02  0.12544766955E+02  0.21973564828E+02  0.51100000000E-03 0. -1.
        -11    1    4    4    0    0 -0.66726682617E+01 -0.90959456796E+01  0.18323562997E+02  0.21517752919E+02  0.51100000000E-03 0.  1.
        -12    1    4    4    0    0  0.73019247392E+01 -0.58928762016E+01  0.54989662378E+01  0.10875786156E+02  0.00000000000E+00 0.  1.
</event>
<event>
 8    1  0.2971508E-007  0.9118800E+02  0.7816164E-02  0.1184000E+00
        -11   -1    0    0    0    0  0.00000000000E+00  0.00000000000E+00  0.45593999997E+02  0.45594000000E+02  0.51100000000E-03 0. -1.
         11   -1    0    0    0    0 -0.00000000000E+00 -0.00000000000E+00 -0.45593999997E+02  0.45594000000E+02  0.51100000000E-03 0.  1.
         23    2    1    2    0    0  0.00000000000E+00  0.17763568394E-14  0.88817841970E-15  0.91188000000E+02  0.91188000000E+02 0.  0.
    9900012    2    3    3    0    0  0.34714050989E+02 -0.11463799573E+02 -0.43926847804E+01  0.54367085884E+02  0.40000003890E+02 0.  0.
         12    1    3    3    0    0 -0.34714050989E+02  0.11463799573E+02  0.43926847804E+01  0.36820914116E+02  0.00000000000E+00 0. -1.
         11    1    4    4    0    0  0.89560940181E+01  0.69063597678E+01 -0.62056735699E+00  0.11326717504E+02  0.51100000000E-03 0. -1.
        -11    1    4    4    0    0  0.32576745192E+01 -0.32219871637E+01 -0.13475094207E+02  0.14232772348E+02  0.51100000000E-03 0.  1.
        -12    1    4    4    0    0  0.22500282452E+02 -0.15148172177E+02  0.97029767834E+01  0.28807596033E+02  0.00000000000E+00 0.  1.
</event>
<event>
 8    1  0.2971508E-007  0.9118800E+02  0.7816164E-02  0.1184000E+00
        -11   -1    0    0    0    0  0.00000000000E+00  0.00000000000E+00  0.45593999997E+02  0.45594000000E+02  0.51100000000E-03 0. -1.
         11   -1    0    0    0    0 -0.00000000000E+00 -0.00000000000E+00 -0.45593999997E+02  0.45594000000E+02  0.51100000000E-03 0.  1.
         23    2    1    2    0    0  0.00000000000E+00  0.13322676296E-14  0.00000000000E+00  0.91188000000E+02  0.91188000000E+02 0.  0.
    9900012    2    3    3    0    0  0.30049728842E+02  0.26648486789E+01 -0.21111422267E+02  0.54367085127E+02  0.40000002164E+02 0.  0.
         12    1    3    3    0    0 -0.30049728842E+02 -0.26648486789E+01  0.21111422267E+02  0.36820914873E+02  0.00000000000E+00 0. -1.
         11    1    4    4    0    0  0.19350249929E+02 -0.90661496681E+01 -0.16669505329E+02  0.27101654014E+02  0.51100000000E-03 0. -1.
        -11    1    4    4    0    0  0.14197994833E+02  0.10974855572E+02  0.37436252842E+01  0.18331536832E+02  0.51100000000E-03 0.  1.
         12    1    4    4    0    0 -0.34985159202E+01  0.75614277534E+00 -0.81855422227E+01  0.89338942808E+01  0.00000000000E+00 0. -1.
</event>
<event>
 8    1  0.2971508E-007  0.9118800E+02  0.7816164E-02  0.1184000E+00
        -11   -1    0    0    0    0  0.00000000000E+00  0.00000000000E+00  0.45593999997E+02  0.45594000000E+02  0.51100000000E-03 0. -1.
         11   -1    0    0    0    0 -0.00000000000E+00 -0.00000000000E+00 -0.45593999997E+02  0.45594000000E+02  0.51100000000E-03 0.  1.
         23    2    1    2    0    0  0.00000000000E+00  0.00000000000E+00 -0.44408920985E-15  0.91188000000E+02  0.91188000000E+02 0.  0.
    9900012    2    3    3    0    0  0.33603805780E+02 -0.14715263806E+02  0.31661665226E+01  0.54367090692E+02  0.40000014851E+02 0.  0.
        -12    1    3    3    0    0 -0.33603805780E+02  0.14715263806E+02 -0.31661665226E+01  0.36820909308E+02  0.00000000000E+00 0.  1.
         11    1    4    4    0    0  0.86116521056E+01  0.11786682406E+02  0.39069159701E+01  0.15111268206E+02  0.51100000000E-03 0. -1.
        -11    1    4    4    0    0  0.19293937587E+02 -0.25331541919E+02 -0.47444875079E+01  0.32193993315E+02  0.51100000000E-03 0.  1.
        -12    1    4    4    0    0  0.56982160881E+01 -0.11704042931E+01  0.40037380603E+01  0.70618291718E+01  0.00000000000E+00 0.  1.
</event>
<event>
 8    1  0.2971508E-007  0.9118800E+02  0.7816164E-02  0.1184000E+00
        -11   -1    0    0    0    0  0.00000000000E+00  0.00000000000E+00  0.45593999997E+02  0.45594000000E+02  0.51100000000E-03 0.  1.
         11   -1    0    0    0    0 -0.00000000000E+00 -0.00000000000E+00 -0.45593999997E+02  0.45594000000E+02  0.51100000000E-03 0. -1.
         23    2    1    2    0    0  0.00000000000E+00  0.71054273576E-14 -0.49960036108E-15  0.91188000000E+02  0.91188000000E+02 0.  0.
    9900012    2    3    3    0    0  0.90904904315E+01 -0.35679359273E+02  0.35852247552E+00  0.54367051712E+02  0.39999925988E+02 0.  0.
         12    1    3    3    0    0 -0.90904904315E+01  0.35679359273E+02 -0.35852247552E+00  0.36820948288E+02  0.00000000000E+00 0. -1.
         11    1    4    4    0    0 -0.22244888146E+01 -0.28930695630E+01  0.40223902634E+01  0.54311900791E+01  0.51100000000E-03 0. -1.
        -11    1    4    4    0    0  0.89315234934E+01 -0.36682660985E+02 -0.11842607592E+02  0.39568132174E+02  0.51100000000E-03 0.  1.
         12    1    4    4    0    0  0.23834557527E+01  0.38963712748E+01  0.81787398044E+01  0.93677294594E+01  0.00000000000E+00 0. -1.
</event>
<event>
 8    1  0.2971508E-007  0.9118800E+02  0.7816164E-02  0.1184000E+00
        -11   -1    0    0    0    0  0.00000000000E+00  0.00000000000E+00  0.45593999997E+02  0.45594000000E+02  0.51100000000E-03 0.  1.
         11   -1    0    0    0    0 -0.00000000000E+00 -0.00000000000E+00 -0.45593999997E+02  0.45594000000E+02  0.51100000000E-03 0. -1.
         23    2    1    2    0    0  0.71054273576E-14  0.00000000000E+00 -0.88817841970E-15  0.91188000000E+02  0.91188000000E+02 0.  0.
    9900012    2    3    3    0    0 -0.32079781867E+02  0.16442627160E+02  0.75037542419E+01  0.54367099410E+02  0.40000034725E+02 0.  0.
         12    1    3    3    0    0  0.32079781867E+02 -0.16442627160E+02 -0.75037542419E+01  0.36820900590E+02  0.00000000000E+00 0. -1.
         11    1    4    4    0    0 -0.17331595809E+02  0.15079606601E+01 -0.10002195623E+02  0.20067438207E+02  0.51100000000E-03 0. -1.
        -11    1    4    4    0    0 -0.41419107600E+01  0.13896935766E+02  0.18602226268E+02  0.23586501878E+02  0.51100000000E-03 0.  1.
        -12    1    4    4    0    0 -0.10606275298E+02  0.10377307331E+01 -0.10962764038E+01  0.10713159325E+02  0.00000000000E+00 0.  1.
</event>
<event>
 8    1  0.2971508E-007  0.9118800E+02  0.7816164E-02  0.1184000E+00
        -11   -1    0    0    0    0  0.00000000000E+00  0.00000000000E+00  0.45593999997E+02  0.45594000000E+02  0.51100000000E-03 0.  1.
         11   -1    0    0    0    0 -0.00000000000E+00 -0.00000000000E+00 -0.45593999997E+02  0.45594000000E+02  0.51100000000E-03 0. -1.
         23    2    1    2    0    0  0.71054273576E-14  0.00000000000E+00  0.00000000000E+00  0.91188000000E+02  0.91188000000E+02 0.  0.
    9900012    2    3    3    0    0  0.22405150844E+02 -0.98535143649E+01  0.27508139906E+02  0.54367078084E+02  0.39999986108E+02 0.  0.
         12    1    3    3    0    0 -0.22405150844E+02  0.98535143649E+01 -0.27508139906E+02  0.36820921916E+02  0.00000000000E+00 0. -1.
         11    1    4    4    0    0  0.24795194624E+00  0.71614154341E+01 -0.24187349549E+01  0.75629114916E+01  0.51100000000E-03 0. -1.
        -11    1    4    4    0    0  0.25898455894E+02 -0.10227885737E+02  0.20372572069E+02  0.34501903677E+02  0.51100000000E-03 0.  1.
        -12    1    4    4    0    0 -0.37412569966E+01 -0.67870440615E+01  0.95543027915E+01  0.12302262915E+02  0.00000000000E+00 0.  1.
</event>
<event>
 8    1  0.2971508E-007  0.9118800E+02  0.7816164E-02  0.1184000E+00
        -11   -1    0    0    0    0  0.00000000000E+00  0.00000000000E+00  0.45593999997E+02  0.45594000000E+02  0.51100000000E-03 0.  1.
         11   -1    0    0    0    0 -0.00000000000E+00 -0.00000000000E+00 -0.45593999997E+02  0.45594000000E+02  0.51100000000E-03 0. -1.
         23    2    1    2    0    0 -0.71054273576E-14  0.17763568394E-14 -0.17763568394E-14  0.91188000000E+02  0.91188000000E+02 0.  0.
    9900012    2    3    3    0    0 -0.34015424834E+02  0.13564612385E+02  0.38379485237E+01  0.54367113473E+02  0.40000066784E+02 0.  0.
        -12    1    3    3    0    0  0.34015424834E+02 -0.13564612385E+02 -0.38379485237E+01  0.36820886527E+02  0.00000000000E+00 0.  1.
         11    1    4    4    0    0 -0.29333018626E+02 -0.16941970610E+01 -0.99095842135E+01  0.31008001306E+02  0.51100000000E-03 0. -1.
        -11    1    4    4    0    0 -0.48436588926E+01  0.75594198355E+01  0.18187635808E+01  0.91604454554E+01  0.51100000000E-03 0.  1.
        -12    1    4    4    0    0  0.16125268509E+00  0.76993896103E+01  0.11928769156E+02  0.14198666712E+02  0.00000000000E+00 0.  1.
</event>
<event>
 8    1  0.2971508E-007  0.9118800E+02  0.7816164E-02  0.1184000E+00
        -11   -1    0    0    0    0  0.00000000000E+00  0.00000000000E+00  0.45593999997E+02  0.45594000000E+02  0.51100000000E-03 0. -1.
         11   -1    0    0    0    0 -0.00000000000E+00 -0.00000000000E+00 -0.45593999997E+02  0.45594000000E+02  0.51100000000E-03 0.  1.
         23    2    1    2    0    0  0.00000000000E+00  0.12767564783E-14  0.00000000000E+00  0.91188000000E+02  0.91188000000E+02 0.  0.
    9900012    2    3    3    0    0 -0.19047817565E+02 -0.18115423181E+00  0.31510755076E+02  0.54367083984E+02  0.39999999557E+02 0.  0.
        -12    1    3    3    0    0  0.19047817565E+02  0.18115423181E+00 -0.31510755076E+02  0.36820916016E+02  0.00000000000E+00 0.  1.
         11    1    4    4    0    0  0.18944678594E+01  0.12731795633E+02  0.26020054142E+01  0.13132328847E+02  0.51100000000E-03 0. -1.
        -11    1    4    4    0    0 -0.15844704608E+02 -0.14581557494E+02  0.28682980503E+02  0.35866277391E+02  0.51100000000E-03 0.  1.
         12    1    4    4    0    0 -0.50975808162E+01  0.16686076292E+01  0.22576915819E+00  0.53684777461E+01  0.00000000000E+00 0. -1.
</event>
<event>
 8    1  0.2971508E-007  0.9118800E+02  0.7816164E-02  0.1184000E+00
        -11   -1    0    0    0    0  0.00000000000E+00  0.00000000000E+00  0.45593999997E+02  0.45594000000E+02  0.51100000000E-03 0. -1.
         11   -1    0    0    0    0 -0.00000000000E+00 -0.00000000000E+00 -0.45593999997E+02  0.45594000000E+02  0.51100000000E-03 0.  1.
         23    2    1    2    0    0  0.17763568394E-14  0.00000000000E+00 -0.13877787808E-16  0.91188000000E+02  0.91188000000E+02 0.  0.
    9900012    2    3    3    0    0  0.15178621869E+02  0.33546625218E+02 -0.92461599777E-01  0.54367147558E+02  0.40000144489E+02 0.  0.
         12    1    3    3    0    0 -0.15178621869E+02 -0.33546625218E+02  0.92461599777E-01  0.36820852442E+02  0.00000000000E+00 0. -1.
         11    1    4    4    0    0  0.16353393402E+02 -0.20728753997E+01 -0.51107019900E+01  0.17258318669E+02  0.51100000000E-03 0. -1.
        -11    1    4    4    0    0  0.31492339437E+01  0.10776939406E+02 -0.71085039285E+00  0.11250129152E+02  0.51100000000E-03 0.  1.
        -12    1    4    4    0    0 -0.43240054766E+01  0.24842561212E+02  0.57290907831E+01  0.25858699738E+02  0.00000000000E+00 0.  1.
</event>
<event>
 8    1  0.2971508E-007  0.9118800E+02  0.7816164E-02  0.1184000E+00
        -11   -1    0    0    0    0  0.00000000000E+00  0.00000000000E+00  0.45593999997E+02  0.45594000000E+02  0.51100000000E-03 0.  1.
         11   -1    0    0    0    0 -0.00000000000E+00 -0.00000000000E+00 -0.45593999997E+02  0.45594000000E+02  0.51100000000E-03 0. -1.
         23    2    1    2    0    0 -0.35527136788E-14 -0.35527136788E-14 -0.17763568394E-14  0.91188000000E+02  0.91188000000E+02 0.  0.
    9900012    2    3    3    0    0 -0.29713497505E+02 -0.17513636118E+02 -0.12890326374E+02  0.54367083416E+02  0.39999998263E+02 0.  0.
        -12    1    3    3    0    0  0.29713497505E+02  0.17513636118E+02  0.12890326374E+02  0.36820916584E+02  0.00000000000E+00 0.  1.
         11    1    4    4    0    0 -0.20574463645E+02 -0.26105588938E+02  0.24180473518E+01  0.33326525192E+02  0.51100000000E-03 0. -1.
        -11    1    4    4    0    0 -0.24794649558E+01  0.23281531484E+01 -0.97847184535E+01  0.10358994113E+02  0.51100000000E-03 0.  1.
        -12    1    4    4    0    0 -0.66595689041E+01  0.62637996713E+01 -0.55236552718E+01  0.10681564112E+02  0.00000000000E+00 0.  1.
</event>
<event>
 8    1  0.2971508E-007  0.9118800E+02  0.7816164E-02  0.1184000E+00
        -11   -1    0    0    0    0  0.00000000000E+00  0.00000000000E+00  0.45593999997E+02  0.45594000000E+02  0.51100000000E-03 0.  1.
         11   -1    0    0    0    0 -0.00000000000E+00 -0.00000000000E+00 -0.45593999997E+02  0.45594000000E+02  0.51100000000E-03 0. -1.
         23    2    1    2    0    0  0.35527136788E-14  0.00000000000E+00  0.00000000000E+00  0.91188000000E+02  0.91188000000E+02 0.  0.
    9900012    2    3    3    0    0  0.24825200930E+02  0.18002327597E+02 -0.20381960198E+02  0.54366828079E+02  0.39999416167E+02 0.  0.
        -12    1    3    3    0    0 -0.24825200930E+02 -0.18002327597E+02  0.20381960198E+02  0.36821171921E+02  0.00000000000E+00 0.  1.
         11    1    4    4    0    0 -0.53614175771E+01  0.27771114730E+01 -0.42792627051E+00  0.60531204947E+01  0.51100000000E-03 0. -1.
        -11    1    4    4    0    0 -0.19272353149E+01 -0.40116333067E+01  0.20402443173E+01  0.48959202283E+01  0.51100000000E-03 0.  1.
         12    1    4    4    0    0  0.32113853822E+02  0.19236849431E+02 -0.21994278245E+02  0.43417787356E+02  0.00000000000E+00 0. -1.
</event>
<event>
 8    1  0.2971508E-007  0.9118800E+02  0.7816164E-02  0.1184000E+00
        -11   -1    0    0    0    0  0.00000000000E+00  0.00000000000E+00  0.45593999997E+02  0.45594000000E+02  0.51100000000E-03 0.  1.
         11   -1    0    0    0    0 -0.00000000000E+00 -0.00000000000E+00 -0.45593999997E+02  0.45594000000E+02  0.51100000000E-03 0. -1.
         23    2    1    2    0    0 -0.35527136788E-14  0.00000000000E+00  0.35527136788E-14  0.91188000000E+02  0.91188000000E+02 0.  0.
    9900012    2    3    3    0    0  0.29941914544E+02  0.84344424340E+01 -0.19700803202E+02  0.54367085936E+02  0.40000004008E+02 0.  0.
        -12    1    3    3    0    0 -0.29941914544E+02 -0.84344424340E+01  0.19700803202E+02  0.36820914064E+02  0.00000000000E+00 0.  1.
         11    1    4    4    0    0  0.71993703727E+01 -0.21902876838E+01 -0.17997064741E+02  0.19506989349E+02  0.51100000000E-03 0. -1.
        -11    1    4    4    0    0  0.26511340489E+02  0.12795870916E+02 -0.43670863368E+01  0.29759988749E+02  0.51100000000E-03 0.  1.
        -12    1    4    4    0    0 -0.37687963174E+01 -0.21711407980E+01  0.26633478761E+01  0.51001078377E+01  0.00000000000E+00 0.  1.
</event>
<event>
 8    1  0.2971508E-007  0.9118800E+02  0.7816164E-02  0.1184000E+00
        -11   -1    0    0    0    0  0.00000000000E+00  0.00000000000E+00  0.45593999997E+02  0.45594000000E+02  0.51100000000E-03 0. -1.
         11   -1    0    0    0    0 -0.00000000000E+00 -0.00000000000E+00 -0.45593999997E+02  0.45594000000E+02  0.51100000000E-03 0.  1.
         23    2    1    2    0    0 -0.35527136788E-14  0.00000000000E+00  0.35527136788E-14  0.91188000000E+02  0.91188000000E+02 0.  0.
    9900012    2    3    3    0    0  0.24460830795E+02 -0.15840410340E+02 -0.22506259767E+02  0.54367047111E+02  0.39999915499E+02 0.  0.
         12    1    3    3    0    0 -0.24460830795E+02  0.15840410340E+02  0.22506259767E+02  0.36820952889E+02  0.00000000000E+00 0. -1.
         11    1    4    4    0    0  0.85139570453E+01 -0.32460085229E+01 -0.10520040333E+02  0.13917445339E+02  0.51100000000E-03 0. -1.
        -11    1    4    4    0    0  0.19139308921E+02  0.46701303614E+01 -0.11653047114E+02  0.22889228271E+02  0.51100000000E-03 0.  1.
         12    1    4    4    0    0 -0.31924351713E+01 -0.17264532179E+02 -0.33317232021E+00  0.17560373500E+02  0.00000000000E+00 0. -1.
</event>
<event>
 8    1  0.2971508E-007  0.9118800E+02  0.7816164E-02  0.1184000E+00
        -11   -1    0    0    0    0  0.00000000000E+00  0.00000000000E+00  0.45593999997E+02  0.45594000000E+02  0.51100000000E-03 0. -1.
         11   -1    0    0    0    0 -0.00000000000E+00 -0.00000000000E+00 -0.45593999997E+02  0.45594000000E+02  0.51100000000E-03 0.  1.
         23    2    1    2    0    0 -0.88817841970E-15  0.00000000000E+00  0.00000000000E+00  0.91188000000E+02  0.91188000000E+02 0.  0.
    9900012    2    3    3    0    0  0.23810537444E+01  0.16179238639E+02 -0.32990045480E+02  0.54367078221E+02  0.39999986421E+02 0.  0.
         12    1    3    3    0    0 -0.23810537444E+01 -0.16179238639E+02  0.32990045480E+02  0.36820921779E+02  0.00000000000E+00 0. -1.
         11    1    4    4    0    0  0.61240531706E+01  0.97270042175E+01 -0.15544007899E+02  0.19332222327E+02  0.51100000000E-03 0.  1.
        -11    1    4    4    0    0 -0.15815311937E+02  0.24028697648E+01 -0.39443146949E+01  0.16475906453E+02  0.51100000000E-03 0. -1.
         12    1    4    4    0    0  0.12072312511E+02  0.40493646567E+01 -0.13501722886E+02  0.18558949441E+02  0.00000000000E+00 0. -1.
</event>
<event>
 8    1  0.2971508E-007  0.9118800E+02  0.7816164E-02  0.1184000E+00
        -11   -1    0    0    0    0  0.00000000000E+00  0.00000000000E+00  0.45593999997E+02  0.45594000000E+02  0.51100000000E-03 0. -1.
         11   -1    0    0    0    0 -0.00000000000E+00 -0.00000000000E+00 -0.45593999997E+02  0.45594000000E+02  0.51100000000E-03 0.  1.
         23    2    1    2    0    0  0.00000000000E+00  0.35527136788E-14  0.00000000000E+00  0.91188000000E+02  0.91188000000E+02 0.  0.
    9900012    2    3    3    0    0  0.16150217461E+02 -0.27089113505E+02 -0.19003403987E+02  0.54367096187E+02  0.40000027377E+02 0.  0.
         12    1    3    3    0    0 -0.16150217461E+02  0.27089113505E+02  0.19003403987E+02  0.36820903813E+02  0.00000000000E+00 0. -1.
         11    1    4    4    0    0 -0.81920334066E+00  0.32104636942E+01  0.78417214615E+01  0.85129763882E+01  0.51100000000E-03 0. -1.
        -11    1    4    4    0    0  0.28350352833E+01  0.73740029355E+00 -0.11216240798E+01  0.31367539094E+01  0.51100000000E-03 0.  1.
        -12    1    4    4    0    0  0.14134385518E+02 -0.31036977493E+02 -0.25723501368E+02  0.42717365889E+02  0.00000000000E+00 0.  1.
</event>
<event>
 8    1  0.2971508E-007  0.9118800E+02  0.7816164E-02  0.1184000E+00
        -11   -1    0    0    0    0  0.00000000000E+00  0.00000000000E+00  0.45593999997E+02  0.45594000000E+02  0.51100000000E-03 0. -1.
         11   -1    0    0    0    0 -0.00000000000E+00 -0.00000000000E+00 -0.45593999997E+02  0.45594000000E+02  0.51100000000E-03 0.  1.
         23    2    1    2    0    0  0.17763568394E-14 -0.35527136788E-14  0.71054273576E-14  0.91188000000E+02  0.91188000000E+02 0.  0.
    9900012    2    3    3    0    0 -0.87556928911E+01  0.24738541455E+02 -0.25828694400E+02  0.54367094991E+02  0.40000024650E+02 0.  0.
         12    1    3    3    0    0  0.87556928911E+01 -0.24738541455E+02  0.25828694400E+02  0.36820905009E+02  0.00000000000E+00 0. -1.
         11    1    4    4    0    0 -0.44663142533E+01  0.22139357482E+01  0.39530284911E+00  0.50005738781E+01  0.51100000000E-03 0. -1.
        -11    1    4    4    0    0  0.13819300900E+02  0.16786503838E+02 -0.19527487115E+02  0.29224690619E+02  0.51100000000E-03 0.  1.
        -12    1    4    4    0    0 -0.18108679538E+02  0.57381018687E+01 -0.66965101338E+01  0.20141830494E+02  0.00000000000E+00 0.  1.
</event>
<event>
 8    1  0.2971508E-007  0.9118800E+02  0.7816164E-02  0.1184000E+00
        -11   -1    0    0    0    0  0.00000000000E+00  0.00000000000E+00  0.45593999997E+02  0.45594000000E+02  0.51100000000E-03 0.  1.
         11   -1    0    0    0    0 -0.00000000000E+00 -0.00000000000E+00 -0.45593999997E+02  0.45594000000E+02  0.51100000000E-03 0. -1.
         23    2    1    2    0    0 -0.35527136788E-14  0.00000000000E+00  0.22204460493E-15  0.91188000000E+02  0.91188000000E+02 0.  0.
    9900012    2    3    3    0    0  0.31851496280E+02 -0.18434420647E+02  0.11990359280E+01  0.54367036311E+02  0.39999890878E+02 0.  0.
        -12    1    3    3    0    0 -0.31851496280E+02  0.18434420647E+02 -0.11990359280E+01  0.36820963689E+02  0.00000000000E+00 0.  1.
         11    1    4    4    0    0  0.11855542185E+02  0.11782683233E+01 -0.11103250507E+02  0.16285710571E+02  0.51100000000E-03 0. -1.
        -11    1    4    4    0    0  0.23422272203E+02 -0.20468930791E+02  0.14060527840E+02  0.34136174453E+02  0.51100000000E-03 0.  1.
        -12    1    4    4    0    0 -0.34263181081E+01  0.85624182080E+00 -0.17582414057E+01  0.39451512867E+01  0.00000000000E+00 0.  1.
</event>
<event>
 8    1  0.2971508E-007  0.9118800E+02  0.7816164E-02  0.1184000E+00
        -11   -1    0    0    0    0  0.00000000000E+00  0.00000000000E+00  0.45593999997E+02  0.45594000000E+02  0.51100000000E-03 0.  1.
         11   -1    0    0    0    0 -0.00000000000E+00 -0.00000000000E+00 -0.45593999997E+02  0.45594000000E+02  0.51100000000E-03 0. -1.
         23    2    1    2    0    0  0.00000000000E+00  0.00000000000E+00  0.00000000000E+00  0.91188000000E+02  0.91188000000E+02 0.  0.
    9900012    2    3    3    0    0 -0.18222744672E+02  0.25768396880E+02  0.18966000032E+02  0.54366975322E+02  0.39999751841E+02 0.  0.
        -12    1    3    3    0    0  0.18222744672E+02 -0.25768396880E+02 -0.18966000032E+02  0.36821024678E+02  0.00000000000E+00 0.  1.
         11    1    4    4    0    0 -0.51283245192E+01 -0.41829568573E+01 -0.28989776147E+01  0.72250198557E+01  0.51100000000E-03 0. -1.
        -11    1    4    4    0    0  0.29269494519E+01  0.22629007959E+02  0.18109739142E+02  0.29130768723E+02  0.51100000000E-03 0.  1.
         12    1    4    4    0    0 -0.16021369604E+02  0.73223457777E+01  0.37552385040E+01  0.18011186744E+02  0.00000000000E+00 0. -1.
</event>
<event>
 8    1  0.2971508E-007  0.9118800E+02  0.7816164E-02  0.1184000E+00
        -11   -1    0    0    0    0  0.00000000000E+00  0.00000000000E+00  0.45593999997E+02  0.45594000000E+02  0.51100000000E-03 0. -1.
         11   -1    0    0    0    0 -0.00000000000E+00 -0.00000000000E+00 -0.45593999997E+02  0.45594000000E+02  0.51100000000E-03 0.  1.
         23    2    1    2    0    0  0.00000000000E+00  0.00000000000E+00 -0.26645352591E-14  0.91188000000E+02  0.91188000000E+02 0.  0.
    9900012    2    3    3    0    0 -0.36515481292E+02  0.44566876847E+01  0.15931031221E+01  0.54367076374E+02  0.39999982210E+02 0.  0.
         12    1    3    3    0    0  0.36515481292E+02 -0.44566876847E+01 -0.15931031221E+01  0.36820923626E+02  0.00000000000E+00 0. -1.
         11    1    4    4    0    0 -0.81757138572E+01  0.42224660349E+01 -0.12802744925E+02  0.15766476917E+02  0.51100000000E-03 0. -1.
        -11    1    4    4    0    0 -0.19392550603E+02  0.93880219086E+00 -0.23942275949E+01  0.19562328452E+02  0.51100000000E-03 0.  1.
         12    1    4    4    0    0 -0.89472168324E+01 -0.70458054105E+00  0.16790075642E+02  0.19038271005E+02  0.00000000000E+00 0. -1.
</event>
<event>
 8    1  0.2971508E-007  0.9118800E+02  0.7816164E-02  0.1184000E+00
        -11   -1    0    0    0    0  0.00000000000E+00  0.00000000000E+00  0.45593999997E+02  0.45594000000E+02  0.51100000000E-03 0.  1.
         11   -1    0    0    0    0 -0.00000000000E+00 -0.00000000000E+00 -0.45593999997E+02  0.45594000000E+02  0.51100000000E-03 0. -1.
         23    2    1    2    0    0  0.00000000000E+00  0.88817841970E-15 -0.35527136788E-14  0.91188000000E+02  0.91188000000E+02 0.  0.
    9900012    2    3    3    0    0 -0.24072364069E+02 -0.76968277153E+01 -0.26777980945E+02  0.54367080237E+02  0.39999991015E+02 0.  0.
        -12    1    3    3    0    0  0.24072364069E+02  0.76968277153E+01  0.26777980945E+02  0.36820919763E+02  0.00000000000E+00 0.  1.
         11    1    4    4    0    0 -0.16020205363E+02  0.74130608151E+01 -0.75760962516E+01  0.19209312460E+02  0.51100000000E-03 0.  1.
        -11    1    4    4    0    0 -0.89776717989E+01 -0.80081499759E+01 -0.23785477078E+02  0.26654792759E+02  0.51100000000E-03 0. -1.
         12    1    4    4    0    0  0.92551309278E+00 -0.71017385545E+01  0.45835923850E+01  0.85029750166E+01  0.00000000000E+00 0. -1.
</event>
<event>
 8    1  0.2971508E-007  0.9118800E+02  0.7816164E-02  0.1184000E+00
        -11   -1    0    0    0    0  0.00000000000E+00  0.00000000000E+00  0.45593999997E+02  0.45594000000E+02  0.51100000000E-03 0.  1.
         11   -1    0    0    0    0 -0.00000000000E+00 -0.00000000000E+00 -0.45593999997E+02  0.45594000000E+02  0.51100000000E-03 0. -1.
         23    2    1    2    0    0  0.17763568394E-14  0.00000000000E+00  0.00000000000E+00  0.91188000000E+02  0.91188000000E+02 0.  0.
    9900012    2    3    3    0    0 -0.12999027092E+02  0.26042193578E+02 -0.22552376843E+02  0.54367078597E+02  0.39999987278E+02 0.  0.
        -12    1    3    3    0    0  0.12999027092E+02 -0.26042193578E+02  0.22552376843E+02  0.36820921403E+02  0.00000000000E+00 0.  1.
         11    1    4    4    0    0 -0.14466368117E+02  0.38276238797E+01  0.33329824302E+01  0.15330860484E+02  0.51100000000E-03 0. -1.
        -11    1    4    4    0    0  0.30016316120E+01 -0.25208852703E+01 -0.13063977594E+01  0.41317466339E+01  0.51100000000E-03 0.  1.
         12    1    4    4    0    0 -0.15342905870E+01  0.24735454969E+02 -0.24578961514E+02  0.34904471479E+02  0.00000000000E+00 0. -1.
</event>
<event>
 8    1  0.2971508E-007  0.9118800E+02  0.7816164E-02  0.1184000E+00
        -11   -1    0    0    0    0  0.00000000000E+00  0.00000000000E+00  0.45593999997E+02  0.45594000000E+02  0.51100000000E-03 0. -1.
         11   -1    0    0    0    0 -0.00000000000E+00 -0.00000000000E+00 -0.45593999997E+02  0.45594000000E+02  0.51100000000E-03 0.  1.
         23    2    1    2    0    0 -0.17763568394E-14 -0.35527136788E-14  0.00000000000E+00  0.91188000000E+02  0.91188000000E+02 0.  0.
    9900012    2    3    3    0    0  0.15672866890E+02 -0.25524214174E+02  0.21416255642E+02  0.54367078346E+02  0.39999986705E+02 0.  0.
        -12    1    3    3    0    0 -0.15672866890E+02  0.25524214174E+02 -0.21416255642E+02  0.36820921654E+02  0.00000000000E+00 0.  1.
         11    1    4    4    0    0  0.23208744642E+02 -0.13456490170E+02  0.72633222675E+00  0.26837483383E+02  0.51100000000E-03 0. -1.
        -11    1    4    4    0    0 -0.10400186773E+02 -0.92935175306E+01  0.17756266752E+02  0.22579157696E+02  0.51100000000E-03 0.  1.
         12    1    4    4    0    0  0.28643090209E+01 -0.27742064737E+01  0.29336566628E+01  0.49504372677E+01  0.00000000000E+00 0. -1.
</event>
<event>
 8    1  0.2971508E-007  0.9118800E+02  0.7816164E-02  0.1184000E+00
        -11   -1    0    0    0    0  0.00000000000E+00  0.00000000000E+00  0.45593999997E+02  0.45594000000E+02  0.51100000000E-03 0. -1.
         11   -1    0    0    0    0 -0.00000000000E+00 -0.00000000000E+00 -0.45593999997E+02  0.45594000000E+02  0.51100000000E-03 0.  1.
         23    2    1    2    0    0  0.35527136788E-14  0.00000000000E+00 -0.17763568394E-14  0.91188000000E+02  0.91188000000E+02 0.  0.
    9900012    2    3    3    0    0 -0.30967984989E+02  0.14874536852E+02  0.13248113149E+02  0.54367076018E+02  0.39999981399E+02 0.  0.
         12    1    3    3    0    0  0.30967984989E+02 -0.14874536852E+02 -0.13248113149E+02  0.36820923982E+02  0.00000000000E+00 0. -1.
         11    1    4    4    0    0 -0.15130089079E+02  0.53111894720E+01  0.51631755424E+01  0.16845970173E+02  0.51100000000E-03 0. -1.
        -11    1    4    4    0    0 -0.32794375434E+01 -0.94127425827E+01 -0.51263539013E+01  0.11208654608E+02  0.51100000000E-03 0.  1.
         12    1    4    4    0    0 -0.12558458367E+02  0.18976089963E+02  0.13211291508E+02  0.26312451238E+02  0.00000000000E+00 0. -1.
</event>
<event>
 8    1  0.2971508E-007  0.9118800E+02  0.7816164E-02  0.1184000E+00
        -11   -1    0    0    0    0  0.00000000000E+00  0.00000000000E+00  0.45593999997E+02  0.45594000000E+02  0.51100000000E-03 0. -1.
         11   -1    0    0    0    0 -0.00000000000E+00 -0.00000000000E+00 -0.45593999997E+02  0.45594000000E+02  0.51100000000E-03 0.  1.
         23    2    1    2    0    0  0.00000000000E+00  0.17763568394E-14  0.00000000000E+00  0.91188000000E+02  0.91188000000E+02 0.  0.
    9900012    2    3    3    0    0  0.22079461703E+02  0.14822627057E+02  0.25466973211E+02  0.54367087104E+02  0.40000006670E+02 0.  0.
        -12    1    3    3    0    0 -0.22079461703E+02 -0.14822627057E+02 -0.25466973211E+02  0.36820912896E+02  0.00000000000E+00 0.  1.
         11    1    4    4    0    0  0.20027483735E+00  0.54703863605E+00 -0.14093853130E+00  0.59935399434E+00  0.51100000000E-03 0. -1.
        -11    1    4    4    0    0  0.27153060152E+01 -0.13039804451E+02  0.36047090450E+01  0.13798670749E+02  0.51100000000E-03 0.  1.
         12    1    4    4    0    0  0.19163880851E+02  0.27315392872E+02  0.22003202697E+02  0.39969062360E+02  0.00000000000E+00 0. -1.
</event>
<event>
 8    1  0.2971508E-007  0.9118800E+02  0.7816164E-02  0.1184000E+00
        -11   -1    0    0    0    0  0.00000000000E+00  0.00000000000E+00  0.45593999997E+02  0.45594000000E+02  0.51100000000E-03 0.  1.
         11   -1    0    0    0    0 -0.00000000000E+00 -0.00000000000E+00 -0.45593999997E+02  0.45594000000E+02  0.51100000000E-03 0. -1.
         23    2    1    2    0    0 -0.71054273576E-14  0.17763568394E-14 -0.17763568394E-14  0.91188000000E+02  0.91188000000E+02 0.  0.
    9900012    2    3    3    0    0 -0.33612270892E+02  0.86928566224E+01 -0.12265020819E+02  0.54367065106E+02  0.39999956521E+02 0.  0.
         12    1    3    3    0    0  0.33612270892E+02 -0.86928566224E+01  0.12265020819E+02  0.36820934894E+02  0.00000000000E+00 0. -1.
         11    1    4    4    0    0 -0.30373758379E+02  0.69475286705E+00 -0.12771572191E+02  0.32956955808E+02  0.51100000000E-03 0.  1.
        -11    1    4    4    0    0  0.76451104115E+01  0.63378095417E+01 -0.19734154041E+01  0.10124717853E+02  0.51100000000E-03 0. -1.
        -12    1    4    4    0    0 -0.10883622925E+02  0.16602942136E+01  0.24799667758E+01  0.11285391444E+02  0.00000000000E+00 0.  1.
</event>
<event>
 8    1  0.2971508E-007  0.9118800E+02  0.7816164E-02  0.1184000E+00
        -11   -1    0    0    0    0  0.00000000000E+00  0.00000000000E+00  0.45593999997E+02  0.45594000000E+02  0.51100000000E-03 0. -1.
         11   -1    0    0    0    0 -0.00000000000E+00 -0.00000000000E+00 -0.45593999997E+02  0.45594000000E+02  0.51100000000E-03 0.  1.
         23    2    1    2    0    0 -0.71054273576E-14  0.00000000000E+00 -0.44408920985E-15  0.91188000000E+02  0.91188000000E+02 0.  0.
    9900012    2    3    3    0    0 -0.31961959541E+02  0.17884438893E+02 -0.37894256981E+01  0.54367085300E+02  0.40000002559E+02 0.  0.
        -12    1    3    3    0    0  0.31961959541E+02 -0.17884438893E+02  0.37894256981E+01  0.36820914700E+02  0.00000000000E+00 0.  1.
         11    1    4    4    0    0 -0.20508621878E+02  0.14978675346E+02 -0.11741238344E+02  0.27978937874E+02  0.51100000000E-03 0. -1.
        -11    1    4    4    0    0 -0.10521598515E+02  0.10104923633E+02 -0.12799237255E+01  0.14644170238E+02  0.51100000000E-03 0.  1.
        -12    1    4    4    0    0 -0.93173914767E+00 -0.71991600857E+01  0.92317363710E+01  0.11743977188E+02  0.00000000000E+00 0.  1.
</event>
<event>
 8    1  0.2971508E-007  0.9118800E+02  0.7816164E-02  0.1184000E+00
        -11   -1    0    0    0    0  0.00000000000E+00  0.00000000000E+00  0.45593999997E+02  0.45594000000E+02  0.51100000000E-03 0. -1.
         11   -1    0    0    0    0 -0.00000000000E+00 -0.00000000000E+00 -0.45593999997E+02  0.45594000000E+02  0.51100000000E-03 0.  1.
         23    2    1    2    0    0  0.35527136788E-14 -0.35527136788E-14 -0.35527136788E-14  0.91188000000E+02  0.91188000000E+02 0.  0.
    9900012    2    3    3    0    0  0.22632833652E+02 -0.19215989828E+02 -0.21777966131E+02  0.54367092448E+02  0.40000018853E+02 0.  0.
         12    1    3    3    0    0 -0.22632833652E+02  0.19215989828E+02  0.21777966131E+02  0.36820907552E+02  0.00000000000E+00 0. -1.
         11    1    4    4    0    0  0.24724401811E+02 -0.17148870076E+02 -0.12269150531E+02  0.32494797196E+02  0.51100000000E-03 0. -1.
        -11    1    4    4    0    0  0.26106620547E+01 -0.55487727192E+01 -0.13474373453E+02  0.14804160742E+02  0.51100000000E-03 0.  1.
        -12    1    4    4    0    0 -0.47022302140E+01  0.34816529671E+01  0.39655578524E+01  0.70681345099E+01  0.00000000000E+00 0.  1.
</event>
<event>
 8    1  0.2971508E-007  0.9118800E+02  0.7816164E-02  0.1184000E+00
        -11   -1    0    0    0    0  0.00000000000E+00  0.00000000000E+00  0.45593999997E+02  0.45594000000E+02  0.51100000000E-03 0.  1.
         11   -1    0    0    0    0 -0.00000000000E+00 -0.00000000000E+00 -0.45593999997E+02  0.45594000000E+02  0.51100000000E-03 0. -1.
         23    2    1    2    0    0  0.00000000000E+00 -0.17763568394E-14  0.00000000000E+00  0.91188000000E+02  0.91188000000E+02 0.  0.
    9900012    2    3    3    0    0 -0.13043306137E+02 -0.13493161771E+02 -0.31679435190E+02  0.54367083885E+02  0.39999999332E+02 0.  0.
        -12    1    3    3    0    0  0.13043306137E+02  0.13493161771E+02  0.31679435190E+02  0.36820916115E+02  0.00000000000E+00 0.  1.
         11    1    4    4    0    0 -0.56888806722E+01 -0.79185610807E+01 -0.62190274503E+01  0.11564742781E+02  0.51100000000E-03 0. -1.
        -11    1    4    4    0    0  0.26277546254E+01 -0.32963715825E+01 -0.30915060957E+02  0.31201156296E+02  0.51100000000E-03 0.  1.
        -12    1    4    4    0    0 -0.99821800907E+01 -0.22782291081E+01  0.54546532170E+01  0.11601184808E+02  0.00000000000E+00 0.  1.
</event>
<event>
 8    1  0.2971508E-007  0.9118800E+02  0.7816164E-02  0.1184000E+00
        -11   -1    0    0    0    0  0.00000000000E+00  0.00000000000E+00  0.45593999997E+02  0.45594000000E+02  0.51100000000E-03 0.  1.
         11   -1    0    0    0    0 -0.00000000000E+00 -0.00000000000E+00 -0.45593999997E+02  0.45594000000E+02  0.51100000000E-03 0. -1.
         23    2    1    2    0    0 -0.35527136788E-14  0.00000000000E+00  0.35527136788E-14  0.91188000000E+02  0.91188000000E+02 0.  0.
    9900012    2    3    3    0    0  0.19131489676E+02 -0.70567657076E+01 -0.30659047187E+02  0.54366959631E+02  0.39999716069E+02 0.  0.
        -12    1    3    3    0    0 -0.19131489676E+02  0.70567657076E+01  0.30659047187E+02  0.36821040369E+02  0.00000000000E+00 0.  1.
         11    1    4    4    0    0  0.68498297002E+01  0.48197978350E+01 -0.13762123459E+02  0.16110451901E+02  0.51100000000E-03 0. -1.
        -11    1    4    4    0    0  0.15043913050E+02 -0.21259552370E+01 -0.22135675896E+02  0.26848224395E+02  0.51100000000E-03 0.  1.
        -12    1    4    4    0    0 -0.27622530748E+01 -0.97506083056E+01  0.52387521677E+01  0.11408283335E+02  0.00000000000E+00 0.  1.
</event>
<event>
 8    1  0.2971508E-007  0.9118800E+02  0.7816164E-02  0.1184000E+00
        -11   -1    0    0    0    0  0.00000000000E+00  0.00000000000E+00  0.45593999997E+02  0.45594000000E+02  0.51100000000E-03 0.  1.
         11   -1    0    0    0    0 -0.00000000000E+00 -0.00000000000E+00 -0.45593999997E+02  0.45594000000E+02  0.51100000000E-03 0. -1.
         23    2    1    2    0    0  0.00000000000E+00  0.00000000000E+00  0.35527136788E-14  0.91188000000E+02  0.91188000000E+02 0.  0.
    9900012    2    3    3    0    0 -0.17090582664E+02 -0.24186223042E+02  0.21879638116E+02  0.54367082509E+02  0.39999996195E+02 0.  0.
         12    1    3    3    0    0  0.17090582664E+02  0.24186223042E+02 -0.21879638116E+02  0.36820917491E+02  0.00000000000E+00 0. -1.
         11    1    4    4    0    0  0.37312132752E+01 -0.21426647395E+02  0.14364432758E+02  0.26064537207E+02  0.51100000000E-03 0. -1.
        -11    1    4    4    0    0 -0.99462049169E+01  0.35123394365E+01 -0.39861362674E+01  0.11276205176E+02  0.51100000000E-03 0.  1.
         12    1    4    4    0    0 -0.10875591022E+02 -0.62719150833E+01  0.11501341626E+02  0.17026340126E+02  0.00000000000E+00 0. -1.
</event>
<event>
 8    1  0.2971508E-007  0.9118800E+02  0.7816164E-02  0.1184000E+00
        -11   -1    0    0    0    0  0.00000000000E+00  0.00000000000E+00  0.45593999997E+02  0.45594000000E+02  0.51100000000E-03 0. -1.
         11   -1    0    0    0    0 -0.00000000000E+00 -0.00000000000E+00 -0.45593999997E+02  0.45594000000E+02  0.51100000000E-03 0.  1.
         23    2    1    2    0    0 -0.71054273576E-14  0.00000000000E+00 -0.35527136788E-14  0.91188000000E+02  0.91188000000E+02 0.  0.
    9900012    2    3    3    0    0  0.25653696365E+02 -0.43043109838E+01  0.26060322066E+02  0.54367087241E+02  0.40000006983E+02 0.  0.
        -12    1    3    3    0    0 -0.25653696365E+02  0.43043109838E+01 -0.26060322066E+02  0.36820912759E+02  0.00000000000E+00 0.  1.
         11    1    4    4    0    0  0.24848082498E+02 -0.51793439434E+01  0.19405081170E+02  0.31950117104E+02  0.51100000000E-03 0. -1.
        -11    1    4    4    0    0  0.73569854419E+01 -0.85205469921E+00  0.11784936736E+02  0.13918906787E+02  0.51100000000E-03 0.  1.
        -12    1    4    4    0    0 -0.65513715744E+01  0.17270876588E+01 -0.51296958404E+01  0.84980633501E+01  0.00000000000E+00 0.  1.
</event>
<event>
 8    1  0.2971508E-007  0.9118800E+02  0.7816164E-02  0.1184000E+00
        -11   -1    0    0    0    0  0.00000000000E+00  0.00000000000E+00  0.45593999997E+02  0.45594000000E+02  0.51100000000E-03 0.  1.
         11   -1    0    0    0    0 -0.00000000000E+00 -0.00000000000E+00 -0.45593999997E+02  0.45594000000E+02  0.51100000000E-03 0. -1.
         23    2    1    2    0    0  0.00000000000E+00 -0.35527136788E-14 -0.35527136788E-14  0.91188000000E+02  0.91188000000E+02 0.  0.
    9900012    2    3    3    0    0  0.19130063275E+02  0.16691812245E+02  0.26668378290E+02  0.54367104878E+02  0.40000047191E+02 0.  0.
         12    1    3    3    0    0 -0.19130063275E+02 -0.16691812245E+02 -0.26668378290E+02  0.36820895122E+02  0.00000000000E+00 0. -1.
         11    1    4    4    0    0  0.73386227934E+01 -0.76592006602E+01 -0.44845282433E+01  0.11516498300E+02  0.51100000000E-03 0. -1.
        -11    1    4    4    0    0  0.48687229846E+01  0.20628534295E+02  0.19541526820E+02  0.28829015962E+02  0.51100000000E-03 0.  1.
        -12    1    4    4    0    0  0.69227174972E+01  0.37224786104E+01  0.11611379714E+02  0.14021590616E+02  0.00000000000E+00 0.  1.
</event>
<event>
 8    1  0.2971508E-007  0.9118800E+02  0.7816164E-02  0.1184000E+00
        -11   -1    0    0    0    0  0.00000000000E+00  0.00000000000E+00  0.45593999997E+02  0.45594000000E+02  0.51100000000E-03 0. -1.
         11   -1    0    0    0    0 -0.00000000000E+00 -0.00000000000E+00 -0.45593999997E+02  0.45594000000E+02  0.51100000000E-03 0.  1.
         23    2    1    2    0    0  0.00000000000E+00  0.35527136788E-14  0.00000000000E+00  0.91188000000E+02  0.91188000000E+02 0.  0.
    9900012    2    3    3    0    0 -0.27963293165E+02 -0.22332123360E+02  0.86667153644E+01  0.54367062293E+02  0.39999950109E+02 0.  0.
         12    1    3    3    0    0  0.27963293165E+02  0.22332123360E+02 -0.86667153644E+01  0.36820937707E+02  0.00000000000E+00 0. -1.
         11    1    4    4    0    0  0.12456012285E+01 -0.84906776884E+01 -0.85812820507E+01  0.12135960280E+02  0.51100000000E-03 0. -1.
        -11    1    4    4    0    0  0.26467646755E+01 -0.21073822099E+01  0.52095022244E+01  0.62117096450E+01  0.51100000000E-03 0.  1.
        -12    1    4    4    0    0 -0.31855659069E+02 -0.11734063462E+02  0.12038495191E+02  0.36019392368E+02  0.00000000000E+00 0.  1.
</event>
<event>
 8    1  0.2971508E-007  0.9118800E+02  0.7816164E-02  0.1184000E+00
        -11   -1    0    0    0    0  0.00000000000E+00  0.00000000000E+00  0.45593999997E+02  0.45594000000E+02  0.51100000000E-03 0.  1.
         11   -1    0    0    0    0 -0.00000000000E+00 -0.00000000000E+00 -0.45593999997E+02  0.45594000000E+02  0.51100000000E-03 0. -1.
         23    2    1    2    0    0  0.17763568394E-14  0.35527136788E-14  0.00000000000E+00  0.91188000000E+02  0.91188000000E+02 0.  0.
    9900012    2    3    3    0    0 -0.14171685745E+02  0.27914383113E+02  0.19383798682E+02  0.54367066921E+02  0.39999960660E+02 0.  0.
         12    1    3    3    0    0  0.14171685745E+02 -0.27914383113E+02 -0.19383798682E+02  0.36820933079E+02  0.00000000000E+00 0. -1.
         11    1    4    4    0    0 -0.33505937949E+01  0.32812260944E+01  0.70147504512E+00  0.47418341347E+01  0.51100000000E-03 0. -1.
        -11    1    4    4    0    0 -0.16685489399E+02  0.27997997005E+02  0.24445134178E+02  0.40741354641E+02  0.51100000000E-03 0.  1.
         12    1    4    4    0    0  0.58643974494E+01 -0.33648399861E+01 -0.57628105403E+01  0.88838781453E+01  0.00000000000E+00 0. -1.
</event>
<event>
 8    1  0.2971508E-007  0.9118800E+02  0.7816164E-02  0.1184000E+00
        -11   -1    0    0    0    0  0.00000000000E+00  0.00000000000E+00  0.45593999997E+02  0.45594000000E+02  0.51100000000E-03 0.  1.
         11   -1    0    0    0    0 -0.00000000000E+00 -0.00000000000E+00 -0.45593999997E+02  0.45594000000E+02  0.51100000000E-03 0. -1.
         23    2    1    2    0    0  0.35527136788E-14 -0.26645352591E-14  0.00000000000E+00  0.91188000000E+02  0.91188000000E+02 0.  0.
    9900012    2    3    3    0    0  0.29301709869E+02 -0.70588548751E+01 -0.21150943536E+02  0.54367081409E+02  0.39999993689E+02 0.  0.
         12    1    3    3    0    0 -0.29301709869E+02  0.70588548751E+01  0.21150943536E+02  0.36820918591E+02  0.00000000000E+00 0. -1.
         11    1    4    4    0    0  0.29296544203E+02 -0.10544730015E+02 -0.23898885500E+02  0.39250930711E+02  0.51100000000E-03 0. -1.
        -11    1    4    4    0    0  0.70820187731E+01  0.85959322482E+00  0.15802664428E+00  0.71357454478E+01  0.51100000000E-03 0.  1.
         12    1    4    4    0    0 -0.70768531070E+01  0.26262819150E+01  0.25899153195E+01  0.79804052502E+01  0.00000000000E+00 0. -1.
</event>
<event>
 8    1  0.2971508E-007  0.9118800E+02  0.7816164E-02  0.1184000E+00
        -11   -1    0    0    0    0  0.00000000000E+00  0.00000000000E+00  0.45593999997E+02  0.45594000000E+02  0.51100000000E-03 0.  1.
         11   -1    0    0    0    0 -0.00000000000E+00 -0.00000000000E+00 -0.45593999997E+02  0.45594000000E+02  0.51100000000E-03 0. -1.
         23    2    1    2    0    0 -0.35527136788E-14 -0.71054273576E-14  0.00000000000E+00  0.91188000000E+02  0.91188000000E+02 0.  0.
    9900012    2    3    3    0    0 -0.17913446277E+02 -0.29545191301E+02  0.12726759228E+02  0.54367078135E+02  0.39999986225E+02 0.  0.
        -12    1    3    3    0    0  0.17913446277E+02  0.29545191301E+02 -0.12726759228E+02  0.36820921865E+02  0.00000000000E+00 0.  1.
         11    1    4    4    0    0  0.45512443738E+01 -0.46658035778E+01 -0.37549672855E+01  0.75221890400E+01  0.51100000000E-03 0. -1.
        -11    1    4    4    0    0 -0.28742572952E+02 -0.19960117104E+02  0.16895081310E+02  0.38858532492E+02  0.51100000000E-03 0.  1.
        -12    1    4    4    0    0  0.62778823009E+01 -0.49192706190E+01 -0.41335479676E+00  0.79863566033E+01  0.00000000000E+00 0.  1.
</event>
<event>
 8    1  0.2971508E-007  0.9118800E+02  0.7816164E-02  0.1184000E+00
        -11   -1    0    0    0    0  0.00000000000E+00  0.00000000000E+00  0.45593999997E+02  0.45594000000E+02  0.51100000000E-03 0. -1.
         11   -1    0    0    0    0 -0.00000000000E+00 -0.00000000000E+00 -0.45593999997E+02  0.45594000000E+02  0.51100000000E-03 0.  1.
         23    2    1    2    0    0  0.00000000000E+00  0.35527136788E-14  0.00000000000E+00  0.91188000000E+02  0.91188000000E+02 0.  0.
    9900012    2    3    3    0    0 -0.71954499285E+01 -0.27217701618E+02 -0.23731836983E+02  0.54367110988E+02  0.40000061119E+02 0.  0.
         12    1    3    3    0    0  0.71954499285E+01  0.27217701618E+02  0.23731836983E+02  0.36820889012E+02  0.00000000000E+00 0. -1.
         11    1    4    4    0    0 -0.30213694282E+01 -0.89737684126E+00 -0.60503087866E+01  0.68220374589E+01  0.51100000000E-03 0. -1.
        -11    1    4    4    0    0  0.58249505032E+00 -0.34386005047E+02 -0.16375715985E+02  0.38090690698E+02  0.51100000000E-03 0.  1.
         12    1    4    4    0    0 -0.47565755506E+01  0.80656802701E+01 -0.13058122121E+01  0.94543828313E+01  0.00000000000E+00 0. -1.
</event>
<event>
 8    1  0.2971508E-007  0.9118800E+02  0.7816164E-02  0.1184000E+00
        -11   -1    0    0    0    0  0.00000000000E+00  0.00000000000E+00  0.45593999997E+02  0.45594000000E+02  0.51100000000E-03 0.  1.
         11   -1    0    0    0    0 -0.00000000000E+00 -0.00000000000E+00 -0.45593999997E+02  0.45594000000E+02  0.51100000000E-03 0. -1.
         23    2    1    2    0    0  0.17763568394E-14  0.00000000000E+00  0.68001160258E-15  0.91188000000E+02  0.91188000000E+02 0.  0.
    9900012    2    3    3    0    0  0.96632307102E+01  0.35530151749E+02 -0.11406772083E+00  0.54367045063E+02  0.39999910830E+02 0.  0.
        -12    1    3    3    0    0 -0.96632307102E+01 -0.35530151749E+02  0.11406772083E+00  0.36820954937E+02  0.00000000000E+00 0.  1.
         11    1    4    4    0    0 -0.47969385781E+01  0.12729901993E+02  0.59385147210E+01  0.14843415437E+02  0.51100000000E-03 0. -1.
        -11    1    4    4    0    0  0.14029236363E+02  0.15727740440E+02 -0.16592528102E+02  0.26823371923E+02  0.51100000000E-03 0.  1.
        -12    1    4    4    0    0  0.43093292512E+00  0.70725093161E+01  0.10539945660E+02  0.12700257703E+02  0.00000000000E+00 0.  1.
</event>
<event>
 8    1  0.2971508E-007  0.9118800E+02  0.7816164E-02  0.1184000E+00
        -11   -1    0    0    0    0  0.00000000000E+00  0.00000000000E+00  0.45593999997E+02  0.45594000000E+02  0.51100000000E-03 0.  1.
         11   -1    0    0    0    0 -0.00000000000E+00 -0.00000000000E+00 -0.45593999997E+02  0.45594000000E+02  0.51100000000E-03 0. -1.
         23    2    1    2    0    0  0.00000000000E+00  0.00000000000E+00  0.00000000000E+00  0.91188000000E+02  0.91188000000E+02 0.  0.
    9900012    2    3    3    0    0  0.25499368452E+02  0.25461832290E+02  0.75668307272E+01  0.54367087161E+02  0.40000006801E+02 0.  0.
        -12    1    3    3    0    0 -0.25499368452E+02 -0.25461832290E+02 -0.75668307272E+01  0.36820912839E+02  0.00000000000E+00 0.  1.
         11    1    4    4    0    0  0.22353034496E+02  0.32627122365E+02  0.11781281089E+02  0.41267249113E+02  0.51100000000E-03 0. -1.
        -11    1    4    4    0    0 -0.29415922891E+01 -0.13833368406E+01 -0.33361752041E+01  0.46579664300E+01  0.51100000000E-03 0.  1.
         12    1    4    4    0    0  0.60879262446E+01 -0.57819532342E+01 -0.87827515722E+00  0.84418716179E+01  0.00000000000E+00 0. -1.
</event>
<event>
 8    1  0.2971508E-007  0.9118800E+02  0.7816164E-02  0.1184000E+00
        -11   -1    0    0    0    0  0.00000000000E+00  0.00000000000E+00  0.45593999997E+02  0.45594000000E+02  0.51100000000E-03 0. -1.
         11   -1    0    0    0    0 -0.00000000000E+00 -0.00000000000E+00 -0.45593999997E+02  0.45594000000E+02  0.51100000000E-03 0.  1.
         23    2    1    2    0    0 -0.12767564783E-14  0.00000000000E+00 -0.35527136788E-14  0.91188000000E+02  0.91188000000E+02 0.  0.
    9900012    2    3    3    0    0  0.47474750815E+00  0.21659910787E+02 -0.29772505617E+02  0.54367092744E+02  0.40000019528E+02 0.  0.
         12    1    3    3    0    0 -0.47474750815E+00 -0.21659910787E+02  0.29772505617E+02  0.36820907256E+02  0.00000000000E+00 0. -1.
         11    1    4    4    0    0 -0.85072939918E+01  0.10147047951E+02 -0.50206633129E+01  0.14161345047E+02  0.51100000000E-03 0. -1.
        -11    1    4    4    0    0 -0.48343041206E+01  0.73130056880E+01 -0.24217437829E+02  0.25755287686E+02  0.51100000000E-03 0.  1.
         12    1    4    4    0    0  0.13816345621E+02  0.41998571481E+01 -0.53440447435E+00  0.14450460010E+02  0.00000000000E+00 0. -1.
</event>
<event>
 8    1  0.2971508E-007  0.9118800E+02  0.7816164E-02  0.1184000E+00
        -11   -1    0    0    0    0  0.00000000000E+00  0.00000000000E+00  0.45593999997E+02  0.45594000000E+02  0.51100000000E-03 0.  1.
         11   -1    0    0    0    0 -0.00000000000E+00 -0.00000000000E+00 -0.45593999997E+02  0.45594000000E+02  0.51100000000E-03 0. -1.
         23    2    1    2    0    0  0.00000000000E+00  0.00000000000E+00  0.00000000000E+00  0.91188000000E+02  0.91188000000E+02 0.  0.
    9900012    2    3    3    0    0 -0.13702377525E+02  0.32431648669E+02 -0.10780229769E+02  0.54367077428E+02  0.39999984611E+02 0.  0.
        -12    1    3    3    0    0  0.13702377525E+02 -0.32431648669E+02  0.10780229769E+02  0.36820922572E+02  0.00000000000E+00 0.  1.
         11    1    4    4    0    0 -0.56893866833E+01  0.28360927669E+02  0.10164869085E+02  0.30660004938E+02  0.51100000000E-03 0. -1.
        -11    1    4    4    0    0 -0.44221133333E+01  0.44009175284E+01 -0.73449634689E+01  0.96369938282E+01  0.51100000000E-03 0.  1.
        -12    1    4    4    0    0 -0.35908775087E+01 -0.33019652831E+00 -0.13600135385E+02  0.14070078661E+02  0.00000000000E+00 0.  1.
</event>
<event>
 8    1  0.2971508E-007  0.9118800E+02  0.7816164E-02  0.1184000E+00
        -11   -1    0    0    0    0  0.00000000000E+00  0.00000000000E+00  0.45593999997E+02  0.45594000000E+02  0.51100000000E-03 0.  1.
         11   -1    0    0    0    0 -0.00000000000E+00 -0.00000000000E+00 -0.45593999997E+02  0.45594000000E+02  0.51100000000E-03 0. -1.
         23    2    1    2    0    0  0.00000000000E+00  0.17763568394E-14  0.00000000000E+00  0.91188000000E+02  0.91188000000E+02 0.  0.
    9900012    2    3    3    0    0  0.20843213295E+02 -0.14118533199E+02  0.26870190016E+02  0.54367087034E+02  0.40000006512E+02 0.  0.
         12    1    3    3    0    0 -0.20843213295E+02  0.14118533199E+02 -0.26870190016E+02  0.36820912966E+02  0.00000000000E+00 0. -1.
         11    1    4    4    0    0 -0.58269013855E+01 -0.13445559584E+02  0.39415861434E+01  0.15174714293E+02  0.51100000000E-03 0. -1.
        -11    1    4    4    0    0  0.19251772222E+02 -0.58678379441E+01  0.22410298820E+02  0.30121151195E+02  0.51100000000E-03 0.  1.
        -12    1    4    4    0    0  0.74183424582E+01  0.51948643287E+01  0.51830505263E+00  0.90712215466E+01  0.00000000000E+00 0.  1.
</event>
<event>
 8    1  0.2971508E-007  0.9118800E+02  0.7816164E-02  0.1184000E+00
        -11   -1    0    0    0    0  0.00000000000E+00  0.00000000000E+00  0.45593999997E+02  0.45594000000E+02  0.51100000000E-03 0. -1.
         11   -1    0    0    0    0 -0.00000000000E+00 -0.00000000000E+00 -0.45593999997E+02  0.45594000000E+02  0.51100000000E-03 0.  1.
         23    2    1    2    0    0  0.00000000000E+00  0.00000000000E+00  0.00000000000E+00  0.91188000000E+02  0.91188000000E+02 0.  0.
    9900012    2    3    3    0    0 -0.19490348314E+02 -0.29344226341E+02  0.10715570008E+02  0.54367072017E+02  0.39999972277E+02 0.  0.
        -12    1    3    3    0    0  0.19490348314E+02  0.29344226341E+02 -0.10715570008E+02  0.36820927983E+02  0.00000000000E+00 0.  1.
         11    1    4    4    0    0  0.30079223439E+01 -0.20143069098E+02  0.50044078112E+01  0.20972241829E+02  0.51100000000E-03 0. -1.
        -11    1    4    4    0    0  0.33385095800E+01  0.24849914509E+01  0.25046192650E+01  0.48573600496E+01  0.51100000000E-03 0.  1.
         12    1    4    4    0    0 -0.25836780238E+02 -0.11686148693E+02  0.32065429319E+01  0.28537470139E+02  0.00000000000E+00 0. -1.
</event>
<event>
 8    1  0.2971508E-007  0.9118800E+02  0.7816164E-02  0.1184000E+00
        -11   -1    0    0    0    0  0.00000000000E+00  0.00000000000E+00  0.45593999997E+02  0.45594000000E+02  0.51100000000E-03 0.  1.
         11   -1    0    0    0    0 -0.00000000000E+00 -0.00000000000E+00 -0.45593999997E+02  0.45594000000E+02  0.51100000000E-03 0. -1.
         23    2    1    2    0    0 -0.71054273576E-14  0.00000000000E+00  0.22204460493E-15  0.91188000000E+02  0.91188000000E+02 0.  0.
    9900012    2    3    3    0    0  0.26479508426E+02 -0.25573879713E+02 -0.77016839415E+00  0.54367070498E+02  0.39999968813E+02 0.  0.
         12    1    3    3    0    0 -0.26479508426E+02  0.25573879713E+02  0.77016839415E+00  0.36820929502E+02  0.00000000000E+00 0. -1.
         11    1    4    4    0    0  0.44150542394E+01 -0.28859012901E+02  0.45158461485E+01  0.29541973466E+02  0.51100000000E-03 0. -1.
        -11    1    4    4    0    0  0.12327956847E+02 -0.18368027289E+01  0.33961514060E+00  0.12468668854E+02  0.51100000000E-03 0.  1.
         12    1    4    4    0    0  0.97364973389E+01  0.51219359166E+01 -0.56256296833E+01  0.12356428177E+02  0.00000000000E+00 0. -1.
</event>
<event>
 8    1  0.2971508E-007  0.9118800E+02  0.7816164E-02  0.1184000E+00
        -11   -1    0    0    0    0  0.00000000000E+00  0.00000000000E+00  0.45593999997E+02  0.45594000000E+02  0.51100000000E-03 0. -1.
         11   -1    0    0    0    0 -0.00000000000E+00 -0.00000000000E+00 -0.45593999997E+02  0.45594000000E+02  0.51100000000E-03 0.  1.
         23    2    1    2    0    0  0.00000000000E+00  0.00000000000E+00  0.00000000000E+00  0.91188000000E+02  0.91188000000E+02 0.  0.
    9900012    2    3    3    0    0  0.29489957375E+02 -0.64497742389E+01  0.21083686328E+02  0.54367095572E+02  0.40000025975E+02 0.  0.
        -12    1    3    3    0    0 -0.29489957375E+02  0.64497742389E+01 -0.21083686328E+02  0.36820904428E+02  0.00000000000E+00 0.  1.
         11    1    4    4    0    0  0.23090655602E+02 -0.21067782924E+01 -0.88394535586E+00  0.23203410322E+02  0.51100000000E-03 0. -1.
        -11    1    4    4    0    0 -0.50945910824E+00  0.41113226637E+01 -0.21662822003E+01  0.46749653967E+01  0.51100000000E-03 0.  1.
         12    1    4    4    0    0  0.69087608809E+01 -0.84543186102E+01  0.24133913885E+02  0.26488719853E+02  0.00000000000E+00 0. -1.
</event>
<event>
 8    1  0.2971508E-007  0.9118800E+02  0.7816164E-02  0.1184000E+00
        -11   -1    0    0    0    0  0.00000000000E+00  0.00000000000E+00  0.45593999997E+02  0.45594000000E+02  0.51100000000E-03 0. -1.
         11   -1    0    0    0    0 -0.00000000000E+00 -0.00000000000E+00 -0.45593999997E+02  0.45594000000E+02  0.51100000000E-03 0.  1.
         23    2    1    2    0    0  0.35527136788E-14  0.00000000000E+00 -0.35527136788E-14  0.91188000000E+02  0.91188000000E+02 0.  0.
    9900012    2    3    3    0    0 -0.28713347435E+02  0.10392444757E+01  0.23026969863E+02  0.54367113385E+02  0.40000066585E+02 0.  0.
        -12    1    3    3    0    0  0.28713347435E+02 -0.10392444757E+01 -0.23026969863E+02  0.36820886615E+02  0.00000000000E+00 0.  1.
         11    1    4    4    0    0 -0.11266323023E+02  0.39793505231E+01 -0.76530826478E+01  0.14189254361E+02  0.51100000000E-03 0. -1.
        -11    1    4    4    0    0 -0.11474255132E+02  0.59950584524E+01  0.24678692828E+02  0.27868210144E+02  0.51100000000E-03 0.  1.
         12    1    4    4    0    0 -0.59727692804E+01 -0.89351644998E+01  0.60013596824E+01  0.12309648880E+02  0.00000000000E+00 0. -1.
</event>
<event>
 8    1  0.2971508E-007  0.9118800E+02  0.7816164E-02  0.1184000E+00
        -11   -1    0    0    0    0  0.00000000000E+00  0.00000000000E+00  0.45593999997E+02  0.45594000000E+02  0.51100000000E-03 0. -1.
         11   -1    0    0    0    0 -0.00000000000E+00 -0.00000000000E+00 -0.45593999997E+02  0.45594000000E+02  0.51100000000E-03 0.  1.
         23    2    1    2    0    0  0.00000000000E+00  0.00000000000E+00  0.00000000000E+00  0.91188000000E+02  0.91188000000E+02 0.  0.
    9900012    2    3    3    0    0 -0.13137585973E+02  0.26614067347E+02 -0.21791632794E+02  0.54367081954E+02  0.39999994930E+02 0.  0.
         12    1    3    3    0    0  0.13137585973E+02 -0.26614067347E+02  0.21791632794E+02  0.36820918046E+02  0.00000000000E+00 0. -1.
         11    1    4    4    0    0  0.20065011076E+01  0.12470104619E+02 -0.17290370072E+02  0.21412296780E+02  0.51100000000E-03 0.  1.
        -11    1    4    4    0    0 -0.10239318745E+02 -0.47714716261E+01  0.35190380285E+01  0.11831915261E+02  0.51100000000E-03 0. -1.
         12    1    4    4    0    0 -0.49047683361E+01  0.18915434354E+02 -0.80203007504E+01  0.21122869913E+02  0.00000000000E+00 0. -1.
</event>
<event>
 8    1  0.2971508E-007  0.9118800E+02  0.7816164E-02  0.1184000E+00
        -11   -1    0    0    0    0  0.00000000000E+00  0.00000000000E+00  0.45593999997E+02  0.45594000000E+02  0.51100000000E-03 0.  1.
         11   -1    0    0    0    0 -0.00000000000E+00 -0.00000000000E+00 -0.45593999997E+02  0.45594000000E+02  0.51100000000E-03 0. -1.
         23    2    1    2    0    0  0.22204460493E-15  0.00000000000E+00 -0.35527136788E-14  0.91188000000E+02  0.91188000000E+02 0.  0.
    9900012    2    3    3    0    0  0.45065756619E+00  0.22960135983E+02 -0.28782111635E+02  0.54367069990E+02  0.39999967657E+02 0.  0.
        -12    1    3    3    0    0 -0.45065756619E+00 -0.22960135983E+02  0.28782111635E+02  0.36820930010E+02  0.00000000000E+00 0.  1.
         11    1    4    4    0    0 -0.35707399937E+01 -0.95700074467E+01  0.12686723793E-01  0.10214469533E+02  0.51100000000E-03 0. -1.
        -11    1    4    4    0    0  0.59401131711E-01  0.13734310777E+02 -0.82274941253E+01  0.16010199276E+02  0.51100000000E-03 0.  1.
        -12    1    4    4    0    0  0.39619964282E+01  0.18795832652E+02 -0.20567304234E+02  0.28142401181E+02  0.00000000000E+00 0.  1.
</event>
<event>
 8    1  0.2971508E-007  0.9118800E+02  0.7816164E-02  0.1184000E+00
        -11   -1    0    0    0    0  0.00000000000E+00  0.00000000000E+00  0.45593999997E+02  0.45594000000E+02  0.51100000000E-03 0.  1.
         11   -1    0    0    0    0 -0.00000000000E+00 -0.00000000000E+00 -0.45593999997E+02  0.45594000000E+02  0.51100000000E-03 0. -1.
         23    2    1    2    0    0  0.35527136788E-14  0.35527136788E-14  0.00000000000E+00  0.91188000000E+02  0.91188000000E+02 0.  0.
    9900012    2    3    3    0    0  0.18794609872E+02  0.18799534027E+02 -0.25477828742E+02  0.54367087500E+02  0.40000007574E+02 0.  0.
        -12    1    3    3    0    0 -0.18794609872E+02 -0.18799534027E+02  0.25477828742E+02  0.36820912500E+02  0.00000000000E+00 0.  1.
         11    1    4    4    0    0  0.15651304582E+02  0.24108212247E+02 -0.27994762529E+02  0.40123259615E+02  0.51100000000E-03 0. -1.
        -11    1    4    4    0    0  0.70999523878E+01 -0.12046487565E+01 -0.13879596363E+01  0.73339576456E+01  0.51100000000E-03 0.  1.
        -12    1    4    4    0    0 -0.39566470972E+01 -0.41040294625E+01  0.39048934231E+01  0.69098702395E+01  0.00000000000E+00 0.  1.
</event>
<event>
 8    1  0.2971508E-007  0.9118800E+02  0.7816164E-02  0.1184000E+00
        -11   -1    0    0    0    0  0.00000000000E+00  0.00000000000E+00  0.45593999997E+02  0.45594000000E+02  0.51100000000E-03 0.  1.
         11   -1    0    0    0    0 -0.00000000000E+00 -0.00000000000E+00 -0.45593999997E+02  0.45594000000E+02  0.51100000000E-03 0. -1.
         23    2    1    2    0    0  0.00000000000E+00  0.00000000000E+00 -0.35527136788E-14  0.91188000000E+02  0.91188000000E+02 0.  0.
    9900012    2    3    3    0    0  0.17343442907E+02  0.18569382053E+02 -0.26648928892E+02  0.54367049811E+02  0.39999921655E+02 0.  0.
        -12    1    3    3    0    0 -0.17343442907E+02 -0.18569382053E+02  0.26648928892E+02  0.36820950189E+02  0.00000000000E+00 0.  1.
         11    1    4    4    0    0  0.14981432682E+02  0.43079175033E+01 -0.15091835059E+02  0.21697118798E+02  0.51100000000E-03 0. -1.
        -11    1    4    4    0    0 -0.78851692976E+01  0.18452789458E+01 -0.14208625180E+02  0.16354387149E+02  0.51100000000E-03 0.  1.
        -12    1    4    4    0    0  0.10247179522E+02  0.12416185604E+02  0.26515313469E+01  0.16315543864E+02  0.00000000000E+00 0.  1.
</event>
<event>
 8    1  0.2971508E-007  0.9118800E+02  0.7816164E-02  0.1184000E+00
        -11   -1    0    0    0    0  0.00000000000E+00  0.00000000000E+00  0.45593999997E+02  0.45594000000E+02  0.51100000000E-03 0. -1.
         11   -1    0    0    0    0 -0.00000000000E+00 -0.00000000000E+00 -0.45593999997E+02  0.45594000000E+02  0.51100000000E-03 0.  1.
         23    2    1    2    0    0  0.00000000000E+00  0.79103390505E-15 -0.44408920985E-15  0.91188000000E+02  0.91188000000E+02 0.  0.
    9900012    2    3    3    0    0  0.36775533562E+02 -0.54328095020E-01 -0.18267075254E+01  0.54367086368E+02  0.40000004993E+02 0.  0.
        -12    1    3    3    0    0 -0.36775533562E+02  0.54328095020E-01  0.18267075254E+01  0.36820913632E+02  0.00000000000E+00 0.  1.
         11    1    4    4    0    0  0.18173910859E+02 -0.15442553501E+02  0.18395337420E+01  0.23919602404E+02  0.51100000000E-03 0. -1.
        -11    1    4    4    0    0  0.80617358941E+01 -0.30157828705E+01  0.11926793962E+01  0.86895924157E+01  0.51100000000E-03 0.  1.
        -12    1    4    4    0    0  0.10539886809E+02  0.18404008276E+02 -0.48589206637E+01  0.21757891548E+02  0.00000000000E+00 0.  1.
</event>
<event>
 8    1  0.2971508E-007  0.9118800E+02  0.7816164E-02  0.1184000E+00
        -11   -1    0    0    0    0  0.00000000000E+00  0.00000000000E+00  0.45593999997E+02  0.45594000000E+02  0.51100000000E-03 0.  1.
         11   -1    0    0    0    0 -0.00000000000E+00 -0.00000000000E+00 -0.45593999997E+02  0.45594000000E+02  0.51100000000E-03 0. -1.
         23    2    1    2    0    0  0.00000000000E+00 -0.71054273576E-14 -0.22204460493E-15  0.91188000000E+02  0.91188000000E+02 0.  0.
    9900012    2    3    3    0    0 -0.17627775486E+02 -0.32306103397E+02 -0.11647422072E+01  0.54367090048E+02  0.40000013383E+02 0.  0.
        -12    1    3    3    0    0  0.17627775486E+02  0.32306103397E+02  0.11647422072E+01  0.36820909952E+02  0.00000000000E+00 0.  1.
         11    1    4    4    0    0 -0.22330238036E+02 -0.16666103166E+02 -0.86962647647E+01  0.29189442382E+02  0.51100000000E-03 0. -1.
        -11    1    4    4    0    0  0.48346752600E+01 -0.13824352290E+02  0.12895230132E+02  0.19513425161E+02  0.51100000000E-03 0.  1.
         12    1    4    4    0    0 -0.13221271011E+00 -0.18156479410E+01 -0.53637075741E+01  0.56642225051E+01  0.00000000000E+00 0. -1.
</event>
<event>
 8    1  0.2971508E-007  0.9118800E+02  0.7816164E-02  0.1184000E+00
        -11   -1    0    0    0    0  0.00000000000E+00  0.00000000000E+00  0.45593999997E+02  0.45594000000E+02  0.51100000000E-03 0.  1.
         11   -1    0    0    0    0 -0.00000000000E+00 -0.00000000000E+00 -0.45593999997E+02  0.45594000000E+02  0.51100000000E-03 0. -1.
         23    2    1    2    0    0 -0.35527136788E-14  0.00000000000E+00  0.17763568394E-14  0.91188000000E+02  0.91188000000E+02 0.  0.
    9900012    2    3    3    0    0  0.17562500255E+02 -0.29589090753E+02 -0.13108155606E+02  0.54367089498E+02  0.40000012129E+02 0.  0.
        -12    1    3    3    0    0 -0.17562500255E+02  0.29589090753E+02  0.13108155606E+02  0.36820910502E+02  0.00000000000E+00 0.  1.
         11    1    4    4    0    0  0.17672995510E+02 -0.72187748987E+01  0.78432967208E+01  0.20638865886E+02  0.51100000000E-03 0. -1.
        -11    1    4    4    0    0  0.26442783621E+01 -0.17667883575E+02 -0.21829864271E+02  0.28207965053E+02  0.51100000000E-03 0.  1.
        -12    1    4    4    0    0 -0.27547736174E+01 -0.47024322792E+01  0.87841194380E+00  0.55202585597E+01  0.00000000000E+00 0.  1.
</event>
<event>
 8    1  0.2971508E-007  0.9118800E+02  0.7816164E-02  0.1184000E+00
        -11   -1    0    0    0    0  0.00000000000E+00  0.00000000000E+00  0.45593999997E+02  0.45594000000E+02  0.51100000000E-03 0.  1.
         11   -1    0    0    0    0 -0.00000000000E+00 -0.00000000000E+00 -0.45593999997E+02  0.45594000000E+02  0.51100000000E-03 0. -1.
         23    2    1    2    0    0  0.00000000000E+00  0.00000000000E+00  0.00000000000E+00  0.91188000000E+02  0.91188000000E+02 0.  0.
    9900012    2    3    3    0    0  0.21698991712E+02  0.14721426544E+02 -0.25849875780E+02  0.54367045115E+02  0.39999910949E+02 0.  0.
        -12    1    3    3    0    0 -0.21698991712E+02 -0.14721426544E+02  0.25849875780E+02  0.36820954885E+02  0.00000000000E+00 0.  1.
         11    1    4    4    0    0  0.17311344195E+01 -0.25230852291E+00 -0.70232472307E+01  0.72378510550E+01  0.51100000000E-03 0. -1.
        -11    1    4    4    0    0 -0.47235188078E+01  0.66350522295E+01  0.67767136276E+01  0.10595253459E+02  0.51100000000E-03 0.  1.
        -12    1    4    4    0    0  0.24691376101E+02  0.83386828370E+01 -0.25603342177E+02  0.36533940601E+02  0.00000000000E+00 0.  1.
</event>
<event>
 8    1  0.2971508E-007  0.9118800E+02  0.7816164E-02  0.1184000E+00
        -11   -1    0    0    0    0  0.00000000000E+00  0.00000000000E+00  0.45593999997E+02  0.45594000000E+02  0.51100000000E-03 0.  1.
         11   -1    0    0    0    0 -0.00000000000E+00 -0.00000000000E+00 -0.45593999997E+02  0.45594000000E+02  0.51100000000E-03 0. -1.
         23    2    1    2    0    0  0.00000000000E+00  0.00000000000E+00 -0.88817841970E-15  0.91188000000E+02  0.91188000000E+02 0.  0.
    9900012    2    3    3    0    0  0.34272489584E+02 -0.13186118045E+02  0.27023920758E+01  0.54367079665E+02  0.39999989712E+02 0.  0.
        -12    1    3    3    0    0 -0.34272489584E+02  0.13186118045E+02 -0.27023920758E+01  0.36820920335E+02  0.00000000000E+00 0.  1.
         11    1    4    4    0    0  0.91996868147E+01  0.29436032924E+00 -0.13187879187E+01  0.92983916527E+01  0.51100000000E-03 0. -1.
        -11    1    4    4    0    0  0.18644793208E+02 -0.17363195717E+02  0.16607370444E+02  0.30412392747E+02  0.51100000000E-03 0.  1.
         12    1    4    4    0    0  0.64280095608E+01  0.38827173427E+01 -0.12586190449E+02  0.14656295265E+02  0.00000000000E+00 0. -1.
</event>
<event>
 8    1  0.2971508E-007  0.9118800E+02  0.7816164E-02  0.1184000E+00
        -11   -1    0    0    0    0  0.00000000000E+00  0.00000000000E+00  0.45593999997E+02  0.45594000000E+02  0.51100000000E-03 0. -1.
         11   -1    0    0    0    0 -0.00000000000E+00 -0.00000000000E+00 -0.45593999997E+02  0.45594000000E+02  0.51100000000E-03 0.  1.
         23    2    1    2    0    0  0.00000000000E+00 -0.35527136788E-14 -0.35527136788E-14  0.91188000000E+02  0.91188000000E+02 0.  0.
    9900012    2    3    3    0    0  0.17288372305E+02  0.21080891185E+02  0.24748490307E+02  0.54367087972E+02  0.40000008649E+02 0.  0.
        -12    1    3    3    0    0 -0.17288372305E+02 -0.21080891185E+02 -0.24748490307E+02  0.36820912028E+02  0.00000000000E+00 0.  1.
         11    1    4    4    0    0  0.79919174744E+01 -0.41711570880E+01  0.12828212991E+02  0.15679041590E+02  0.51100000000E-03 0. -1.
        -11    1    4    4    0    0  0.24966456142E+01 -0.46992278893E+01 -0.91703463876E+00  0.53997161840E+01  0.51100000000E-03 0.  1.
         12    1    4    4    0    0  0.67998092165E+01  0.29951276163E+02  0.12837311955E+02  0.33288330198E+02  0.00000000000E+00 0. -1.
</event>
<event>
 8    1  0.2971508E-007  0.9118800E+02  0.7816164E-02  0.1184000E+00
        -11   -1    0    0    0    0  0.00000000000E+00  0.00000000000E+00  0.45593999997E+02  0.45594000000E+02  0.51100000000E-03 0.  1.
         11   -1    0    0    0    0 -0.00000000000E+00 -0.00000000000E+00 -0.45593999997E+02  0.45594000000E+02  0.51100000000E-03 0. -1.
         23    2    1    2    0    0 -0.22204460493E-15  0.00000000000E+00  0.00000000000E+00  0.91188000000E+02  0.91188000000E+02 0.  0.
    9900012    2    3    3    0    0 -0.11434854009E+01 -0.36577941537E+02  0.40652193127E+01  0.54367090532E+02  0.40000014487E+02 0.  0.
        -12    1    3    3    0    0  0.11434854009E+01  0.36577941537E+02 -0.40652193127E+01  0.36820909468E+02  0.00000000000E+00 0.  1.
         11    1    4    4    0    0 -0.10846302195E+02 -0.11463345828E+02 -0.16897969184E+01  0.15871546326E+02  0.51100000000E-03 0. -1.
        -11    1    4    4    0    0 -0.76677427198E+01 -0.17208571296E+02  0.12200194119E+01  0.18879026778E+02  0.51100000000E-03 0.  1.
        -12    1    4    4    0    0  0.17370559514E+02 -0.79060244133E+01  0.45349968193E+01  0.19616517428E+02  0.00000000000E+00 0.  1.
</event>
<event>
 8    1  0.2971508E-007  0.9118800E+02  0.7816164E-02  0.1184000E+00
        -11   -1    0    0    0    0  0.00000000000E+00  0.00000000000E+00  0.45593999997E+02  0.45594000000E+02  0.51100000000E-03 0.  1.
         11   -1    0    0    0    0 -0.00000000000E+00 -0.00000000000E+00 -0.45593999997E+02  0.45594000000E+02  0.51100000000E-03 0. -1.
         23    2    1    2    0    0  0.00000000000E+00  0.00000000000E+00  0.35527136788E-14  0.91188000000E+02  0.91188000000E+02 0.  0.
    9900012    2    3    3    0    0  0.14575321960E+02 -0.18496000171E+02  0.28306085591E+02  0.54367129369E+02  0.40000103022E+02 0.  0.
         12    1    3    3    0    0 -0.14575321960E+02  0.18496000171E+02 -0.28306085591E+02  0.36820870631E+02  0.00000000000E+00 0. -1.
         11    1    4    4    0    0 -0.34131957141E+01 -0.40106428014E+01 -0.28077571790E+01  0.59681371717E+01  0.51100000000E-03 0. -1.
        -11    1    4    4    0    0 -0.35714834586E+01 -0.12676265054E+02  0.20334338734E+02  0.24226607724E+02  0.51100000000E-03 0.  1.
         12    1    4    4    0    0  0.21560001133E+02 -0.18090923159E+01  0.10779504036E+02  0.24172384473E+02  0.00000000000E+00 0. -1.
</event>
<event>
 8    1  0.2971508E-007  0.9118800E+02  0.7816164E-02  0.1184000E+00
        -11   -1    0    0    0    0  0.00000000000E+00  0.00000000000E+00  0.45593999997E+02  0.45594000000E+02  0.51100000000E-03 0. -1.
         11   -1    0    0    0    0 -0.00000000000E+00 -0.00000000000E+00 -0.45593999997E+02  0.45594000000E+02  0.51100000000E-03 0.  1.
         23    2    1    2    0    0 -0.44408920985E-15  0.00000000000E+00  0.00000000000E+00  0.91188000000E+02  0.91188000000E+02 0.  0.
    9900012    2    3    3    0    0  0.23385023036E+01  0.31623885980E+02  0.18714668518E+02  0.54367114958E+02  0.40000070170E+02 0.  0.
        -12    1    3    3    0    0 -0.23385023036E+01 -0.31623885980E+02 -0.18714668518E+02  0.36820885042E+02  0.00000000000E+00 0.  1.
         11    1    4    4    0    0  0.20938526108E+01 -0.89353714623E+01  0.74301475842E+01  0.11808140214E+02  0.51100000000E-03 0.  1.
        -11    1    4    4    0    0  0.21027420268E+01  0.94601710938E+01  0.44483888722E+01  0.10663232389E+02  0.51100000000E-03 0. -1.
        -12    1    4    4    0    0 -0.18580923340E+01  0.31099086349E+02  0.68361320616E+01  0.31895742356E+02  0.00000000000E+00 0.  1.
</event>
<event>
 8    1  0.2971508E-007  0.9118800E+02  0.7816164E-02  0.1184000E+00
        -11   -1    0    0    0    0  0.00000000000E+00  0.00000000000E+00  0.45593999997E+02  0.45594000000E+02  0.51100000000E-03 0.  1.
         11   -1    0    0    0    0 -0.00000000000E+00 -0.00000000000E+00 -0.45593999997E+02  0.45594000000E+02  0.51100000000E-03 0. -1.
         23    2    1    2    0    0  0.00000000000E+00  0.00000000000E+00  0.00000000000E+00  0.91188000000E+02  0.91188000000E+02 0.  0.
    9900012    2    3    3    0    0  0.32793472788E+02  0.16196066127E+02 -0.42491899149E+01  0.54367081619E+02  0.39999994167E+02 0.  0.
         12    1    3    3    0    0 -0.32793472788E+02 -0.16196066127E+02  0.42491899149E+01  0.36820918381E+02  0.00000000000E+00 0. -1.
         11    1    4    4    0    0  0.25434151783E+02 -0.14603121831E+01 -0.61041685978E+01  0.26197127002E+02  0.51100000000E-03 0. -1.
        -11    1    4    4    0    0  0.12681570404E+02  0.41772928961E+01  0.28187526211E+01  0.13646148557E+02  0.51100000000E-03 0.  1.
         12    1    4    4    0    0 -0.53222493991E+01  0.13479085414E+02 -0.96377393826E+00  0.14523806060E+02  0.00000000000E+00 0. -1.
</event>
<event>
 8    1  0.2971508E-007  0.9118800E+02  0.7816164E-02  0.1184000E+00
        -11   -1    0    0    0    0  0.00000000000E+00  0.00000000000E+00  0.45593999997E+02  0.45594000000E+02  0.51100000000E-03 0. -1.
         11   -1    0    0    0    0 -0.00000000000E+00 -0.00000000000E+00 -0.45593999997E+02  0.45594000000E+02  0.51100000000E-03 0.  1.
         23    2    1    2    0    0  0.00000000000E+00  0.71054273576E-14 -0.88817841970E-15  0.91188000000E+02  0.91188000000E+02 0.  0.
    9900012    2    3    3    0    0  0.25134475176E+02  0.26279726784E+02  0.57803934841E+01  0.54367097906E+02  0.40000031296E+02 0.  0.
        -12    1    3    3    0    0 -0.25134475176E+02 -0.26279726784E+02 -0.57803934841E+01  0.36820902094E+02  0.00000000000E+00 0.  1.
         11    1    4    4    0    0  0.16168816881E+02  0.18575021183E+02  0.41540039728E+01  0.24974342845E+02  0.51100000000E-03 0. -1.
        -11    1    4    4    0    0  0.11628538007E+02 -0.49460267407E+01 -0.64110913813E+01  0.14169974230E+02  0.51100000000E-03 0.  1.
        -12    1    4    4    0    0 -0.26628797129E+01  0.12650732341E+02  0.80374808926E+01  0.15222780831E+02  0.00000000000E+00 0.  1.
</event>
<event>
 8    1  0.2971508E-007  0.9118800E+02  0.7816164E-02  0.1184000E+00
        -11   -1    0    0    0    0  0.00000000000E+00  0.00000000000E+00  0.45593999997E+02  0.45594000000E+02  0.51100000000E-03 0.  1.
         11   -1    0    0    0    0 -0.00000000000E+00 -0.00000000000E+00 -0.45593999997E+02  0.45594000000E+02  0.51100000000E-03 0. -1.
         23    2    1    2    0    0  0.00000000000E+00  0.44408920985E-15 -0.17763568394E-14  0.91188000000E+02  0.91188000000E+02 0.  0.
    9900012    2    3    3    0    0  0.35134354785E+02 -0.38079068413E+01 -0.10337152420E+02  0.54367085279E+02  0.40000002512E+02 0.  0.
        -12    1    3    3    0    0 -0.35134354785E+02  0.38079068413E+01  0.10337152420E+02  0.36820914721E+02  0.00000000000E+00 0.  1.
         11    1    4    4    0    0  0.12995171594E+02  0.14960032770E+01 -0.18868291895E+02  0.22959201855E+02  0.51100000000E-03 0. -1.
        -11    1    4    4    0    0  0.16660815622E+02  0.40771481724E+01 -0.67857153676E+00  0.17165849061E+02  0.51100000000E-03 0.  1.
        -12    1    4    4    0    0  0.54783675701E+01 -0.93810582907E+01  0.92097110112E+01  0.14242034363E+02  0.00000000000E+00 0.  1.
</event>
<event>
 8    1  0.2971508E-007  0.9118800E+02  0.7816164E-02  0.1184000E+00
        -11   -1    0    0    0    0  0.00000000000E+00  0.00000000000E+00  0.45593999997E+02  0.45594000000E+02  0.51100000000E-03 0.  1.
         11   -1    0    0    0    0 -0.00000000000E+00 -0.00000000000E+00 -0.45593999997E+02  0.45594000000E+02  0.51100000000E-03 0. -1.
         23    2    1    2    0    0  0.00000000000E+00  0.00000000000E+00  0.35527136788E-14  0.91188000000E+02  0.91188000000E+02 0.  0.
    9900012    2    3    3    0    0  0.20104818231E+02  0.10603121225E+02  0.28968044279E+02  0.54367116182E+02  0.40000072959E+02 0.  0.
         12    1    3    3    0    0 -0.20104818231E+02 -0.10603121225E+02 -0.28968044279E+02  0.36820883818E+02  0.00000000000E+00 0. -1.
         11    1    4    4    0    0 -0.40257063380E+01 -0.27595619526E-02  0.19237204869E+01  0.44617283543E+01  0.51100000000E-03 0. -1.
        -11    1    4    4    0    0  0.75961838616E+01  0.17150641011E+02  0.26042685998E+02  0.32094672309E+02  0.51100000000E-03 0.  1.
        -12    1    4    4    0    0  0.16534340707E+02 -0.65447602234E+01  0.10016377937E+01  0.17810715518E+02  0.00000000000E+00 0.  1.
</event>
<event>
 8    1  0.2971508E-007  0.9118800E+02  0.7816164E-02  0.1184000E+00
        -11   -1    0    0    0    0  0.00000000000E+00  0.00000000000E+00  0.45593999997E+02  0.45594000000E+02  0.51100000000E-03 0. -1.
         11   -1    0    0    0    0 -0.00000000000E+00 -0.00000000000E+00 -0.45593999997E+02  0.45594000000E+02  0.51100000000E-03 0.  1.
         23    2    1    2    0    0 -0.44408920985E-15  0.00000000000E+00  0.00000000000E+00  0.91188000000E+02  0.91188000000E+02 0.  0.
    9900012    2    3    3    0    0  0.25325669103E+01  0.16954499730E+02  0.32586970564E+02  0.54367087371E+02  0.40000007280E+02 0.  0.
        -12    1    3    3    0    0 -0.25325669103E+01 -0.16954499730E+02 -0.32586970564E+02  0.36820912629E+02  0.00000000000E+00 0.  1.
         11    1    4    4    0    0  0.83803519946E+01  0.76863706228E+01  0.11144150349E+02  0.15921767495E+02  0.51100000000E-03 0. -1.
        -11    1    4    4    0    0 -0.39053577018E+01  0.16589138095E+02  0.24855951747E+02  0.30137512489E+02  0.51100000000E-03 0.  1.
        -12    1    4    4    0    0 -0.19424273825E+01 -0.73210089876E+01 -0.34131315316E+01  0.83078073873E+01  0.00000000000E+00 0.  1.
</event>
<event>
 8    1  0.2971508E-007  0.9118800E+02  0.7816164E-02  0.1184000E+00
        -11   -1    0    0    0    0  0.00000000000E+00  0.00000000000E+00  0.45593999997E+02  0.45594000000E+02  0.51100000000E-03 0.  1.
         11   -1    0    0    0    0 -0.00000000000E+00 -0.00000000000E+00 -0.45593999997E+02  0.45594000000E+02  0.51100000000E-03 0. -1.
         23    2    1    2    0    0  0.35527136788E-14  0.44408920985E-15  0.00000000000E+00  0.91188000000E+02  0.91188000000E+02 0.  0.
    9900012    2    3    3    0    0 -0.31583521581E+02 -0.19652630814E+01  0.18825489348E+02  0.54367080082E+02  0.39999990662E+02 0.  0.
         12    1    3    3    0    0  0.31583521581E+02  0.19652630814E+01 -0.18825489348E+02  0.36820919918E+02  0.00000000000E+00 0. -1.
         11    1    4    4    0    0 -0.19851791215E+02  0.59618203705E+01  0.17471504504E+02  0.27108861770E+02  0.51100000000E-03 0. -1.
        -11    1    4    4    0    0 -0.13545822642E+02  0.31617328698E+01  0.59361271011E+01  0.15123606416E+02  0.51100000000E-03 0.  1.
         12    1    4    4    0    0  0.18140922760E+01 -0.11088816322E+02 -0.45821422575E+01  0.12134611896E+02  0.00000000000E+00 0. -1.
</event>
<event>
 8    1  0.2971508E-007  0.9118800E+02  0.7816164E-02  0.1184000E+00
        -11   -1    0    0    0    0  0.00000000000E+00  0.00000000000E+00  0.45593999997E+02  0.45594000000E+02  0.51100000000E-03 0.  1.
         11   -1    0    0    0    0 -0.00000000000E+00 -0.00000000000E+00 -0.45593999997E+02  0.45594000000E+02  0.51100000000E-03 0. -1.
         23    2    1    2    0    0 -0.35527136788E-14  0.71054273576E-14  0.87430063189E-15  0.91188000000E+02  0.91188000000E+02 0.  0.
    9900012    2    3    3    0    0 -0.16892548318E+02  0.32717190750E+02  0.88218362293E-01  0.54367074676E+02  0.39999978338E+02 0.  0.
         12    1    3    3    0    0  0.16892548318E+02 -0.32717190750E+02 -0.88218362293E-01  0.36820925324E+02  0.00000000000E+00 0. -1.
         11    1    4    4    0    0 -0.16800885746E+02  0.27405016466E+02 -0.76907258254E+01  0.33052260941E+02  0.51100000000E-03 0. -1.
        -11    1    4    4    0    0 -0.74798397021E+01 -0.14492946770E+01 -0.13803167323E+01  0.77429795022E+01  0.51100000000E-03 0.  1.
        -12    1    4    4    0    0  0.73881771301E+01  0.67614689614E+01  0.91592609199E+01  0.13571834232E+02  0.00000000000E+00 0.  1.
</event>
<event>
 8    1  0.2971508E-007  0.9118800E+02  0.7816164E-02  0.1184000E+00
        -11   -1    0    0    0    0  0.00000000000E+00  0.00000000000E+00  0.45593999997E+02  0.45594000000E+02  0.51100000000E-03 0.  1.
         11   -1    0    0    0    0 -0.00000000000E+00 -0.00000000000E+00 -0.45593999997E+02  0.45594000000E+02  0.51100000000E-03 0. -1.
         23    2    1    2    0    0 -0.22204460493E-15  0.00000000000E+00  0.00000000000E+00  0.91188000000E+02  0.91188000000E+02 0.  0.
    9900012    2    3    3    0    0 -0.14046228221E+01  0.19226403191E+02 -0.31371180804E+02  0.54367101994E+02  0.40000040615E+02 0.  0.
        -12    1    3    3    0    0  0.14046228221E+01 -0.19226403191E+02  0.31371180804E+02  0.36820898006E+02  0.00000000000E+00 0.  1.
         11    1    4    4    0    0 -0.41506711392E+01 -0.82405034781E+01  0.30608474818E+01  0.97212528023E+01  0.51100000000E-03 0.  1.
        -11    1    4    4    0    0  0.13492463797E+01  0.12411561486E+02 -0.10380174647E+02  0.16236235717E+02  0.51100000000E-03 0. -1.
        -12    1    4    4    0    0  0.13968019374E+01  0.15055345184E+02 -0.24051853639E+02  0.28409613474E+02  0.00000000000E+00 0.  1.
</event>
<event>
 8    1  0.2971508E-007  0.9118800E+02  0.7816164E-02  0.1184000E+00
        -11   -1    0    0    0    0  0.00000000000E+00  0.00000000000E+00  0.45593999997E+02  0.45594000000E+02  0.51100000000E-03 0.  1.
         11   -1    0    0    0    0 -0.00000000000E+00 -0.00000000000E+00 -0.45593999997E+02  0.45594000000E+02  0.51100000000E-03 0. -1.
         23    2    1    2    0    0  0.00000000000E+00  0.00000000000E+00  0.00000000000E+00  0.91188000000E+02  0.91188000000E+02 0.  0.
    9900012    2    3    3    0    0 -0.85217164188E+01  0.10794330499E+02  0.34156131756E+02  0.54367101611E+02  0.40000039742E+02 0.  0.
         12    1    3    3    0    0  0.85217164188E+01 -0.10794330499E+02 -0.34156131756E+02  0.36820898389E+02  0.00000000000E+00 0. -1.
         11    1    4    4    0    0 -0.29249679336E+00  0.76188309662E+01  0.17523203461E+02  0.19110070629E+02  0.51100000000E-03 0.  1.
        -11    1    4    4    0    0  0.61661561708E+01 -0.32988883203E+01 -0.49141361918E+01  0.85470978025E+01  0.51100000000E-03 0. -1.
         12    1    4    4    0    0 -0.14395375796E+02  0.64743878532E+01  0.21547064487E+02  0.26709933179E+02  0.00000000000E+00 0. -1.
</event>
<event>
 8    1  0.2971508E-007  0.9118800E+02  0.7816164E-02  0.1184000E+00
        -11   -1    0    0    0    0  0.00000000000E+00  0.00000000000E+00  0.45593999997E+02  0.45594000000E+02  0.51100000000E-03 0.  1.
         11   -1    0    0    0    0 -0.00000000000E+00 -0.00000000000E+00 -0.45593999997E+02  0.45594000000E+02  0.51100000000E-03 0. -1.
         23    2    1    2    0    0  0.71054273576E-14 -0.35527136788E-14  0.35527136788E-14  0.91188000000E+02  0.91188000000E+02 0.  0.
    9900012    2    3    3    0    0 -0.26539287316E+02  0.19417472530E+02 -0.16565277010E+02  0.54367076422E+02  0.39999982318E+02 0.  0.
        -12    1    3    3    0    0  0.26539287316E+02 -0.19417472530E+02  0.16565277010E+02  0.36820923578E+02  0.00000000000E+00 0.  1.
         11    1    4    4    0    0  0.52294657492E+01  0.15867136280E+02 -0.19788891969E+01  0.16823475517E+02  0.51100000000E-03 0.  1.
        -11    1    4    4    0    0 -0.31469188406E+02  0.87807616354E+00 -0.14912676506E+02  0.34834878463E+02  0.51100000000E-03 0. -1.
         12    1    4    4    0    0 -0.29956465979E+00  0.26722600867E+01  0.32628869264E+00  0.27087224419E+01  0.00000000000E+00 0. -1.
</event>
<event>
 8    1  0.2971508E-007  0.9118800E+02  0.7816164E-02  0.1184000E+00
        -11   -1    0    0    0    0  0.00000000000E+00  0.00000000000E+00  0.45593999997E+02  0.45594000000E+02  0.51100000000E-03 0. -1.
         11   -1    0    0    0    0 -0.00000000000E+00 -0.00000000000E+00 -0.45593999997E+02  0.45594000000E+02  0.51100000000E-03 0.  1.
         23    2    1    2    0    0  0.00000000000E+00  0.00000000000E+00 -0.35527136788E-14  0.91188000000E+02  0.91188000000E+02 0.  0.
    9900012    2    3    3    0    0 -0.61468459576E+01  0.20364376715E+02  0.30054775370E+02  0.54367067410E+02  0.39999961775E+02 0.  0.
        -12    1    3    3    0    0  0.61468459576E+01 -0.20364376715E+02 -0.30054775370E+02  0.36820932590E+02  0.00000000000E+00 0.  1.
         11    1    4    4    0    0 -0.12363325723E+02  0.16013730602E+02  0.26494661352E+01  0.20403702159E+02  0.51100000000E-03 0. -1.
        -11    1    4    4    0    0  0.85030368896E+01 -0.53676325693E+01  0.14550948110E+02  0.17687374223E+02  0.51100000000E-03 0.  1.
        -12    1    4    4    0    0 -0.22865571247E+01  0.97182786827E+01  0.12854361125E+02  0.16275991029E+02  0.00000000000E+00 0.  1.
</event>
<event>
 8    1  0.2971508E-007  0.9118800E+02  0.7816164E-02  0.1184000E+00
        -11   -1    0    0    0    0  0.00000000000E+00  0.00000000000E+00  0.45593999997E+02  0.45594000000E+02  0.51100000000E-03 0. -1.
         11   -1    0    0    0    0 -0.00000000000E+00 -0.00000000000E+00 -0.45593999997E+02  0.45594000000E+02  0.51100000000E-03 0.  1.
         23    2    1    2    0    0  0.17763568394E-14  0.00000000000E+00  0.00000000000E+00  0.91188000000E+02  0.91188000000E+02 0.  0.
    9900012    2    3    3    0    0  0.15763550559E+02 -0.24408201222E+02  0.22617020740E+02  0.54367089633E+02  0.40000012435E+02 0.  0.
        -12    1    3    3    0    0 -0.15763550559E+02  0.24408201222E+02 -0.22617020740E+02  0.36820910367E+02  0.00000000000E+00 0.  1.
         11    1    4    4    0    0 -0.35280194503E+01  0.86381344300E+00  0.44572681821E+01  0.57498117199E+01  0.51100000000E-03 0. -1.
        -11    1    4    4    0    0 -0.69073242306E+01 -0.15622074006E+02  0.84554780775E+01  0.19059261110E+02  0.51100000000E-03 0.  1.
         12    1    4    4    0    0  0.26198894240E+02 -0.96499406589E+01  0.97042744806E+01  0.29558016802E+02  0.00000000000E+00 0. -1.
</event>
<event>
 8    1  0.2971508E-007  0.9118800E+02  0.7816164E-02  0.1184000E+00
        -11   -1    0    0    0    0  0.00000000000E+00  0.00000000000E+00  0.45593999997E+02  0.45594000000E+02  0.51100000000E-03 0. -1.
         11   -1    0    0    0    0 -0.00000000000E+00 -0.00000000000E+00 -0.45593999997E+02  0.45594000000E+02  0.51100000000E-03 0.  1.
         23    2    1    2    0    0  0.00000000000E+00 -0.17763568394E-14  0.00000000000E+00  0.91188000000E+02  0.91188000000E+02 0.  0.
    9900012    2    3    3    0    0  0.95468366673E+01 -0.10633896945E+02  0.33934609601E+02  0.54367087689E+02  0.40000008006E+02 0.  0.
        -12    1    3    3    0    0 -0.95468366673E+01  0.10633896945E+02 -0.33934609601E+02  0.36820912311E+02  0.00000000000E+00 0.  1.
         11    1    4    4    0    0  0.77814455080E+00  0.91349675794E+01  0.13717775332E+02  0.16499409139E+02  0.51100000000E-03 0. -1.
        -11    1    4    4    0    0  0.53395605528E+01 -0.24610556405E+02  0.12445931211E+02  0.28090774240E+02  0.51100000000E-03 0.  1.
         12    1    4    4    0    0  0.34291315637E+01  0.48416918802E+01  0.77709030581E+01  0.97769043098E+01  0.00000000000E+00 0. -1.
</event>
<event>
 8    1  0.2971508E-007  0.9118800E+02  0.7816164E-02  0.1184000E+00
        -11   -1    0    0    0    0  0.00000000000E+00  0.00000000000E+00  0.45593999997E+02  0.45594000000E+02  0.51100000000E-03 0.  1.
         11   -1    0    0    0    0 -0.00000000000E+00 -0.00000000000E+00 -0.45593999997E+02  0.45594000000E+02  0.51100000000E-03 0. -1.
         23    2    1    2    0    0 -0.88817841970E-15  0.00000000000E+00  0.00000000000E+00  0.91188000000E+02  0.91188000000E+02 0.  0.
    9900012    2    3    3    0    0  0.76718688919E+01  0.13585728682E+02 -0.33351901635E+02  0.54367096442E+02  0.40000027960E+02 0.  0.
        -12    1    3    3    0    0 -0.76718688919E+01 -0.13585728682E+02  0.33351901635E+02  0.36820903558E+02  0.00000000000E+00 0.  1.
         11    1    4    4    0    0 -0.86450173535E+01  0.23399803517E+01  0.12668767283E+01  0.90452645066E+01  0.51100000000E-03 0.  1.
        -11    1    4    4    0    0  0.54507217025E+01 -0.61146779263E+01 -0.14251173842E+02  0.16437627851E+02  0.51100000000E-03 0. -1.
         12    1    4    4    0    0  0.10866164543E+02  0.17360426257E+02 -0.20367604521E+02  0.28884204085E+02  0.00000000000E+00 0. -1.
</event>
<event>
 8    1  0.2971508E-007  0.9118800E+02  0.7816164E-02  0.1184000E+00
        -11   -1    0    0    0    0  0.00000000000E+00  0.00000000000E+00  0.45593999997E+02  0.45594000000E+02  0.51100000000E-03 0. -1.
         11   -1    0    0    0    0 -0.00000000000E+00 -0.00000000000E+00 -0.45593999997E+02  0.45594000000E+02  0.51100000000E-03 0.  1.
         23    2    1    2    0    0 -0.35527136788E-14  0.13322676296E-14  0.00000000000E+00  0.91188000000E+02  0.91188000000E+02 0.  0.
    9900012    2    3    3    0    0 -0.24002781310E+02  0.99014074365E+00  0.27904407162E+02  0.54367220156E+02  0.40000309987E+02 0.  0.
        -12    1    3    3    0    0  0.24002781310E+02 -0.99014074365E+00 -0.27904407162E+02  0.36820779844E+02  0.00000000000E+00 0.  1.
         11    1    4    4    0    0 -0.14092413316E+02  0.29739328136E+01  0.18211118783E+02  0.23218209169E+02  0.51100000000E-03 0. -1.
        -11    1    4    4    0    0  0.66381630139E+01  0.77854607151E+01  0.48955679482E+01  0.11342186409E+02  0.51100000000E-03 0.  1.
         12    1    4    4    0    0 -0.16548531008E+02 -0.97692527850E+01  0.47977204309E+01  0.19806824577E+02  0.00000000000E+00 0. -1.
</event>
<event>
 8    1  0.2971508E-007  0.9118800E+02  0.7816164E-02  0.1184000E+00
        -11   -1    0    0    0    0  0.00000000000E+00  0.00000000000E+00  0.45593999997E+02  0.45594000000E+02  0.51100000000E-03 0. -1.
         11   -1    0    0    0    0 -0.00000000000E+00 -0.00000000000E+00 -0.45593999997E+02  0.45594000000E+02  0.51100000000E-03 0.  1.
         23    2    1    2    0    0  0.00000000000E+00 -0.71054273576E-14  0.00000000000E+00  0.91188000000E+02  0.91188000000E+02 0.  0.
    9900012    2    3    3    0    0 -0.12869357243E+02  0.24736785572E+02  0.24046842205E+02  0.54367088329E+02  0.40000009463E+02 0.  0.
         12    1    3    3    0    0  0.12869357243E+02 -0.24736785572E+02 -0.24046842205E+02  0.36820911671E+02  0.00000000000E+00 0. -1.
         11    1    4    4    0    0 -0.14359569606E+02  0.12760746819E+02  0.20050160374E+02  0.27767657984E+02  0.51100000000E-03 0. -1.
        -11    1    4    4    0    0  0.95888746948E+01  0.13246699546E+02 -0.19543414057E+01  0.16469396387E+02  0.51100000000E-03 0.  1.
         12    1    4    4    0    0 -0.80986623319E+01 -0.12706607927E+01  0.59510232364E+01  0.10130033957E+02  0.00000000000E+00 0. -1.
</event>
<event>
 8    1  0.2971508E-007  0.9118800E+02  0.7816164E-02  0.1184000E+00
        -11   -1    0    0    0    0  0.00000000000E+00  0.00000000000E+00  0.45593999997E+02  0.45594000000E+02  0.51100000000E-03 0.  1.
         11   -1    0    0    0    0 -0.00000000000E+00 -0.00000000000E+00 -0.45593999997E+02  0.45594000000E+02  0.51100000000E-03 0. -1.
         23    2    1    2    0    0  0.00000000000E+00 -0.71054273576E-14 -0.17763568394E-14  0.91188000000E+02  0.91188000000E+02 0.  0.
    9900012    2    3    3    0    0 -0.93858610556E+01 -0.34507675186E+02 -0.87695314656E+01  0.54367099459E+02  0.40000034837E+02 0.  0.
        -12    1    3    3    0    0  0.93858610556E+01  0.34507675186E+02  0.87695314656E+01  0.36820900541E+02  0.00000000000E+00 0.  1.
         11    1    4    4    0    0  0.94428563593E+00 -0.23723295255E+02 -0.16630101865E+01  0.23800252442E+02  0.51100000000E-03 0. -1.
        -11    1    4    4    0    0 -0.14443302052E+02 -0.13600961498E+02 -0.12320190776E+02  0.23353420067E+02  0.51100000000E-03 0.  1.
        -12    1    4    4    0    0  0.41131553606E+01  0.28165815672E+01  0.52136694965E+01  0.72134269501E+01  0.00000000000E+00 0.  1.
</event>
<event>
 8    1  0.2971508E-007  0.9118800E+02  0.7816164E-02  0.1184000E+00
        -11   -1    0    0    0    0  0.00000000000E+00  0.00000000000E+00  0.45593999997E+02  0.45594000000E+02  0.51100000000E-03 0. -1.
         11   -1    0    0    0    0 -0.00000000000E+00 -0.00000000000E+00 -0.45593999997E+02  0.45594000000E+02  0.51100000000E-03 0.  1.
         23    2    1    2    0    0  0.35527136788E-14 -0.35527136788E-14  0.00000000000E+00  0.91188000000E+02  0.91188000000E+02 0.  0.
    9900012    2    3    3    0    0  0.19927734894E+02  0.28826842407E+02  0.11299463992E+02  0.54367090890E+02  0.40000015303E+02 0.  0.
        -12    1    3    3    0    0 -0.19927734894E+02 -0.28826842407E+02 -0.11299463992E+02  0.36820909110E+02  0.00000000000E+00 0.  1.
         11    1    4    4    0    0  0.19476860153E+02  0.68235835513E+01  0.30893116785E+01  0.20867515923E+02  0.51100000000E-03 0. -1.
        -11    1    4    4    0    0 -0.66462439296E+01 -0.90285187652E+00 -0.26021302899E+01  0.71943576634E+01  0.51100000000E-03 0.  1.
         12    1    4    4    0    0  0.70971186704E+01  0.22906110732E+02  0.10812282604E+02  0.26305217304E+02  0.00000000000E+00 0. -1.
</event>
<event>
 8    1  0.2971508E-007  0.9118800E+02  0.7816164E-02  0.1184000E+00
        -11   -1    0    0    0    0  0.00000000000E+00  0.00000000000E+00  0.45593999997E+02  0.45594000000E+02  0.51100000000E-03 0.  1.
         11   -1    0    0    0    0 -0.00000000000E+00 -0.00000000000E+00 -0.45593999997E+02  0.45594000000E+02  0.51100000000E-03 0. -1.
         23    2    1    2    0    0  0.88817841970E-15  0.00000000000E+00 -0.35527136788E-14  0.91188000000E+02  0.91188000000E+02 0.  0.
    9900012    2    3    3    0    0 -0.54606229205E+01 -0.32396585351E+02 -0.16625988732E+02  0.54367073254E+02  0.39999975098E+02 0.  0.
        -12    1    3    3    0    0  0.54606229205E+01  0.32396585351E+02  0.16625988732E+02  0.36820926746E+02  0.00000000000E+00 0.  1.
         11    1    4    4    0    0  0.13827100000E+02 -0.62087255485E+00 -0.74603760000E+00  0.13861123673E+02  0.51100000000E-03 0. -1.
        -11    1    4    4    0    0 -0.18900102834E+01 -0.45513997860E+01 -0.15911920408E+01  0.51787325916E+01  0.51100000000E-03 0.  1.
        -12    1    4    4    0    0 -0.17397712637E+02 -0.27224313010E+02 -0.14288759091E+02  0.35327216990E+02  0.00000000000E+00 0.  1.
</event>
<event>
 8    1  0.2971508E-007  0.9118800E+02  0.7816164E-02  0.1184000E+00
        -11   -1    0    0    0    0  0.00000000000E+00  0.00000000000E+00  0.45593999997E+02  0.45594000000E+02  0.51100000000E-03 0.  1.
         11   -1    0    0    0    0 -0.00000000000E+00 -0.00000000000E+00 -0.45593999997E+02  0.45594000000E+02  0.51100000000E-03 0. -1.
         23    2    1    2    0    0  0.00000000000E+00  0.22204460493E-15  0.71054273576E-14  0.91188000000E+02  0.91188000000E+02 0.  0.
    9900012    2    3    3    0    0  0.16386699584E+02 -0.96658511832E+00 -0.32959412002E+02  0.54367067780E+02  0.39999962618E+02 0.  0.
        -12    1    3    3    0    0 -0.16386699584E+02  0.96658511832E+00  0.32959412002E+02  0.36820932220E+02  0.00000000000E+00 0.  1.
         11    1    4    4    0    0  0.10892099137E+02  0.39883456134E+01 -0.32643800726E+01  0.12049933687E+02  0.51100000000E-03 0. -1.
        -11    1    4    4    0    0  0.13576143340E+02  0.67764092386E+01 -0.10668355915E+02  0.18548455686E+02  0.51100000000E-03 0.  1.
         12    1    4    4    0    0 -0.80815428929E+01 -0.11731339970E+02 -0.19026676014E+02  0.23768678406E+02  0.00000000000E+00 0. -1.
</event>
<event>
 8    1  0.2971508E-007  0.9118800E+02  0.7816164E-02  0.1184000E+00
        -11   -1    0    0    0    0  0.00000000000E+00  0.00000000000E+00  0.45593999997E+02  0.45594000000E+02  0.51100000000E-03 0. -1.
         11   -1    0    0    0    0 -0.00000000000E+00 -0.00000000000E+00 -0.45593999997E+02  0.45594000000E+02  0.51100000000E-03 0.  1.
         23    2    1    2    0    0  0.35527136788E-14 -0.11102230246E-15  0.35527136788E-14  0.91188000000E+02  0.91188000000E+02 0.  0.
    9900012    2    3    3    0    0 -0.23640222638E+02  0.83534372006E+00 -0.28217404174E+02  0.54367084425E+02  0.40000000563E+02 0.  0.
         12    1    3    3    0    0  0.23640222638E+02 -0.83534372006E+00  0.28217404174E+02  0.36820915575E+02  0.00000000000E+00 0. -1.
         11    1    4    4    0    0 -0.18573615914E+02 -0.19961952186E+01 -0.11603994208E+02  0.21991286577E+02  0.51100000000E-03 0. -1.
        -11    1    4    4    0    0 -0.10382472758E+02 -0.93366860988E+01 -0.11700663509E+02  0.18217436008E+02  0.51100000000E-03 0.  1.
         12    1    4    4    0    0  0.53158660339E+01  0.12168225038E+02 -0.49127464568E+01  0.14158361840E+02  0.00000000000E+00 0. -1.
</event>
<event>
 8    1  0.2971508E-007  0.9118800E+02  0.7816164E-02  0.1184000E+00
        -11   -1    0    0    0    0  0.00000000000E+00  0.00000000000E+00  0.45593999997E+02  0.45594000000E+02  0.51100000000E-03 0.  1.
         11   -1    0    0    0    0 -0.00000000000E+00 -0.00000000000E+00 -0.45593999997E+02  0.45594000000E+02  0.51100000000E-03 0. -1.
         23    2    1    2    0    0 -0.35527136788E-14 -0.44408920985E-14 -0.35527136788E-14  0.91188000000E+02  0.91188000000E+02 0.  0.
    9900012    2    3    3    0    0  0.27831510830E+02  0.32100846143E+01  0.23893163907E+02  0.54367069542E+02  0.39999966636E+02 0.  0.
         12    1    3    3    0    0 -0.27831510830E+02 -0.32100846143E+01 -0.23893163907E+02  0.36820930458E+02  0.00000000000E+00 0. -1.
         11    1    4    4    0    0  0.27660729439E+01  0.58693576264E+01 -0.64077123852E+00  0.65200541807E+01  0.51100000000E-03 0. -1.
        -11    1    4    4    0    0  0.14968722586E+02  0.13024500394E+02  0.20946721081E+02  0.28852476335E+02  0.51100000000E-03 0.  1.
         12    1    4    4    0    0  0.10096715300E+02 -0.15683773406E+02  0.35872140640E+01  0.18994539026E+02  0.00000000000E+00 0. -1.
</event>
<event>
 8    1  0.2971508E-007  0.9118800E+02  0.7816164E-02  0.1184000E+00
        -11   -1    0    0    0    0  0.00000000000E+00  0.00000000000E+00  0.45593999997E+02  0.45594000000E+02  0.51100000000E-03 0.  1.
         11   -1    0    0    0    0 -0.00000000000E+00 -0.00000000000E+00 -0.45593999997E+02  0.45594000000E+02  0.51100000000E-03 0. -1.
         23    2    1    2    0    0  0.88817841970E-15  0.00000000000E+00  0.35527136788E-14  0.91188000000E+02  0.91188000000E+02 0.  0.
    9900012    2    3    3    0    0 -0.53665227516E+01 -0.31772167054E+02  0.17818808901E+02  0.54367080451E+02  0.39999991504E+02 0.  0.
         12    1    3    3    0    0  0.53665227516E+01  0.31772167054E+02 -0.17818808901E+02  0.36820919549E+02  0.00000000000E+00 0. -1.
         11    1    4    4    0    0 -0.16114979566E+02 -0.24332946968E+02  0.17542212002E+02  0.34051638385E+02  0.51100000000E-03 0. -1.
        -11    1    4    4    0    0  0.32433382371E+01 -0.63471257197E+01  0.71384913287E+01  0.10087780060E+02  0.51100000000E-03 0.  1.
         12    1    4    4    0    0  0.75051185769E+01 -0.10920943664E+01 -0.68618944290E+01  0.10227662006E+02  0.00000000000E+00 0. -1.
</event>
<event>
 8    1  0.2971508E-007  0.9118800E+02  0.7816164E-02  0.1184000E+00
        -11   -1    0    0    0    0  0.00000000000E+00  0.00000000000E+00  0.45593999997E+02  0.45594000000E+02  0.51100000000E-03 0. -1.
         11   -1    0    0    0    0 -0.00000000000E+00 -0.00000000000E+00 -0.45593999997E+02  0.45594000000E+02  0.51100000000E-03 0.  1.
         23    2    1    2    0    0  0.00000000000E+00  0.44408920985E-15  0.00000000000E+00  0.91188000000E+02  0.91188000000E+02 0.  0.
    9900012    2    3    3    0    0  0.10786634504E+02 -0.12298040884E+01 -0.35184003590E+02  0.54367109046E+02  0.40000056692E+02 0.  0.
         12    1    3    3    0    0 -0.10786634504E+02  0.12298040884E+01  0.35184003590E+02  0.36820890954E+02  0.00000000000E+00 0. -1.
         11    1    4    4    0    0  0.14621767435E+02 -0.12341178342E+01 -0.74719175134E+01  0.16466592888E+02  0.51100000000E-03 0. -1.
        -11    1    4    4    0    0  0.76628122163E+01  0.78725393156E+01 -0.17355763068E+02  0.20540644544E+02  0.51100000000E-03 0.  1.
         12    1    4    4    0    0 -0.11497945147E+02 -0.78682255697E+01 -0.10356323008E+02  0.17359871614E+02  0.00000000000E+00 0. -1.
</event>
<event>
 8    1  0.2971508E-007  0.9118800E+02  0.7816164E-02  0.1184000E+00
        -11   -1    0    0    0    0  0.00000000000E+00  0.00000000000E+00  0.45593999997E+02  0.45594000000E+02  0.51100000000E-03 0. -1.
         11   -1    0    0    0    0 -0.00000000000E+00 -0.00000000000E+00 -0.45593999997E+02  0.45594000000E+02  0.51100000000E-03 0.  1.
         23    2    1    2    0    0  0.00000000000E+00  0.35527136788E-14  0.00000000000E+00  0.91188000000E+02  0.91188000000E+02 0.  0.
    9900012    2    3    3    0    0  0.14369182368E+02 -0.24199959034E+02 -0.23741671713E+02  0.54367103828E+02  0.40000044797E+02 0.  0.
         12    1    3    3    0    0 -0.14369182368E+02  0.24199959034E+02  0.23741671713E+02  0.36820896172E+02  0.00000000000E+00 0. -1.
         11    1    4    4    0    0  0.58755719135E+01 -0.22108934187E+01 -0.14570547816E+02  0.15865410771E+02  0.51100000000E-03 0. -1.
        -11    1    4    4    0    0  0.51738749763E+01  0.67195292381E+01 -0.16582661761E+01  0.86412326912E+01  0.51100000000E-03 0.  1.
        -12    1    4    4    0    0  0.33197354779E+01 -0.28708594854E+02 -0.75128577212E+01  0.29860460366E+02  0.00000000000E+00 0.  1.
</event>
<event>
 8    1  0.2971508E-007  0.9118800E+02  0.7816164E-02  0.1184000E+00
        -11   -1    0    0    0    0  0.00000000000E+00  0.00000000000E+00  0.45593999997E+02  0.45594000000E+02  0.51100000000E-03 0. -1.
         11   -1    0    0    0    0 -0.00000000000E+00 -0.00000000000E+00 -0.45593999997E+02  0.45594000000E+02  0.51100000000E-03 0.  1.
         23    2    1    2    0    0  0.00000000000E+00  0.00000000000E+00  0.00000000000E+00  0.91188000000E+02  0.91188000000E+02 0.  0.
    9900012    2    3    3    0    0  0.16359099512E+02 -0.31680819458E+02 -0.91915641908E+01  0.54367091393E+02  0.40000016449E+02 0.  0.
         12    1    3    3    0    0 -0.16359099512E+02  0.31680819458E+02  0.91915641908E+01  0.36820908607E+02  0.00000000000E+00 0. -1.
         11    1    4    4    0    0 -0.95899462321E+01 -0.15005712048E+02 -0.10814428063E+02  0.20834834230E+02  0.51100000000E-03 0.  1.
        -11    1    4    4    0    0  0.21536913356E+02 -0.12359071832E+02 -0.40379372851E+01  0.25157309697E+02  0.51100000000E-03 0. -1.
         12    1    4    4    0    0  0.44121323880E+01 -0.43160355780E+01  0.56608011569E+01  0.83749474660E+01  0.00000000000E+00 0. -1.
</event>
<event>
 8    1  0.2971508E-007  0.9118800E+02  0.7816164E-02  0.1184000E+00
        -11   -1    0    0    0    0  0.00000000000E+00  0.00000000000E+00  0.45593999997E+02  0.45594000000E+02  0.51100000000E-03 0. -1.
         11   -1    0    0    0    0 -0.00000000000E+00 -0.00000000000E+00 -0.45593999997E+02  0.45594000000E+02  0.51100000000E-03 0.  1.
         23    2    1    2    0    0  0.00000000000E+00  0.14710455076E-14  0.00000000000E+00  0.91188000000E+02  0.91188000000E+02 0.  0.
    9900012    2    3    3    0    0 -0.25380308829E+02  0.94359165134E-01 -0.26676020465E+02  0.54367094963E+02  0.40000024587E+02 0.  0.
         12    1    3    3    0    0  0.25380308829E+02 -0.94359165134E-01  0.26676020465E+02  0.36820905037E+02  0.00000000000E+00 0. -1.
         11    1    4    4    0    0 -0.12679298994E+02 -0.62927105965E+01 -0.19942998807E+02  0.24455797499E+02  0.51100000000E-03 0.  1.
        -11    1    4    4    0    0 -0.12174718899E+02 -0.11035216401E+01  0.71251117925E+01  0.14149514430E+02  0.51100000000E-03 0. -1.
        -12    1    4    4    0    0 -0.52629093621E+00  0.74905914017E+01 -0.13858133450E+02  0.15761783034E+02  0.00000000000E+00 0.  1.
</event>
<event>
 8    1  0.2971508E-007  0.9118800E+02  0.7816164E-02  0.1184000E+00
        -11   -1    0    0    0    0  0.00000000000E+00  0.00000000000E+00  0.45593999997E+02  0.45594000000E+02  0.51100000000E-03 0.  1.
         11   -1    0    0    0    0 -0.00000000000E+00 -0.00000000000E+00 -0.45593999997E+02  0.45594000000E+02  0.51100000000E-03 0. -1.
         23    2    1    2    0    0  0.17763568394E-14  0.17763568394E-14  0.71054273576E-14  0.91188000000E+02  0.91188000000E+02 0.  0.
    9900012    2    3    3    0    0 -0.10723989797E+02  0.10927589518E+02  0.33486798097E+02  0.54367057364E+02  0.39999938873E+02 0.  0.
         12    1    3    3    0    0  0.10723989797E+02 -0.10927589518E+02 -0.33486798097E+02  0.36820942636E+02  0.00000000000E+00 0. -1.
         11    1    4    4    0    0  0.39198890485E+01  0.25214911375E+01  0.13396835691E+02  0.14184451153E+02  0.51100000000E-03 0. -1.
        -11    1    4    4    0    0 -0.20333373616E+02  0.93548880053E+01  0.24303342338E+02  0.33039559036E+02  0.51100000000E-03 0.  1.
        -12    1    4    4    0    0  0.56894947701E+01 -0.94878962469E+00 -0.42133799331E+01  0.71430471755E+01  0.00000000000E+00 0.  1.
</event>
<event>
 8    1  0.2971508E-007  0.9118800E+02  0.7816164E-02  0.1184000E+00
        -11   -1    0    0    0    0  0.00000000000E+00  0.00000000000E+00  0.45593999997E+02  0.45594000000E+02  0.51100000000E-03 0.  1.
         11   -1    0    0    0    0 -0.00000000000E+00 -0.00000000000E+00 -0.45593999997E+02  0.45594000000E+02  0.51100000000E-03 0. -1.
         23    2    1    2    0    0  0.71054273576E-14  0.00000000000E+00  0.11102230246E-14  0.91188000000E+02  0.91188000000E+02 0.  0.
    9900012    2    3    3    0    0  0.33767137141E+02  0.14555926620E+02  0.19196136764E+01  0.54367089268E+02  0.40000011605E+02 0.  0.
        -12    1    3    3    0    0 -0.33767137141E+02 -0.14555926620E+02 -0.19196136764E+01  0.36820910732E+02  0.00000000000E+00 0.  1.
         11    1    4    4    0    0  0.21066358959E+02 -0.14596034224E+01 -0.81550174769E+01  0.22636833530E+02  0.51100000000E-03 0. -1.
        -11    1    4    4    0    0 -0.40821026788E+01  0.23274401522E+01  0.88722983793E+01  0.10039831609E+02  0.51100000000E-03 0.  1.
         12    1    4    4    0    0  0.16782880861E+02  0.13688089890E+02  0.12023327740E+01  0.21690424130E+02  0.00000000000E+00 0. -1.
</event>
<event>
 8    1  0.2971508E-007  0.9118800E+02  0.7816164E-02  0.1184000E+00
        -11   -1    0    0    0    0  0.00000000000E+00  0.00000000000E+00  0.45593999997E+02  0.45594000000E+02  0.51100000000E-03 0.  1.
         11   -1    0    0    0    0 -0.00000000000E+00 -0.00000000000E+00 -0.45593999997E+02  0.45594000000E+02  0.51100000000E-03 0. -1.
         23    2    1    2    0    0  0.00000000000E+00  0.00000000000E+00 -0.17763568394E-14  0.91188000000E+02  0.91188000000E+02 0.  0.
    9900012    2    3    3    0    0  0.34507350169E+02 -0.69019585644E+01  0.10834573093E+02  0.54367051862E+02  0.39999926329E+02 0.  0.
        -12    1    3    3    0    0 -0.34507350169E+02  0.69019585644E+01 -0.10834573093E+02  0.36820948138E+02  0.00000000000E+00 0.  1.
         11    1    4    4    0    0 -0.15283658063E+01  0.35949260219E+01 -0.19837761325E+01  0.43811828478E+01  0.51100000000E-03 0. -1.
        -11    1    4    4    0    0  0.28232682831E+02 -0.11662927829E+02 -0.45742917322E+01  0.30887415083E+02  0.51100000000E-03 0.  1.
        -12    1    4    4    0    0  0.78030331444E+01  0.11660432432E+01  0.17392640958E+02  0.19098453932E+02  0.00000000000E+00 0.  1.
</event>
<event>
 8    1  0.2971508E-007  0.9118800E+02  0.7816164E-02  0.1184000E+00
        -11   -1    0    0    0    0  0.00000000000E+00  0.00000000000E+00  0.45593999997E+02  0.45594000000E+02  0.51100000000E-03 0.  1.
         11   -1    0    0    0    0 -0.00000000000E+00 -0.00000000000E+00 -0.45593999997E+02  0.45594000000E+02  0.51100000000E-03 0. -1.
         23    2    1    2    0    0  0.00000000000E+00  0.17763568394E-14 -0.26645352591E-14  0.91188000000E+02  0.91188000000E+02 0.  0.
    9900012    2    3    3    0    0 -0.34880706729E+02  0.99976441109E+01 -0.62580599073E+01  0.54367083343E+02  0.39999998096E+02 0.  0.
        -12    1    3    3    0    0  0.34880706729E+02 -0.99976441109E+01  0.62580599073E+01  0.36820916657E+02  0.00000000000E+00 0.  1.
         11    1    4    4    0    0 -0.96102849153E+01 -0.86237119227E+01 -0.16497577904E+02  0.20949846311E+02  0.51100000000E-03 0. -1.
        -11    1    4    4    0    0 -0.19052458901E+02  0.11382492837E+02  0.61102180370E+01  0.23019385267E+02  0.51100000000E-03 0.  1.
         12    1    4    4    0    0 -0.62179629129E+01  0.72388631970E+01  0.41292999600E+01  0.10397851765E+02  0.00000000000E+00 0. -1.
</event>
<event>
 8    1  0.2971508E-007  0.9118800E+02  0.7816164E-02  0.1184000E+00
        -11   -1    0    0    0    0  0.00000000000E+00  0.00000000000E+00  0.45593999997E+02  0.45594000000E+02  0.51100000000E-03 0.  1.
         11   -1    0    0    0    0 -0.00000000000E+00 -0.00000000000E+00 -0.45593999997E+02  0.45594000000E+02  0.51100000000E-03 0. -1.
         23    2    1    2    0    0  0.00000000000E+00  0.00000000000E+00 -0.35527136788E-14  0.91188000000E+02  0.91188000000E+02 0.  0.
    9900012    2    3    3    0    0 -0.17014159813E+02 -0.14125401317E+02 -0.29440977841E+02  0.54367085118E+02  0.40000002143E+02 0.  0.
        -12    1    3    3    0    0  0.17014159813E+02  0.14125401317E+02  0.29440977841E+02  0.36820914882E+02  0.00000000000E+00 0.  1.
         11    1    4    4    0    0 -0.73141438220E+01 -0.38372404531E+01 -0.29815120209E+02  0.30938043046E+02  0.51100000000E-03 0. -1.
        -11    1    4    4    0    0 -0.14697297142E+01 -0.10693116278E+02 -0.65846304466E+01  0.12643583335E+02  0.51100000000E-03 0.  1.
        -12    1    4    4    0    0 -0.82302862770E+01  0.40495541377E+00  0.69587728148E+01  0.10785458737E+02  0.00000000000E+00 0.  1.
</event>
<event>
 8    1  0.2971508E-007  0.9118800E+02  0.7816164E-02  0.1184000E+00
        -11   -1    0    0    0    0  0.00000000000E+00  0.00000000000E+00  0.45593999997E+02  0.45594000000E+02  0.51100000000E-03 0.  1.
         11   -1    0    0    0    0 -0.00000000000E+00 -0.00000000000E+00 -0.45593999997E+02  0.45594000000E+02  0.51100000000E-03 0. -1.
         23    2    1    2    0    0 -0.44408920985E-15  0.17763568394E-14  0.00000000000E+00  0.91188000000E+02  0.91188000000E+02 0.  0.
    9900012    2    3    3    0    0 -0.23869350713E+01  0.11589021060E+02  0.34867998025E+02  0.54367079934E+02  0.39999990326E+02 0.  0.
         12    1    3    3    0    0  0.23869350713E+01 -0.11589021060E+02 -0.34867998025E+02  0.36820920066E+02  0.00000000000E+00 0. -1.
         11    1    4    4    0    0 -0.61719991623E+01  0.12853913213E+02  0.34363811339E+02  0.37204679659E+02  0.51100000000E-03 0. -1.
        -11    1    4    4    0    0  0.18902382287E+01 -0.26561454028E+00  0.85890268640E+01  0.87985757017E+01  0.51100000000E-03 0.  1.
         12    1    4    4    0    0  0.18948258624E+01 -0.99927761235E+00 -0.80848401777E+01  0.83638245734E+01  0.00000000000E+00 0. -1.
</event>
<event>
 8    1  0.2971508E-007  0.9118800E+02  0.7816164E-02  0.1184000E+00
        -11   -1    0    0    0    0  0.00000000000E+00  0.00000000000E+00  0.45593999997E+02  0.45594000000E+02  0.51100000000E-03 0.  1.
         11   -1    0    0    0    0 -0.00000000000E+00 -0.00000000000E+00 -0.45593999997E+02  0.45594000000E+02  0.51100000000E-03 0. -1.
         23    2    1    2    0    0  0.00000000000E+00  0.00000000000E+00 -0.17763568394E-14  0.91188000000E+02  0.91188000000E+02 0.  0.
    9900012    2    3    3    0    0 -0.35646916388E+02  0.85895021674E+01  0.33611466479E+01  0.54367088791E+02  0.40000010518E+02 0.  0.
         12    1    3    3    0    0  0.35646916388E+02 -0.85895021674E+01 -0.33611466479E+01  0.36820911209E+02  0.00000000000E+00 0. -1.
         11    1    4    4    0    0 -0.90901890482E+01 -0.59049045738E+01  0.10774666184E+02  0.15283745175E+02  0.51100000000E-03 0. -1.
        -11    1    4    4    0    0  0.16165131597E+01  0.75149852855E+01 -0.64631123246E+01  0.10042904949E+02  0.51100000000E-03 0.  1.
        -12    1    4    4    0    0 -0.28173240499E+02  0.69794214557E+01 -0.95040721118E+00  0.29040438667E+02  0.00000000000E+00 0.  1.
</event>
<event>
 8    1  0.2971508E-007  0.9118800E+02  0.7816164E-02  0.1184000E+00
        -11   -1    0    0    0    0  0.00000000000E+00  0.00000000000E+00  0.45593999997E+02  0.45594000000E+02  0.51100000000E-03 0.  1.
         11   -1    0    0    0    0 -0.00000000000E+00 -0.00000000000E+00 -0.45593999997E+02  0.45594000000E+02  0.51100000000E-03 0. -1.
         23    2    1    2    0    0 -0.35527136788E-14 -0.35527136788E-14  0.00000000000E+00  0.91188000000E+02  0.91188000000E+02 0.  0.
    9900012    2    3    3    0    0 -0.18859497000E+02 -0.30517383618E+02  0.82939434281E+01  0.54367070794E+02  0.39999969489E+02 0.  0.
        -12    1    3    3    0    0  0.18859497000E+02  0.30517383618E+02 -0.82939434281E+01  0.36820929206E+02  0.00000000000E+00 0.  1.
         11    1    4    4    0    0  0.69172875303E+01 -0.44252079748E+01 -0.38312192632E+01  0.90614333138E+01  0.51100000000E-03 0. -1.
        -11    1    4    4    0    0 -0.59775816582E-02  0.15834518100E+01  0.69604050695E+01  0.71382486899E+01  0.51100000000E-03 0.  1.
         12    1    4    4    0    0 -0.25770806949E+02 -0.27675627454E+02  0.51647576217E+01  0.38167388790E+02  0.00000000000E+00 0. -1.
</event>
<event>
 8    1  0.2971508E-007  0.9118800E+02  0.7816164E-02  0.1184000E+00
        -11   -1    0    0    0    0  0.00000000000E+00  0.00000000000E+00  0.45593999997E+02  0.45594000000E+02  0.51100000000E-03 0. -1.
         11   -1    0    0    0    0 -0.00000000000E+00 -0.00000000000E+00 -0.45593999997E+02  0.45594000000E+02  0.51100000000E-03 0.  1.
         23    2    1    2    0    0 -0.71054273576E-14  0.00000000000E+00 -0.88817841970E-15  0.91188000000E+02  0.91188000000E+02 0.  0.
    9900012    2    3    3    0    0  0.33007417256E+02 -0.15980804538E+02  0.33021788513E+01  0.54367080772E+02  0.39999992236E+02 0.  0.
        -12    1    3    3    0    0 -0.33007417256E+02  0.15980804538E+02 -0.33021788513E+01  0.36820919228E+02  0.00000000000E+00 0.  1.
         11    1    4    4    0    0  0.17471297588E+02 -0.11237466293E+02 -0.11306868477E+02  0.23651049937E+02  0.51100000000E-03 0. -1.
        -11    1    4    4    0    0  0.19189738378E+02  0.14903810775E+01  0.77368410712E+01  0.20744300538E+02  0.51100000000E-03 0.  1.
         12    1    4    4    0    0 -0.36536187101E+01 -0.62337193225E+01  0.68722062574E+01  0.99717302969E+01  0.00000000000E+00 0. -1.
</event>
<event>
 8    1  0.2971508E-007  0.9118800E+02  0.7816164E-02  0.1184000E+00
        -11   -1    0    0    0    0  0.00000000000E+00  0.00000000000E+00  0.45593999997E+02  0.45594000000E+02  0.51100000000E-03 0.  1.
         11   -1    0    0    0    0 -0.00000000000E+00 -0.00000000000E+00 -0.45593999997E+02  0.45594000000E+02  0.51100000000E-03 0. -1.
         23    2    1    2    0    0  0.17763568394E-14  0.00000000000E+00  0.00000000000E+00  0.91188000000E+02  0.91188000000E+02 0.  0.
    9900012    2    3    3    0    0 -0.98695545735E+01  0.27971552336E+02 -0.21816613426E+02  0.54367075664E+02  0.39999980591E+02 0.  0.
        -12    1    3    3    0    0  0.98695545735E+01 -0.27971552336E+02  0.21816613426E+02  0.36820924336E+02  0.00000000000E+00 0.  1.
         11    1    4    4    0    0  0.74998066988E+01  0.12287237976E+02 -0.28770051020E+01  0.14679934476E+02  0.51100000000E-03 0. -1.
        -11    1    4    4    0    0  0.67732110262E+01  0.50408318518E+01 -0.55032911265E+01  0.10078322621E+02  0.51100000000E-03 0.  1.
         12    1    4    4    0    0 -0.24142572298E+02  0.10643482508E+02 -0.13436317198E+02  0.29608818567E+02  0.00000000000E+00 0. -1.
</event>
<event>
 8    1  0.2971508E-007  0.9118800E+02  0.7816164E-02  0.1184000E+00
        -11   -1    0    0    0    0  0.00000000000E+00  0.00000000000E+00  0.45593999997E+02  0.45594000000E+02  0.51100000000E-03 0. -1.
         11   -1    0    0    0    0 -0.00000000000E+00 -0.00000000000E+00 -0.45593999997E+02  0.45594000000E+02  0.51100000000E-03 0.  1.
         23    2    1    2    0    0  0.00000000000E+00  0.00000000000E+00  0.00000000000E+00  0.91188000000E+02  0.91188000000E+02 0.  0.
    9900012    2    3    3    0    0 -0.13757446485E+02  0.17987657035E+02  0.29033711355E+02  0.54367088354E+02  0.40000009520E+02 0.  0.
        -12    1    3    3    0    0  0.13757446485E+02 -0.17987657035E+02 -0.29033711355E+02  0.36820911646E+02  0.00000000000E+00 0.  1.
         11    1    4    4    0    0 -0.12785145925E+01  0.40636604448E+01 -0.75392528162E+01  0.86595767253E+01  0.51100000000E-03 0. -1.
        -11    1    4    4    0    0 -0.96526100267E+01  0.14587241840E+02  0.12595030948E+02  0.21554473078E+02  0.51100000000E-03 0.  1.
         12    1    4    4    0    0 -0.28263218660E+01 -0.66324525046E+00  0.23977933223E+02  0.24153038550E+02  0.00000000000E+00 0. -1.
</event>
<event>
 8    1  0.2971508E-007  0.9118800E+02  0.7816164E-02  0.1184000E+00
        -11   -1    0    0    0    0  0.00000000000E+00  0.00000000000E+00  0.45593999997E+02  0.45594000000E+02  0.51100000000E-03 0. -1.
         11   -1    0    0    0    0 -0.00000000000E+00 -0.00000000000E+00 -0.45593999997E+02  0.45594000000E+02  0.51100000000E-03 0.  1.
         23    2    1    2    0    0 -0.35527136788E-14  0.00000000000E+00  0.00000000000E+00  0.91188000000E+02  0.91188000000E+02 0.  0.
    9900012    2    3    3    0    0  0.17782833785E+02  0.32128773553E+02 -0.27006105376E+01  0.54367074363E+02  0.39999977626E+02 0.  0.
         12    1    3    3    0    0 -0.17782833785E+02 -0.32128773553E+02  0.27006105376E+01  0.36820925637E+02  0.00000000000E+00 0. -1.
         11    1    4    4    0    0 -0.33528716741E+01 -0.13530737921E+01 -0.76464990375E+01  0.84582211452E+01  0.51100000000E-03 0. -1.
        -11    1    4    4    0    0  0.68294454100E+01  0.43084553270E+01 -0.75900089223E+01  0.11082073254E+02  0.51100000000E-03 0.  1.
        -12    1    4    4    0    0  0.14306260049E+02  0.29173392018E+02  0.12535897422E+02  0.34826779964E+02  0.00000000000E+00 0.  1.
</event>
<event>
 8    1  0.2971508E-007  0.9118800E+02  0.7816164E-02  0.1184000E+00
        -11   -1    0    0    0    0  0.00000000000E+00  0.00000000000E+00  0.45593999997E+02  0.45594000000E+02  0.51100000000E-03 0.  1.
         11   -1    0    0    0    0 -0.00000000000E+00 -0.00000000000E+00 -0.45593999997E+02  0.45594000000E+02  0.51100000000E-03 0. -1.
         23    2    1    2    0    0 -0.71054273576E-14  0.00000000000E+00  0.00000000000E+00  0.91188000000E+02  0.91188000000E+02 0.  0.
    9900012    2    3    3    0    0  0.36414377448E+02 -0.28232616850E+01  0.46692836051E+01  0.54367083379E+02  0.39999998179E+02 0.  0.
         12    1    3    3    0    0 -0.36414377448E+02  0.28232616850E+01 -0.46692836051E+01  0.36820916621E+02  0.00000000000E+00 0. -1.
         11    1    4    4    0    0  0.14475715559E+02  0.24785081056E+01  0.17968508415E+01  0.14795878365E+02  0.51100000000E-03 0. -1.
        -11    1    4    4    0    0  0.19890571973E+02 -0.15781702054E+02  0.93779637395E+01  0.27067382165E+02  0.51100000000E-03 0.  1.
         12    1    4    4    0    0  0.20480899162E+01  0.10479932264E+02 -0.65055309759E+01  0.12503822849E+02  0.00000000000E+00 0. -1.
</event>
<event>
 8    1  0.2971508E-007  0.9118800E+02  0.7816164E-02  0.1184000E+00
        -11   -1    0    0    0    0  0.00000000000E+00  0.00000000000E+00  0.45593999997E+02  0.45594000000E+02  0.51100000000E-03 0. -1.
         11   -1    0    0    0    0 -0.00000000000E+00 -0.00000000000E+00 -0.45593999997E+02  0.45594000000E+02  0.51100000000E-03 0.  1.
         23    2    1    2    0    0  0.00000000000E+00  0.17763568394E-14  0.35527136788E-14  0.91188000000E+02  0.91188000000E+02 0.  0.
    9900012    2    3    3    0    0 -0.27341518656E+02  0.91666802795E+01 -0.22895265346E+02  0.54367084137E+02  0.39999999906E+02 0.  0.
         12    1    3    3    0    0  0.27341518656E+02 -0.91666802795E+01  0.22895265346E+02  0.36820915863E+02  0.00000000000E+00 0. -1.
         11    1    4    4    0    0 -0.35037255238E+01 -0.66471424506E+01  0.28790535646E+01  0.80467101969E+01  0.51100000000E-03 0. -1.
        -11    1    4    4    0    0 -0.93798792817E+01  0.18751014188E+02 -0.63070962212E+01  0.21894340168E+02  0.51100000000E-03 0.  1.
         12    1    4    4    0    0 -0.14457913850E+02 -0.29371914576E+01 -0.19467222689E+02  0.24426033771E+02  0.00000000000E+00 0. -1.
</event>
<event>
 8    1  0.2971508E-007  0.9118800E+02  0.7816164E-02  0.1184000E+00
        -11   -1    0    0    0    0  0.00000000000E+00  0.00000000000E+00  0.45593999997E+02  0.45594000000E+02  0.51100000000E-03 0. -1.
         11   -1    0    0    0    0 -0.00000000000E+00 -0.00000000000E+00 -0.45593999997E+02  0.45594000000E+02  0.51100000000E-03 0.  1.
         23    2    1    2    0    0 -0.35527136788E-14  0.71054273576E-14 -0.35527136788E-14  0.91188000000E+02  0.91188000000E+02 0.  0.
    9900012    2    3    3    0    0  0.16386535495E+02 -0.24173222389E+02  0.22425781171E+02  0.54367097141E+02  0.40000029553E+02 0.  0.
        -12    1    3    3    0    0 -0.16386535495E+02  0.24173222389E+02 -0.22425781171E+02  0.36820902859E+02  0.00000000000E+00 0.  1.
         11    1    4    4    0    0  0.18092858330E+02 -0.19137808478E+02  0.16421509608E+02  0.31036643085E+02  0.51100000000E-03 0. -1.
        -11    1    4    4    0    0  0.85164353528E+01 -0.58662321839E+01  0.77544898658E+01  0.12925728780E+02  0.51100000000E-03 0.  1.
        -12    1    4    4    0    0 -0.10222758188E+02  0.83081827359E+00 -0.17502183027E+01  0.10404725277E+02  0.00000000000E+00 0.  1.
</event>
<event>
 8    1  0.2971508E-007  0.9118800E+02  0.7816164E-02  0.1184000E+00
        -11   -1    0    0    0    0  0.00000000000E+00  0.00000000000E+00  0.45593999997E+02  0.45594000000E+02  0.51100000000E-03 0. -1.
         11   -1    0    0    0    0 -0.00000000000E+00 -0.00000000000E+00 -0.45593999997E+02  0.45594000000E+02  0.51100000000E-03 0.  1.
         23    2    1    2    0    0 -0.35527136788E-14  0.00000000000E+00  0.00000000000E+00  0.91188000000E+02  0.91188000000E+02 0.  0.
    9900012    2    3    3    0    0 -0.31006806399E+02 -0.79286241018E+01 -0.18206998028E+02  0.54367083384E+02  0.39999998192E+02 0.  0.
         12    1    3    3    0    0  0.31006806399E+02  0.79286241018E+01  0.18206998028E+02  0.36820916616E+02  0.00000000000E+00 0. -1.
         11    1    4    4    0    0 -0.20687400397E+02  0.14487759476E+02 -0.10460584770E+02  0.27336560570E+02  0.51100000000E-03 0. -1.
        -11    1    4    4    0    0 -0.20361796628E+01 -0.73651837067E+01 -0.60890939574E+01  0.97708251512E+01  0.51100000000E-03 0.  1.
         12    1    4    4    0    0 -0.82832263394E+01 -0.15051199871E+02 -0.16573193014E+01  0.17259697663E+02  0.00000000000E+00 0. -1.
</event>
<event>
 8    1  0.2971508E-007  0.9118800E+02  0.7816164E-02  0.1184000E+00
        -11   -1    0    0    0    0  0.00000000000E+00  0.00000000000E+00  0.45593999997E+02  0.45594000000E+02  0.51100000000E-03 0.  1.
         11   -1    0    0    0    0 -0.00000000000E+00 -0.00000000000E+00 -0.45593999997E+02  0.45594000000E+02  0.51100000000E-03 0. -1.
         23    2    1    2    0    0  0.00000000000E+00  0.00000000000E+00  0.00000000000E+00  0.91188000000E+02  0.91188000000E+02 0.  0.
    9900012    2    3    3    0    0  0.10952522775E+02  0.25614710106E+02  0.24077138831E+02  0.54367085519E+02  0.40000003057E+02 0.  0.
         12    1    3    3    0    0 -0.10952522775E+02 -0.25614710106E+02 -0.24077138831E+02  0.36820914481E+02  0.00000000000E+00 0. -1.
         11    1    4    4    0    0 -0.43687057232E+01  0.68803992852E+01  0.60302566326E+01  0.10138514651E+02  0.51100000000E-03 0. -1.
        -11    1    4    4    0    0 -0.11136619039E+01 -0.23372715728E+00 -0.79866506872E+01  0.80673081434E+01  0.51100000000E-03 0.  1.
        -12    1    4    4    0    0  0.16434890402E+02  0.18968037978E+02  0.26033532886E+02  0.36161262724E+02  0.00000000000E+00 0.  1.
</event>
<event>
 8    1  0.2971508E-007  0.9118800E+02  0.7816164E-02  0.1184000E+00
        -11   -1    0    0    0    0  0.00000000000E+00  0.00000000000E+00  0.45593999997E+02  0.45594000000E+02  0.51100000000E-03 0. -1.
         11   -1    0    0    0    0 -0.00000000000E+00 -0.00000000000E+00 -0.45593999997E+02  0.45594000000E+02  0.51100000000E-03 0.  1.
         23    2    1    2    0    0  0.00000000000E+00  0.00000000000E+00  0.00000000000E+00  0.91188000000E+02  0.91188000000E+02 0.  0.
    9900012    2    3    3    0    0 -0.25048998510E+02  0.25655409787E+02 -0.83742266241E+01  0.54367081363E+02  0.39999993583E+02 0.  0.
        -12    1    3    3    0    0  0.25048998510E+02 -0.25655409787E+02  0.83742266241E+01  0.36820918637E+02  0.00000000000E+00 0.  1.
         11    1    4    4    0    0 -0.11914616283E+02 -0.21909716455E+01 -0.63514650777E+01  0.13678433639E+02  0.51100000000E-03 0. -1.
        -11    1    4    4    0    0 -0.13933830504E+02  0.15895284010E+01 -0.32320154394E+01  0.14391808681E+02  0.51100000000E-03 0.  1.
         12    1    4    4    0    0  0.79944827673E+00  0.26256853032E+02  0.12092538930E+01  0.26296839043E+02  0.00000000000E+00 0. -1.
</event>
<event>
 8    1  0.2971508E-007  0.9118800E+02  0.7816164E-02  0.1184000E+00
        -11   -1    0    0    0    0  0.00000000000E+00  0.00000000000E+00  0.45593999997E+02  0.45594000000E+02  0.51100000000E-03 0. -1.
         11   -1    0    0    0    0 -0.00000000000E+00 -0.00000000000E+00 -0.45593999997E+02  0.45594000000E+02  0.51100000000E-03 0.  1.
         23    2    1    2    0    0 -0.35527136788E-14  0.22204460493E-15  0.35527136788E-14  0.91188000000E+02  0.91188000000E+02 0.  0.
    9900012    2    3    3    0    0 -0.23431071499E+02 -0.29216830578E+00  0.28402156391E+02  0.54367041816E+02  0.39999903429E+02 0.  0.
        -12    1    3    3    0    0  0.23431071499E+02  0.29216830578E+00 -0.28402156391E+02  0.36820958184E+02  0.00000000000E+00 0.  1.
         11    1    4    4    0    0 -0.13602935717E+02  0.15441066943E+02  0.27091449558E+02  0.34020773770E+02  0.51100000000E-03 0. -1.
        -11    1    4    4    0    0 -0.97163820945E+01 -0.85069011556E+01 -0.39621834766E+00  0.12920233648E+02  0.51100000000E-03 0.  1.
         12    1    4    4    0    0 -0.11175368754E+00 -0.72263340937E+01  0.17069251800E+01  0.74260343987E+01  0.00000000000E+00 0. -1.
</event>
<event>
 8    1  0.2971508E-007  0.9118800E+02  0.7816164E-02  0.1184000E+00
        -11   -1    0    0    0    0  0.00000000000E+00  0.00000000000E+00  0.45593999997E+02  0.45594000000E+02  0.51100000000E-03 0.  1.
         11   -1    0    0    0    0 -0.00000000000E+00 -0.00000000000E+00 -0.45593999997E+02  0.45594000000E+02  0.51100000000E-03 0. -1.
         23    2    1    2    0    0 -0.17763568394E-14 -0.71054273576E-14  0.00000000000E+00  0.91188000000E+02  0.91188000000E+02 0.  0.
    9900012    2    3    3    0    0  0.89297091906E+01 -0.34567776152E+02  0.90059698905E+01  0.54367104465E+02  0.40000046249E+02 0.  0.
        -12    1    3    3    0    0 -0.89297091906E+01  0.34567776152E+02 -0.90059698905E+01  0.36820895535E+02  0.00000000000E+00 0.  1.
         11    1    4    4    0    0 -0.16348560577E+01 -0.62761881190E+01 -0.12723378299E+02  0.14281024027E+02  0.51100000000E-03 0. -1.
        -11    1    4    4    0    0  0.14331339371E+02 -0.23917997540E+02  0.17343821234E+02  0.32836961335E+02  0.51100000000E-03 0.  1.
         12    1    4    4    0    0 -0.37667741224E+01 -0.43735904932E+01  0.43855269563E+01  0.72491191034E+01  0.00000000000E+00 0. -1.
</event>
<event>
 8    1  0.2971508E-007  0.9118800E+02  0.7816164E-02  0.1184000E+00
        -11   -1    0    0    0    0  0.00000000000E+00  0.00000000000E+00  0.45593999997E+02  0.45594000000E+02  0.51100000000E-03 0.  1.
         11   -1    0    0    0    0 -0.00000000000E+00 -0.00000000000E+00 -0.45593999997E+02  0.45594000000E+02  0.51100000000E-03 0. -1.
         23    2    1    2    0    0  0.22204460493E-14  0.17763568394E-14  0.00000000000E+00  0.91188000000E+02  0.91188000000E+02 0.  0.
    9900012    2    3    3    0    0  0.29940070689E+01 -0.11109880592E+02 -0.34976926521E+02  0.54367096779E+02  0.40000028728E+02 0.  0.
        -12    1    3    3    0    0 -0.29940070689E+01  0.11109880592E+02  0.34976926521E+02  0.36820903221E+02  0.00000000000E+00 0.  1.
         11    1    4    4    0    0 -0.70391703742E+01 -0.68637219924E+00 -0.33132393717E+01  0.78101588811E+01  0.51100000000E-03 0. -1.
        -11    1    4    4    0    0  0.18730897958E+02 -0.12767977464E+02 -0.29656364581E+02  0.37327841449E+02  0.51100000000E-03 0.  1.
        -12    1    4    4    0    0 -0.86977205148E+01  0.23444690708E+01 -0.20073225690E+01  0.92290964495E+01  0.00000000000E+00 0.  1.
</event>
<event>
 8    1  0.2971508E-007  0.9118800E+02  0.7816164E-02  0.1184000E+00
        -11   -1    0    0    0    0  0.00000000000E+00  0.00000000000E+00  0.45593999997E+02  0.45594000000E+02  0.51100000000E-03 0.  1.
         11   -1    0    0    0    0 -0.00000000000E+00 -0.00000000000E+00 -0.45593999997E+02  0.45594000000E+02  0.51100000000E-03 0. -1.
         23    2    1    2    0    0  0.00000000000E+00  0.00000000000E+00  0.00000000000E+00  0.91188000000E+02  0.91188000000E+02 0.  0.
    9900012    2    3    3    0    0 -0.12177369834E+02  0.21274275397E+02 -0.27475398615E+02  0.54367073086E+02  0.39999974714E+02 0.  0.
        -12    1    3    3    0    0  0.12177369834E+02 -0.21274275397E+02  0.27475398615E+02  0.36820926914E+02  0.00000000000E+00 0.  1.
         11    1    4    4    0    0 -0.32477090624E+01 -0.49794688861E+01 -0.15735609811E+02  0.16821181318E+02  0.51100000000E-03 0. -1.
        -11    1    4    4    0    0 -0.11869599885E+01  0.15620069460E+02 -0.17234953456E+02  0.23290321269E+02  0.51100000000E-03 0.  1.
        -12    1    4    4    0    0 -0.77427007834E+01  0.10633674824E+02  0.54951646524E+01  0.14255570498E+02  0.00000000000E+00 0.  1.
</event>
<event>
 8    1  0.2971508E-007  0.9118800E+02  0.7816164E-02  0.1184000E+00
        -11   -1    0    0    0    0  0.00000000000E+00  0.00000000000E+00  0.45593999997E+02  0.45594000000E+02  0.51100000000E-03 0.  1.
         11   -1    0    0    0    0 -0.00000000000E+00 -0.00000000000E+00 -0.45593999997E+02  0.45594000000E+02  0.51100000000E-03 0. -1.
         23    2    1    2    0    0  0.00000000000E+00  0.00000000000E+00  0.00000000000E+00  0.91188000000E+02  0.91188000000E+02 0.  0.
    9900012    2    3    3    0    0  0.11345309029E+02 -0.31757637297E+02  0.14782304558E+02  0.54367080786E+02  0.39999992269E+02 0.  0.
         12    1    3    3    0    0 -0.11345309029E+02  0.31757637297E+02 -0.14782304558E+02  0.36820919214E+02  0.00000000000E+00 0. -1.
         11    1    4    4    0    0  0.76993232250E+01 -0.35497834576E+01  0.56620708850E+01  0.10195076640E+02  0.51100000000E-03 0. -1.
        -11    1    4    4    0    0 -0.43484432695E+01 -0.30343966562E+02  0.14895151779E+02  0.34081238422E+02  0.51100000000E-03 0.  1.
         12    1    4    4    0    0  0.79944290735E+01  0.21361127224E+01 -0.57749181062E+01  0.10090765725E+02  0.00000000000E+00 0. -1.
</event>
<event>
 8    1  0.2971508E-007  0.9118800E+02  0.7816164E-02  0.1184000E+00
        -11   -1    0    0    0    0  0.00000000000E+00  0.00000000000E+00  0.45593999997E+02  0.45594000000E+02  0.51100000000E-03 0. -1.
         11   -1    0    0    0    0 -0.00000000000E+00 -0.00000000000E+00 -0.45593999997E+02  0.45594000000E+02  0.51100000000E-03 0.  1.
         23    2    1    2    0    0 -0.17763568394E-14  0.00000000000E+00  0.00000000000E+00  0.91188000000E+02  0.91188000000E+02 0.  0.
    9900012    2    3    3    0    0  0.10682149241E+02 -0.18035241236E+02 -0.30272121706E+02  0.54367087580E+02  0.40000007756E+02 0.  0.
         12    1    3    3    0    0 -0.10682149241E+02  0.18035241236E+02  0.30272121706E+02  0.36820912420E+02  0.00000000000E+00 0. -1.
         11    1    4    4    0    0  0.71866866048E+01 -0.10474016062E+01 -0.19259784002E+01  0.75136480846E+01  0.51100000000E-03 0. -1.
        -11    1    4    4    0    0  0.78108643277E+01  0.76659129147E+01 -0.32658789300E+01  0.11421111496E+02  0.51100000000E-03 0.  1.
         12    1    4    4    0    0 -0.43154016919E+01 -0.24653752545E+02 -0.25080264376E+02  0.35432327999E+02  0.00000000000E+00 0. -1.
</event>
<event>
 8    1  0.2971508E-007  0.9118800E+02  0.7816164E-02  0.1184000E+00
        -11   -1    0    0    0    0  0.00000000000E+00  0.00000000000E+00  0.45593999997E+02  0.45594000000E+02  0.51100000000E-03 0.  1.
         11   -1    0    0    0    0 -0.00000000000E+00 -0.00000000000E+00 -0.45593999997E+02  0.45594000000E+02  0.51100000000E-03 0. -1.
         23    2    1    2    0    0  0.17763568394E-14  0.35527136788E-14 -0.35527136788E-14  0.91188000000E+02  0.91188000000E+02 0.  0.
    9900012    2    3    3    0    0  0.14635522119E+02 -0.25105071392E+02  0.22612290193E+02  0.54367098530E+02  0.40000032719E+02 0.  0.
         12    1    3    3    0    0 -0.14635522119E+02  0.25105071392E+02 -0.22612290193E+02  0.36820901470E+02  0.00000000000E+00 0. -1.
         11    1    4    4    0    0  0.15563025402E+01  0.70499132186E+01  0.72794701758E+01  0.10252513852E+02  0.51100000000E-03 0. -1.
        -11    1    4    4    0    0 -0.29652535560E+01 -0.22133656106E+02  0.66532808348E+01  0.23301450758E+02  0.51100000000E-03 0.  1.
        -12    1    4    4    0    0  0.16044473135E+02 -0.10021328504E+02  0.86795391827E+01  0.20813133920E+02  0.00000000000E+00 0.  1.
</event>
<event>
 8    1  0.2971508E-007  0.9118800E+02  0.7816164E-02  0.1184000E+00
        -11   -1    0    0    0    0  0.00000000000E+00  0.00000000000E+00  0.45593999997E+02  0.45594000000E+02  0.51100000000E-03 0.  1.
         11   -1    0    0    0    0 -0.00000000000E+00 -0.00000000000E+00 -0.45593999997E+02  0.45594000000E+02  0.51100000000E-03 0. -1.
         23    2    1    2    0    0  0.00000000000E+00  0.00000000000E+00  0.00000000000E+00  0.91188000000E+02  0.91188000000E+02 0.  0.
    9900012    2    3    3    0    0  0.61415151122E+01 -0.36273335792E+02 -0.15188135414E+01  0.54367083499E+02  0.39999998453E+02 0.  0.
         12    1    3    3    0    0 -0.61415151122E+01  0.36273335792E+02  0.15188135414E+01  0.36820916501E+02  0.00000000000E+00 0. -1.
         11    1    4    4    0    0  0.11057035090E+02 -0.34080330471E+02 -0.14349395163E+02  0.38595752251E+02  0.51100000000E-03 0. -1.
        -11    1    4    4    0    0 -0.18348129870E+01  0.25329749472E+01  0.25131248091E+01  0.40122683544E+01  0.51100000000E-03 0.  1.
        -12    1    4    4    0    0 -0.30807069911E+01 -0.47259802689E+01  0.10317456813E+02  0.11759062894E+02  0.00000000000E+00 0.  1.
</event>
<event>
 8    1  0.2971508E-007  0.9118800E+02  0.7816164E-02  0.1184000E+00
        -11   -1    0    0    0    0  0.00000000000E+00  0.00000000000E+00  0.45593999997E+02  0.45594000000E+02  0.51100000000E-03 0. -1.
         11   -1    0    0    0    0 -0.00000000000E+00 -0.00000000000E+00 -0.45593999997E+02  0.45594000000E+02  0.51100000000E-03 0.  1.
         23    2    1    2    0    0  0.35527136788E-14  0.00000000000E+00  0.71054273576E-14  0.91188000000E+02  0.91188000000E+02 0.  0.
    9900012    2    3    3    0    0  0.90094877622E+01 -0.15489521498E+02  0.32166481802E+02  0.54367099719E+02  0.40000035429E+02 0.  0.
        -12    1    3    3    0    0 -0.90094877622E+01  0.15489521498E+02 -0.32166481802E+02  0.36820900281E+02  0.00000000000E+00 0.  1.
         11    1    4    4    0    0  0.14427826579E+01 -0.50295062681E+01  0.13712919161E+02  0.14677251352E+02  0.51100000000E-03 0. -1.
        -11    1    4    4    0    0  0.91531821888E+01  0.82424918119E+01 -0.13660998992E+01  0.12392967548E+02  0.51100000000E-03 0.  1.
        -12    1    4    4    0    0 -0.15864770845E+01 -0.18702507041E+02  0.19819662541E+02  0.27296880818E+02  0.00000000000E+00 0.  1.
</event>
<event>
 8    1  0.2971508E-007  0.9118800E+02  0.7816164E-02  0.1184000E+00
        -11   -1    0    0    0    0  0.00000000000E+00  0.00000000000E+00  0.45593999997E+02  0.45594000000E+02  0.51100000000E-03 0. -1.
         11   -1    0    0    0    0 -0.00000000000E+00 -0.00000000000E+00 -0.45593999997E+02  0.45594000000E+02  0.51100000000E-03 0.  1.
         23    2    1    2    0    0  0.00000000000E+00  0.44408920985E-15 -0.71054273576E-14  0.91188000000E+02  0.91188000000E+02 0.  0.
    9900012    2    3    3    0    0  0.13297226364E+02 -0.21800550074E+01  0.34266732793E+02  0.54367111293E+02  0.40000061816E+02 0.  0.
        -12    1    3    3    0    0 -0.13297226364E+02  0.21800550074E+01 -0.34266732793E+02  0.36820888707E+02  0.00000000000E+00 0.  1.
         11    1    4    4    0    0 -0.84793105325E+00  0.21741760272E+01 -0.71562235275E+01  0.75271218872E+01  0.51100000000E-03 0. -1.
        -11    1    4    4    0    0  0.57941658559E+01  0.33726748017E-01  0.17381678182E+01  0.60493572456E+01  0.51100000000E-03 0.  1.
         12    1    4    4    0    0  0.83509915610E+01 -0.43879577825E+01  0.39684788503E+02  0.40790632161E+02  0.00000000000E+00 0. -1.
</event>
<event>
 8    1  0.2971508E-007  0.9118800E+02  0.7816164E-02  0.1184000E+00
        -11   -1    0    0    0    0  0.00000000000E+00  0.00000000000E+00  0.45593999997E+02  0.45594000000E+02  0.51100000000E-03 0. -1.
         11   -1    0    0    0    0 -0.00000000000E+00 -0.00000000000E+00 -0.45593999997E+02  0.45594000000E+02  0.51100000000E-03 0.  1.
         23    2    1    2    0    0  0.00000000000E+00  0.00000000000E+00 -0.66613381478E-15  0.91188000000E+02  0.91188000000E+02 0.  0.
    9900012    2    3    3    0    0 -0.34962062406E+02  0.11470306385E+02 -0.13657338780E+01  0.54367096083E+02  0.40000027140E+02 0.  0.
         12    1    3    3    0    0  0.34962062406E+02 -0.11470306385E+02  0.13657338780E+01  0.36820903917E+02  0.00000000000E+00 0. -1.
         11    1    4    4    0    0 -0.10288082223E+02  0.12959367886E+02 -0.89923803169E+01  0.18832226524E+02  0.51100000000E-03 0. -1.
        -11    1    4    4    0    0 -0.15648348612E+01  0.89254584237E+01 -0.11352642960E-01  0.90616028030E+01  0.51100000000E-03 0.  1.
        -12    1    4    4    0    0 -0.23109145321E+02 -0.10414519924E+02  0.76379990819E+01  0.26473266756E+02  0.00000000000E+00 0.  1.
</event>
<event>
 8    1  0.2971508E-007  0.9118800E+02  0.7816164E-02  0.1184000E+00
        -11   -1    0    0    0    0  0.00000000000E+00  0.00000000000E+00  0.45593999997E+02  0.45594000000E+02  0.51100000000E-03 0. -1.
         11   -1    0    0    0    0 -0.00000000000E+00 -0.00000000000E+00 -0.45593999997E+02  0.45594000000E+02  0.51100000000E-03 0.  1.
         23    2    1    2    0    0 -0.35527136788E-14  0.88817841970E-15  0.00000000000E+00  0.91188000000E+02  0.91188000000E+02 0.  0.
    9900012    2    3    3    0    0  0.27798314964E+02 -0.57283396349E+01 -0.23456795307E+02  0.54367062534E+02  0.39999950658E+02 0.  0.
         12    1    3    3    0    0 -0.27798314964E+02  0.57283396349E+01  0.23456795307E+02  0.36820937466E+02  0.00000000000E+00 0. -1.
         11    1    4    4    0    0 -0.34020720026E+01 -0.79609895921E-01 -0.30994909210E+01  0.46029638145E+01  0.51100000000E-03 0. -1.
        -11    1    4    4    0    0  0.37196728742E+02 -0.87388982380E+01 -0.19692742436E+02  0.42985684552E+02  0.51100000000E-03 0.  1.
        -12    1    4    4    0    0 -0.59963417750E+01  0.30901684990E+01 -0.66456194976E+00  0.67784141670E+01  0.00000000000E+00 0.  1.
</event>
<event>
 8    1  0.2971508E-007  0.9118800E+02  0.7816164E-02  0.1184000E+00
        -11   -1    0    0    0    0  0.00000000000E+00  0.00000000000E+00  0.45593999997E+02  0.45594000000E+02  0.51100000000E-03 0.  1.
         11   -1    0    0    0    0 -0.00000000000E+00 -0.00000000000E+00 -0.45593999997E+02  0.45594000000E+02  0.51100000000E-03 0. -1.
         23    2    1    2    0    0 -0.35527136788E-14  0.00000000000E+00  0.35527136788E-14  0.91188000000E+02  0.91188000000E+02 0.  0.
    9900012    2    3    3    0    0 -0.13797687282E+02  0.28143153341E+02  0.19322580958E+02  0.54367144643E+02  0.40000137843E+02 0.  0.
         12    1    3    3    0    0  0.13797687282E+02 -0.28143153341E+02 -0.19322580958E+02  0.36820855357E+02  0.00000000000E+00 0. -1.
         11    1    4    4    0    0 -0.17025818574E+02 -0.35367851570E+01  0.62154965355E+01  0.18466719925E+02  0.51100000000E-03 0. -1.
        -11    1    4    4    0    0  0.63948881056E+01  0.13444329344E+02  0.51409943765E+01  0.15750378054E+02  0.51100000000E-03 0.  1.
        -12    1    4    4    0    0 -0.31667568137E+01  0.18235609155E+02  0.79660900460E+01  0.20150046664E+02  0.00000000000E+00 0.  1.
</event>
<event>
 8    1  0.2971508E-007  0.9118800E+02  0.7816164E-02  0.1184000E+00
        -11   -1    0    0    0    0  0.00000000000E+00  0.00000000000E+00  0.45593999997E+02  0.45594000000E+02  0.51100000000E-03 0.  1.
         11   -1    0    0    0    0 -0.00000000000E+00 -0.00000000000E+00 -0.45593999997E+02  0.45594000000E+02  0.51100000000E-03 0. -1.
         23    2    1    2    0    0 -0.71054273576E-14  0.00000000000E+00  0.00000000000E+00  0.91188000000E+02  0.91188000000E+02 0.  0.
    9900012    2    3    3    0    0  0.29009924119E+02  0.14223298059E+02  0.17660738723E+02  0.54367087500E+02  0.40000007574E+02 0.  0.
         12    1    3    3    0    0 -0.29009924119E+02 -0.14223298059E+02 -0.17660738723E+02  0.36820912500E+02  0.00000000000E+00 0. -1.
         11    1    4    4    0    0  0.30141999331E+02  0.11467220294E+02  0.22954193477E+02  0.39584495240E+02  0.51100000000E-03 0.  1.
        -11    1    4    4    0    0 -0.35009764550E+00  0.80376050071E+01 -0.13797300206E+01  0.81626783473E+01  0.51100000000E-03 0. -1.
        -12    1    4    4    0    0 -0.78197756632E+00 -0.52815272419E+01 -0.39137247342E+01  0.66199139130E+01  0.00000000000E+00 0.  1.
</event>
<event>
 8    1  0.2971508E-007  0.9118800E+02  0.7816164E-02  0.1184000E+00
        -11   -1    0    0    0    0  0.00000000000E+00  0.00000000000E+00  0.45593999997E+02  0.45594000000E+02  0.51100000000E-03 0. -1.
         11   -1    0    0    0    0 -0.00000000000E+00 -0.00000000000E+00 -0.45593999997E+02  0.45594000000E+02  0.51100000000E-03 0.  1.
         23    2    1    2    0    0  0.00000000000E+00  0.00000000000E+00 -0.88817841970E-15  0.91188000000E+02  0.91188000000E+02 0.  0.
    9900012    2    3    3    0    0 -0.17172435703E+02  0.32512300023E+02  0.19592367826E+01  0.54367071039E+02  0.39999970049E+02 0.  0.
         12    1    3    3    0    0  0.17172435703E+02 -0.32512300023E+02 -0.19592367826E+01  0.36820928961E+02  0.00000000000E+00 0. -1.
         11    1    4    4    0    0 -0.23631072278E+01 -0.35174653299E+01  0.10473740777E+00  0.42388451614E+01  0.51100000000E-03 0. -1.
        -11    1    4    4    0    0 -0.16686961206E+02  0.28641646546E+02 -0.11218499382E+02  0.34995047075E+02  0.51100000000E-03 0.  1.
         12    1    4    4    0    0  0.18776327307E+01  0.73881188064E+01  0.13072998757E+02  0.15133178803E+02  0.00000000000E+00 0. -1.
</event>
<event>
 8    1  0.2971508E-007  0.9118800E+02  0.7816164E-02  0.1184000E+00
        -11   -1    0    0    0    0  0.00000000000E+00  0.00000000000E+00  0.45593999997E+02  0.45594000000E+02  0.51100000000E-03 0.  1.
         11   -1    0    0    0    0 -0.00000000000E+00 -0.00000000000E+00 -0.45593999997E+02  0.45594000000E+02  0.51100000000E-03 0. -1.
         23    2    1    2    0    0  0.00000000000E+00  0.00000000000E+00 -0.44408920985E-15  0.91188000000E+02  0.91188000000E+02 0.  0.
    9900012    2    3    3    0    0  0.16871788497E+02  0.32493978160E+02 -0.39068480852E+01  0.54367091189E+02  0.40000015983E+02 0.  0.
        -12    1    3    3    0    0 -0.16871788497E+02 -0.32493978160E+02  0.39068480852E+01  0.36820908811E+02  0.00000000000E+00 0.  1.
         11    1    4    4    0    0  0.66733179749E+01  0.33469553497E+02 -0.43624621914E+01  0.34406035237E+02  0.51100000000E-03 0. -1.
        -11    1    4    4    0    0 -0.47675725507E+01  0.88863329240E+00  0.53537344252E+00  0.48791435866E+01  0.51100000000E-03 0.  1.
        -12    1    4    4    0    0  0.14966043072E+02 -0.18642086294E+01 -0.79759336275E-01  0.15081912366E+02  0.00000000000E+00 0.  1.
</event>
<event>
 8    1  0.2971508E-007  0.9118800E+02  0.7816164E-02  0.1184000E+00
        -11   -1    0    0    0    0  0.00000000000E+00  0.00000000000E+00  0.45593999997E+02  0.45594000000E+02  0.51100000000E-03 0. -1.
         11   -1    0    0    0    0 -0.00000000000E+00 -0.00000000000E+00 -0.45593999997E+02  0.45594000000E+02  0.51100000000E-03 0.  1.
         23    2    1    2    0    0  0.00000000000E+00 -0.66613381478E-15  0.00000000000E+00  0.91188000000E+02  0.91188000000E+02 0.  0.
    9900012    2    3    3    0    0  0.17326717358E+02  0.54903040387E+00  0.32484818080E+02  0.54367082379E+02  0.39999995898E+02 0.  0.
         12    1    3    3    0    0 -0.17326717358E+02 -0.54903040387E+00 -0.32484818080E+02  0.36820917621E+02  0.00000000000E+00 0. -1.
         11    1    4    4    0    0 -0.17075226691E+01  0.23136865797E+01  0.21327412645E+02  0.21520392878E+02  0.51100000000E-03 0. -1.
        -11    1    4    4    0    0  0.46707215604E+01  0.10822146037E+02  0.46326118460E+01  0.12664737562E+02  0.51100000000E-03 0.  1.
        -12    1    4    4    0    0  0.14363518466E+02 -0.12586802212E+02  0.65247935896E+01  0.20181951939E+02  0.00000000000E+00 0.  1.
</event>
<event>
 8    1  0.2971508E-007  0.9118800E+02  0.7816164E-02  0.1184000E+00
        -11   -1    0    0    0    0  0.00000000000E+00  0.00000000000E+00  0.45593999997E+02  0.45594000000E+02  0.51100000000E-03 0.  1.
         11   -1    0    0    0    0 -0.00000000000E+00 -0.00000000000E+00 -0.45593999997E+02  0.45594000000E+02  0.51100000000E-03 0. -1.
         23    2    1    2    0    0  0.00000000000E+00  0.55511151231E-15  0.71054273576E-14  0.91188000000E+02  0.91188000000E+02 0.  0.
    9900012    2    3    3    0    0  0.40466757897E+01 -0.92914417720E+00 -0.36586052077E+02  0.54367107826E+02  0.40000053912E+02 0.  0.
        -12    1    3    3    0    0 -0.40466757897E+01  0.92914417720E+00  0.36586052077E+02  0.36820892174E+02  0.00000000000E+00 0.  1.
         11    1    4    4    0    0 -0.15596079861E+01  0.13657623121E+00 -0.12568780821E+02  0.12665910221E+02  0.51100000000E-03 0. -1.
        -11    1    4    4    0    0 -0.52469646672E+01 -0.10987425131E+02 -0.24094327316E+02  0.26996124876E+02  0.51100000000E-03 0.  1.
         12    1    4    4    0    0  0.10853248443E+02  0.99217047223E+01  0.77056059522E-01  0.14705072730E+02  0.00000000000E+00 0. -1.
</event>
<event>
 8    1  0.2971508E-007  0.9118800E+02  0.7816164E-02  0.1184000E+00
        -11   -1    0    0    0    0  0.00000000000E+00  0.00000000000E+00  0.45593999997E+02  0.45594000000E+02  0.51100000000E-03 0. -1.
         11   -1    0    0    0    0 -0.00000000000E+00 -0.00000000000E+00 -0.45593999997E+02  0.45594000000E+02  0.51100000000E-03 0.  1.
         23    2    1    2    0    0  0.00000000000E+00  0.00000000000E+00  0.00000000000E+00  0.91188000000E+02  0.91188000000E+02 0.  0.
    9900012    2    3    3    0    0  0.33955762185E+02 -0.38686204256E+01 -0.13704778049E+02  0.54367069119E+02  0.39999965671E+02 0.  0.
         12    1    3    3    0    0 -0.33955762185E+02  0.38686204256E+01  0.13704778049E+02  0.36820930881E+02  0.00000000000E+00 0. -1.
         11    1    4    4    0    0  0.29311182995E+01 -0.54790513113E+01  0.25985616264E+01  0.67352788023E+01  0.51100000000E-03 0. -1.
        -11    1    4    4    0    0  0.22402212165E+02  0.65033590339E+01  0.52474370787E+01  0.23910005955E+02  0.51100000000E-03 0.  1.
         12    1    4    4    0    0  0.86224317208E+01 -0.48929281482E+01 -0.21550776754E+02  0.23721784363E+02  0.00000000000E+00 0. -1.
</event>
<event>
 8    1  0.2971508E-007  0.9118800E+02  0.7816164E-02  0.1184000E+00
        -11   -1    0    0    0    0  0.00000000000E+00  0.00000000000E+00  0.45593999997E+02  0.45594000000E+02  0.51100000000E-03 0. -1.
         11   -1    0    0    0    0 -0.00000000000E+00 -0.00000000000E+00 -0.45593999997E+02  0.45594000000E+02  0.51100000000E-03 0.  1.
         23    2    1    2    0    0  0.00000000000E+00 -0.71054273576E-14  0.00000000000E+00  0.91188000000E+02  0.91188000000E+02 0.  0.
    9900012    2    3    3    0    0  0.68219710287E+01  0.32596760156E+02  0.15706413818E+02  0.54367088870E+02  0.40000010698E+02 0.  0.
        -12    1    3    3    0    0 -0.68219710287E+01 -0.32596760156E+02 -0.15706413818E+02  0.36820911130E+02  0.00000000000E+00 0.  1.
         11    1    4    4    0    0 -0.19525721424E+01  0.18405134233E+02  0.41726243106E+01  0.18972935935E+02  0.51100000000E-03 0. -1.
        -11    1    4    4    0    0  0.13788769747E+02 -0.39925556190E+01  0.28811397291E+01  0.14641435651E+02  0.51100000000E-03 0.  1.
         12    1    4    4    0    0 -0.50142265760E+01  0.18184181542E+02  0.86526497781E+01  0.20752717285E+02  0.00000000000E+00 0. -1.
</event>
<event>
 8    1  0.2971508E-007  0.9118800E+02  0.7816164E-02  0.1184000E+00
        -11   -1    0    0    0    0  0.00000000000E+00  0.00000000000E+00  0.45593999997E+02  0.45594000000E+02  0.51100000000E-03 0. -1.
         11   -1    0    0    0    0 -0.00000000000E+00 -0.00000000000E+00 -0.45593999997E+02  0.45594000000E+02  0.51100000000E-03 0.  1.
         23    2    1    2    0    0 -0.35527136788E-14 -0.17763568394E-14  0.35527136788E-14  0.91188000000E+02  0.91188000000E+02 0.  0.
    9900012    2    3    3    0    0 -0.19273148072E+02 -0.13888851536E+02  0.28132254330E+02  0.54367106919E+02  0.40000051843E+02 0.  0.
        -12    1    3    3    0    0  0.19273148072E+02  0.13888851536E+02 -0.28132254330E+02  0.36820893081E+02  0.00000000000E+00 0.  1.
         11    1    4    4    0    0 -0.24572314630E+02  0.26215246544E+00  0.15244369914E+02  0.28918128995E+02  0.51100000000E-03 0.  1.
        -11    1    4    4    0    0  0.67552075669E+01 -0.17199504629E+02  0.10037128787E+02  0.21028545915E+02  0.51100000000E-03 0. -1.
         12    1    4    4    0    0 -0.14560410084E+01  0.30485006270E+01  0.28507556288E+01  0.44204320090E+01  0.00000000000E+00 0. -1.
</event>
<event>
 8    1  0.2971508E-007  0.9118800E+02  0.7816164E-02  0.1184000E+00
        -11   -1    0    0    0    0  0.00000000000E+00  0.00000000000E+00  0.45593999997E+02  0.45594000000E+02  0.51100000000E-03 0.  1.
         11   -1    0    0    0    0 -0.00000000000E+00 -0.00000000000E+00 -0.45593999997E+02  0.45594000000E+02  0.51100000000E-03 0. -1.
         23    2    1    2    0    0  0.35527136788E-14  0.00000000000E+00  0.00000000000E+00  0.91188000000E+02  0.91188000000E+02 0.  0.
    9900012    2    3    3    0    0  0.29211240139E+02  0.21329500088E+02  0.68944971791E+01  0.54367106260E+02  0.40000050341E+02 0.  0.
        -12    1    3    3    0    0 -0.29211240139E+02 -0.21329500088E+02 -0.68944971791E+01  0.36820893740E+02  0.00000000000E+00 0.  1.
         11    1    4    4    0    0  0.42654827118E+01 -0.39152900070E+00 -0.11963964584E+02  0.12707638906E+02  0.51100000000E-03 0. -1.
        -11    1    4    4    0    0  0.15371906976E+02  0.65581734694E+01  0.16651291673E+02  0.23591750210E+02  0.51100000000E-03 0.  1.
         12    1    4    4    0    0  0.95738504508E+01  0.15162855619E+02  0.22071700904E+01  0.18067717144E+02  0.00000000000E+00 0. -1.
</event>
<event>
 8    1  0.2971508E-007  0.9118800E+02  0.7816164E-02  0.1184000E+00
        -11   -1    0    0    0    0  0.00000000000E+00  0.00000000000E+00  0.45593999997E+02  0.45594000000E+02  0.51100000000E-03 0.  1.
         11   -1    0    0    0    0 -0.00000000000E+00 -0.00000000000E+00 -0.45593999997E+02  0.45594000000E+02  0.51100000000E-03 0. -1.
         23    2    1    2    0    0 -0.71054273576E-14  0.00000000000E+00 -0.71054273576E-14  0.91188000000E+02  0.91188000000E+02 0.  0.
    9900012    2    3    3    0    0 -0.17724837160E+02 -0.17890890209E+02 -0.26861220852E+02  0.54367095741E+02  0.40000026361E+02 0.  0.
        -12    1    3    3    0    0  0.17724837160E+02  0.17890890209E+02  0.26861220852E+02  0.36820904259E+02  0.00000000000E+00 0.  1.
         11    1    4    4    0    0 -0.16807931915E+02 -0.88942550227E+01 -0.23719276362E+02  0.30400960825E+02  0.51100000000E-03 0. -1.
        -11    1    4    4    0    0 -0.10810457340E+02 -0.85843030840E+01 -0.10397866402E+01  0.13843316216E+02  0.51100000000E-03 0.  1.
        -12    1    4    4    0    0  0.98935520950E+01 -0.41233210259E+00 -0.21021578492E+01  0.10122818700E+02  0.00000000000E+00 0.  1.
</event>
<event>
 8    1  0.2971508E-007  0.9118800E+02  0.7816164E-02  0.1184000E+00
        -11   -1    0    0    0    0  0.00000000000E+00  0.00000000000E+00  0.45593999997E+02  0.45594000000E+02  0.51100000000E-03 0. -1.
         11   -1    0    0    0    0 -0.00000000000E+00 -0.00000000000E+00 -0.45593999997E+02  0.45594000000E+02  0.51100000000E-03 0.  1.
         23    2    1    2    0    0  0.00000000000E+00  0.17763568394E-14  0.00000000000E+00  0.91188000000E+02  0.91188000000E+02 0.  0.
    9900012    2    3    3    0    0  0.30010380388E+02 -0.15787381101E+02 -0.14349780587E+02  0.54367074755E+02  0.39999978519E+02 0.  0.
         12    1    3    3    0    0 -0.30010380388E+02  0.15787381101E+02  0.14349780587E+02  0.36820925245E+02  0.00000000000E+00 0. -1.
         11    1    4    4    0    0 -0.85932304797E+00 -0.84726379536E+01  0.86310916812E+01  0.12125171086E+02  0.51100000000E-03 0. -1.
        -11    1    4    4    0    0  0.80521720910E+01  0.30625765591E+01 -0.12247909138E+02  0.14974248865E+02  0.51100000000E-03 0.  1.
         12    1    4    4    0    0  0.22817531345E+02 -0.10377319706E+02 -0.10732963130E+02  0.27267654804E+02  0.00000000000E+00 0. -1.
</event>
<event>
 8    1  0.2971508E-007  0.9118800E+02  0.7816164E-02  0.1184000E+00
        -11   -1    0    0    0    0  0.00000000000E+00  0.00000000000E+00  0.45593999997E+02  0.45594000000E+02  0.51100000000E-03 0.  1.
         11   -1    0    0    0    0 -0.00000000000E+00 -0.00000000000E+00 -0.45593999997E+02  0.45594000000E+02  0.51100000000E-03 0. -1.
         23    2    1    2    0    0 -0.17763568394E-14 -0.71054273576E-14  0.00000000000E+00  0.91188000000E+02  0.91188000000E+02 0.  0.
    9900012    2    3    3    0    0 -0.15937480017E+02 -0.30348850250E+02  0.13443372385E+02  0.54367078748E+02  0.39999987621E+02 0.  0.
         12    1    3    3    0    0  0.15937480017E+02  0.30348850250E+02 -0.13443372385E+02  0.36820921252E+02  0.00000000000E+00 0. -1.
         11    1    4    4    0    0 -0.23221700274E+01  0.28820221549E+01 -0.56113779393E+01  0.67220598016E+01  0.51100000000E-03 0. -1.
        -11    1    4    4    0    0 -0.19133142280E+02 -0.29228720972E+02  0.10049587750E+02  0.36350921272E+02  0.51100000000E-03 0.  1.
         12    1    4    4    0    0  0.55178322901E+01 -0.40021514330E+01  0.90051625745E+01  0.11294097674E+02  0.00000000000E+00 0. -1.
</event>
<event>
 8    1  0.2971508E-007  0.9118800E+02  0.7816164E-02  0.1184000E+00
        -11   -1    0    0    0    0  0.00000000000E+00  0.00000000000E+00  0.45593999997E+02  0.45594000000E+02  0.51100000000E-03 0.  1.
         11   -1    0    0    0    0 -0.00000000000E+00 -0.00000000000E+00 -0.45593999997E+02  0.45594000000E+02  0.51100000000E-03 0. -1.
         23    2    1    2    0    0  0.00000000000E+00  0.00000000000E+00  0.00000000000E+00  0.91188000000E+02  0.91188000000E+02 0.  0.
    9900012    2    3    3    0    0  0.23755241106E+02  0.52761477921E+01 -0.27633873279E+02  0.54367079752E+02  0.39999989910E+02 0.  0.
        -12    1    3    3    0    0 -0.23755241106E+02 -0.52761477921E+01  0.27633873279E+02  0.36820920248E+02  0.00000000000E+00 0.  1.
         11    1    4    4    0    0  0.35508864695E+01  0.58369991152E+01 -0.59171183250E+00  0.68578040614E+01  0.51100000000E-03 0. -1.
        -11    1    4    4    0    0  0.15730402042E+02 -0.27538574383E+01  0.36779754355E+01  0.16387702181E+02  0.51100000000E-03 0.  1.
        -12    1    4    4    0    0  0.44739525941E+01  0.21930061152E+01 -0.30720136882E+02  0.31121573509E+02  0.00000000000E+00 0.  1.
</event>
<event>
 8    1  0.2971508E-007  0.9118800E+02  0.7816164E-02  0.1184000E+00
        -11   -1    0    0    0    0  0.00000000000E+00  0.00000000000E+00  0.45593999997E+02  0.45594000000E+02  0.51100000000E-03 0. -1.
         11   -1    0    0    0    0 -0.00000000000E+00 -0.00000000000E+00 -0.45593999997E+02  0.45594000000E+02  0.51100000000E-03 0.  1.
         23    2    1    2    0    0  0.17763568394E-14  0.00000000000E+00  0.00000000000E+00  0.91188000000E+02  0.91188000000E+02 0.  0.
    9900012    2    3    3    0    0 -0.15170813151E+02 -0.22271027081E+02  0.25092390177E+02  0.54367078451E+02  0.39999986944E+02 0.  0.
         12    1    3    3    0    0  0.15170813151E+02  0.22271027081E+02 -0.25092390177E+02  0.36820921549E+02  0.00000000000E+00 0. -1.
         11    1    4    4    0    0  0.50362304171E+01 -0.11671261456E+02  0.11441882582E+02  0.17102591560E+02  0.51100000000E-03 0. -1.
        -11    1    4    4    0    0 -0.43970537233E+01  0.50226431908E+01  0.13474431748E+02  0.15037331454E+02  0.51100000000E-03 0.  1.
        -12    1    4    4    0    0 -0.15809989845E+02 -0.15622408816E+02  0.17607584797E+00  0.22227155437E+02  0.00000000000E+00 0.  1.
</event>
<event>
 8    1  0.2971508E-007  0.9118800E+02  0.7816164E-02  0.1184000E+00
        -11   -1    0    0    0    0  0.00000000000E+00  0.00000000000E+00  0.45593999997E+02  0.45594000000E+02  0.51100000000E-03 0. -1.
         11   -1    0    0    0    0 -0.00000000000E+00 -0.00000000000E+00 -0.45593999997E+02  0.45594000000E+02  0.51100000000E-03 0.  1.
         23    2    1    2    0    0  0.71054273576E-14  0.00000000000E+00  0.00000000000E+00  0.91188000000E+02  0.91188000000E+02 0.  0.
    9900012    2    3    3    0    0  0.33447531688E+02  0.13733860063E+02 -0.69588244184E+01  0.54367061317E+02  0.39999947883E+02 0.  0.
         12    1    3    3    0    0 -0.33447531688E+02 -0.13733860063E+02  0.69588244184E+01  0.36820938683E+02  0.00000000000E+00 0. -1.
         11    1    4    4    0    0 -0.35565296011E+00 -0.77110591869E+00 -0.63520293120E+00  0.10604604617E+01  0.51100000000E-03 0. -1.
        -11    1    4    4    0    0 -0.76862741361E+00  0.14565401719E+02  0.70977025030E+01  0.16220946225E+02  0.51100000000E-03 0.  1.
        -12    1    4    4    0    0  0.34571812062E+02 -0.60435737405E-01 -0.13421323990E+02  0.37085654630E+02  0.00000000000E+00 0.  1.
</event>
<event>
 8    1  0.2971508E-007  0.9118800E+02  0.7816164E-02  0.1184000E+00
        -11   -1    0    0    0    0  0.00000000000E+00  0.00000000000E+00  0.45593999997E+02  0.45594000000E+02  0.51100000000E-03 0. -1.
         11   -1    0    0    0    0 -0.00000000000E+00 -0.00000000000E+00 -0.45593999997E+02  0.45594000000E+02  0.51100000000E-03 0.  1.
         23    2    1    2    0    0  0.00000000000E+00  0.00000000000E+00  0.35527136788E-14  0.91188000000E+02  0.91188000000E+02 0.  0.
    9900012    2    3    3    0    0  0.92873317081E+01 -0.23023744644E+02 -0.27192532946E+02  0.54367065795E+02  0.39999958093E+02 0.  0.
         12    1    3    3    0    0 -0.92873317081E+01  0.23023744644E+02  0.27192532946E+02  0.36820934205E+02  0.00000000000E+00 0. -1.
         11    1    4    4    0    0  0.13076545237E+02 -0.66448944313E+01 -0.10309833759E+02  0.17928840725E+02  0.51100000000E-03 0. -1.
        -11    1    4    4    0    0 -0.17862967698E+00  0.28995815699E+01 -0.16569354433E+02  0.16822098218E+02  0.51100000000E-03 0.  1.
         12    1    4    4    0    0 -0.36105838517E+01 -0.19278431783E+02 -0.31334475382E+00  0.19616126853E+02  0.00000000000E+00 0. -1.
</event>
<event>
 8    1  0.2971508E-007  0.9118800E+02  0.7816164E-02  0.1184000E+00
        -11   -1    0    0    0    0  0.00000000000E+00  0.00000000000E+00  0.45593999997E+02  0.45594000000E+02  0.51100000000E-03 0.  1.
         11   -1    0    0    0    0 -0.00000000000E+00 -0.00000000000E+00 -0.45593999997E+02  0.45594000000E+02  0.51100000000E-03 0. -1.
         23    2    1    2    0    0 -0.88817841970E-15  0.00000000000E+00  0.00000000000E+00  0.91188000000E+02  0.91188000000E+02 0.  0.
    9900012    2    3    3    0    0  0.46730503677E+01  0.20617390126E+02 -0.30147395611E+02  0.54367086955E+02  0.40000006331E+02 0.  0.
        -12    1    3    3    0    0 -0.46730503677E+01 -0.20617390126E+02  0.30147395611E+02  0.36820913045E+02  0.00000000000E+00 0.  1.
         11    1    4    4    0    0 -0.99142740682E+01  0.24047335013E+01 -0.22438832037E+02  0.24649072132E+02  0.51100000000E-03 0. -1.
        -11    1    4    4    0    0 -0.17622457328E+01 -0.99363691751E+00  0.18532577576E+01  0.27436087410E+01  0.51100000000E-03 0.  1.
        -12    1    4    4    0    0  0.16349570169E+02  0.19206293542E+02 -0.95618213318E+01  0.26974406082E+02  0.00000000000E+00 0.  1.
</event>
<event>
 8    1  0.2971508E-007  0.9118800E+02  0.7816164E-02  0.1184000E+00
        -11   -1    0    0    0    0  0.00000000000E+00  0.00000000000E+00  0.45593999997E+02  0.45594000000E+02  0.51100000000E-03 0.  1.
         11   -1    0    0    0    0 -0.00000000000E+00 -0.00000000000E+00 -0.45593999997E+02  0.45594000000E+02  0.51100000000E-03 0. -1.
         23    2    1    2    0    0  0.00000000000E+00  0.00000000000E+00  0.35527136788E-14  0.91188000000E+02  0.91188000000E+02 0.  0.
    9900012    2    3    3    0    0 -0.70815575638E+01 -0.28513879576E+02 -0.22194034372E+02  0.54367286431E+02  0.40000461074E+02 0.  0.
         12    1    3    3    0    0  0.70815575638E+01  0.28513879576E+02  0.22194034372E+02  0.36820713569E+02  0.00000000000E+00 0. -1.
         11    1    4    4    0    0 -0.53516052288E+01 -0.85343195192E+01 -0.19065127004E+02  0.21562777097E+02  0.51100000000E-03 0. -1.
        -11    1    4    4    0    0 -0.19908233920E+00 -0.25144695774E+02  0.21815145531E+01  0.25239935923E+02  0.51100000000E-03 0.  1.
        -12    1    4    4    0    0 -0.15308699958E+01  0.51651357172E+01 -0.53104219208E+01  0.75645734115E+01  0.00000000000E+00 0.  1.
</event>
<event>
 8    1  0.2971508E-007  0.9118800E+02  0.7816164E-02  0.1184000E+00
        -11   -1    0    0    0    0  0.00000000000E+00  0.00000000000E+00  0.45593999997E+02  0.45594000000E+02  0.51100000000E-03 0.  1.
         11   -1    0    0    0    0 -0.00000000000E+00 -0.00000000000E+00 -0.45593999997E+02  0.45594000000E+02  0.51100000000E-03 0. -1.
         23    2    1    2    0    0  0.00000000000E+00 -0.17763568394E-14  0.00000000000E+00  0.91188000000E+02  0.91188000000E+02 0.  0.
    9900012    2    3    3    0    0  0.28646411898E+02  0.12254565996E+02  0.19621141267E+02  0.54367075419E+02  0.39999980032E+02 0.  0.
         12    1    3    3    0    0 -0.28646411898E+02 -0.12254565996E+02 -0.19621141267E+02  0.36820924581E+02  0.00000000000E+00 0. -1.
         11    1    4    4    0    0  0.48788599377E+01 -0.24885405048E+01  0.12261167020E+01  0.56124389140E+01  0.51100000000E-03 0. -1.
        -11    1    4    4    0    0  0.51370552939E+01  0.88002194720E+01 -0.10000147960E+02  0.14277120135E+02  0.51100000000E-03 0.  1.
        -12    1    4    4    0    0  0.18630496667E+02  0.59428870290E+01  0.28395172526E+02  0.34477516370E+02  0.00000000000E+00 0.  1.
</event>
<event>
 8    1  0.2971508E-007  0.9118800E+02  0.7816164E-02  0.1184000E+00
        -11   -1    0    0    0    0  0.00000000000E+00  0.00000000000E+00  0.45593999997E+02  0.45594000000E+02  0.51100000000E-03 0.  1.
         11   -1    0    0    0    0 -0.00000000000E+00 -0.00000000000E+00 -0.45593999997E+02  0.45594000000E+02  0.51100000000E-03 0. -1.
         23    2    1    2    0    0  0.88817841970E-15  0.00000000000E+00  0.00000000000E+00  0.91188000000E+02  0.91188000000E+02 0.  0.
    9900012    2    3    3    0    0  0.65594397330E+01  0.15521919326E+01  0.36198681151E+02  0.54367081129E+02  0.39999993050E+02 0.  0.
         12    1    3    3    0    0 -0.65594397330E+01 -0.15521919326E+01 -0.36198681151E+02  0.36820918871E+02  0.00000000000E+00 0. -1.
         11    1    4    4    0    0 -0.76313001617E+01  0.96035308916E+00  0.19964297480E+02  0.21394676776E+02  0.51100000000E-03 0. -1.
        -11    1    4    4    0    0  0.19730175169E+01  0.10452434042E+02  0.35678385723E+00  0.10643001010E+02  0.51100000000E-03 0.  1.
        -12    1    4    4    0    0  0.12217722378E+02 -0.98605951986E+01  0.15877599814E+02  0.22329403343E+02  0.00000000000E+00 0.  1.
</event>
<event>
 8    1  0.2971508E-007  0.9118800E+02  0.7816164E-02  0.1184000E+00
        -11   -1    0    0    0    0  0.00000000000E+00  0.00000000000E+00  0.45593999997E+02  0.45594000000E+02  0.51100000000E-03 0.  1.
         11   -1    0    0    0    0 -0.00000000000E+00 -0.00000000000E+00 -0.45593999997E+02  0.45594000000E+02  0.51100000000E-03 0. -1.
         23    2    1    2    0    0  0.00000000000E+00  0.00000000000E+00  0.00000000000E+00  0.91188000000E+02  0.91188000000E+02 0.  0.
    9900012    2    3    3    0    0 -0.19554732787E+02 -0.25124888378E+02 -0.18496819383E+02  0.54367083150E+02  0.39999997657E+02 0.  0.
        -12    1    3    3    0    0  0.19554732787E+02  0.25124888378E+02  0.18496819383E+02  0.36820916850E+02  0.00000000000E+00 0.  1.
         11    1    4    4    0    0 -0.10899551479E+02 -0.63849997756E+00 -0.44356765411E+01  0.11784868744E+02  0.51100000000E-03 0. -1.
        -11    1    4    4    0    0 -0.15716931834E+02 -0.22387250570E+02 -0.19356455507E+02  0.33509450972E+02  0.51100000000E-03 0.  1.
        -12    1    4    4    0    0  0.70617505262E+01 -0.20991378304E+01  0.52953126647E+01  0.90727634347E+01  0.00000000000E+00 0.  1.
</event>
<event>
 8    1  0.2971508E-007  0.9118800E+02  0.7816164E-02  0.1184000E+00
        -11   -1    0    0    0    0  0.00000000000E+00  0.00000000000E+00  0.45593999997E+02  0.45594000000E+02  0.51100000000E-03 0.  1.
         11   -1    0    0    0    0 -0.00000000000E+00 -0.00000000000E+00 -0.45593999997E+02  0.45594000000E+02  0.51100000000E-03 0. -1.
         23    2    1    2    0    0  0.17763568394E-14 -0.88817841970E-15  0.00000000000E+00  0.91188000000E+02  0.91188000000E+02 0.  0.
    9900012    2    3    3    0    0  0.86374035669E+01 -0.50300034180E+01 -0.35438345097E+02  0.54367055172E+02  0.39999933876E+02 0.  0.
        -12    1    3    3    0    0 -0.86374035669E+01  0.50300034180E+01  0.35438345097E+02  0.36820944828E+02  0.00000000000E+00 0.  1.
         11    1    4    4    0    0 -0.92964466251E+01 -0.36142864124E+01 -0.13361141465E+02  0.16673544543E+02  0.51100000000E-03 0. -1.
        -11    1    4    4    0    0  0.13272478160E+02  0.53158480512E+01 -0.16166599069E+00  0.14298358408E+02  0.51100000000E-03 0.  1.
        -12    1    4    4    0    0  0.46613720324E+01 -0.67315650568E+01 -0.21915537642E+02  0.23395152221E+02  0.00000000000E+00 0.  1.
</event>
<event>
 8    1  0.2971508E-007  0.9118800E+02  0.7816164E-02  0.1184000E+00
        -11   -1    0    0    0    0  0.00000000000E+00  0.00000000000E+00  0.45593999997E+02  0.45594000000E+02  0.51100000000E-03 0.  1.
         11   -1    0    0    0    0 -0.00000000000E+00 -0.00000000000E+00 -0.45593999997E+02  0.45594000000E+02  0.51100000000E-03 0. -1.
         23    2    1    2    0    0  0.17763568394E-14  0.35527136788E-14  0.71054273576E-14  0.91188000000E+02  0.91188000000E+02 0.  0.
    9900012    2    3    3    0    0 -0.31541113587E+01 -0.17770684323E+02 -0.32094143396E+02  0.54367086376E+02  0.40000005011E+02 0.  0.
         12    1    3    3    0    0  0.31541113587E+01  0.17770684323E+02  0.32094143396E+02  0.36820913624E+02  0.00000000000E+00 0. -1.
         11    1    4    4    0    0 -0.47099660418E+01 -0.16517214755E+02 -0.32458808307E+02  0.36722968295E+02  0.51100000000E-03 0. -1.
        -11    1    4    4    0    0 -0.69389443059E+01  0.22757022981E+01  0.32646255722E+01  0.79990967876E+01  0.51100000000E-03 0.  1.
        -12    1    4    4    0    0  0.84947989889E+01 -0.35291718664E+01 -0.28999606610E+01  0.96450212939E+01  0.00000000000E+00 0.  1.
</event>
<event>
 8    1  0.2971508E-007  0.9118800E+02  0.7816164E-02  0.1184000E+00
        -11   -1    0    0    0    0  0.00000000000E+00  0.00000000000E+00  0.45593999997E+02  0.45594000000E+02  0.51100000000E-03 0.  1.
         11   -1    0    0    0    0 -0.00000000000E+00 -0.00000000000E+00 -0.45593999997E+02  0.45594000000E+02  0.51100000000E-03 0. -1.
         23    2    1    2    0    0  0.00000000000E+00  0.88817841970E-15 -0.35527136788E-14  0.91188000000E+02  0.91188000000E+02 0.  0.
    9900012    2    3    3    0    0  0.27135365035E+02  0.55149728604E+00  0.24882665802E+02  0.54367092322E+02  0.40000018567E+02 0.  0.
         12    1    3    3    0    0 -0.27135365035E+02 -0.55149728604E+00 -0.24882665802E+02  0.36820907678E+02  0.00000000000E+00 0. -1.
         11    1    4    4    0    0  0.13107417871E+02  0.46918097964E+01  0.37464231396E+01  0.14417113755E+02  0.51100000000E-03 0.  1.
        -11    1    4    4    0    0  0.23995841078E+01 -0.16195387740E+02  0.14710773819E+02  0.22010348806E+02  0.51100000000E-03 0. -1.
         12    1    4    4    0    0  0.11628363056E+02  0.12055075229E+02  0.64254688430E+01  0.17939629762E+02  0.00000000000E+00 0. -1.
</event>
<event>
 8    1  0.2971508E-007  0.9118800E+02  0.7816164E-02  0.1184000E+00
        -11   -1    0    0    0    0  0.00000000000E+00  0.00000000000E+00  0.45593999997E+02  0.45594000000E+02  0.51100000000E-03 0.  1.
         11   -1    0    0    0    0 -0.00000000000E+00 -0.00000000000E+00 -0.45593999997E+02  0.45594000000E+02  0.51100000000E-03 0. -1.
         23    2    1    2    0    0  0.00000000000E+00  0.00000000000E+00  0.00000000000E+00  0.91188000000E+02  0.91188000000E+02 0.  0.
    9900012    2    3    3    0    0  0.15873633957E+02 -0.32234188029E+02 -0.80476830920E+01  0.54367077469E+02  0.39999984706E+02 0.  0.
        -12    1    3    3    0    0 -0.15873633957E+02  0.32234188029E+02  0.80476830920E+01  0.36820922531E+02  0.00000000000E+00 0.  1.
         11    1    4    4    0    0 -0.78916729165E+01 -0.11002629375E+02 -0.79835080984E+01  0.15718548164E+02  0.51100000000E-03 0. -1.
        -11    1    4    4    0    0  0.27081612760E+02 -0.15441544824E+02  0.29755379130E+01  0.31316271846E+02  0.51100000000E-03 0.  1.
        -12    1    4    4    0    0 -0.33163058861E+01 -0.57900138299E+01 -0.30397129066E+01  0.73322574583E+01  0.00000000000E+00 0.  1.
</event>
<event>
 8    1  0.2971508E-007  0.9118800E+02  0.7816164E-02  0.1184000E+00
        -11   -1    0    0    0    0  0.00000000000E+00  0.00000000000E+00  0.45593999997E+02  0.45594000000E+02  0.51100000000E-03 0. -1.
         11   -1    0    0    0    0 -0.00000000000E+00 -0.00000000000E+00 -0.45593999997E+02  0.45594000000E+02  0.51100000000E-03 0.  1.
         23    2    1    2    0    0  0.71054273576E-14  0.00000000000E+00  0.88817841970E-15  0.91188000000E+02  0.91188000000E+02 0.  0.
    9900012    2    3    3    0    0  0.33429753357E+02 -0.13518740140E+02 -0.74483135522E+01  0.54367053254E+02  0.39999929503E+02 0.  0.
        -12    1    3    3    0    0 -0.33429753357E+02  0.13518740140E+02  0.74483135522E+01  0.36820946746E+02  0.00000000000E+00 0.  1.
         11    1    4    4    0    0  0.14814723535E+02 -0.35819614964E+01 -0.19948878818E+02  0.25105064189E+02  0.51100000000E-03 0.  1.
        -11    1    4    4    0    0  0.38004960838E+01 -0.20369610518E+01  0.11682499109E+02  0.12452861779E+02  0.51100000000E-03 0. -1.
        -12    1    4    4    0    0  0.14814533739E+02 -0.78998175917E+01  0.81806615714E+00  0.16809127286E+02  0.00000000000E+00 0.  1.
</event>
<event>
 8    1  0.2971508E-007  0.9118800E+02  0.7816164E-02  0.1184000E+00
        -11   -1    0    0    0    0  0.00000000000E+00  0.00000000000E+00  0.45593999997E+02  0.45594000000E+02  0.51100000000E-03 0.  1.
         11   -1    0    0    0    0 -0.00000000000E+00 -0.00000000000E+00 -0.45593999997E+02  0.45594000000E+02  0.51100000000E-03 0. -1.
         23    2    1    2    0    0  0.00000000000E+00  0.00000000000E+00  0.00000000000E+00  0.91188000000E+02  0.91188000000E+02 0.  0.
    9900012    2    3    3    0    0 -0.75895652286E+01 -0.30946093755E+02  0.18453124596E+02  0.54367081674E+02  0.39999994292E+02 0.  0.
         12    1    3    3    0    0  0.75895652286E+01  0.30946093755E+02 -0.18453124596E+02  0.36820918326E+02  0.00000000000E+00 0. -1.
         11    1    4    4    0    0 -0.15902027561E+02 -0.77979040941E+01  0.16791785312E+02  0.24405856737E+02  0.51100000000E-03 0. -1.
        -11    1    4    4    0    0 -0.41227165000E+01 -0.12889662243E+02  0.27291657013E+01  0.13805380464E+02  0.51100000000E-03 0.  1.
        -12    1    4    4    0    0  0.12435178832E+02 -0.10258527418E+02 -0.10678264177E+01  0.16155844473E+02  0.00000000000E+00 0.  1.
</event>
<event>
 8    1  0.2971508E-007  0.9118800E+02  0.7816164E-02  0.1184000E+00
        -11   -1    0    0    0    0  0.00000000000E+00  0.00000000000E+00  0.45593999997E+02  0.45594000000E+02  0.51100000000E-03 0. -1.
         11   -1    0    0    0    0 -0.00000000000E+00 -0.00000000000E+00 -0.45593999997E+02  0.45594000000E+02  0.51100000000E-03 0.  1.
         23    2    1    2    0    0  0.00000000000E+00  0.00000000000E+00 -0.71054273576E-14  0.91188000000E+02  0.91188000000E+02 0.  0.
    9900012    2    3    3    0    0  0.46683308858E+01 -0.19239016445E+02  0.31045887305E+02  0.54367079512E+02  0.39999989364E+02 0.  0.
        -12    1    3    3    0    0 -0.46683308858E+01  0.19239016445E+02 -0.31045887305E+02  0.36820920488E+02  0.00000000000E+00 0.  1.
         11    1    4    4    0    0 -0.17367233484E+01  0.51269015120E+01  0.93356873465E+01  0.10791495985E+02  0.51100000000E-03 0. -1.
        -11    1    4    4    0    0 -0.74126264902E+01 -0.10940267667E+02  0.20346527265E+02  0.24261443900E+02  0.51100000000E-03 0.  1.
         12    1    4    4    0    0  0.13817680724E+02 -0.13425650290E+02  0.13636726933E+01  0.19314139627E+02  0.00000000000E+00 0. -1.
</event>
<event>
 8    1  0.2971508E-007  0.9118800E+02  0.7816164E-02  0.1184000E+00
        -11   -1    0    0    0    0  0.00000000000E+00  0.00000000000E+00  0.45593999997E+02  0.45594000000E+02  0.51100000000E-03 0. -1.
         11   -1    0    0    0    0 -0.00000000000E+00 -0.00000000000E+00 -0.45593999997E+02  0.45594000000E+02  0.51100000000E-03 0.  1.
         23    2    1    2    0    0  0.00000000000E+00  0.71054273576E-14 -0.17763568394E-14  0.91188000000E+02  0.91188000000E+02 0.  0.
    9900012    2    3    3    0    0 -0.50304423766E+01  0.34775361033E+02 -0.11006691861E+02  0.54367104421E+02  0.40000046149E+02 0.  0.
         12    1    3    3    0    0  0.50304423766E+01 -0.34775361033E+02  0.11006691861E+02  0.36820895579E+02  0.00000000000E+00 0. -1.
         11    1    4    4    0    0 -0.68220151161E+00 -0.81959967457E+01 -0.19660573590E+01  0.84560713903E+01  0.51100000000E-03 0. -1.
        -11    1    4    4    0    0 -0.60002726677E+01  0.42729186623E+02 -0.78410188562E+01  0.43855082243E+02  0.51100000000E-03 0.  1.
        -12    1    4    4    0    0  0.16520318028E+01  0.24217115632E+00 -0.11996156458E+01  0.20559507883E+01  0.00000000000E+00 0.  1.
</event>
<event>
 8    1  0.2971508E-007  0.9118800E+02  0.7816164E-02  0.1184000E+00
        -11   -1    0    0    0    0  0.00000000000E+00  0.00000000000E+00  0.45593999997E+02  0.45594000000E+02  0.51100000000E-03 0. -1.
         11   -1    0    0    0    0 -0.00000000000E+00 -0.00000000000E+00 -0.45593999997E+02  0.45594000000E+02  0.51100000000E-03 0.  1.
         23    2    1    2    0    0  0.00000000000E+00 -0.35527136788E-14  0.00000000000E+00  0.91188000000E+02  0.91188000000E+02 0.  0.
    9900012    2    3    3    0    0 -0.16318242372E+02  0.16651268015E+02  0.28499639983E+02  0.54367092356E+02  0.40000018644E+02 0.  0.
        -12    1    3    3    0    0  0.16318242372E+02 -0.16651268015E+02 -0.28499639983E+02  0.36820907644E+02  0.00000000000E+00 0.  1.
         11    1    4    4    0    0 -0.20866940791E+02  0.26676659910E+02  0.22650258695E+02  0.40744418282E+02  0.51100000000E-03 0. -1.
        -11    1    4    4    0    0 -0.47732495183E+00 -0.29423264324E+01 -0.27792710673E+00  0.29937213768E+01  0.51100000000E-03 0.  1.
         12    1    4    4    0    0  0.50260233715E+01 -0.70830654624E+01  0.61273083946E+01  0.10628952697E+02  0.00000000000E+00 0. -1.
</event>
<event>
 8    1  0.2971508E-007  0.9118800E+02  0.7816164E-02  0.1184000E+00
        -11   -1    0    0    0    0  0.00000000000E+00  0.00000000000E+00  0.45593999997E+02  0.45594000000E+02  0.51100000000E-03 0. -1.
         11   -1    0    0    0    0 -0.00000000000E+00 -0.00000000000E+00 -0.45593999997E+02  0.45594000000E+02  0.51100000000E-03 0.  1.
         23    2    1    2    0    0  0.00000000000E+00  0.00000000000E+00 -0.17763568394E-14  0.91188000000E+02  0.91188000000E+02 0.  0.
    9900012    2    3    3    0    0  0.21327490205E+02 -0.26083460809E+02 -0.14851631755E+02  0.54367085672E+02  0.40000003405E+02 0.  0.
         12    1    3    3    0    0 -0.21327490205E+02  0.26083460809E+02  0.14851631755E+02  0.36820914328E+02  0.00000000000E+00 0. -1.
         11    1    4    4    0    0  0.36234811697E+01  0.59496785820E+01 -0.24297756982E+01  0.73778114113E+01  0.51100000000E-03 0. -1.
        -11    1    4    4    0    0  0.15298625891E+02 -0.10160814870E+02 -0.16407370563E+02  0.24627056707E+02  0.51100000000E-03 0.  1.
         12    1    4    4    0    0  0.24053831440E+01 -0.21872324521E+02  0.39855145070E+01  0.22362217553E+02  0.00000000000E+00 0. -1.
</event>
<event>
 8    1  0.2971508E-007  0.9118800E+02  0.7816164E-02  0.1184000E+00
        -11   -1    0    0    0    0  0.00000000000E+00  0.00000000000E+00  0.45593999997E+02  0.45594000000E+02  0.51100000000E-03 0.  1.
         11   -1    0    0    0    0 -0.00000000000E+00 -0.00000000000E+00 -0.45593999997E+02  0.45594000000E+02  0.51100000000E-03 0. -1.
         23    2    1    2    0    0 -0.28865798640E-14  0.00000000000E+00 -0.17763568394E-14  0.91188000000E+02  0.91188000000E+02 0.  0.
    9900012    2    3    3    0    0 -0.14615675509E+01  0.35302619514E+02 -0.10361923304E+02  0.54367074172E+02  0.39999977190E+02 0.  0.
        -12    1    3    3    0    0  0.14615675509E+01 -0.35302619514E+02  0.10361923304E+02  0.36820925828E+02  0.00000000000E+00 0.  1.
         11    1    4    4    0    0 -0.11651883160E+02  0.18083547079E+02  0.52995864190E+01  0.22155511111E+02  0.51100000000E-03 0.  1.
        -11    1    4    4    0    0 -0.26265773739E+01  0.13806639611E+02 -0.11925528891E+02  0.18432049415E+02  0.51100000000E-03 0. -1.
        -12    1    4    4    0    0  0.12816892984E+02  0.34124328249E+01 -0.37359808318E+01  0.13779513646E+02  0.00000000000E+00 0.  1.
</event>
<event>
 8    1  0.2971508E-007  0.9118800E+02  0.7816164E-02  0.1184000E+00
        -11   -1    0    0    0    0  0.00000000000E+00  0.00000000000E+00  0.45593999997E+02  0.45594000000E+02  0.51100000000E-03 0. -1.
         11   -1    0    0    0    0 -0.00000000000E+00 -0.00000000000E+00 -0.45593999997E+02  0.45594000000E+02  0.51100000000E-03 0.  1.
         23    2    1    2    0    0 -0.35527136788E-14 -0.17763568394E-14  0.00000000000E+00  0.91188000000E+02  0.91188000000E+02 0.  0.
    9900012    2    3    3    0    0 -0.20281576777E+02  0.86544181662E+01 -0.29487956728E+02  0.54367069778E+02  0.39999967174E+02 0.  0.
         12    1    3    3    0    0  0.20281576777E+02 -0.86544181662E+01  0.29487956728E+02  0.36820930222E+02  0.00000000000E+00 0. -1.
         11    1    4    4    0    0 -0.12108656217E+01  0.97812661263E+01 -0.30719058638E+02  0.32261430942E+02  0.51100000000E-03 0. -1.
        -11    1    4    4    0    0 -0.14048174598E+02  0.41659171027E+01 -0.27439130272E+00  0.14655421034E+02  0.51100000000E-03 0.  1.
        -12    1    4    4    0    0 -0.50225365581E+01 -0.52927650628E+01  0.15054932124E+01  0.74502178022E+01  0.00000000000E+00 0.  1.
</event>
<event>
 8    1  0.2971508E-007  0.9118800E+02  0.7816164E-02  0.1184000E+00
        -11   -1    0    0    0    0  0.00000000000E+00  0.00000000000E+00  0.45593999997E+02  0.45594000000E+02  0.51100000000E-03 0. -1.
         11   -1    0    0    0    0 -0.00000000000E+00 -0.00000000000E+00 -0.45593999997E+02  0.45594000000E+02  0.51100000000E-03 0.  1.
         23    2    1    2    0    0 -0.88817841970E-15  0.00000000000E+00 -0.17763568394E-14  0.91188000000E+02  0.91188000000E+02 0.  0.
    9900012    2    3    3    0    0 -0.63704038863E+01 -0.35543082340E+02  0.72032532016E+01  0.54367087401E+02  0.40000007349E+02 0.  0.
        -12    1    3    3    0    0  0.63704038863E+01  0.35543082340E+02 -0.72032532016E+01  0.36820912599E+02  0.00000000000E+00 0.  1.
         11    1    4    4    0    0  0.11848509548E+01  0.90597929893E+00  0.25201144236E+01  0.29284206058E+01  0.51100000000E-03 0. -1.
        -11    1    4    4    0    0  0.51989760491E+01 -0.15160586741E+02 -0.13270848502E+02  0.20808367608E+02  0.51100000000E-03 0.  1.
        -12    1    4    4    0    0 -0.12754230890E+02 -0.21288474898E+02  0.17953987280E+02  0.30630299188E+02  0.00000000000E+00 0.  1.
</event>
<event>
 8    1  0.2971508E-007  0.9118800E+02  0.7816164E-02  0.1184000E+00
        -11   -1    0    0    0    0  0.00000000000E+00  0.00000000000E+00  0.45593999997E+02  0.45594000000E+02  0.51100000000E-03 0. -1.
         11   -1    0    0    0    0 -0.00000000000E+00 -0.00000000000E+00 -0.45593999997E+02  0.45594000000E+02  0.51100000000E-03 0.  1.
         23    2    1    2    0    0  0.17763568394E-14  0.88817841970E-15  0.00000000000E+00  0.91188000000E+02  0.91188000000E+02 0.  0.
    9900012    2    3    3    0    0 -0.11219366731E+02 -0.35000161759E+01 -0.34894925191E+02  0.54367080577E+02  0.39999991792E+02 0.  0.
         12    1    3    3    0    0  0.11219366731E+02  0.35000161759E+01  0.34894925191E+02  0.36820919423E+02  0.00000000000E+00 0. -1.
         11    1    4    4    0    0  0.64981432719E+01 -0.63747841625E+01 -0.44657244699E+01  0.10139350788E+02  0.51100000000E-03 0. -1.
        -11    1    4    4    0    0 -0.15739667143E+02 -0.90202298514E+01 -0.10574374505E+02  0.20998072883E+02  0.51100000000E-03 0.  1.
        -12    1    4    4    0    0 -0.19778428602E+01  0.11894997838E+02 -0.19854826215E+02  0.23229656906E+02  0.00000000000E+00 0.  1.
</event>
<event>
 8    1  0.2971508E-007  0.9118800E+02  0.7816164E-02  0.1184000E+00
        -11   -1    0    0    0    0  0.00000000000E+00  0.00000000000E+00  0.45593999997E+02  0.45594000000E+02  0.51100000000E-03 0.  1.
         11   -1    0    0    0    0 -0.00000000000E+00 -0.00000000000E+00 -0.45593999997E+02  0.45594000000E+02  0.51100000000E-03 0. -1.
         23    2    1    2    0    0  0.00000000000E+00  0.00000000000E+00  0.00000000000E+00  0.91188000000E+02  0.91188000000E+02 0.  0.
    9900012    2    3    3    0    0  0.25511459200E+02  0.11437239534E+02  0.23961104766E+02  0.54367088275E+02  0.40000009340E+02 0.  0.
         12    1    3    3    0    0 -0.25511459200E+02 -0.11437239534E+02 -0.23961104766E+02  0.36820911725E+02  0.00000000000E+00 0. -1.
         11    1    4    4    0    0  0.62617714378E+01  0.51040865290E+01  0.12734646753E+02  0.15080872289E+02  0.51100000000E-03 0. -1.
        -11    1    4    4    0    0  0.19282752444E+02  0.14365602461E+02  0.16953285236E+02  0.29421233088E+02  0.51100000000E-03 0.  1.
         12    1    4    4    0    0 -0.33064681505E-01 -0.80324494552E+01 -0.57268272229E+01  0.98649828973E+01  0.00000000000E+00 0. -1.
</event>
<event>
 8    1  0.2971508E-007  0.9118800E+02  0.7816164E-02  0.1184000E+00
        -11   -1    0    0    0    0  0.00000000000E+00  0.00000000000E+00  0.45593999997E+02  0.45594000000E+02  0.51100000000E-03 0. -1.
         11   -1    0    0    0    0 -0.00000000000E+00 -0.00000000000E+00 -0.45593999997E+02  0.45594000000E+02  0.51100000000E-03 0.  1.
         23    2    1    2    0    0  0.35527136788E-14  0.00000000000E+00 -0.17763568394E-14  0.91188000000E+02  0.91188000000E+02 0.  0.
    9900012    2    3    3    0    0 -0.31709197301E+02  0.15299518365E+02  0.10781089595E+02  0.54367077299E+02  0.39999984320E+02 0.  0.
        -12    1    3    3    0    0  0.31709197301E+02 -0.15299518365E+02 -0.10781089595E+02  0.36820922701E+02  0.00000000000E+00 0.  1.
         11    1    4    4    0    0  0.28237221243E+01 -0.33362904172E+01  0.15822425507E+01  0.46484117861E+01  0.51100000000E-03 0. -1.
        -11    1    4    4    0    0 -0.44973574830E+01  0.17253392472E+02  0.82248704736E+01  0.19635535916E+02  0.51100000000E-03 0.  1.
         12    1    4    4    0    0 -0.30035561942E+02  0.13824163102E+01  0.97397657103E+00  0.30083129597E+02  0.00000000000E+00 0. -1.
</event>
<event>
 8    1  0.2971508E-007  0.9118800E+02  0.7816164E-02  0.1184000E+00
        -11   -1    0    0    0    0  0.00000000000E+00  0.00000000000E+00  0.45593999997E+02  0.45594000000E+02  0.51100000000E-03 0. -1.
         11   -1    0    0    0    0 -0.00000000000E+00 -0.00000000000E+00 -0.45593999997E+02  0.45594000000E+02  0.51100000000E-03 0.  1.
         23    2    1    2    0    0  0.44408920985E-15  0.56898930012E-15  0.00000000000E+00  0.91188000000E+02  0.91188000000E+02 0.  0.
    9900012    2    3    3    0    0  0.39934067618E+01  0.50706132495E-01  0.36603689732E+02  0.54367082430E+02  0.39999996016E+02 0.  0.
        -12    1    3    3    0    0 -0.39934067618E+01 -0.50706132495E-01 -0.36603689732E+02  0.36820917570E+02  0.00000000000E+00 0.  1.
         11    1    4    4    0    0 -0.65841754725E+00  0.77513904375E+01  0.15882310475E+02  0.17685173272E+02  0.51100000000E-03 0. -1.
        -11    1    4    4    0    0 -0.55997291635E+01 -0.12503044148E+02  0.21323667571E+02  0.25345253572E+02  0.51100000000E-03 0.  1.
        -12    1    4    4    0    0  0.10251553473E+02  0.48023598427E+01 -0.60228831443E+00  0.11336655586E+02  0.00000000000E+00 0.  1.
</event>
<event>
 8    1  0.2971508E-007  0.9118800E+02  0.7816164E-02  0.1184000E+00
        -11   -1    0    0    0    0  0.00000000000E+00  0.00000000000E+00  0.45593999997E+02  0.45594000000E+02  0.51100000000E-03 0. -1.
         11   -1    0    0    0    0 -0.00000000000E+00 -0.00000000000E+00 -0.45593999997E+02  0.45594000000E+02  0.51100000000E-03 0.  1.
         23    2    1    2    0    0 -0.17763568394E-14  0.00000000000E+00  0.71054273576E-14  0.91188000000E+02  0.91188000000E+02 0.  0.
    9900012    2    3    3    0    0  0.26714724344E+01  0.84135236745E+01  0.35747093515E+02  0.54367097779E+02  0.40000031006E+02 0.  0.
        -12    1    3    3    0    0 -0.26714724344E+01 -0.84135236745E+01 -0.35747093515E+02  0.36820902221E+02  0.00000000000E+00 0.  1.
         11    1    4    4    0    0  0.74038309103E+01 -0.35366483792E+01  0.33266531595E+02  0.34263489585E+02  0.51100000000E-03 0. -1.
        -11    1    4    4    0    0  0.29808590973E+01 -0.21202379423E+01  0.17134341817E+01  0.40394042687E+01  0.51100000000E-03 0.  1.
         12    1    4    4    0    0 -0.77132175732E+01  0.14070409996E+02  0.76712773867E+00  0.16064203925E+02  0.00000000000E+00 0. -1.
</event>
<event>
 8    1  0.2971508E-007  0.9118800E+02  0.7816164E-02  0.1184000E+00
        -11   -1    0    0    0    0  0.00000000000E+00  0.00000000000E+00  0.45593999997E+02  0.45594000000E+02  0.51100000000E-03 0. -1.
         11   -1    0    0    0    0 -0.00000000000E+00 -0.00000000000E+00 -0.45593999997E+02  0.45594000000E+02  0.51100000000E-03 0.  1.
         23    2    1    2    0    0  0.00000000000E+00 -0.35527136788E-14  0.17763568394E-14  0.91188000000E+02  0.91188000000E+02 0.  0.
    9900012    2    3    3    0    0  0.18092686302E+02 -0.28802455010E+02 -0.14101563901E+02  0.54367070942E+02  0.39999969827E+02 0.  0.
        -12    1    3    3    0    0 -0.18092686302E+02  0.28802455010E+02  0.14101563901E+02  0.36820929058E+02  0.00000000000E+00 0.  1.
         11    1    4    4    0    0  0.65101161792E-01 -0.26293372814E+02 -0.58847347659E+01  0.26943938013E+02  0.51100000000E-03 0. -1.
        -11    1    4    4    0    0  0.56262159829E+01 -0.57103418024E+01 -0.11669834510E+02  0.14157942913E+02  0.51100000000E-03 0.  1.
         12    1    4    4    0    0  0.12401369158E+02  0.32012596064E+01  0.34530053750E+01  0.13265190016E+02  0.00000000000E+00 0. -1.
</event>
<event>
 8    1  0.2971508E-007  0.9118800E+02  0.7816164E-02  0.1184000E+00
        -11   -1    0    0    0    0  0.00000000000E+00  0.00000000000E+00  0.45593999997E+02  0.45594000000E+02  0.51100000000E-03 0.  1.
         11   -1    0    0    0    0 -0.00000000000E+00 -0.00000000000E+00 -0.45593999997E+02  0.45594000000E+02  0.51100000000E-03 0. -1.
         23    2    1    2    0    0  0.00000000000E+00  0.00000000000E+00  0.00000000000E+00  0.91188000000E+02  0.91188000000E+02 0.  0.
    9900012    2    3    3    0    0 -0.20719642403E+02 -0.29125981057E+02 -0.88402838997E+01  0.54367123133E+02  0.40000088806E+02 0.  0.
        -12    1    3    3    0    0  0.20719642403E+02  0.29125981057E+02  0.88402838997E+01  0.36820876867E+02  0.00000000000E+00 0.  1.
         11    1    4    4    0    0 -0.15579502659E+02  0.46357465622E+00  0.18701641758E+01  0.15698194765E+02  0.51100000000E-03 0.  1.
        -11    1    4    4    0    0  0.52215254971E+01 -0.69005746366E+01 -0.10654422888E+02  0.13725851018E+02  0.51100000000E-03 0. -1.
         12    1    4    4    0    0 -0.10361665240E+02 -0.22688981077E+02 -0.56025187540E-01  0.24943077350E+02  0.00000000000E+00 0. -1.
</event>
<event>
 8    1  0.2971508E-007  0.9118800E+02  0.7816164E-02  0.1184000E+00
        -11   -1    0    0    0    0  0.00000000000E+00  0.00000000000E+00  0.45593999997E+02  0.45594000000E+02  0.51100000000E-03 0. -1.
         11   -1    0    0    0    0 -0.00000000000E+00 -0.00000000000E+00 -0.45593999997E+02  0.45594000000E+02  0.51100000000E-03 0.  1.
         23    2    1    2    0    0 -0.66613381478E-15  0.00000000000E+00  0.00000000000E+00  0.91188000000E+02  0.91188000000E+02 0.  0.
    9900012    2    3    3    0    0 -0.10532463992E+01  0.48049810279E+01 -0.36490850822E+02  0.54367090663E+02  0.40000014785E+02 0.  0.
         12    1    3    3    0    0  0.10532463992E+01 -0.48049810279E+01  0.36490850822E+02  0.36820909337E+02  0.00000000000E+00 0. -1.
         11    1    4    4    0    0 -0.93734514190E+01  0.17239572283E+02 -0.13980870358E+02  0.24094173159E+02  0.51100000000E-03 0. -1.
        -11    1    4    4    0    0  0.54099994316E+01 -0.13675982881E+02 -0.11081802044E+02  0.18414856459E+02  0.51100000000E-03 0.  1.
         12    1    4    4    0    0  0.29102055882E+01  0.12413916255E+01 -0.11428178421E+02  0.11858061045E+02  0.00000000000E+00 0. -1.
</event>
<event>
 8    1  0.2971508E-007  0.9118800E+02  0.7816164E-02  0.1184000E+00
        -11   -1    0    0    0    0  0.00000000000E+00  0.00000000000E+00  0.45593999997E+02  0.45594000000E+02  0.51100000000E-03 0.  1.
         11   -1    0    0    0    0 -0.00000000000E+00 -0.00000000000E+00 -0.45593999997E+02  0.45594000000E+02  0.51100000000E-03 0. -1.
         23    2    1    2    0    0  0.88817841970E-15  0.35527136788E-14 -0.35527136788E-14  0.91188000000E+02  0.91188000000E+02 0.  0.
    9900012    2    3    3    0    0 -0.46823219341E+01  0.20798743672E+02 -0.30021135362E+02  0.54367075983E+02  0.39999981319E+02 0.  0.
        -12    1    3    3    0    0  0.46823219341E+01 -0.20798743672E+02  0.30021135362E+02  0.36820924017E+02  0.00000000000E+00 0.  1.
         11    1    4    4    0    0 -0.13384792041E+02  0.18180231504E+02 -0.26784542260E+02  0.35029775618E+02  0.51100000000E-03 0. -1.
        -11    1    4    4    0    0 -0.45954933625E+01 -0.61955137855E+00 -0.32293760640E+01  0.56507763342E+01  0.51100000000E-03 0.  1.
        -12    1    4    4    0    0  0.13297963469E+02  0.32380635463E+01 -0.72170374032E-02  0.13686524031E+02  0.00000000000E+00 0.  1.
</event>
<event>
 8    1  0.2971508E-007  0.9118800E+02  0.7816164E-02  0.1184000E+00
        -11   -1    0    0    0    0  0.00000000000E+00  0.00000000000E+00  0.45593999997E+02  0.45594000000E+02  0.51100000000E-03 0.  1.
         11   -1    0    0    0    0 -0.00000000000E+00 -0.00000000000E+00 -0.45593999997E+02  0.45594000000E+02  0.51100000000E-03 0. -1.
         23    2    1    2    0    0  0.35527136788E-14  0.35527136788E-14  0.00000000000E+00  0.91188000000E+02  0.91188000000E+02 0.  0.
    9900012    2    3    3    0    0  0.23663718312E+02  0.26397172134E+02  0.99496822980E+01  0.54367103231E+02  0.40000043437E+02 0.  0.
         12    1    3    3    0    0 -0.23663718312E+02 -0.26397172134E+02 -0.99496822980E+01  0.36820896769E+02  0.00000000000E+00 0. -1.
         11    1    4    4    0    0 -0.58704619640E+01  0.12362642605E+02 -0.10037235842E+01  0.13722416593E+02  0.51100000000E-03 0. -1.
        -11    1    4    4    0    0  0.14721860787E+02 -0.27395298384E+01 -0.14749882085E+01  0.15047052842E+02  0.51100000000E-03 0.  1.
        -12    1    4    4    0    0  0.14812319489E+02  0.16774059367E+02  0.12428394091E+02  0.25597633797E+02  0.00000000000E+00 0.  1.
</event>
<event>
 8    1  0.2971508E-007  0.9118800E+02  0.7816164E-02  0.1184000E+00
        -11   -1    0    0    0    0  0.00000000000E+00  0.00000000000E+00  0.45593999997E+02  0.45594000000E+02  0.51100000000E-03 0. -1.
         11   -1    0    0    0    0 -0.00000000000E+00 -0.00000000000E+00 -0.45593999997E+02  0.45594000000E+02  0.51100000000E-03 0.  1.
         23    2    1    2    0    0  0.00000000000E+00 -0.35527136788E-14  0.00000000000E+00  0.91188000000E+02  0.91188000000E+02 0.  0.
    9900012    2    3    3    0    0  0.17455460056E+02  0.31005528605E+02 -0.94733639325E+01  0.54367075052E+02  0.39999979196E+02 0.  0.
        -12    1    3    3    0    0 -0.17455460056E+02 -0.31005528605E+02  0.94733639325E+01  0.36820924948E+02  0.00000000000E+00 0.  1.
         11    1    4    4    0    0  0.12619583626E+02  0.16774951776E+02  0.26024224539E+01  0.21152434869E+02  0.51100000000E-03 0. -1.
        -11    1    4    4    0    0  0.13914319297E+02  0.13655036659E+02 -0.13891802057E+02  0.23938472640E+02  0.51100000000E-03 0.  1.
        -12    1    4    4    0    0 -0.90784428671E+01  0.57554016933E+00  0.18160156706E+01  0.92761675435E+01  0.00000000000E+00 0.  1.
</event>
<event>
 8    1  0.2971508E-007  0.9118800E+02  0.7816164E-02  0.1184000E+00
        -11   -1    0    0    0    0  0.00000000000E+00  0.00000000000E+00  0.45593999997E+02  0.45594000000E+02  0.51100000000E-03 0. -1.
         11   -1    0    0    0    0 -0.00000000000E+00 -0.00000000000E+00 -0.45593999997E+02  0.45594000000E+02  0.51100000000E-03 0.  1.
         23    2    1    2    0    0 -0.10658141036E-13  0.00000000000E+00 -0.17763568394E-14  0.91188000000E+02  0.91188000000E+02 0.  0.
    9900012    2    3    3    0    0  0.31240919055E+02 -0.17432335343E+02  0.87119535713E+01  0.54367089176E+02  0.40000011394E+02 0.  0.
        -12    1    3    3    0    0 -0.31240919055E+02  0.17432335343E+02 -0.87119535713E+01  0.36820910824E+02  0.00000000000E+00 0.  1.
         11    1    4    4    0    0  0.30408131568E+02 -0.14114514426E+02  0.50490699091E+01  0.33902316884E+02  0.51100000000E-03 0. -1.
        -11    1    4    4    0    0  0.17779682106E+01  0.56678265135E+01  0.83803958240E+01  0.10272120656E+02  0.51100000000E-03 0.  1.
        -12    1    4    4    0    0 -0.94518072361E+00 -0.89856474313E+01 -0.47175121617E+01  0.10192651635E+02  0.00000000000E+00 0.  1.
</event>
<event>
 8    1  0.2971508E-007  0.9118800E+02  0.7816164E-02  0.1184000E+00
        -11   -1    0    0    0    0  0.00000000000E+00  0.00000000000E+00  0.45593999997E+02  0.45594000000E+02  0.51100000000E-03 0.  1.
         11   -1    0    0    0    0 -0.00000000000E+00 -0.00000000000E+00 -0.45593999997E+02  0.45594000000E+02  0.51100000000E-03 0. -1.
         23    2    1    2    0    0  0.00000000000E+00  0.00000000000E+00  0.17763568394E-14  0.91188000000E+02  0.91188000000E+02 0.  0.
    9900012    2    3    3    0    0 -0.23137847747E+02 -0.24348585421E+02 -0.15085299232E+02  0.54367083889E+02  0.39999999341E+02 0.  0.
         12    1    3    3    0    0  0.23137847747E+02  0.24348585421E+02  0.15085299232E+02  0.36820916111E+02  0.00000000000E+00 0. -1.
         11    1    4    4    0    0 -0.29420728196E+01  0.47754544780E+01  0.37260596057E+00  0.56213515643E+01  0.51100000000E-03 0. -1.
        -11    1    4    4    0    0 -0.12880202619E+02 -0.18239639518E+01  0.49138185262E+01  0.13905828878E+02  0.51100000000E-03 0.  1.
         12    1    4    4    0    0 -0.73155723086E+01 -0.27300075947E+02 -0.20371723718E+02  0.34839903447E+02  0.00000000000E+00 0. -1.
</event>
<event>
 8    1  0.2971508E-007  0.9118800E+02  0.7816164E-02  0.1184000E+00
        -11   -1    0    0    0    0  0.00000000000E+00  0.00000000000E+00  0.45593999997E+02  0.45594000000E+02  0.51100000000E-03 0.  1.
         11   -1    0    0    0    0 -0.00000000000E+00 -0.00000000000E+00 -0.45593999997E+02  0.45594000000E+02  0.51100000000E-03 0. -1.
         23    2    1    2    0    0 -0.35527136788E-14 -0.35527136788E-14  0.00000000000E+00  0.91188000000E+02  0.91188000000E+02 0.  0.
    9900012    2    3    3    0    0 -0.31193588194E+02 -0.19060207870E+02 -0.44100849951E+01  0.54367077712E+02  0.39999985260E+02 0.  0.
        -12    1    3    3    0    0  0.31193588194E+02  0.19060207870E+02  0.44100849951E+01  0.36820922288E+02  0.00000000000E+00 0.  1.
         11    1    4    4    0    0 -0.19967772746E+02 -0.35055380141E+01 -0.13799686593E+01  0.20320065427E+02  0.51100000000E-03 0. -1.
        -11    1    4    4    0    0 -0.42889753189E+01  0.20277853420E+00  0.11018680914E+02  0.11825724407E+02  0.51100000000E-03 0.  1.
         12    1    4    4    0    0 -0.69368401291E+01 -0.15757448390E+02 -0.14048797250E+02  0.22221287877E+02  0.00000000000E+00 0. -1.
</event>
<event>
 8    1  0.2971508E-007  0.9118800E+02  0.7816164E-02  0.1184000E+00
        -11   -1    0    0    0    0  0.00000000000E+00  0.00000000000E+00  0.45593999997E+02  0.45594000000E+02  0.51100000000E-03 0.  1.
         11   -1    0    0    0    0 -0.00000000000E+00 -0.00000000000E+00 -0.45593999997E+02  0.45594000000E+02  0.51100000000E-03 0. -1.
         23    2    1    2    0    0  0.00000000000E+00  0.00000000000E+00  0.00000000000E+00  0.91188000000E+02  0.91188000000E+02 0.  0.
    9900012    2    3    3    0    0  0.15274810549E+02 -0.12755214047E+02 -0.30980155695E+02  0.54367009117E+02  0.39999828883E+02 0.  0.
        -12    1    3    3    0    0 -0.15274810549E+02  0.12755214047E+02  0.30980155695E+02  0.36820990883E+02  0.00000000000E+00 0.  1.
         11    1    4    4    0    0 -0.87736147405E+00 -0.71069198270E+01 -0.16475471898E+02  0.17964388303E+02  0.51100000000E-03 0. -1.
        -11    1    4    4    0    0  0.10463345846E+01  0.88999111755E+01  0.26096975173E+01  0.93334750434E+01  0.51100000000E-03 0.  1.
        -12    1    4    4    0    0  0.15105837439E+02 -0.14548205395E+02 -0.17114381315E+02  0.27069145770E+02  0.00000000000E+00 0.  1.
</event>
<event>
 8    1  0.2971508E-007  0.9118800E+02  0.7816164E-02  0.1184000E+00
        -11   -1    0    0    0    0  0.00000000000E+00  0.00000000000E+00  0.45593999997E+02  0.45594000000E+02  0.51100000000E-03 0. -1.
         11   -1    0    0    0    0 -0.00000000000E+00 -0.00000000000E+00 -0.45593999997E+02  0.45594000000E+02  0.51100000000E-03 0.  1.
         23    2    1    2    0    0 -0.35527136788E-14 -0.35527136788E-14  0.35527136788E-14  0.91188000000E+02  0.91188000000E+02 0.  0.
    9900012    2    3    3    0    0  0.26964519464E+02  0.18766868993E+02 -0.16628275078E+02  0.54367079129E+02  0.39999988490E+02 0.  0.
         12    1    3    3    0    0 -0.26964519464E+02 -0.18766868993E+02  0.16628275078E+02  0.36820920871E+02  0.00000000000E+00 0. -1.
         11    1    4    4    0    0  0.26554547874E+02  0.14044703349E+02 -0.13562089571E+02  0.32959489965E+02  0.51100000000E-03 0.  1.
        -11    1    4    4    0    0 -0.76543120019E+01  0.18795052084E+01  0.52577104006E+01  0.94744156004E+01  0.51100000000E-03 0. -1.
         12    1    4    4    0    0  0.80642835917E+01  0.28426604351E+01 -0.83238959085E+01  0.11933173563E+02  0.00000000000E+00 0. -1.
</event>
<event>
 8    1  0.2971508E-007  0.9118800E+02  0.7816164E-02  0.1184000E+00
        -11   -1    0    0    0    0  0.00000000000E+00  0.00000000000E+00  0.45593999997E+02  0.45594000000E+02  0.51100000000E-03 0.  1.
         11   -1    0    0    0    0 -0.00000000000E+00 -0.00000000000E+00 -0.45593999997E+02  0.45594000000E+02  0.51100000000E-03 0. -1.
         23    2    1    2    0    0  0.00000000000E+00  0.00000000000E+00  0.11102230246E-14  0.91188000000E+02  0.91188000000E+02 0.  0.
    9900012    2    3    3    0    0  0.15148532369E+02 -0.33543995870E+02  0.10499808720E+01  0.54367079972E+02  0.39999990412E+02 0.  0.
         12    1    3    3    0    0 -0.15148532369E+02  0.33543995870E+02 -0.10499808720E+01  0.36820920028E+02  0.00000000000E+00 0. -1.
         11    1    4    4    0    0 -0.75691289358E+01 -0.88728569061E+01 -0.99885579094E+01  0.15355474330E+02  0.51100000000E-03 0. -1.
        -11    1    4    4    0    0  0.57055553721E+01  0.17444895991E+01  0.11828519731E+01  0.60824127710E+01  0.51100000000E-03 0.  1.
        -12    1    4    4    0    0  0.17012105933E+02 -0.26415628563E+02  0.98556868083E+01  0.32929192871E+02  0.00000000000E+00 0.  1.
</event>
<event>
 8    1  0.2971508E-007  0.9118800E+02  0.7816164E-02  0.1184000E+00
        -11   -1    0    0    0    0  0.00000000000E+00  0.00000000000E+00  0.45593999997E+02  0.45594000000E+02  0.51100000000E-03 0.  1.
         11   -1    0    0    0    0 -0.00000000000E+00 -0.00000000000E+00 -0.45593999997E+02  0.45594000000E+02  0.51100000000E-03 0. -1.
         23    2    1    2    0    0  0.66613381478E-15 -0.88817841970E-15  0.00000000000E+00  0.91188000000E+02  0.91188000000E+02 0.  0.
    9900012    2    3    3    0    0 -0.72497552219E+00 -0.47237141591E+01 -0.36509464420E+02  0.54367081255E+02  0.39999993337E+02 0.  0.
        -12    1    3    3    0    0  0.72497552219E+00  0.47237141591E+01  0.36509464420E+02  0.36820918745E+02  0.00000000000E+00 0.  1.
         11    1    4    4    0    0  0.79649824408E+00  0.51276111640E+00 -0.12543156350E+02  0.12578875343E+02  0.51100000000E-03 0. -1.
        -11    1    4    4    0    0  0.72536699353E+01  0.12078468955E+02 -0.14404764925E+02  0.20149501052E+02  0.51100000000E-03 0.  1.
         12    1    4    4    0    0 -0.87751437016E+01 -0.17314944231E+02 -0.95615431455E+01  0.21638704860E+02  0.00000000000E+00 0. -1.
</event>
<event>
 8    1  0.2971508E-007  0.9118800E+02  0.7816164E-02  0.1184000E+00
        -11   -1    0    0    0    0  0.00000000000E+00  0.00000000000E+00  0.45593999997E+02  0.45594000000E+02  0.51100000000E-03 0.  1.
         11   -1    0    0    0    0 -0.00000000000E+00 -0.00000000000E+00 -0.45593999997E+02  0.45594000000E+02  0.51100000000E-03 0. -1.
         23    2    1    2    0    0 -0.17763568394E-14 -0.35527136788E-14 -0.35527136788E-14  0.91188000000E+02  0.91188000000E+02 0.  0.
    9900012    2    3    3    0    0  0.13300073687E+02  0.21053122637E+02  0.27122925981E+02  0.54367094978E+02  0.40000024622E+02 0.  0.
         12    1    3    3    0    0 -0.13300073687E+02 -0.21053122637E+02 -0.27122925981E+02  0.36820905022E+02  0.00000000000E+00 0. -1.
         11    1    4    4    0    0  0.21151393795E+02  0.79441635906E+01  0.22135756115E+02  0.31630410899E+02  0.51100000000E-03 0. -1.
        -11    1    4    4    0    0 -0.10896878814E+02  0.37909694493E+01  0.57748186667E+01  0.12902013337E+02  0.51100000000E-03 0.  1.
         12    1    4    4    0    0  0.30455587068E+01  0.93179895970E+01 -0.78764880083E+00  0.98346707418E+01  0.00000000000E+00 0. -1.
</event>
<event>
 8    1  0.2971508E-007  0.9118800E+02  0.7816164E-02  0.1184000E+00
        -11   -1    0    0    0    0  0.00000000000E+00  0.00000000000E+00  0.45593999997E+02  0.45594000000E+02  0.51100000000E-03 0.  1.
         11   -1    0    0    0    0 -0.00000000000E+00 -0.00000000000E+00 -0.45593999997E+02  0.45594000000E+02  0.51100000000E-03 0. -1.
         23    2    1    2    0    0  0.00000000000E+00  0.00000000000E+00  0.00000000000E+00  0.91188000000E+02  0.91188000000E+02 0.  0.
    9900012    2    3    3    0    0  0.11349725517E+02  0.13176581198E+02  0.32455231064E+02  0.54367074091E+02  0.39999977004E+02 0.  0.
         12    1    3    3    0    0 -0.11349725517E+02 -0.13176581198E+02 -0.32455231064E+02  0.36820925909E+02  0.00000000000E+00 0. -1.
         11    1    4    4    0    0  0.67856345860E+00 -0.11768267104E+02  0.19543770559E+01  0.11948730013E+02  0.51100000000E-03 0. -1.
        -11    1    4    4    0    0  0.28673383018E+01  0.15643122873E+02  0.23582058740E+02  0.28443670945E+02  0.51100000000E-03 0.  1.
        -12    1    4    4    0    0  0.78038237569E+01  0.93017254292E+01  0.69187952687E+01  0.13974673132E+02  0.00000000000E+00 0.  1.
</event>
<event>
 8    1  0.2971508E-007  0.9118800E+02  0.7816164E-02  0.1184000E+00
        -11   -1    0    0    0    0  0.00000000000E+00  0.00000000000E+00  0.45593999997E+02  0.45594000000E+02  0.51100000000E-03 0.  1.
         11   -1    0    0    0    0 -0.00000000000E+00 -0.00000000000E+00 -0.45593999997E+02  0.45594000000E+02  0.51100000000E-03 0. -1.
         23    2    1    2    0    0  0.00000000000E+00  0.00000000000E+00 -0.88817841970E-15  0.91188000000E+02  0.91188000000E+02 0.  0.
    9900012    2    3    3    0    0  0.20798418881E+02  0.29763958727E+02 -0.61087204057E+01  0.54367028638E+02  0.39999873386E+02 0.  0.
        -12    1    3    3    0    0 -0.20798418881E+02 -0.29763958727E+02  0.61087204057E+01  0.36820971362E+02  0.00000000000E+00 0.  1.
         11    1    4    4    0    0  0.50752386943E+01  0.58993530619E+01  0.11459952956E+02  0.13852470407E+02  0.51100000000E-03 0.  1.
        -11    1    4    4    0    0  0.63592920175E+01 -0.59056198066E+00  0.31516001561E+01  0.71219338821E+01  0.51100000000E-03 0. -1.
         12    1    4    4    0    0  0.93638881695E+01  0.24455167646E+02 -0.20720273518E+02  0.33392624349E+02  0.00000000000E+00 0. -1.
</event>
<event>
 8    1  0.2971508E-007  0.9118800E+02  0.7816164E-02  0.1184000E+00
        -11   -1    0    0    0    0  0.00000000000E+00  0.00000000000E+00  0.45593999997E+02  0.45594000000E+02  0.51100000000E-03 0.  1.
         11   -1    0    0    0    0 -0.00000000000E+00 -0.00000000000E+00 -0.45593999997E+02  0.45594000000E+02  0.51100000000E-03 0. -1.
         23    2    1    2    0    0  0.17763568394E-14  0.00000000000E+00  0.00000000000E+00  0.91188000000E+02  0.91188000000E+02 0.  0.
    9900012    2    3    3    0    0 -0.77073575120E+01  0.13319339178E+02 -0.33451040301E+02  0.54367078594E+02  0.39999987271E+02 0.  0.
        -12    1    3    3    0    0  0.77073575120E+01 -0.13319339178E+02  0.33451040301E+02  0.36820921406E+02  0.00000000000E+00 0.  1.
         11    1    4    4    0    0 -0.14625010478E+02 -0.52966590611E+01 -0.26644099948E+01  0.15781147283E+02  0.51100000000E-03 0.  1.
        -11    1    4    4    0    0  0.13370925330E+01  0.51233521175E+01 -0.96571599135E+00  0.53823007161E+01  0.51100000000E-03 0. -1.
         12    1    4    4    0    0  0.55805604331E+01  0.13492646121E+02 -0.29820914315E+02  0.33203630595E+02  0.00000000000E+00 0. -1.
</event>
<event>
 8    1  0.2971508E-007  0.9118800E+02  0.7816164E-02  0.1184000E+00
        -11   -1    0    0    0    0  0.00000000000E+00  0.00000000000E+00  0.45593999997E+02  0.45594000000E+02  0.51100000000E-03 0.  1.
         11   -1    0    0    0    0 -0.00000000000E+00 -0.00000000000E+00 -0.45593999997E+02  0.45594000000E+02  0.51100000000E-03 0. -1.
         23    2    1    2    0    0 -0.88817841970E-15  0.00000000000E+00 -0.44408920985E-15  0.91188000000E+02  0.91188000000E+02 0.  0.
    9900012    2    3    3    0    0  0.55082205175E+01 -0.36348667668E+02 -0.20525452967E+01  0.54367094570E+02  0.40000023691E+02 0.  0.
        -12    1    3    3    0    0 -0.55082205175E+01  0.36348667668E+02  0.20525452967E+01  0.36820905430E+02  0.00000000000E+00 0.  1.
         11    1    4    4    0    0  0.71524761680E+01 -0.58923009744E+01 -0.49371311374E+01  0.10500113820E+02  0.51100000000E-03 0. -1.
        -11    1    4    4    0    0 -0.14369538727E+02 -0.25127170401E+02  0.63677838827E+01  0.29637931902E+02  0.51100000000E-03 0.  1.
         12    1    4    4    0    0  0.12725283077E+02 -0.53291962921E+01 -0.34831980420E+01  0.14229048847E+02  0.00000000000E+00 0. -1.
</event>
<event>
 8    1  0.2971508E-007  0.9118800E+02  0.7816164E-02  0.1184000E+00
        -11   -1    0    0    0    0  0.00000000000E+00  0.00000000000E+00  0.45593999997E+02  0.45594000000E+02  0.51100000000E-03 0. -1.
         11   -1    0    0    0    0 -0.00000000000E+00 -0.00000000000E+00 -0.45593999997E+02  0.45594000000E+02  0.51100000000E-03 0.  1.
         23    2    1    2    0    0  0.00000000000E+00  0.11102230246E-15  0.00000000000E+00  0.91188000000E+02  0.91188000000E+02 0.  0.
    9900012    2    3    3    0    0 -0.35828200072E+02  0.88181175452E+00  0.84463391449E+01  0.54367107054E+02  0.40000052152E+02 0.  0.
         12    1    3    3    0    0  0.35828200072E+02 -0.88181175452E+00 -0.84463391449E+01  0.36820892946E+02  0.00000000000E+00 0. -1.
         11    1    4    4    0    0 -0.28113608226E+02  0.15834407439E+02  0.37845877868E+01  0.32487328782E+02  0.51100000000E-03 0. -1.
        -11    1    4    4    0    0  0.60297255641E+00 -0.62146602805E-01 -0.30871107317E+01  0.31460596045E+01  0.51100000000E-03 0.  1.
         12    1    4    4    0    0 -0.83175644027E+01 -0.14890449082E+02  0.77488620898E+01  0.18733718668E+02  0.00000000000E+00 0. -1.
</event>
<event>
 8    1  0.2971508E-007  0.9118800E+02  0.7816164E-02  0.1184000E+00
        -11   -1    0    0    0    0  0.00000000000E+00  0.00000000000E+00  0.45593999997E+02  0.45594000000E+02  0.51100000000E-03 0.  1.
         11   -1    0    0    0    0 -0.00000000000E+00 -0.00000000000E+00 -0.45593999997E+02  0.45594000000E+02  0.51100000000E-03 0. -1.
         23    2    1    2    0    0 -0.66613381478E-15  0.00000000000E+00 -0.35527136788E-14  0.91188000000E+02  0.91188000000E+02 0.  0.
    9900012    2    3    3    0    0  0.12128776088E+01 -0.32835658788E+02 -0.16617116896E+02  0.54367080211E+02  0.39999990958E+02 0.  0.
        -12    1    3    3    0    0 -0.12128776088E+01  0.32835658788E+02  0.16617116896E+02  0.36820919789E+02  0.00000000000E+00 0.  1.
         11    1    4    4    0    0  0.13174541888E+02 -0.29936625120E+02 -0.13405058187E+02  0.35347781583E+02  0.51100000000E-03 0. -1.
        -11    1    4    4    0    0 -0.87100506246E+01 -0.57810196053E+01 -0.75378314508E+01  0.12888136902E+02  0.51100000000E-03 0.  1.
         12    1    4    4    0    0 -0.32516136548E+01  0.28819859379E+01  0.43257727416E+01  0.61311617266E+01  0.00000000000E+00 0. -1.
</event>
<event>
 8    1  0.2971508E-007  0.9118800E+02  0.7816164E-02  0.1184000E+00
        -11   -1    0    0    0    0  0.00000000000E+00  0.00000000000E+00  0.45593999997E+02  0.45594000000E+02  0.51100000000E-03 0.  1.
         11   -1    0    0    0    0 -0.00000000000E+00 -0.00000000000E+00 -0.45593999997E+02  0.45594000000E+02  0.51100000000E-03 0. -1.
         23    2    1    2    0    0  0.00000000000E+00 -0.71054273576E-14 -0.17763568394E-14  0.91188000000E+02  0.91188000000E+02 0.  0.
    9900012    2    3    3    0    0 -0.12405329386E+02  0.31255967057E+02 -0.14998383459E+02  0.54367093164E+02  0.40000020486E+02 0.  0.
         12    1    3    3    0    0  0.12405329386E+02 -0.31255967057E+02  0.14998383459E+02  0.36820906836E+02  0.00000000000E+00 0. -1.
         11    1    4    4    0    0 -0.16680441798E+02  0.75148182437E+01 -0.47294825841E+01  0.18896498024E+02  0.51100000000E-03 0. -1.
        -11    1    4    4    0    0 -0.31992814768E+00  0.23175229113E+02 -0.15954915153E+02  0.28138104347E+02  0.51100000000E-03 0.  1.
         12    1    4    4    0    0  0.45950405593E+01  0.56591970023E+00  0.56860142780E+01  0.73324907923E+01  0.00000000000E+00 0. -1.
</event>
<event>
 8    1  0.2971508E-007  0.9118800E+02  0.7816164E-02  0.1184000E+00
        -11   -1    0    0    0    0  0.00000000000E+00  0.00000000000E+00  0.45593999997E+02  0.45594000000E+02  0.51100000000E-03 0.  1.
         11   -1    0    0    0    0 -0.00000000000E+00 -0.00000000000E+00 -0.45593999997E+02  0.45594000000E+02  0.51100000000E-03 0. -1.
         23    2    1    2    0    0  0.00000000000E+00  0.00000000000E+00  0.00000000000E+00  0.91188000000E+02  0.91188000000E+02 0.  0.
    9900012    2    3    3    0    0 -0.32203477214E+02  0.16456508440E+02  0.69209448539E+01  0.54367080777E+02  0.39999992248E+02 0.  0.
        -12    1    3    3    0    0  0.32203477214E+02 -0.16456508440E+02 -0.69209448539E+01  0.36820919223E+02  0.00000000000E+00 0.  1.
         11    1    4    4    0    0 -0.85150820887E+01  0.23924289706E+02  0.15212896209E+01  0.25439980018E+02  0.51100000000E-03 0. -1.
        -11    1    4    4    0    0 -0.32638153898E+01  0.33958532270E+01  0.31882598552E+01  0.56876454886E+01  0.51100000000E-03 0.  1.
         12    1    4    4    0    0 -0.20424579736E+02 -0.10863634493E+02  0.22113953777E+01  0.23239455271E+02  0.00000000000E+00 0. -1.
</event>
<event>
 8    1  0.2971508E-007  0.9118800E+02  0.7816164E-02  0.1184000E+00
        -11   -1    0    0    0    0  0.00000000000E+00  0.00000000000E+00  0.45593999997E+02  0.45594000000E+02  0.51100000000E-03 0.  1.
         11   -1    0    0    0    0 -0.00000000000E+00 -0.00000000000E+00 -0.45593999997E+02  0.45594000000E+02  0.51100000000E-03 0. -1.
         23    2    1    2    0    0  0.35527136788E-14 -0.17763568394E-14  0.35527136788E-14  0.91188000000E+02  0.91188000000E+02 0.  0.
    9900012    2    3    3    0    0  0.24489276125E+02 -0.13691580479E+02  0.23845265003E+02  0.54367072741E+02  0.39999973927E+02 0.  0.
         12    1    3    3    0    0 -0.24489276125E+02  0.13691580479E+02 -0.23845265003E+02  0.36820927259E+02  0.00000000000E+00 0. -1.
         11    1    4    4    0    0  0.20808444960E+02 -0.93391148664E+01  0.10808795141E+02  0.25239661266E+02  0.51100000000E-03 0.  1.
        -11    1    4    4    0    0 -0.74519292673E+01  0.67194151353E+01  0.73108067649E+01  0.12414897719E+02  0.51100000000E-03 0. -1.
         12    1    4    4    0    0  0.11132760432E+02 -0.11071880747E+02  0.57256630976E+01  0.16712513756E+02  0.00000000000E+00 0. -1.
</event>
<event>
 8    1  0.2971508E-007  0.9118800E+02  0.7816164E-02  0.1184000E+00
        -11   -1    0    0    0    0  0.00000000000E+00  0.00000000000E+00  0.45593999997E+02  0.45594000000E+02  0.51100000000E-03 0. -1.
         11   -1    0    0    0    0 -0.00000000000E+00 -0.00000000000E+00 -0.45593999997E+02  0.45594000000E+02  0.51100000000E-03 0.  1.
         23    2    1    2    0    0  0.00000000000E+00  0.00000000000E+00  0.00000000000E+00  0.91188000000E+02  0.91188000000E+02 0.  0.
    9900012    2    3    3    0    0  0.21016754949E+02 -0.25885326389E+02 -0.15621323868E+02  0.54367083794E+02  0.39999999126E+02 0.  0.
         12    1    3    3    0    0 -0.21016754949E+02  0.25885326389E+02  0.15621323868E+02  0.36820916206E+02  0.00000000000E+00 0. -1.
         11    1    4    4    0    0  0.40152855022E+01  0.51369048831E+01 -0.65652093233E+01  0.92526905904E+01  0.51100000000E-03 0. -1.
        -11    1    4    4    0    0  0.27890740669E+01 -0.14038691393E+02  0.86821556862E+01  0.16740478422E+02  0.51100000000E-03 0.  1.
        -12    1    4    4    0    0  0.14212395380E+02 -0.16983539879E+02 -0.17738270231E+02  0.28373914782E+02  0.00000000000E+00 0.  1.
</event>
<event>
 8    1  0.2971508E-007  0.9118800E+02  0.7816164E-02  0.1184000E+00
        -11   -1    0    0    0    0  0.00000000000E+00  0.00000000000E+00  0.45593999997E+02  0.45594000000E+02  0.51100000000E-03 0. -1.
         11   -1    0    0    0    0 -0.00000000000E+00 -0.00000000000E+00 -0.45593999997E+02  0.45594000000E+02  0.51100000000E-03 0.  1.
         23    2    1    2    0    0  0.35527136788E-14  0.00000000000E+00  0.35527136788E-14  0.91188000000E+02  0.91188000000E+02 0.  0.
    9900012    2    3    3    0    0 -0.20924220923E+02  0.16615583247E+02 -0.25335344003E+02  0.54367078180E+02  0.39999986328E+02 0.  0.
         12    1    3    3    0    0  0.20924220923E+02 -0.16615583247E+02  0.25335344003E+02  0.36820921820E+02  0.00000000000E+00 0. -1.
         11    1    4    4    0    0 -0.61096761386E+00 -0.24345626572E+01  0.48949066693E+01  0.55009534010E+01  0.51100000000E-03 0. -1.
        -11    1    4    4    0    0 -0.17057004428E+02  0.21787339840E+02 -0.33536933168E+02  0.43478218270E+02  0.51100000000E-03 0.  1.
        -12    1    4    4    0    0 -0.32562488814E+01 -0.27371939361E+01  0.33066824960E+01  0.53879065091E+01  0.00000000000E+00 0.  1.
</event>
<event>
 8    1  0.2971508E-007  0.9118800E+02  0.7816164E-02  0.1184000E+00
        -11   -1    0    0    0    0  0.00000000000E+00  0.00000000000E+00  0.45593999997E+02  0.45594000000E+02  0.51100000000E-03 0. -1.
         11   -1    0    0    0    0 -0.00000000000E+00 -0.00000000000E+00 -0.45593999997E+02  0.45594000000E+02  0.51100000000E-03 0.  1.
         23    2    1    2    0    0  0.00000000000E+00  0.00000000000E+00  0.35527136788E-14  0.91188000000E+02  0.91188000000E+02 0.  0.
    9900012    2    3    3    0    0  0.15875230020E+02 -0.27386767769E+02 -0.18807489136E+02  0.54367087129E+02  0.40000006728E+02 0.  0.
        -12    1    3    3    0    0 -0.15875230020E+02  0.27386767769E+02  0.18807489136E+02  0.36820912871E+02  0.00000000000E+00 0.  1.
         11    1    4    4    0    0 -0.11662293043E+01 -0.10089726313E+01 -0.15536098095E+02  0.15612445703E+02  0.51100000000E-03 0.  1.
        -11    1    4    4    0    0 -0.51406060569E+01 -0.86673912928E+01 -0.23867164138E+01  0.10355960504E+02  0.51100000000E-03 0. -1.
        -12    1    4    4    0    0  0.22182065381E+02 -0.17710403845E+02 -0.88467462785E+00  0.28398680922E+02  0.00000000000E+00 0.  1.
</event>
<event>
 8    1  0.2971508E-007  0.9118800E+02  0.7816164E-02  0.1184000E+00
        -11   -1    0    0    0    0  0.00000000000E+00  0.00000000000E+00  0.45593999997E+02  0.45594000000E+02  0.51100000000E-03 0. -1.
         11   -1    0    0    0    0 -0.00000000000E+00 -0.00000000000E+00 -0.45593999997E+02  0.45594000000E+02  0.51100000000E-03 0.  1.
         23    2    1    2    0    0 -0.88817841970E-15  0.71054273576E-14  0.88817841970E-15  0.91188000000E+02  0.91188000000E+02 0.  0.
    9900012    2    3    3    0    0 -0.58337936969E+01 -0.36149707453E+02 -0.38667168113E+01  0.54367000601E+02  0.39999809470E+02 0.  0.
         12    1    3    3    0    0  0.58337936969E+01  0.36149707453E+02  0.38667168113E+01  0.36820999399E+02  0.00000000000E+00 0. -1.
         11    1    4    4    0    0  0.37078840625E+01  0.24294537984E+01  0.82614177953E+01  0.93755892738E+01  0.51100000000E-03 0. -1.
        -11    1    4    4    0    0  0.80504456530E+00 -0.25714486648E+02 -0.12220365483E+02  0.28481928536E+02  0.51100000000E-03 0.  1.
         12    1    4    4    0    0 -0.10346722325E+02 -0.12864674603E+02  0.92230876559E-01  0.16509482791E+02  0.00000000000E+00 0. -1.
</event>
<event>
 8    1  0.2971508E-007  0.9118800E+02  0.7816164E-02  0.1184000E+00
        -11   -1    0    0    0    0  0.00000000000E+00  0.00000000000E+00  0.45593999997E+02  0.45594000000E+02  0.51100000000E-03 0. -1.
         11   -1    0    0    0    0 -0.00000000000E+00 -0.00000000000E+00 -0.45593999997E+02  0.45594000000E+02  0.51100000000E-03 0.  1.
         23    2    1    2    0    0 -0.71054273576E-14 -0.44408920985E-15 -0.35527136788E-14  0.91188000000E+02  0.91188000000E+02 0.  0.
    9900012    2    3    3    0    0 -0.21711893898E+02 -0.93123463834E+00 -0.29723837360E+02  0.54367081461E+02  0.39999993808E+02 0.  0.
         12    1    3    3    0    0  0.21711893898E+02  0.93123463834E+00  0.29723837360E+02  0.36820918539E+02  0.00000000000E+00 0. -1.
         11    1    4    4    0    0 -0.20222532541E+02  0.66163155868E+01 -0.25328620582E+01  0.21427595404E+02  0.51100000000E-03 0. -1.
        -11    1    4    4    0    0 -0.36207364846E+01 -0.12014028112E+02 -0.23907693616E+02  0.27000452190E+02  0.51100000000E-03 0.  1.
        -12    1    4    4    0    0  0.21313751277E+01  0.44664778868E+01 -0.32832816861E+01  0.59390338674E+01  0.00000000000E+00 0.  1.
</event>
<event>
 8    1  0.2971508E-007  0.9118800E+02  0.7816164E-02  0.1184000E+00
        -11   -1    0    0    0    0  0.00000000000E+00  0.00000000000E+00  0.45593999997E+02  0.45594000000E+02  0.51100000000E-03 0.  1.
         11   -1    0    0    0    0 -0.00000000000E+00 -0.00000000000E+00 -0.45593999997E+02  0.45594000000E+02  0.51100000000E-03 0. -1.
         23    2    1    2    0    0  0.00000000000E+00  0.00000000000E+00  0.00000000000E+00  0.91188000000E+02  0.91188000000E+02 0.  0.
    9900012    2    3    3    0    0 -0.24531647886E+02  0.74801289928E+01 -0.26420181006E+02  0.54367081460E+02  0.39999993803E+02 0.  0.
        -12    1    3    3    0    0  0.24531647886E+02 -0.74801289928E+01  0.26420181006E+02  0.36820918540E+02  0.00000000000E+00 0.  1.
         11    1    4    4    0    0 -0.68246480503E+01  0.85671334678E+01 -0.13384961511E+02  0.17295340175E+02  0.51100000000E-03 0. -1.
        -11    1    4    4    0    0 -0.21597312531E+02 -0.80288837321E+01 -0.16553315121E+02  0.28371096635E+02  0.51100000000E-03 0.  1.
        -12    1    4    4    0    0  0.38903126948E+01  0.69418792570E+01  0.35180956254E+01  0.87006446492E+01  0.00000000000E+00 0.  1.
</event>
<event>
 8    1  0.2971508E-007  0.9118800E+02  0.7816164E-02  0.1184000E+00
        -11   -1    0    0    0    0  0.00000000000E+00  0.00000000000E+00  0.45593999997E+02  0.45594000000E+02  0.51100000000E-03 0. -1.
         11   -1    0    0    0    0 -0.00000000000E+00 -0.00000000000E+00 -0.45593999997E+02  0.45594000000E+02  0.51100000000E-03 0.  1.
         23    2    1    2    0    0 -0.35527136788E-14 -0.35527136788E-14 -0.88817841970E-15  0.91188000000E+02  0.91188000000E+02 0.  0.
    9900012    2    3    3    0    0  0.22006317002E+02  0.28702014466E+02  0.69062256633E+01  0.54367087799E+02  0.40000008255E+02 0.  0.
        -12    1    3    3    0    0 -0.22006317002E+02 -0.28702014466E+02 -0.69062256633E+01  0.36820912201E+02  0.00000000000E+00 0.  1.
         11    1    4    4    0    0  0.27792517168E+02  0.26750226879E+02 -0.36558344986E+01  0.38747435719E+02  0.51100000000E-03 0. -1.
        -11    1    4    4    0    0 -0.13209066760E+01 -0.38951972318E+01  0.43984368275E+01  0.60219268269E+01  0.51100000000E-03 0.  1.
        -12    1    4    4    0    0 -0.44652934904E+01  0.58469848189E+01  0.61636233343E+01  0.95977252531E+01  0.00000000000E+00 0.  1.
</event>
<event>
 8    1  0.2971508E-007  0.9118800E+02  0.7816164E-02  0.1184000E+00
        -11   -1    0    0    0    0  0.00000000000E+00  0.00000000000E+00  0.45593999997E+02  0.45594000000E+02  0.51100000000E-03 0.  1.
         11   -1    0    0    0    0 -0.00000000000E+00 -0.00000000000E+00 -0.45593999997E+02  0.45594000000E+02  0.51100000000E-03 0. -1.
         23    2    1    2    0    0 -0.17763568394E-14 -0.71054273576E-14 -0.88817841970E-15  0.91188000000E+02  0.91188000000E+02 0.  0.
    9900012    2    3    3    0    0 -0.79950512522E+01 -0.35730881160E+02 -0.38939758031E+01  0.54367085284E+02  0.40000002521E+02 0.  0.
         12    1    3    3    0    0  0.79950512522E+01  0.35730881160E+02  0.38939758031E+01  0.36820914716E+02  0.00000000000E+00 0. -1.
         11    1    4    4    0    0  0.15892901844E+01 -0.18095346732E+02  0.97413094866E+01  0.20612145144E+02  0.51100000000E-03 0. -1.
        -11    1    4    4    0    0  0.77470702750E+01 -0.39236441138E+01 -0.26747884505E+01  0.90866151285E+01  0.51100000000E-03 0.  1.
         12    1    4    4    0    0 -0.17331411712E+02 -0.13711890314E+02 -0.10960496839E+02  0.24668325011E+02  0.00000000000E+00 0. -1.
</event>
<event>
 8    1  0.2971508E-007  0.9118800E+02  0.7816164E-02  0.1184000E+00
        -11   -1    0    0    0    0  0.00000000000E+00  0.00000000000E+00  0.45593999997E+02  0.45594000000E+02  0.51100000000E-03 0. -1.
         11   -1    0    0    0    0 -0.00000000000E+00 -0.00000000000E+00 -0.45593999997E+02  0.45594000000E+02  0.51100000000E-03 0.  1.
         23    2    1    2    0    0  0.00000000000E+00  0.35527136788E-14 -0.44408920985E-15  0.91188000000E+02  0.91188000000E+02 0.  0.
    9900012    2    3    3    0    0  0.33882068954E+02 -0.14176309359E+02  0.26110044287E+01  0.54367086272E+02  0.40000004774E+02 0.  0.
        -12    1    3    3    0    0 -0.33882068954E+02  0.14176309359E+02 -0.26110044287E+01  0.36820913728E+02  0.00000000000E+00 0.  1.
         11    1    4    4    0    0  0.12549832483E+02 -0.29276256565E+01 -0.18566977101E+01  0.13019854607E+02  0.51100000000E-03 0. -1.
        -11    1    4    4    0    0  0.24255994775E+02 -0.16238026954E+02 -0.56142478858E+01  0.29724511458E+02  0.51100000000E-03 0.  1.
        -12    1    4    4    0    0 -0.29237583036E+01  0.49893432512E+01  0.10081950025E+02  0.11622720206E+02  0.00000000000E+00 0.  1.
</event>
<event>
 8    1  0.2971508E-007  0.9118800E+02  0.7816164E-02  0.1184000E+00
        -11   -1    0    0    0    0  0.00000000000E+00  0.00000000000E+00  0.45593999997E+02  0.45594000000E+02  0.51100000000E-03 0. -1.
         11   -1    0    0    0    0 -0.00000000000E+00 -0.00000000000E+00 -0.45593999997E+02  0.45594000000E+02  0.51100000000E-03 0.  1.
         23    2    1    2    0    0 -0.35527136788E-14  0.00000000000E+00 -0.71054273576E-14  0.91188000000E+02  0.91188000000E+02 0.  0.
    9900012    2    3    3    0    0 -0.11601295565E+02  0.11591330922E+02 -0.32967124537E+02  0.54367077801E+02  0.39999985463E+02 0.  0.
         12    1    3    3    0    0  0.11601295565E+02 -0.11591330922E+02  0.32967124537E+02  0.36820922199E+02  0.00000000000E+00 0. -1.
         11    1    4    4    0    0 -0.17261026444E+02  0.72847985248E+01 -0.15658695623E+02  0.24417331392E+02  0.51100000000E-03 0.  1.
        -11    1    4    4    0    0  0.57995911039E+01 -0.42615803001E+01  0.30840721948E+01  0.78299313656E+01  0.51100000000E-03 0. -1.
        -12    1    4    4    0    0 -0.13986022524E+00  0.85681126978E+01 -0.20392501109E+02  0.22119815043E+02  0.00000000000E+00 0.  1.
</event>
<event>
 8    1  0.2971508E-007  0.9118800E+02  0.7816164E-02  0.1184000E+00
        -11   -1    0    0    0    0  0.00000000000E+00  0.00000000000E+00  0.45593999997E+02  0.45594000000E+02  0.51100000000E-03 0. -1.
         11   -1    0    0    0    0 -0.00000000000E+00 -0.00000000000E+00 -0.45593999997E+02  0.45594000000E+02  0.51100000000E-03 0.  1.
         23    2    1    2    0    0  0.00000000000E+00  0.00000000000E+00 -0.35527136788E-14  0.91188000000E+02  0.91188000000E+02 0.  0.
    9900012    2    3    3    0    0 -0.25895030235E+02  0.73450309033E+01  0.25125251975E+02  0.54367077189E+02  0.39999984068E+02 0.  0.
        -12    1    3    3    0    0  0.25895030235E+02 -0.73450309033E+01 -0.25125251975E+02  0.36820922811E+02  0.00000000000E+00 0.  1.
         11    1    4    4    0    0 -0.54057118974E+01 -0.52398647139E+01  0.15163262147E+02  0.16929336151E+02  0.51100000000E-03 0. -1.
        -11    1    4    4    0    0  0.48332419548E+01  0.43717145893E+01 -0.37224821031E+01  0.75052641202E+01  0.51100000000E-03 0.  1.
        -12    1    4    4    0    0 -0.25322560292E+02  0.82131810279E+01  0.13684471931E+02  0.29932476917E+02  0.00000000000E+00 0.  1.
</event>
<event>
 8    1  0.2971508E-007  0.9118800E+02  0.7816164E-02  0.1184000E+00
        -11   -1    0    0    0    0  0.00000000000E+00  0.00000000000E+00  0.45593999997E+02  0.45594000000E+02  0.51100000000E-03 0.  1.
         11   -1    0    0    0    0 -0.00000000000E+00 -0.00000000000E+00 -0.45593999997E+02  0.45594000000E+02  0.51100000000E-03 0. -1.
         23    2    1    2    0    0  0.35527136788E-14  0.35527136788E-14  0.17763568394E-14  0.91188000000E+02  0.91188000000E+02 0.  0.
    9900012    2    3    3    0    0  0.31704385144E+02  0.16395188767E+02  0.90444819507E+01  0.54367178366E+02  0.40000214720E+02 0.  0.
         12    1    3    3    0    0 -0.31704385144E+02 -0.16395188767E+02 -0.90444819507E+01  0.36820821634E+02  0.00000000000E+00 0. -1.
         11    1    4    4    0    0  0.99425245595E+01  0.18344052386E+02  0.17824657507E+02  0.27442238758E+02  0.51100000000E-03 0. -1.
        -11    1    4    4    0    0  0.66470094662E+01 -0.47386584992E+01  0.16784557250E+01  0.83339566292E+01  0.51100000000E-03 0.  1.
         12    1    4    4    0    0  0.15114851119E+02  0.27897948799E+01 -0.10458631282E+02  0.18590982978E+02  0.00000000000E+00 0. -1.
</event>
<event>
 8    1  0.2971508E-007  0.9118800E+02  0.7816164E-02  0.1184000E+00
        -11   -1    0    0    0    0  0.00000000000E+00  0.00000000000E+00  0.45593999997E+02  0.45594000000E+02  0.51100000000E-03 0.  1.
         11   -1    0    0    0    0 -0.00000000000E+00 -0.00000000000E+00 -0.45593999997E+02  0.45594000000E+02  0.51100000000E-03 0. -1.
         23    2    1    2    0    0  0.35527136788E-14 -0.35527136788E-14  0.88817841970E-15  0.91188000000E+02  0.91188000000E+02 0.  0.
    9900012    2    3    3    0    0  0.23721023603E+02 -0.27235886658E+02  0.71622854315E+01  0.54367098118E+02  0.40000031779E+02 0.  0.
        -12    1    3    3    0    0 -0.23721023603E+02  0.27235886658E+02 -0.71622854315E+01  0.36820901882E+02  0.00000000000E+00 0.  1.
         11    1    4    4    0    0  0.98043467801E+01 -0.29507703862E+02  0.93604397726E+01  0.32472259484E+02  0.51100000000E-03 0. -1.
        -11    1    4    4    0    0  0.11464603317E+02 -0.57764871928E+01  0.10399129766E+01  0.12879687604E+02  0.51100000000E-03 0.  1.
        -12    1    4    4    0    0  0.24520735058E+01  0.80483043967E+01 -0.32380673177E+01  0.90151510300E+01  0.00000000000E+00 0.  1.
</event>
<event>
 8    1  0.2971508E-007  0.9118800E+02  0.7816164E-02  0.1184000E+00
        -11   -1    0    0    0    0  0.00000000000E+00  0.00000000000E+00  0.45593999997E+02  0.45594000000E+02  0.51100000000E-03 0. -1.
         11   -1    0    0    0    0 -0.00000000000E+00 -0.00000000000E+00 -0.45593999997E+02  0.45594000000E+02  0.51100000000E-03 0.  1.
         23    2    1    2    0    0 -0.71054273576E-14  0.00000000000E+00  0.00000000000E+00  0.91188000000E+02  0.91188000000E+02 0.  0.
    9900012    2    3    3    0    0 -0.23946908813E+02 -0.27589134558E+02 -0.46005156742E+01  0.54367088389E+02  0.40000009601E+02 0.  0.
        -12    1    3    3    0    0  0.23946908813E+02  0.27589134558E+02  0.46005156742E+01  0.36820911611E+02  0.00000000000E+00 0.  1.
         11    1    4    4    0    0 -0.34408026711E+02 -0.23531865949E+02 -0.37103786358E+01  0.41850064839E+02  0.51100000000E-03 0. -1.
        -11    1    4    4    0    0  0.46156587927E+01 -0.47127546528E+01 -0.67511578073E+00  0.66309987247E+01  0.51100000000E-03 0.  1.
         12    1    4    4    0    0  0.58454591051E+01  0.65548604335E+00 -0.21502125768E+00  0.58860248253E+01  0.00000000000E+00 0. -1.
</event>
<event>
 8    1  0.2971508E-007  0.9118800E+02  0.7816164E-02  0.1184000E+00
        -11   -1    0    0    0    0  0.00000000000E+00  0.00000000000E+00  0.45593999997E+02  0.45594000000E+02  0.51100000000E-03 0.  1.
         11   -1    0    0    0    0 -0.00000000000E+00 -0.00000000000E+00 -0.45593999997E+02  0.45594000000E+02  0.51100000000E-03 0. -1.
         23    2    1    2    0    0 -0.22204460493E-14  0.00000000000E+00  0.00000000000E+00  0.91188000000E+02  0.91188000000E+02 0.  0.
    9900012    2    3    3    0    0  0.21813791718E+01  0.35437479733E+02 -0.97573387547E+01  0.54367095007E+02  0.40000024688E+02 0.  0.
         12    1    3    3    0    0 -0.21813791718E+01 -0.35437479733E+02  0.97573387547E+01  0.36820904993E+02  0.00000000000E+00 0. -1.
         11    1    4    4    0    0 -0.29289751980E+01  0.16036205010E+02 -0.16180621761E+02  0.22968484662E+02  0.51100000000E-03 0. -1.
        -11    1    4    4    0    0  0.11698902609E+02  0.17675051466E+01  0.13909502394E+01  0.11913149858E+02  0.51100000000E-03 0.  1.
        -12    1    4    4    0    0 -0.65885482392E+01  0.17633769576E+02  0.50323327667E+01  0.19485460488E+02  0.00000000000E+00 0.  1.
</event>
<event>
 8    1  0.2971508E-007  0.9118800E+02  0.7816164E-02  0.1184000E+00
        -11   -1    0    0    0    0  0.00000000000E+00  0.00000000000E+00  0.45593999997E+02  0.45594000000E+02  0.51100000000E-03 0.  1.
         11   -1    0    0    0    0 -0.00000000000E+00 -0.00000000000E+00 -0.45593999997E+02  0.45594000000E+02  0.51100000000E-03 0. -1.
         23    2    1    2    0    0  0.35527136788E-14  0.17763568394E-14  0.00000000000E+00  0.91188000000E+02  0.91188000000E+02 0.  0.
    9900012    2    3    3    0    0  0.30481203359E+02 -0.14862930307E+02 -0.14344679008E+02  0.54367078347E+02  0.39999986708E+02 0.  0.
        -12    1    3    3    0    0 -0.30481203359E+02  0.14862930307E+02  0.14344679008E+02  0.36820921653E+02  0.00000000000E+00 0.  1.
         11    1    4    4    0    0  0.11738101220E+01 -0.61180332064E+01 -0.81717795973E+01  0.10275511791E+02  0.51100000000E-03 0. -1.
        -11    1    4    4    0    0  0.12045454840E+02 -0.12837699993E+02  0.98621254499E+01  0.20178231886E+02  0.51100000000E-03 0.  1.
         12    1    4    4    0    0  0.17261938397E+02  0.40928028923E+01 -0.16035024861E+02  0.23913334670E+02  0.00000000000E+00 0. -1.
</event>
<event>
 8    1  0.2971508E-007  0.9118800E+02  0.7816164E-02  0.1184000E+00
        -11   -1    0    0    0    0  0.00000000000E+00  0.00000000000E+00  0.45593999997E+02  0.45594000000E+02  0.51100000000E-03 0.  1.
         11   -1    0    0    0    0 -0.00000000000E+00 -0.00000000000E+00 -0.45593999997E+02  0.45594000000E+02  0.51100000000E-03 0. -1.
         23    2    1    2    0    0 -0.66613381478E-15  0.00000000000E+00  0.17763568394E-14  0.91188000000E+02  0.91188000000E+02 0.  0.
    9900012    2    3    3    0    0  0.19111688700E+01  0.34143376038E+02 -0.13651278507E+02  0.54367080693E+02  0.39999992056E+02 0.  0.
         12    1    3    3    0    0 -0.19111688700E+01 -0.34143376038E+02  0.13651278507E+02  0.36820919307E+02  0.00000000000E+00 0. -1.
         11    1    4    4    0    0  0.60695289082E+01  0.18678094435E+02 -0.15360117765E+02  0.24932781853E+02  0.51100000000E-03 0. -1.
        -11    1    4    4    0    0  0.10088480614E+01  0.15372619521E+02  0.10912423363E+02  0.18878988036E+02  0.51100000000E-03 0.  1.
        -12    1    4    4    0    0 -0.51672080996E+01  0.92662081579E-01 -0.92035841047E+01  0.10555310804E+02  0.00000000000E+00 0.  1.
</event>
<event>
 8    1  0.2971508E-007  0.9118800E+02  0.7816164E-02  0.1184000E+00
        -11   -1    0    0    0    0  0.00000000000E+00  0.00000000000E+00  0.45593999997E+02  0.45594000000E+02  0.51100000000E-03 0. -1.
         11   -1    0    0    0    0 -0.00000000000E+00 -0.00000000000E+00 -0.45593999997E+02  0.45594000000E+02  0.51100000000E-03 0.  1.
         23    2    1    2    0    0  0.00000000000E+00  0.00000000000E+00  0.00000000000E+00  0.91188000000E+02  0.91188000000E+02 0.  0.
    9900012    2    3    3    0    0 -0.48450173694E+01 -0.27533660842E+02  0.23962590215E+02  0.54367049408E+02  0.39999920735E+02 0.  0.
        -12    1    3    3    0    0  0.48450173694E+01  0.27533660842E+02 -0.23962590215E+02  0.36820950592E+02  0.00000000000E+00 0.  1.
         11    1    4    4    0    0 -0.74127324895E+01 -0.14581035118E+02  0.24299171330E+02  0.29291720941E+02  0.51100000000E-03 0. -1.
        -11    1    4    4    0    0  0.11397201243E+02 -0.92003920965E+01  0.29363053803E+01  0.14938718166E+02  0.51100000000E-03 0.  1.
        -12    1    4    4    0    0 -0.88294861224E+01 -0.37522336278E+01 -0.32728864958E+01  0.10136610301E+02  0.00000000000E+00 0.  1.
</event>
<event>
 8    1  0.2971508E-007  0.9118800E+02  0.7816164E-02  0.1184000E+00
        -11   -1    0    0    0    0  0.00000000000E+00  0.00000000000E+00  0.45593999997E+02  0.45594000000E+02  0.51100000000E-03 0.  1.
         11   -1    0    0    0    0 -0.00000000000E+00 -0.00000000000E+00 -0.45593999997E+02  0.45594000000E+02  0.51100000000E-03 0. -1.
         23    2    1    2    0    0  0.00000000000E+00  0.00000000000E+00 -0.35527136788E-14  0.91188000000E+02  0.91188000000E+02 0.  0.
    9900012    2    3    3    0    0 -0.16196871314E+02  0.20787387681E+02 -0.25716258113E+02  0.54367081241E+02  0.39999993304E+02 0.  0.
        -12    1    3    3    0    0  0.16196871314E+02 -0.20787387681E+02  0.25716258113E+02  0.36820918759E+02  0.00000000000E+00 0.  1.
         11    1    4    4    0    0  0.32424318055E+01  0.54860946980E+01 -0.93924904474E+01  0.11350307314E+02  0.51100000000E-03 0. -1.
        -11    1    4    4    0    0 -0.23315217887E+02  0.21850814480E+00 -0.52275233201E+01  0.23895064998E+02  0.51100000000E-03 0.  1.
        -12    1    4    4    0    0  0.38759147683E+01  0.15082784839E+02 -0.11096244345E+02  0.19121708929E+02  0.00000000000E+00 0.  1.
</event>
<event>
 8    1  0.2971508E-007  0.9118800E+02  0.7816164E-02  0.1184000E+00
        -11   -1    0    0    0    0  0.00000000000E+00  0.00000000000E+00  0.45593999997E+02  0.45594000000E+02  0.51100000000E-03 0. -1.
         11   -1    0    0    0    0 -0.00000000000E+00 -0.00000000000E+00 -0.45593999997E+02  0.45594000000E+02  0.51100000000E-03 0.  1.
         23    2    1    2    0    0  0.00000000000E+00  0.00000000000E+00  0.15265566589E-14  0.91188000000E+02  0.91188000000E+02 0.  0.
    9900012    2    3    3    0    0 -0.36542064189E+02 -0.45226092782E+01 -0.64743137957E-01  0.54367073320E+02  0.39999975247E+02 0.  0.
        -12    1    3    3    0    0  0.36542064189E+02  0.45226092782E+01  0.64743137957E-01  0.36820926680E+02  0.00000000000E+00 0.  1.
         11    1    4    4    0    0 -0.96821775005E+01  0.73402501243E+01  0.14583584472E+02  0.18981695639E+02  0.51100000000E-03 0. -1.
        -11    1    4    4    0    0 -0.21029468935E+02 -0.24952255615E+01 -0.96878447671E+01  0.23287744648E+02  0.51100000000E-03 0.  1.
        -12    1    4    4    0    0 -0.58304177538E+01 -0.93676338410E+01 -0.49604828425E+01  0.12097633033E+02  0.00000000000E+00 0.  1.
</event>
<event>
 8    1  0.2971508E-007  0.9118800E+02  0.7816164E-02  0.1184000E+00
        -11   -1    0    0    0    0  0.00000000000E+00  0.00000000000E+00  0.45593999997E+02  0.45594000000E+02  0.51100000000E-03 0.  1.
         11   -1    0    0    0    0 -0.00000000000E+00 -0.00000000000E+00 -0.45593999997E+02  0.45594000000E+02  0.51100000000E-03 0. -1.
         23    2    1    2    0    0  0.71054273576E-14  0.00000000000E+00 -0.88817841970E-15  0.91188000000E+02  0.91188000000E+02 0.  0.
    9900012    2    3    3    0    0 -0.21606493703E+02  0.28786342355E+02 -0.77643983565E+01  0.54367082600E+02  0.39999996404E+02 0.  0.
         12    1    3    3    0    0  0.21606493703E+02 -0.28786342355E+02  0.77643983565E+01  0.36820917400E+02  0.00000000000E+00 0. -1.
         11    1    4    4    0    0 -0.28410764760E+02  0.93400209969E+01 -0.21253957890E+01  0.29982075545E+02  0.51100000000E-03 0. -1.
        -11    1    4    4    0    0  0.80162386062E+01  0.69327873111E+01  0.19252779221E-01  0.10598301384E+02  0.51100000000E-03 0.  1.
         12    1    4    4    0    0 -0.12119675489E+01  0.12513534047E+02 -0.56582553467E+01  0.13786705671E+02  0.00000000000E+00 0. -1.
</event>
<event>
 8    1  0.2971508E-007  0.9118800E+02  0.7816164E-02  0.1184000E+00
        -11   -1    0    0    0    0  0.00000000000E+00  0.00000000000E+00  0.45593999997E+02  0.45594000000E+02  0.51100000000E-03 0.  1.
         11   -1    0    0    0    0 -0.00000000000E+00 -0.00000000000E+00 -0.45593999997E+02  0.45594000000E+02  0.51100000000E-03 0. -1.
         23    2    1    2    0    0  0.71054273576E-14  0.00000000000E+00  0.00000000000E+00  0.91188000000E+02  0.91188000000E+02 0.  0.
    9900012    2    3    3    0    0 -0.32413554584E+02  0.13740434953E+02  0.10786106053E+02  0.54367107055E+02  0.40000052153E+02 0.  0.
         12    1    3    3    0    0  0.32413554584E+02 -0.13740434953E+02 -0.10786106053E+02  0.36820892945E+02  0.00000000000E+00 0. -1.
         11    1    4    4    0    0 -0.26845647475E+02  0.23236194099E+02  0.14906583163E+02  0.38507346396E+02  0.51100000000E-03 0.  1.
        -11    1    4    4    0    0  0.27976627967E+00 -0.79198694038E+01 -0.55024711027E+01  0.96477867431E+01  0.51100000000E-03 0. -1.
        -12    1    4    4    0    0 -0.58476733885E+01 -0.15758897423E+01  0.13819939922E+01  0.62119739160E+01  0.00000000000E+00 0.  1.
</event>
<event>
 8    1  0.2971508E-007  0.9118800E+02  0.7816164E-02  0.1184000E+00
        -11   -1    0    0    0    0  0.00000000000E+00  0.00000000000E+00  0.45593999997E+02  0.45594000000E+02  0.51100000000E-03 0.  1.
         11   -1    0    0    0    0 -0.00000000000E+00 -0.00000000000E+00 -0.45593999997E+02  0.45594000000E+02  0.51100000000E-03 0. -1.
         23    2    1    2    0    0  0.00000000000E+00  0.88817841970E-15  0.17763568394E-14  0.91188000000E+02  0.91188000000E+02 0.  0.
    9900012    2    3    3    0    0  0.35373479317E+02 -0.44002333026E+01 -0.92266436783E+01  0.54367135729E+02  0.40000117521E+02 0.  0.
        -12    1    3    3    0    0 -0.35373479317E+02  0.44002333026E+01  0.92266436783E+01  0.36820864271E+02  0.00000000000E+00 0.  1.
         11    1    4    4    0    0  0.19657696316E+02  0.23408219818E+01 -0.89137435913E+01  0.21710810604E+02  0.51100000000E-03 0. -1.
        -11    1    4    4    0    0  0.19918457816E+02 -0.83305369625E+01 -0.85915061695E+01  0.23236970249E+02  0.51100000000E-03 0.  1.
        -12    1    4    4    0    0 -0.42026748149E+01  0.15894816781E+01  0.82786060825E+01  0.94193548757E+01  0.00000000000E+00 0.  1.
</event>
<event>
 8    1  0.2971508E-007  0.9118800E+02  0.7816164E-02  0.1184000E+00
        -11   -1    0    0    0    0  0.00000000000E+00  0.00000000000E+00  0.45593999997E+02  0.45594000000E+02  0.51100000000E-03 0.  1.
         11   -1    0    0    0    0 -0.00000000000E+00 -0.00000000000E+00 -0.45593999997E+02  0.45594000000E+02  0.51100000000E-03 0. -1.
         23    2    1    2    0    0  0.71054273576E-14  0.00000000000E+00  0.00000000000E+00  0.91188000000E+02  0.91188000000E+02 0.  0.
    9900012    2    3    3    0    0  0.21171399039E+02  0.28857539576E+02 -0.86484100539E+01  0.54367072199E+02  0.39999972692E+02 0.  0.
        -12    1    3    3    0    0 -0.21171399039E+02 -0.28857539576E+02  0.86484100539E+01  0.36820927801E+02  0.00000000000E+00 0.  1.
         11    1    4    4    0    0  0.24554245833E+02  0.12664820201E+01 -0.43110786528E+01  0.24961978378E+02  0.51100000000E-03 0. -1.
        -11    1    4    4    0    0  0.23472606002E+01  0.12741200125E+02 -0.19167067024E+00  0.12957027084E+02  0.51100000000E-03 0.  1.
         12    1    4    4    0    0 -0.57301073947E+01  0.14849857431E+02 -0.41456607309E+01  0.16448066737E+02  0.00000000000E+00 0. -1.
</event>
<event>
 8    1  0.2971508E-007  0.9118800E+02  0.7816164E-02  0.1184000E+00
        -11   -1    0    0    0    0  0.00000000000E+00  0.00000000000E+00  0.45593999997E+02  0.45594000000E+02  0.51100000000E-03 0.  1.
         11   -1    0    0    0    0 -0.00000000000E+00 -0.00000000000E+00 -0.45593999997E+02  0.45594000000E+02  0.51100000000E-03 0. -1.
         23    2    1    2    0    0  0.00000000000E+00 -0.17763568394E-14  0.00000000000E+00  0.91188000000E+02  0.91188000000E+02 0.  0.
    9900012    2    3    3    0    0  0.24357825490E+02  0.15765273816E+02  0.22670083042E+02  0.54367079503E+02  0.39999989344E+02 0.  0.
         12    1    3    3    0    0 -0.24357825490E+02 -0.15765273816E+02 -0.22670083042E+02  0.36820920497E+02  0.00000000000E+00 0. -1.
         11    1    4    4    0    0 -0.49367867019E+01  0.31129894947E+01 -0.48369460968E+01  0.75801460631E+01  0.51100000000E-03 0. -1.
        -11    1    4    4    0    0  0.21164410514E+01 -0.27410225968E+01  0.10848020737E+02  0.11387365006E+02  0.51100000000E-03 0.  1.
         12    1    4    4    0    0  0.27178171141E+02  0.15393306918E+02  0.16659008401E+02  0.35399568434E+02  0.00000000000E+00 0. -1.
</event>
<event>
 8    1  0.2971508E-007  0.9118800E+02  0.7816164E-02  0.1184000E+00
        -11   -1    0    0    0    0  0.00000000000E+00  0.00000000000E+00  0.45593999997E+02  0.45594000000E+02  0.51100000000E-03 0.  1.
         11   -1    0    0    0    0 -0.00000000000E+00 -0.00000000000E+00 -0.45593999997E+02  0.45594000000E+02  0.51100000000E-03 0. -1.
         23    2    1    2    0    0  0.35527136788E-14  0.00000000000E+00  0.00000000000E+00  0.91188000000E+02  0.91188000000E+02 0.  0.
    9900012    2    3    3    0    0 -0.20711538432E+02 -0.19795900509E+02  0.23128653496E+02  0.54367080488E+02  0.39999991588E+02 0.  0.
         12    1    3    3    0    0  0.20711538432E+02  0.19795900509E+02 -0.23128653496E+02  0.36820919512E+02  0.00000000000E+00 0. -1.
         11    1    4    4    0    0 -0.16354124230E+02 -0.84577747405E+01 -0.53892144718E+01  0.19184237430E+02  0.51100000000E-03 0.  1.
        -11    1    4    4    0    0 -0.14036788312E+01  0.42938630030E+01  0.45172430804E+01  0.63885099247E+01  0.51100000000E-03 0. -1.
        -12    1    4    4    0    0 -0.29537353706E+01 -0.15631988772E+02  0.24000624887E+02  0.28794333133E+02  0.00000000000E+00 0.  1.
</event>
<event>
 8    1  0.2971508E-007  0.9118800E+02  0.7816164E-02  0.1184000E+00
        -11   -1    0    0    0    0  0.00000000000E+00  0.00000000000E+00  0.45593999997E+02  0.45594000000E+02  0.51100000000E-03 0.  1.
         11   -1    0    0    0    0 -0.00000000000E+00 -0.00000000000E+00 -0.45593999997E+02  0.45594000000E+02  0.51100000000E-03 0. -1.
         23    2    1    2    0    0 -0.17763568394E-14  0.00000000000E+00  0.00000000000E+00  0.91188000000E+02  0.91188000000E+02 0.  0.
    9900012    2    3    3    0    0  0.40728073181E+01 -0.34501524050E+02  0.12199886269E+02  0.54367080046E+02  0.39999990582E+02 0.  0.
        -12    1    3    3    0    0 -0.40728073181E+01  0.34501524050E+02 -0.12199886269E+02  0.36820919954E+02  0.00000000000E+00 0.  1.
         11    1    4    4    0    0 -0.55015984086E+01 -0.11511426912E+00 -0.42432073642E+01  0.69487873288E+01  0.51100000000E-03 0. -1.
        -11    1    4    4    0    0 -0.35679869299E+01 -0.14031686842E+02 -0.47406968824E+01  0.15234597913E+02  0.51100000000E-03 0.  1.
        -12    1    4    4    0    0  0.13142392657E+02 -0.20354722939E+02  0.21183790516E+02  0.32183694805E+02  0.00000000000E+00 0.  1.
</event>
<event>
 8    1  0.2971508E-007  0.9118800E+02  0.7816164E-02  0.1184000E+00
        -11   -1    0    0    0    0  0.00000000000E+00  0.00000000000E+00  0.45593999997E+02  0.45594000000E+02  0.51100000000E-03 0.  1.
         11   -1    0    0    0    0 -0.00000000000E+00 -0.00000000000E+00 -0.45593999997E+02  0.45594000000E+02  0.51100000000E-03 0. -1.
         23    2    1    2    0    0  0.35527136788E-14  0.99920072216E-15  0.00000000000E+00  0.91188000000E+02  0.91188000000E+02 0.  0.
    9900012    2    3    3    0    0 -0.22642313384E+02  0.28186166524E+00  0.29034916869E+02  0.54367079330E+02  0.39999988949E+02 0.  0.
         12    1    3    3    0    0  0.22642313384E+02 -0.28186166524E+00 -0.29034916869E+02  0.36820920670E+02  0.00000000000E+00 0. -1.
         11    1    4    4    0    0  0.50821342266E+01 -0.12010866913E+02  0.15387940590E+02  0.20171210379E+02  0.51100000000E-03 0. -1.
        -11    1    4    4    0    0 -0.16864635635E+02  0.38597655563E+01  0.52271592474E+01  0.18073099328E+02  0.51100000000E-03 0.  1.
         12    1    4    4    0    0 -0.10859811975E+02  0.84329630222E+01  0.84198170323E+01  0.16122769623E+02  0.00000000000E+00 0. -1.
</event>
<event>
 8    1  0.2971508E-007  0.9118800E+02  0.7816164E-02  0.1184000E+00
        -11   -1    0    0    0    0  0.00000000000E+00  0.00000000000E+00  0.45593999997E+02  0.45594000000E+02  0.51100000000E-03 0. -1.
         11   -1    0    0    0    0 -0.00000000000E+00 -0.00000000000E+00 -0.45593999997E+02  0.45594000000E+02  0.51100000000E-03 0.  1.
         23    2    1    2    0    0  0.00000000000E+00  0.00000000000E+00  0.17763568394E-14  0.91188000000E+02  0.91188000000E+02 0.  0.
    9900012    2    3    3    0    0  0.22032783339E+02  0.26673696867E+02  0.12603659251E+02  0.54367056602E+02  0.39999937135E+02 0.  0.
         12    1    3    3    0    0 -0.22032783339E+02 -0.26673696867E+02 -0.12603659251E+02  0.36820943398E+02  0.00000000000E+00 0. -1.
         11    1    4    4    0    0 -0.52539815400E+00  0.19479639887E+02  0.17938294782E+02  0.26486125297E+02  0.51100000000E-03 0. -1.
        -11    1    4    4    0    0  0.63035025211E+01 -0.27731566058E+01 -0.54994473879E+01  0.88129713166E+01  0.51100000000E-03 0.  1.
        -12    1    4    4    0    0  0.16254678972E+02  0.99672135860E+01  0.16481185755E+00  0.19067959988E+02  0.00000000000E+00 0.  1.
</event>
<event>
 8    1  0.2971508E-007  0.9118800E+02  0.7816164E-02  0.1184000E+00
        -11   -1    0    0    0    0  0.00000000000E+00  0.00000000000E+00  0.45593999997E+02  0.45594000000E+02  0.51100000000E-03 0.  1.
         11   -1    0    0    0    0 -0.00000000000E+00 -0.00000000000E+00 -0.45593999997E+02  0.45594000000E+02  0.51100000000E-03 0. -1.
         23    2    1    2    0    0 -0.88817841970E-15  0.00000000000E+00  0.00000000000E+00  0.91188000000E+02  0.91188000000E+02 0.  0.
    9900012    2    3    3    0    0  0.73786142365E+01  0.11727869982E+02 -0.34114404212E+02  0.54367089405E+02  0.40000011916E+02 0.  0.
        -12    1    3    3    0    0 -0.73786142365E+01 -0.11727869982E+02  0.34114404212E+02  0.36820910595E+02  0.00000000000E+00 0.  1.
         11    1    4    4    0    0  0.77631897706E-02  0.23894179569E+01 -0.26457296690E+02  0.26564975566E+02  0.51100000000E-03 0. -1.
        -11    1    4    4    0    0  0.14822853472E+02  0.62067615270E+00 -0.18614978929E+01  0.14952170364E+02  0.51100000000E-03 0.  1.
         12    1    4    4    0    0 -0.74520024254E+01  0.87177758727E+01 -0.57956096290E+01  0.12849943474E+02  0.00000000000E+00 0. -1.
</event>
<event>
 8    1  0.2971508E-007  0.9118800E+02  0.7816164E-02  0.1184000E+00
        -11   -1    0    0    0    0  0.00000000000E+00  0.00000000000E+00  0.45593999997E+02  0.45594000000E+02  0.51100000000E-03 0.  1.
         11   -1    0    0    0    0 -0.00000000000E+00 -0.00000000000E+00 -0.45593999997E+02  0.45594000000E+02  0.51100000000E-03 0. -1.
         23    2    1    2    0    0  0.00000000000E+00 -0.18873791419E-14  0.00000000000E+00  0.91188000000E+02  0.91188000000E+02 0.  0.
    9900012    2    3    3    0    0 -0.64464327019E+01 -0.99638168463E+00  0.36238512922E+02  0.54367094392E+02  0.40000023285E+02 0.  0.
         12    1    3    3    0    0  0.64464327019E+01  0.99638168463E+00 -0.36238512922E+02  0.36820905608E+02  0.00000000000E+00 0. -1.
         11    1    4    4    0    0 -0.49405945599E+01  0.51142900758E+01  0.22191670543E+02  0.23303125956E+02  0.51100000000E-03 0. -1.
        -11    1    4    4    0    0  0.37305738778E+01  0.94837666871E+01  0.96531908656E+01  0.14037204358E+02  0.51100000000E-03 0.  1.
         12    1    4    4    0    0 -0.52364120198E+01 -0.15594438447E+02  0.43936515128E+01  0.17026764077E+02  0.00000000000E+00 0. -1.
</event>
<event>
 8    1  0.2971508E-007  0.9118800E+02  0.7816164E-02  0.1184000E+00
        -11   -1    0    0    0    0  0.00000000000E+00  0.00000000000E+00  0.45593999997E+02  0.45594000000E+02  0.51100000000E-03 0.  1.
         11   -1    0    0    0    0 -0.00000000000E+00 -0.00000000000E+00 -0.45593999997E+02  0.45594000000E+02  0.51100000000E-03 0. -1.
         23    2    1    2    0    0  0.00000000000E+00  0.00000000000E+00  0.35527136788E-14  0.91188000000E+02  0.91188000000E+02 0.  0.
    9900012    2    3    3    0    0 -0.21206449366E+02  0.11242202760E+02  0.27922737073E+02  0.54367083889E+02  0.39999999341E+02 0.  0.
         12    1    3    3    0    0  0.21206449366E+02 -0.11242202760E+02 -0.27922737073E+02  0.36820916111E+02  0.00000000000E+00 0. -1.
         11    1    4    4    0    0  0.88033053405E+01 -0.39335100089E+01  0.84617323816E+01  0.12828546335E+02  0.51100000000E-03 0.  1.
        -11    1    4    4    0    0 -0.14851799868E+02  0.14267777397E+02  0.65636203796E+01  0.21615423751E+02  0.51100000000E-03 0. -1.
        -12    1    4    4    0    0 -0.15157954838E+02  0.90793537152E+00  0.12897384312E+02  0.19923113803E+02  0.00000000000E+00 0.  1.
</event>
<event>
 8    1  0.2971508E-007  0.9118800E+02  0.7816164E-02  0.1184000E+00
        -11   -1    0    0    0    0  0.00000000000E+00  0.00000000000E+00  0.45593999997E+02  0.45594000000E+02  0.51100000000E-03 0. -1.
         11   -1    0    0    0    0 -0.00000000000E+00 -0.00000000000E+00 -0.45593999997E+02  0.45594000000E+02  0.51100000000E-03 0.  1.
         23    2    1    2    0    0 -0.35527136788E-14 -0.17763568394E-14  0.00000000000E+00  0.91188000000E+02  0.91188000000E+02 0.  0.
    9900012    2    3    3    0    0 -0.30475223427E+02  0.34022152428E+00  0.20662170637E+02  0.54367078106E+02  0.39999986159E+02 0.  0.
        -12    1    3    3    0    0  0.30475223427E+02 -0.34022152428E+00 -0.20662170637E+02  0.36820921894E+02  0.00000000000E+00 0.  1.
         11    1    4    4    0    0 -0.21397088457E+02  0.87405914051E+01  0.15852490347E+02  0.28027393439E+02  0.51100000000E-03 0. -1.
        -11    1    4    4    0    0 -0.72089774772E+01 -0.16248483348E+02  0.40874945651E+01  0.18239796585E+02  0.51100000000E-03 0.  1.
        -12    1    4    4    0    0 -0.18691574935E+01  0.78481134670E+01  0.72218572535E+00  0.80998880825E+01  0.00000000000E+00 0.  1.
</event>
<event>
 8    1  0.2971508E-007  0.9118800E+02  0.7816164E-02  0.1184000E+00
        -11   -1    0    0    0    0  0.00000000000E+00  0.00000000000E+00  0.45593999997E+02  0.45594000000E+02  0.51100000000E-03 0. -1.
         11   -1    0    0    0    0 -0.00000000000E+00 -0.00000000000E+00 -0.45593999997E+02  0.45594000000E+02  0.51100000000E-03 0.  1.
         23    2    1    2    0    0  0.17763568394E-14  0.00000000000E+00  0.71054273576E-14  0.91188000000E+02  0.91188000000E+02 0.  0.
    9900012    2    3    3    0    0  0.10775135466E+02 -0.20155106684E+01  0.35151262512E+02  0.54367121633E+02  0.40000085387E+02 0.  0.
        -12    1    3    3    0    0 -0.10775135466E+02  0.20155106684E+01 -0.35151262512E+02  0.36820878367E+02  0.00000000000E+00 0.  1.
         11    1    4    4    0    0 -0.96394836310E+01 -0.12501139878E+02  0.75352567884E+01  0.17492233649E+02  0.51100000000E-03 0. -1.
        -11    1    4    4    0    0  0.13833867570E+02  0.70692220665E+01  0.24088911601E+02  0.28664009750E+02  0.51100000000E-03 0.  1.
        -12    1    4    4    0    0  0.65807515262E+01  0.34164071429E+01  0.35270941221E+01  0.82108782333E+01  0.00000000000E+00 0.  1.
</event>
<event>
 8    1  0.2971508E-007  0.9118800E+02  0.7816164E-02  0.1184000E+00
        -11   -1    0    0    0    0  0.00000000000E+00  0.00000000000E+00  0.45593999997E+02  0.45594000000E+02  0.51100000000E-03 0.  1.
         11   -1    0    0    0    0 -0.00000000000E+00 -0.00000000000E+00 -0.45593999997E+02  0.45594000000E+02  0.51100000000E-03 0. -1.
         23    2    1    2    0    0  0.00000000000E+00 -0.55511151231E-15 -0.17763568394E-14  0.91188000000E+02  0.91188000000E+02 0.  0.
    9900012    2    3    3    0    0 -0.35646527877E+02 -0.69998567370E-01 -0.92250639570E+01  0.54367059565E+02  0.39999943890E+02 0.  0.
         12    1    3    3    0    0  0.35646527877E+02  0.69998567370E-01  0.92250639570E+01  0.36820940435E+02  0.00000000000E+00 0. -1.
         11    1    4    4    0    0 -0.68767203471E+01 -0.14962870298E+02  0.40923833330E+01  0.16968334388E+02  0.51100000000E-03 0. -1.
        -11    1    4    4    0    0 -0.16210633462E+02  0.44591028269E+01 -0.12680425288E+02  0.21058523713E+02  0.51100000000E-03 0.  1.
         12    1    4    4    0    0 -0.12559174069E+02  0.10433768904E+02 -0.63702200214E+00  0.16340201463E+02  0.00000000000E+00 0. -1.
</event>
<event>
 8    1  0.2971508E-007  0.9118800E+02  0.7816164E-02  0.1184000E+00
        -11   -1    0    0    0    0  0.00000000000E+00  0.00000000000E+00  0.45593999997E+02  0.45594000000E+02  0.51100000000E-03 0.  1.
         11   -1    0    0    0    0 -0.00000000000E+00 -0.00000000000E+00 -0.45593999997E+02  0.45594000000E+02  0.51100000000E-03 0. -1.
         23    2    1    2    0    0 -0.55511151231E-15 -0.71054273576E-14  0.00000000000E+00  0.91188000000E+02  0.91188000000E+02 0.  0.
    9900012    2    3    3    0    0 -0.99015333211E+00  0.36730982359E+02  0.23729742888E+01  0.54367129890E+02  0.40000104209E+02 0.  0.
         12    1    3    3    0    0  0.99015333211E+00 -0.36730982359E+02 -0.23729742888E+01  0.36820870110E+02  0.00000000000E+00 0. -1.
         11    1    4    4    0    0 -0.10740249703E+02  0.10675014554E+02  0.12484498537E+02  0.19625789242E+02  0.51100000000E-03 0. -1.
        -11    1    4    4    0    0  0.14761862562E+02  0.16370882634E+02 -0.45827117221E+01  0.22514875782E+02  0.51100000000E-03 0.  1.
        -12    1    4    4    0    0 -0.50117661920E+01  0.96850851717E+01 -0.55288125258E+01  0.12226464865E+02  0.00000000000E+00 0.  1.
</event>
<event>
 8    1  0.2971508E-007  0.9118800E+02  0.7816164E-02  0.1184000E+00
        -11   -1    0    0    0    0  0.00000000000E+00  0.00000000000E+00  0.45593999997E+02  0.45594000000E+02  0.51100000000E-03 0. -1.
         11   -1    0    0    0    0 -0.00000000000E+00 -0.00000000000E+00 -0.45593999997E+02  0.45594000000E+02  0.51100000000E-03 0.  1.
         23    2    1    2    0    0  0.17763568394E-14  0.00000000000E+00  0.00000000000E+00  0.91188000000E+02  0.91188000000E+02 0.  0.
    9900012    2    3    3    0    0 -0.11871865562E+02  0.14358170132E+02 -0.31759723605E+02  0.54367105321E+02  0.40000048201E+02 0.  0.
         12    1    3    3    0    0  0.11871865562E+02 -0.14358170132E+02  0.31759723605E+02  0.36820894679E+02  0.00000000000E+00 0. -1.
         11    1    4    4    0    0 -0.10731440216E+02  0.76279003423E+01 -0.17647385035E+02  0.22017694511E+02  0.51100000000E-03 0.  1.
        -11    1    4    4    0    0  0.11298355493E+01 -0.58754905764E+01  0.60202508476E+01  0.84877169140E+01  0.51100000000E-03 0. -1.
         12    1    4    4    0    0 -0.22702608954E+01  0.12605760366E+02 -0.20132589417E+02  0.23861693896E+02  0.00000000000E+00 0. -1.
</event>
<event>
 8    1  0.2971508E-007  0.9118800E+02  0.7816164E-02  0.1184000E+00
        -11   -1    0    0    0    0  0.00000000000E+00  0.00000000000E+00  0.45593999997E+02  0.45594000000E+02  0.51100000000E-03 0.  1.
         11   -1    0    0    0    0 -0.00000000000E+00 -0.00000000000E+00 -0.45593999997E+02  0.45594000000E+02  0.51100000000E-03 0. -1.
         23    2    1    2    0    0  0.00000000000E+00  0.00000000000E+00  0.00000000000E+00  0.91188000000E+02  0.91188000000E+02 0.  0.
    9900012    2    3    3    0    0 -0.27621879189E+02  0.18321651441E+02 -0.16035169615E+02  0.54367112096E+02  0.40000063645E+02 0.  0.
        -12    1    3    3    0    0  0.27621879189E+02 -0.18321651441E+02  0.16035169615E+02  0.36820887904E+02  0.00000000000E+00 0.  1.
         11    1    4    4    0    0  0.52930916681E+01 -0.18236141573E+00 -0.10028477316E+02  0.11341094860E+02  0.51100000000E-03 0.  1.
        -11    1    4    4    0    0 -0.27495791985E+02  0.48575963148E+01 -0.39132463707E+01  0.28194473151E+02  0.51100000000E-03 0. -1.
        -12    1    4    4    0    0 -0.54191788726E+01  0.13646416542E+02 -0.20934459284E+01  0.14831544085E+02  0.00000000000E+00 0.  1.
</event>
<event>
 8    1  0.2971508E-007  0.9118800E+02  0.7816164E-02  0.1184000E+00
        -11   -1    0    0    0    0  0.00000000000E+00  0.00000000000E+00  0.45593999997E+02  0.45594000000E+02  0.51100000000E-03 0. -1.
         11   -1    0    0    0    0 -0.00000000000E+00 -0.00000000000E+00 -0.45593999997E+02  0.45594000000E+02  0.51100000000E-03 0.  1.
         23    2    1    2    0    0  0.00000000000E+00  0.35527136788E-14  0.35527136788E-14  0.91188000000E+02  0.91188000000E+02 0.  0.
    9900012    2    3    3    0    0  0.27492149702E+02  0.17364282617E+02  0.17275525646E+02  0.54367076704E+02  0.39999982961E+02 0.  0.
        -12    1    3    3    0    0 -0.27492149702E+02 -0.17364282617E+02 -0.17275525646E+02  0.36820923296E+02  0.00000000000E+00 0.  1.
         11    1    4    4    0    0  0.33267097731E+01 -0.36584013297E+00  0.88287457823E+01  0.94418001074E+01  0.51100000000E-03 0. -1.
        -11    1    4    4    0    0 -0.35533032496E+01  0.14110194181E+02  0.87319739371E+01  0.16969705740E+02  0.51100000000E-03 0.  1.
         12    1    4    4    0    0  0.27718743179E+02  0.36199285694E+01 -0.28519407328E+00  0.27955570856E+02  0.00000000000E+00 0. -1.
</event>
<event>
 8    1  0.2971508E-007  0.9118800E+02  0.7816164E-02  0.1184000E+00
        -11   -1    0    0    0    0  0.00000000000E+00  0.00000000000E+00  0.45593999997E+02  0.45594000000E+02  0.51100000000E-03 0.  1.
         11   -1    0    0    0    0 -0.00000000000E+00 -0.00000000000E+00 -0.45593999997E+02  0.45594000000E+02  0.51100000000E-03 0. -1.
         23    2    1    2    0    0  0.00000000000E+00  0.00000000000E+00 -0.35527136788E-14  0.91188000000E+02  0.91188000000E+02 0.  0.
    9900012    2    3    3    0    0 -0.94433747029E+00  0.22837583119E+02 -0.28867452032E+02  0.54367125991E+02  0.40000095321E+02 0.  0.
        -12    1    3    3    0    0  0.94433747029E+00 -0.22837583119E+02  0.28867452032E+02  0.36820874009E+02  0.00000000000E+00 0.  1.
         11    1    4    4    0    0 -0.64073044792E+01  0.11708918350E+02 -0.13638782167E+02  0.19083204627E+02  0.51100000000E-03 0. -1.
        -11    1    4    4    0    0 -0.80412023563E+01  0.15391548902E+02 -0.59622770022E+01  0.18360540848E+02  0.51100000000E-03 0.  1.
        -12    1    4    4    0    0  0.13504169365E+02 -0.42628841318E+01 -0.92663928631E+01  0.16923380515E+02  0.00000000000E+00 0.  1.
</event>
<event>
 8    1  0.2971508E-007  0.9118800E+02  0.7816164E-02  0.1184000E+00
        -11   -1    0    0    0    0  0.00000000000E+00  0.00000000000E+00  0.45593999997E+02  0.45594000000E+02  0.51100000000E-03 0.  1.
         11   -1    0    0    0    0 -0.00000000000E+00 -0.00000000000E+00 -0.45593999997E+02  0.45594000000E+02  0.51100000000E-03 0. -1.
         23    2    1    2    0    0 -0.17763568394E-14 -0.71054273576E-14  0.17763568394E-14  0.91188000000E+02  0.91188000000E+02 0.  0.
    9900012    2    3    3    0    0 -0.11373969752E+02 -0.34432805216E+02  0.63871082086E+01  0.54367076407E+02  0.39999982284E+02 0.  0.
        -12    1    3    3    0    0  0.11373969752E+02  0.34432805216E+02 -0.63871082086E+01  0.36820923593E+02  0.00000000000E+00 0.  1.
         11    1    4    4    0    0  0.24018434962E+01 -0.27742112966E+02  0.12997164528E+02  0.30729789619E+02  0.51100000000E-03 0. -1.
        -11    1    4    4    0    0 -0.10920381852E+02 -0.34787375033E+01 -0.12099274895E+02  0.16665797540E+02  0.51100000000E-03 0.  1.
        -12    1    4    4    0    0 -0.28554313961E+01 -0.32119547469E+01  0.54892185757E+01  0.69714892474E+01  0.00000000000E+00 0.  1.
</event>
<event>
 8    1  0.2971508E-007  0.9118800E+02  0.7816164E-02  0.1184000E+00
        -11   -1    0    0    0    0  0.00000000000E+00  0.00000000000E+00  0.45593999997E+02  0.45594000000E+02  0.51100000000E-03 0.  1.
         11   -1    0    0    0    0 -0.00000000000E+00 -0.00000000000E+00 -0.45593999997E+02  0.45594000000E+02  0.51100000000E-03 0. -1.
         23    2    1    2    0    0  0.00000000000E+00  0.00000000000E+00  0.00000000000E+00  0.91188000000E+02  0.91188000000E+02 0.  0.
    9900012    2    3    3    0    0  0.17999907100E+02 -0.13137283803E+02 -0.29312031787E+02  0.54367080826E+02  0.39999992360E+02 0.  0.
        -12    1    3    3    0    0 -0.17999907100E+02  0.13137283803E+02  0.29312031787E+02  0.36820919174E+02  0.00000000000E+00 0.  1.
         11    1    4    4    0    0  0.12705268172E+02 -0.11102140575E+01  0.32853981974E+01  0.13170051487E+02  0.51100000000E-03 0. -1.
        -11    1    4    4    0    0 -0.16350136883E+01  0.39291190514E+01 -0.17974668724E+02  0.18471598801E+02  0.51100000000E-03 0.  1.
        -12    1    4    4    0    0  0.69296526157E+01 -0.15956188796E+02 -0.14622761261E+02  0.22725430539E+02  0.00000000000E+00 0.  1.
</event>
<event>
 8    1  0.2971508E-007  0.9118800E+02  0.7816164E-02  0.1184000E+00
        -11   -1    0    0    0    0  0.00000000000E+00  0.00000000000E+00  0.45593999997E+02  0.45594000000E+02  0.51100000000E-03 0. -1.
         11   -1    0    0    0    0 -0.00000000000E+00 -0.00000000000E+00 -0.45593999997E+02  0.45594000000E+02  0.51100000000E-03 0.  1.
         23    2    1    2    0    0 -0.17763568394E-14 -0.35527136788E-14  0.00000000000E+00  0.91188000000E+02  0.91188000000E+02 0.  0.
    9900012    2    3    3    0    0  0.10491577627E+02  0.25633359597E+02  0.24261842977E+02  0.54367090859E+02  0.40000015230E+02 0.  0.
        -12    1    3    3    0    0 -0.10491577627E+02 -0.25633359597E+02 -0.24261842977E+02  0.36820909141E+02  0.00000000000E+00 0.  1.
         11    1    4    4    0    0  0.64239044578E+01  0.70723097350E+01 -0.37970809165E+01  0.10281144743E+02  0.51100000000E-03 0. -1.
        -11    1    4    4    0    0 -0.11042070110E+02  0.78207522934E+01  0.48317197603E+01  0.14367915466E+02  0.51100000000E-03 0.  1.
         12    1    4    4    0    0  0.15109743279E+02  0.10740297569E+02  0.23227204133E+02  0.29718030650E+02  0.00000000000E+00 0. -1.
</event>
<event>
 8    1  0.2971508E-007  0.9118800E+02  0.7816164E-02  0.1184000E+00
        -11   -1    0    0    0    0  0.00000000000E+00  0.00000000000E+00  0.45593999997E+02  0.45594000000E+02  0.51100000000E-03 0. -1.
         11   -1    0    0    0    0 -0.00000000000E+00 -0.00000000000E+00 -0.45593999997E+02  0.45594000000E+02  0.51100000000E-03 0.  1.
         23    2    1    2    0    0  0.00000000000E+00  0.17763568394E-14  0.00000000000E+00  0.91188000000E+02  0.91188000000E+02 0.  0.
    9900012    2    3    3    0    0  0.72372389627E+01 -0.53659584753E+01  0.35701657380E+02  0.54367089123E+02  0.40000011274E+02 0.  0.
        -12    1    3    3    0    0 -0.72372389627E+01  0.53659584753E+01 -0.35701657380E+02  0.36820910877E+02  0.00000000000E+00 0.  1.
         11    1    4    4    0    0 -0.63901981467E+01  0.83793195812E+01  0.11230370000E+02  0.15400286997E+02  0.51100000000E-03 0. -1.
        -11    1    4    4    0    0  0.39301056114E+01  0.61770597567E+01  0.24309079464E+01  0.77143444997E+01  0.51100000000E-03 0.  1.
         12    1    4    4    0    0  0.96973314980E+01 -0.19922337813E+02  0.22040379433E+02  0.31252457626E+02  0.00000000000E+00 0. -1.
</event>
<event>
 8    1  0.2971508E-007  0.9118800E+02  0.7816164E-02  0.1184000E+00
        -11   -1    0    0    0    0  0.00000000000E+00  0.00000000000E+00  0.45593999997E+02  0.45594000000E+02  0.51100000000E-03 0.  1.
         11   -1    0    0    0    0 -0.00000000000E+00 -0.00000000000E+00 -0.45593999997E+02  0.45594000000E+02  0.51100000000E-03 0. -1.
         23    2    1    2    0    0  0.00000000000E+00  0.00000000000E+00  0.00000000000E+00  0.91188000000E+02  0.91188000000E+02 0.  0.
    9900012    2    3    3    0    0 -0.25826104732E+02 -0.31858718515E+01 -0.26050762794E+02  0.54367086007E+02  0.40000004170E+02 0.  0.
        -12    1    3    3    0    0  0.25826104732E+02  0.31858718515E+01  0.26050762794E+02  0.36820913993E+02  0.00000000000E+00 0.  1.
         11    1    4    4    0    0 -0.87580090850E+01 -0.48878186838E+01 -0.37656896529E+01  0.10713258769E+02  0.51100000000E-03 0. -1.
        -11    1    4    4    0    0 -0.23009162278E+01 -0.15033446633E+02 -0.85514402063E+01  0.17447803960E+02  0.51100000000E-03 0.  1.
        -12    1    4    4    0    0 -0.14767179420E+02  0.16735393466E+02 -0.13733632935E+02  0.26206023278E+02  0.00000000000E+00 0.  1.
</event>
<event>
 8    1  0.2971508E-007  0.9118800E+02  0.7816164E-02  0.1184000E+00
        -11   -1    0    0    0    0  0.00000000000E+00  0.00000000000E+00  0.45593999997E+02  0.45594000000E+02  0.51100000000E-03 0.  1.
         11   -1    0    0    0    0 -0.00000000000E+00 -0.00000000000E+00 -0.45593999997E+02  0.45594000000E+02  0.51100000000E-03 0. -1.
         23    2    1    2    0    0  0.35527136788E-14  0.00000000000E+00 -0.35527136788E-14  0.91188000000E+02  0.91188000000E+02 0.  0.
    9900012    2    3    3    0    0 -0.23783255795E+02 -0.26255908002E+02  0.10038243802E+02  0.54367050802E+02  0.39999923913E+02 0.  0.
         12    1    3    3    0    0  0.23783255795E+02  0.26255908002E+02 -0.10038243802E+02  0.36820949198E+02  0.00000000000E+00 0. -1.
         11    1    4    4    0    0 -0.75117444489E+01 -0.14384811968E+02 -0.35156782776E+01  0.16604490779E+02  0.51100000000E-03 0. -1.
        -11    1    4    4    0    0 -0.12278339741E+02  0.45974150392E+01  0.15951466197E+02  0.20648078020E+02  0.51100000000E-03 0.  1.
        -12    1    4    4    0    0 -0.39931716053E+01 -0.16468511073E+02 -0.23975441172E+01  0.17114482003E+02  0.00000000000E+00 0.  1.
</event>
<event>
 8    1  0.2971508E-007  0.9118800E+02  0.7816164E-02  0.1184000E+00
        -11   -1    0    0    0    0  0.00000000000E+00  0.00000000000E+00  0.45593999997E+02  0.45594000000E+02  0.51100000000E-03 0.  1.
         11   -1    0    0    0    0 -0.00000000000E+00 -0.00000000000E+00 -0.45593999997E+02  0.45594000000E+02  0.51100000000E-03 0. -1.
         23    2    1    2    0    0  0.88817841970E-15  0.00000000000E+00  0.00000000000E+00  0.91188000000E+02  0.91188000000E+02 0.  0.
    9900012    2    3    3    0    0  0.79572061118E+01 -0.12717781820E+02 -0.33626160269E+02  0.54367112477E+02  0.40000064514E+02 0.  0.
        -12    1    3    3    0    0 -0.79572061118E+01  0.12717781820E+02  0.33626160269E+02  0.36820887523E+02  0.00000000000E+00 0.  1.
         11    1    4    4    0    0 -0.13866518817E+01  0.32007815030E+00 -0.13740312446E+02  0.13813813371E+02  0.51100000000E-03 0. -1.
        -11    1    4    4    0    0 -0.83199094414E+01  0.18868509607E+01  0.19467702525E+01  0.87504865200E+01  0.51100000000E-03 0.  1.
        -12    1    4    4    0    0  0.17663767435E+02 -0.14924710931E+02 -0.21832618076E+02  0.31802812586E+02  0.00000000000E+00 0.  1.
</event>
<event>
 8    1  0.2971508E-007  0.9118800E+02  0.7816164E-02  0.1184000E+00
        -11   -1    0    0    0    0  0.00000000000E+00  0.00000000000E+00  0.45593999997E+02  0.45594000000E+02  0.51100000000E-03 0.  1.
         11   -1    0    0    0    0 -0.00000000000E+00 -0.00000000000E+00 -0.45593999997E+02  0.45594000000E+02  0.51100000000E-03 0. -1.
         23    2    1    2    0    0  0.00000000000E+00  0.17763568394E-14 -0.17763568394E-14  0.91188000000E+02  0.91188000000E+02 0.  0.
    9900012    2    3    3    0    0 -0.31478569747E+02  0.11627877317E+02  0.15154981704E+02  0.54367063636E+02  0.39999953172E+02 0.  0.
         12    1    3    3    0    0  0.31478569747E+02 -0.11627877317E+02 -0.15154981704E+02  0.36820936364E+02  0.00000000000E+00 0. -1.
         11    1    4    4    0    0 -0.35237113645E+01  0.56758194827E+01 -0.76912690463E+01  0.10187594828E+02  0.51100000000E-03 0. -1.
        -11    1    4    4    0    0 -0.22635420650E+02  0.87242734195E+01  0.42349585451E+01  0.24625395202E+02  0.51100000000E-03 0.  1.
        -12    1    4    4    0    0 -0.53194377327E+01 -0.27722155850E+01  0.18611292206E+02  0.19554073606E+02  0.00000000000E+00 0.  1.
</event>
<event>
 8    1  0.2971508E-007  0.9118800E+02  0.7816164E-02  0.1184000E+00
        -11   -1    0    0    0    0  0.00000000000E+00  0.00000000000E+00  0.45593999997E+02  0.45594000000E+02  0.51100000000E-03 0.  1.
         11   -1    0    0    0    0 -0.00000000000E+00 -0.00000000000E+00 -0.45593999997E+02  0.45594000000E+02  0.51100000000E-03 0. -1.
         23    2    1    2    0    0  0.00000000000E+00  0.00000000000E+00 -0.35527136788E-14  0.91188000000E+02  0.91188000000E+02 0.  0.
    9900012    2    3    3    0    0 -0.19182011112E+02  0.14618359894E+02  0.27823252731E+02  0.54367090332E+02  0.40000014030E+02 0.  0.
         12    1    3    3    0    0  0.19182011112E+02 -0.14618359894E+02 -0.27823252731E+02  0.36820909668E+02  0.00000000000E+00 0. -1.
         11    1    4    4    0    0 -0.19720551854E+02  0.25002537580E+02  0.16848669977E+02  0.36026444886E+02  0.51100000000E-03 0. -1.
        -11    1    4    4    0    0  0.43963417896E+01 -0.23990382040E+01  0.12146958558E+01  0.51535125612E+01  0.51100000000E-03 0.  1.
        -12    1    4    4    0    0 -0.38578010471E+01 -0.79851394821E+01  0.97598868977E+01  0.13187132885E+02  0.00000000000E+00 0.  1.
</event>
<event>
 8    1  0.2971508E-007  0.9118800E+02  0.7816164E-02  0.1184000E+00
        -11   -1    0    0    0    0  0.00000000000E+00  0.00000000000E+00  0.45593999997E+02  0.45594000000E+02  0.51100000000E-03 0. -1.
         11   -1    0    0    0    0 -0.00000000000E+00 -0.00000000000E+00 -0.45593999997E+02  0.45594000000E+02  0.51100000000E-03 0.  1.
         23    2    1    2    0    0 -0.17763568394E-14  0.35527136788E-14 -0.35527136788E-14  0.91188000000E+02  0.91188000000E+02 0.  0.
    9900012    2    3    3    0    0 -0.15671854334E+02  0.23908405505E+02 -0.23207047851E+02  0.54367001344E+02  0.39999811163E+02 0.  0.
         12    1    3    3    0    0  0.15671854334E+02 -0.23908405505E+02  0.23207047851E+02  0.36820998656E+02  0.00000000000E+00 0. -1.
         11    1    4    4    0    0 -0.11570976656E+02  0.19836650470E+02 -0.16634816478E+02  0.28356609850E+02  0.51100000000E-03 0. -1.
        -11    1    4    4    0    0  0.62151483658E+01 -0.66317533692E+01 -0.64488114439E+01  0.11144298599E+02  0.51100000000E-03 0.  1.
         12    1    4    4    0    0 -0.10316026043E+02  0.10703508404E+02 -0.12341992962E+00  0.14866092895E+02  0.00000000000E+00 0. -1.
</event>
<event>
 8    1  0.2971508E-007  0.9118800E+02  0.7816164E-02  0.1184000E+00
        -11   -1    0    0    0    0  0.00000000000E+00  0.00000000000E+00  0.45593999997E+02  0.45594000000E+02  0.51100000000E-03 0.  1.
         11   -1    0    0    0    0 -0.00000000000E+00 -0.00000000000E+00 -0.45593999997E+02  0.45594000000E+02  0.51100000000E-03 0. -1.
         23    2    1    2    0    0  0.17763568394E-14  0.35527136788E-14  0.00000000000E+00  0.91188000000E+02  0.91188000000E+02 0.  0.
    9900012    2    3    3    0    0  0.13058938059E+02  0.27523276680E+02  0.20681225310E+02  0.54367086068E+02  0.40000004309E+02 0.  0.
        -12    1    3    3    0    0 -0.13058938059E+02 -0.27523276680E+02 -0.20681225310E+02  0.36820913932E+02  0.00000000000E+00 0.  1.
         11    1    4    4    0    0  0.10782829123E+02  0.41579612524E+01 -0.35861761144E+01  0.12100359708E+02  0.51100000000E-03 0. -1.
        -11    1    4    4    0    0  0.22836715620E+01  0.11853023496E+02  0.27731320893E+02  0.30244594236E+02  0.51100000000E-03 0.  1.
        -12    1    4    4    0    0 -0.75626259186E-02  0.11512291932E+02 -0.34639194678E+01  0.12022132124E+02  0.00000000000E+00 0.  1.
</event>
<event>
 8    1  0.2971508E-007  0.9118800E+02  0.7816164E-02  0.1184000E+00
        -11   -1    0    0    0    0  0.00000000000E+00  0.00000000000E+00  0.45593999997E+02  0.45594000000E+02  0.51100000000E-03 0. -1.
         11   -1    0    0    0    0 -0.00000000000E+00 -0.00000000000E+00 -0.45593999997E+02  0.45594000000E+02  0.51100000000E-03 0.  1.
         23    2    1    2    0    0  0.22204460493E-15  0.71054273576E-14  0.44408920985E-15  0.91188000000E+02  0.91188000000E+02 0.  0.
    9900012    2    3    3    0    0  0.77184332022E+00  0.36701119864E+02  0.28656380019E+01  0.54367084442E+02  0.40000000603E+02 0.  0.
        -12    1    3    3    0    0 -0.77184332022E+00 -0.36701119864E+02 -0.28656380019E+01  0.36820915558E+02  0.00000000000E+00 0.  1.
         11    1    4    4    0    0 -0.50095288571E+01 -0.33216852840E+01  0.42134120089E+01  0.73404232517E+01  0.51100000000E-03 0. -1.
        -11    1    4    4    0    0  0.74525466926E+01  0.39457565880E+02  0.49751546391E+01  0.40462230800E+02  0.51100000000E-03 0.  1.
        -12    1    4    4    0    0 -0.16711745152E+01  0.56523926822E+00 -0.63229286461E+01  0.65644303907E+01  0.00000000000E+00 0.  1.
</event>
<event>
 8    1  0.2971508E-007  0.9118800E+02  0.7816164E-02  0.1184000E+00
        -11   -1    0    0    0    0  0.00000000000E+00  0.00000000000E+00  0.45593999997E+02  0.45594000000E+02  0.51100000000E-03 0.  1.
         11   -1    0    0    0    0 -0.00000000000E+00 -0.00000000000E+00 -0.45593999997E+02  0.45594000000E+02  0.51100000000E-03 0. -1.
         23    2    1    2    0    0 -0.35527136788E-14  0.00000000000E+00  0.71054273576E-14  0.91188000000E+02  0.91188000000E+02 0.  0.
    9900012    2    3    3    0    0  0.29953337876E+02  0.10056080208E+02 -0.18906417038E+02  0.54367084690E+02  0.40000001167E+02 0.  0.
        -12    1    3    3    0    0 -0.29953337876E+02 -0.10056080208E+02  0.18906417038E+02  0.36820915310E+02  0.00000000000E+00 0.  1.
         11    1    4    4    0    0  0.26665679623E+02  0.86500456160E+01 -0.56757767510E+00  0.28039327802E+02  0.51100000000E-03 0.  1.
        -11    1    4    4    0    0  0.27254016010E+01 -0.29490811893E+00 -0.22043173204E+02  0.22212975259E+02  0.51100000000E-03 0. -1.
        -12    1    4    4    0    0  0.56225665196E+00  0.17009427105E+01  0.37043338408E+01  0.41147816286E+01  0.00000000000E+00 0.  1.
</event>
<event>
 8    1  0.2971508E-007  0.9118800E+02  0.7816164E-02  0.1184000E+00
        -11   -1    0    0    0    0  0.00000000000E+00  0.00000000000E+00  0.45593999997E+02  0.45594000000E+02  0.51100000000E-03 0. -1.
         11   -1    0    0    0    0 -0.00000000000E+00 -0.00000000000E+00 -0.45593999997E+02  0.45594000000E+02  0.51100000000E-03 0.  1.
         23    2    1    2    0    0  0.11102230246E-14  0.35527136788E-14  0.00000000000E+00  0.91188000000E+02  0.91188000000E+02 0.  0.
    9900012    2    3    3    0    0 -0.11671482058E+01 -0.29454373505E+02 -0.22064887661E+02  0.54367060020E+02  0.39999944928E+02 0.  0.
         12    1    3    3    0    0  0.11671482058E+01  0.29454373505E+02  0.22064887661E+02  0.36820939980E+02  0.00000000000E+00 0. -1.
         11    1    4    4    0    0 -0.71668409511E+01  0.42918724103E+01 -0.64242079099E+01  0.10538226869E+02  0.51100000000E-03 0. -1.
        -11    1    4    4    0    0  0.10878160576E+02 -0.53733523277E+01 -0.40004223240E+01  0.12775393215E+02  0.51100000000E-03 0.  1.
         12    1    4    4    0    0 -0.48784678311E+01 -0.28372893588E+02 -0.11640257427E+02  0.31053439937E+02  0.00000000000E+00 0. -1.
</event>
<event>
 8    1  0.2971508E-007  0.9118800E+02  0.7816164E-02  0.1184000E+00
        -11   -1    0    0    0    0  0.00000000000E+00  0.00000000000E+00  0.45593999997E+02  0.45594000000E+02  0.51100000000E-03 0.  1.
         11   -1    0    0    0    0 -0.00000000000E+00 -0.00000000000E+00 -0.45593999997E+02  0.45594000000E+02  0.51100000000E-03 0. -1.
         23    2    1    2    0    0  0.00000000000E+00  0.17763568394E-14  0.00000000000E+00  0.91188000000E+02  0.91188000000E+02 0.  0.
    9900012    2    3    3    0    0  0.32584109035E+02 -0.89072044101E+01 -0.14653220655E+02  0.54367091163E+02  0.40000015924E+02 0.  0.
        -12    1    3    3    0    0 -0.32584109035E+02  0.89072044101E+01  0.14653220655E+02  0.36820908837E+02  0.00000000000E+00 0.  1.
         11    1    4    4    0    0  0.19604587558E+02  0.38348686810E+01  0.31775057056E+01  0.20227274010E+02  0.51100000000E-03 0. -1.
        -11    1    4    4    0    0  0.19457909248E+02 -0.88649264448E+01 -0.14798538924E+02  0.26003728727E+02  0.51100000000E-03 0.  1.
        -12    1    4    4    0    0 -0.64783877702E+01 -0.38771466463E+01 -0.30321874366E+01  0.81360884256E+01  0.00000000000E+00 0.  1.
</event>
<event>
 8    1  0.2971508E-007  0.9118800E+02  0.7816164E-02  0.1184000E+00
        -11   -1    0    0    0    0  0.00000000000E+00  0.00000000000E+00  0.45593999997E+02  0.45594000000E+02  0.51100000000E-03 0.  1.
         11   -1    0    0    0    0 -0.00000000000E+00 -0.00000000000E+00 -0.45593999997E+02  0.45594000000E+02  0.51100000000E-03 0. -1.
         23    2    1    2    0    0  0.31086244690E-14  0.00000000000E+00  0.17763568394E-14  0.91188000000E+02  0.91188000000E+02 0.  0.
    9900012    2    3    3    0    0  0.27625106103E+01 -0.35123044120E+02 -0.10702274332E+02  0.54366832596E+02  0.39999426465E+02 0.  0.
         12    1    3    3    0    0 -0.27625106103E+01  0.35123044120E+02  0.10702274332E+02  0.36821167404E+02  0.00000000000E+00 0. -1.
         11    1    4    4    0    0  0.12849141359E+02 -0.15227514274E+02 -0.11485828144E+02  0.22997866706E+02  0.51100000000E-03 0. -1.
        -11    1    4    4    0    0  0.18460115939E+01 -0.31622106107E+01  0.86262780989E+01  0.93712330486E+01  0.51100000000E-03 0.  1.
         12    1    4    4    0    0 -0.11932642343E+02 -0.16733319236E+02 -0.78427242866E+01  0.21997732841E+02  0.00000000000E+00 0. -1.
</event>
<event>
 8    1  0.2971508E-007  0.9118800E+02  0.7816164E-02  0.1184000E+00
        -11   -1    0    0    0    0  0.00000000000E+00  0.00000000000E+00  0.45593999997E+02  0.45594000000E+02  0.51100000000E-03 0. -1.
         11   -1    0    0    0    0 -0.00000000000E+00 -0.00000000000E+00 -0.45593999997E+02  0.45594000000E+02  0.51100000000E-03 0.  1.
         23    2    1    2    0    0  0.00000000000E+00 -0.35527136788E-14 -0.17763568394E-14  0.91188000000E+02  0.91188000000E+02 0.  0.
    9900012    2    3    3    0    0 -0.19956769764E+02  0.29666474952E+02  0.87981419849E+01  0.54367086135E+02  0.40000004462E+02 0.  0.
        -12    1    3    3    0    0  0.19956769764E+02 -0.29666474952E+02 -0.87981419849E+01  0.36820913865E+02  0.00000000000E+00 0.  1.
         11    1    4    4    0    0 -0.35255827346E+01  0.48928929014E+01 -0.10448618287E+02  0.12064151811E+02  0.51100000000E-03 0.  1.
        -11    1    4    4    0    0 -0.20709959546E+02  0.13205263812E+02  0.16719737120E+02  0.29712472572E+02  0.51100000000E-03 0. -1.
         12    1    4    4    0    0  0.42787725164E+01  0.11568318238E+02  0.25270231515E+01  0.12590461752E+02  0.00000000000E+00 0. -1.
</event>
<event>
 8    1  0.2971508E-007  0.9118800E+02  0.7816164E-02  0.1184000E+00
        -11   -1    0    0    0    0  0.00000000000E+00  0.00000000000E+00  0.45593999997E+02  0.45594000000E+02  0.51100000000E-03 0. -1.
         11   -1    0    0    0    0 -0.00000000000E+00 -0.00000000000E+00 -0.45593999997E+02  0.45594000000E+02  0.51100000000E-03 0.  1.
         23    2    1    2    0    0 -0.17763568394E-14 -0.13322676296E-14  0.00000000000E+00  0.91188000000E+02  0.91188000000E+02 0.  0.
    9900012    2    3    3    0    0  0.12672330764E+02  0.32081843866E+01  0.34422353248E+02  0.54367098094E+02  0.40000031725E+02 0.  0.
        -12    1    3    3    0    0 -0.12672330764E+02 -0.32081843866E+01 -0.34422353248E+02  0.36820901906E+02  0.00000000000E+00 0.  1.
         11    1    4    4    0    0  0.12299241191E+02 -0.11129377264E+02  0.63702291910E+01  0.17768348048E+02  0.51100000000E-03 0. -1.
        -11    1    4    4    0    0  0.60008976215E+01 -0.16894586076E+01  0.51587286820E+01  0.80918183696E+01  0.51100000000E-03 0.  1.
         12    1    4    4    0    0 -0.56278080486E+01  0.16027020258E+02  0.22893395375E+02  0.28506931676E+02  0.00000000000E+00 0. -1.
</event>
<event>
 8    1  0.2971508E-007  0.9118800E+02  0.7816164E-02  0.1184000E+00
        -11   -1    0    0    0    0  0.00000000000E+00  0.00000000000E+00  0.45593999997E+02  0.45594000000E+02  0.51100000000E-03 0. -1.
         11   -1    0    0    0    0 -0.00000000000E+00 -0.00000000000E+00 -0.45593999997E+02  0.45594000000E+02  0.51100000000E-03 0.  1.
         23    2    1    2    0    0  0.00000000000E+00  0.00000000000E+00 -0.17763568394E-14  0.91188000000E+02  0.91188000000E+02 0.  0.
    9900012    2    3    3    0    0  0.31633526400E+02 -0.11098859050E+02 -0.15228768091E+02  0.54367081458E+02  0.39999993799E+02 0.  0.
         12    1    3    3    0    0 -0.31633526400E+02  0.11098859050E+02  0.15228768091E+02  0.36820918542E+02  0.00000000000E+00 0. -1.
         11    1    4    4    0    0  0.12776865285E+00 -0.24307006514E+01 -0.14663619759E+02  0.14864265040E+02  0.51100000000E-03 0. -1.
        -11    1    4    4    0    0  0.80953295686E+01 -0.11289524504E+02 -0.63065894945E+01  0.15256500112E+02  0.51100000000E-03 0.  1.
        -12    1    4    4    0    0  0.23410428179E+02  0.26213661051E+01  0.57414411623E+01  0.24246316306E+02  0.00000000000E+00 0.  1.
</event>
<event>
 8    1  0.2971508E-007  0.9118800E+02  0.7816164E-02  0.1184000E+00
        -11   -1    0    0    0    0  0.00000000000E+00  0.00000000000E+00  0.45593999997E+02  0.45594000000E+02  0.51100000000E-03 0. -1.
         11   -1    0    0    0    0 -0.00000000000E+00 -0.00000000000E+00 -0.45593999997E+02  0.45594000000E+02  0.51100000000E-03 0.  1.
         23    2    1    2    0    0 -0.55511151231E-16  0.00000000000E+00  0.00000000000E+00  0.91188000000E+02  0.91188000000E+02 0.  0.
    9900012    2    3    3    0    0  0.29902061353E+00 -0.76010964618E+01  0.36026578401E+02  0.54367076166E+02  0.39999981735E+02 0.  0.
        -12    1    3    3    0    0 -0.29902061353E+00  0.76010964618E+01 -0.36026578401E+02  0.36820923834E+02  0.00000000000E+00 0.  1.
         11    1    4    4    0    0  0.19716222263E+01  0.86141958502E+01  0.32471078603E+02  0.33652081812E+02  0.51100000000E-03 0. -1.
        -11    1    4    4    0    0 -0.19671452432E+00 -0.70103531637E+01 -0.45514349522E+01  0.83605806299E+01  0.51100000000E-03 0.  1.
         12    1    4    4    0    0 -0.14758870885E+01 -0.92049391482E+01  0.81069347499E+01  0.12354413724E+02  0.00000000000E+00 0. -1.
</event>
<event>
 8    1  0.2971508E-007  0.9118800E+02  0.7816164E-02  0.1184000E+00
        -11   -1    0    0    0    0  0.00000000000E+00  0.00000000000E+00  0.45593999997E+02  0.45594000000E+02  0.51100000000E-03 0. -1.
         11   -1    0    0    0    0 -0.00000000000E+00 -0.00000000000E+00 -0.45593999997E+02  0.45594000000E+02  0.51100000000E-03 0.  1.
         23    2    1    2    0    0  0.00000000000E+00  0.27755575616E-15  0.00000000000E+00  0.91188000000E+02  0.91188000000E+02 0.  0.
    9900012    2    3    3    0    0 -0.31149543442E+02 -0.17418936584E+00 -0.19633051258E+02  0.54367067091E+02  0.39999961047E+02 0.  0.
         12    1    3    3    0    0  0.31149543442E+02  0.17418936584E+00  0.19633051258E+02  0.36820932909E+02  0.00000000000E+00 0. -1.
         11    1    4    4    0    0 -0.23434625105E+02  0.76696548640E+01 -0.18675682496E+01  0.24728385935E+02  0.51100000000E-03 0. -1.
        -11    1    4    4    0    0 -0.12721513559E+02 -0.26114745177E+01 -0.18229089161E+02  0.22382055274E+02  0.51100000000E-03 0.  1.
         12    1    4    4    0    0  0.50065952221E+01 -0.52323697121E+01  0.46360615211E+00  0.72566258817E+01  0.00000000000E+00 0. -1.
</event>
<event>
 8    1  0.2971508E-007  0.9118800E+02  0.7816164E-02  0.1184000E+00
        -11   -1    0    0    0    0  0.00000000000E+00  0.00000000000E+00  0.45593999997E+02  0.45594000000E+02  0.51100000000E-03 0. -1.
         11   -1    0    0    0    0 -0.00000000000E+00 -0.00000000000E+00 -0.45593999997E+02  0.45594000000E+02  0.51100000000E-03 0.  1.
         23    2    1    2    0    0  0.00000000000E+00 -0.44408920985E-15  0.00000000000E+00  0.91188000000E+02  0.91188000000E+02 0.  0.
    9900012    2    3    3    0    0 -0.35587186054E+02  0.28129394757E+01  0.90233026512E+01  0.54367076187E+02  0.39999981783E+02 0.  0.
        -12    1    3    3    0    0  0.35587186054E+02 -0.28129394757E+01 -0.90233026512E+01  0.36820923813E+02  0.00000000000E+00 0.  1.
         11    1    4    4    0    0  0.33116834350E-01 -0.57273944634E+01  0.93475089534E+01  0.10962667009E+02  0.51100000000E-03 0. -1.
        -11    1    4    4    0    0 -0.10351243915E+02  0.62303710371E+01 -0.10557181915E+02  0.16044309399E+02  0.51100000000E-03 0.  1.
         12    1    4    4    0    0 -0.25269058973E+02  0.23099629021E+01  0.10232975613E+02  0.27360099779E+02  0.00000000000E+00 0. -1.
</event>
<event>
 8    1  0.2971508E-007  0.9118800E+02  0.7816164E-02  0.1184000E+00
        -11   -1    0    0    0    0  0.00000000000E+00  0.00000000000E+00  0.45593999997E+02  0.45594000000E+02  0.51100000000E-03 0.  1.
         11   -1    0    0    0    0 -0.00000000000E+00 -0.00000000000E+00 -0.45593999997E+02  0.45594000000E+02  0.51100000000E-03 0. -1.
         23    2    1    2    0    0  0.00000000000E+00  0.35527136788E-14  0.17763568394E-14  0.91188000000E+02  0.91188000000E+02 0.  0.
    9900012    2    3    3    0    0  0.32230436182E+02  0.12972879892E+02  0.12193574309E+02  0.54367083613E+02  0.39999998712E+02 0.  0.
         12    1    3    3    0    0 -0.32230436182E+02 -0.12972879892E+02 -0.12193574309E+02  0.36820916387E+02  0.00000000000E+00 0. -1.
         11    1    4    4    0    0  0.76190753276E+01  0.46237504142E+01  0.13381207503E+02  0.16077502643E+02  0.51100000000E-03 0.  1.
        -11    1    4    4    0    0  0.16243390030E+02  0.81083298823E+01 -0.14040687657E+02  0.22950678493E+02  0.51100000000E-03 0. -1.
         12    1    4    4    0    0  0.83679708234E+01  0.24079959581E+00  0.12853054463E+02  0.15338902476E+02  0.00000000000E+00 0. -1.
</event>
<event>
 8    1  0.2971508E-007  0.9118800E+02  0.7816164E-02  0.1184000E+00
        -11   -1    0    0    0    0  0.00000000000E+00  0.00000000000E+00  0.45593999997E+02  0.45594000000E+02  0.51100000000E-03 0. -1.
         11   -1    0    0    0    0 -0.00000000000E+00 -0.00000000000E+00 -0.45593999997E+02  0.45594000000E+02  0.51100000000E-03 0.  1.
         23    2    1    2    0    0 -0.88817841970E-15  0.00000000000E+00  0.71054273576E-14  0.91188000000E+02  0.91188000000E+02 0.  0.
    9900012    2    3    3    0    0  0.58905505362E+01  0.13337417612E+02  0.33811171375E+02  0.54367073831E+02  0.39999976412E+02 0.  0.
        -12    1    3    3    0    0 -0.58905505362E+01 -0.13337417612E+02 -0.33811171375E+02  0.36820926169E+02  0.00000000000E+00 0.  1.
         11    1    4    4    0    0 -0.35056007136E+01  0.21055034666E+02  0.23459116103E+02  0.31716460233E+02  0.51100000000E-03 0. -1.
        -11    1    4    4    0    0  0.11888852809E+02 -0.94096610081E+01  0.40938243234E+01  0.15704965433E+02  0.51100000000E-03 0.  1.
        -12    1    4    4    0    0 -0.24927015597E+01  0.16920439542E+01  0.62582309492E+01  0.69456481643E+01  0.00000000000E+00 0.  1.
</event>
<event>
 8    1  0.2971508E-007  0.9118800E+02  0.7816164E-02  0.1184000E+00
        -11   -1    0    0    0    0  0.00000000000E+00  0.00000000000E+00  0.45593999997E+02  0.45594000000E+02  0.51100000000E-03 0. -1.
         11   -1    0    0    0    0 -0.00000000000E+00 -0.00000000000E+00 -0.45593999997E+02  0.45594000000E+02  0.51100000000E-03 0.  1.
         23    2    1    2    0    0  0.00000000000E+00 -0.17763568394E-14  0.35527136788E-14  0.91188000000E+02  0.91188000000E+02 0.  0.
    9900012    2    3    3    0    0  0.32319330275E+02  0.39214814551E+01  0.17200677976E+02  0.54367075934E+02  0.39999981207E+02 0.  0.
         12    1    3    3    0    0 -0.32319330275E+02 -0.39214814551E+01 -0.17200677976E+02  0.36820924066E+02  0.00000000000E+00 0. -1.
         11    1    4    4    0    0  0.14762353356E+02  0.57612082631E+01  0.20206902121E+02  0.25679515004E+02  0.51100000000E-03 0. -1.
        -11    1    4    4    0    0  0.88828987366E+01  0.10304873736E+02 -0.13551220379E+01  0.13672332232E+02  0.51100000000E-03 0.  1.
         12    1    4    4    0    0  0.86740781822E+01 -0.12144600544E+02 -0.16511021069E+01  0.15015228698E+02  0.00000000000E+00 0. -1.
</event>
<event>
 8    1  0.2971508E-007  0.9118800E+02  0.7816164E-02  0.1184000E+00
        -11   -1    0    0    0    0  0.00000000000E+00  0.00000000000E+00  0.45593999997E+02  0.45594000000E+02  0.51100000000E-03 0. -1.
         11   -1    0    0    0    0 -0.00000000000E+00 -0.00000000000E+00 -0.45593999997E+02  0.45594000000E+02  0.51100000000E-03 0.  1.
         23    2    1    2    0    0  0.44408920985E-15  0.00000000000E+00  0.35527136788E-14  0.91188000000E+02  0.91188000000E+02 0.  0.
    9900012    2    3    3    0    0  0.30936601400E+01  0.18031043248E+02 -0.31954535270E+02  0.54367060604E+02  0.39999946259E+02 0.  0.
         12    1    3    3    0    0 -0.30936601400E+01 -0.18031043248E+02  0.31954535270E+02  0.36820939396E+02  0.00000000000E+00 0. -1.
         11    1    4    4    0    0 -0.67466775033E+01  0.21850309084E+01  0.50293525979E+01  0.86940442383E+01  0.51100000000E-03 0. -1.
        -11    1    4    4    0    0  0.39382452449E+01  0.23126005657E+01  0.12101076931E+01  0.47246436771E+01  0.51100000000E-03 0.  1.
        -12    1    4    4    0    0  0.59020923984E+01  0.13533411774E+02 -0.38193995561E+02  0.40948372689E+02  0.00000000000E+00 0.  1.
</event>
<event>
 8    1  0.2971508E-007  0.9118800E+02  0.7816164E-02  0.1184000E+00
        -11   -1    0    0    0    0  0.00000000000E+00  0.00000000000E+00  0.45593999997E+02  0.45594000000E+02  0.51100000000E-03 0. -1.
         11   -1    0    0    0    0 -0.00000000000E+00 -0.00000000000E+00 -0.45593999997E+02  0.45594000000E+02  0.51100000000E-03 0.  1.
         23    2    1    2    0    0 -0.44408920985E-15  0.00000000000E+00 -0.17763568394E-14  0.91188000000E+02  0.91188000000E+02 0.  0.
    9900012    2    3    3    0    0  0.25568594403E+01 -0.35013613959E+02 -0.11103578065E+02  0.54367080151E+02  0.39999990820E+02 0.  0.
         12    1    3    3    0    0 -0.25568594403E+01  0.35013613959E+02  0.11103578065E+02  0.36820919849E+02  0.00000000000E+00 0. -1.
         11    1    4    4    0    0 -0.52335036483E+01  0.27869804711E+01  0.69473203541E+01  0.91335689053E+01  0.51100000000E-03 0. -1.
        -11    1    4    4    0    0  0.14276166293E+01  0.10677834863E+01  0.25601371937E+00  0.18010536082E+01  0.51100000000E-03 0.  1.
        -12    1    4    4    0    0  0.63627464593E+01 -0.38868377917E+02 -0.18306912138E+02  0.43432457637E+02  0.00000000000E+00 0.  1.
</event>
<event>
 8    1  0.2971508E-007  0.9118800E+02  0.7816164E-02  0.1184000E+00
        -11   -1    0    0    0    0  0.00000000000E+00  0.00000000000E+00  0.45593999997E+02  0.45594000000E+02  0.51100000000E-03 0.  1.
         11   -1    0    0    0    0 -0.00000000000E+00 -0.00000000000E+00 -0.45593999997E+02  0.45594000000E+02  0.51100000000E-03 0. -1.
         23    2    1    2    0    0  0.00000000000E+00 -0.66613381478E-15 -0.35527136788E-14  0.91188000000E+02  0.91188000000E+02 0.  0.
    9900012    2    3    3    0    0  0.22149528117E+02 -0.12900603488E+01 -0.29385604783E+02  0.54367087193E+02  0.40000006873E+02 0.  0.
        -12    1    3    3    0    0 -0.22149528117E+02  0.12900603488E+01  0.29385604783E+02  0.36820912807E+02  0.00000000000E+00 0.  1.
         11    1    4    4    0    0  0.16681143707E+02 -0.93719856773E+01 -0.12949714693E+02  0.23103891054E+02  0.51100000000E-03 0. -1.
        -11    1    4    4    0    0  0.13591011526E+02 -0.66739636791E+00 -0.13050254459E+02  0.18853916142E+02  0.51100000000E-03 0.  1.
        -12    1    4    4    0    0 -0.81226271159E+01  0.87493216964E+01 -0.33856356313E+01  0.12409279997E+02  0.00000000000E+00 0.  1.
</event>
<event>
 8    1  0.2971508E-007  0.9118800E+02  0.7816164E-02  0.1184000E+00
        -11   -1    0    0    0    0  0.00000000000E+00  0.00000000000E+00  0.45593999997E+02  0.45594000000E+02  0.51100000000E-03 0.  1.
         11   -1    0    0    0    0 -0.00000000000E+00 -0.00000000000E+00 -0.45593999997E+02  0.45594000000E+02  0.51100000000E-03 0. -1.
         23    2    1    2    0    0 -0.55511151231E-15  0.35527136788E-14  0.35527136788E-14  0.91188000000E+02  0.91188000000E+02 0.  0.
    9900012    2    3    3    0    0  0.77589859882E+00 -0.19103271538E+02 -0.31468150616E+02  0.54367061592E+02  0.39999948512E+02 0.  0.
        -12    1    3    3    0    0 -0.77589859882E+00  0.19103271538E+02  0.31468150616E+02  0.36820938408E+02  0.00000000000E+00 0.  1.
         11    1    4    4    0    0  0.24261950917E+01 -0.71992483636E+00 -0.25353641969E+02  0.25479636491E+02  0.51100000000E-03 0. -1.
        -11    1    4    4    0    0 -0.60263815289E+01 -0.66085993613E+01  0.65222755432E+01  0.11069369376E+02  0.51100000000E-03 0.  1.
         12    1    4    4    0    0  0.43760850361E+01 -0.11774747340E+02 -0.12636784190E+02  0.17818055725E+02  0.00000000000E+00 0. -1.
</event>
<event>
 8    1  0.2971508E-007  0.9118800E+02  0.7816164E-02  0.1184000E+00
        -11   -1    0    0    0    0  0.00000000000E+00  0.00000000000E+00  0.45593999997E+02  0.45594000000E+02  0.51100000000E-03 0. -1.
         11   -1    0    0    0    0 -0.00000000000E+00 -0.00000000000E+00 -0.45593999997E+02  0.45594000000E+02  0.51100000000E-03 0.  1.
         23    2    1    2    0    0 -0.17763568394E-14  0.71054273576E-14  0.00000000000E+00  0.91188000000E+02  0.91188000000E+02 0.  0.
    9900012    2    3    3    0    0 -0.87880412874E+01  0.31492341785E+02 -0.16934630557E+02  0.54367095980E+02  0.40000026905E+02 0.  0.
         12    1    3    3    0    0  0.87880412874E+01 -0.31492341785E+02  0.16934630557E+02  0.36820904020E+02  0.00000000000E+00 0. -1.
         11    1    4    4    0    0  0.71468146612E+00 -0.12343526073E+01 -0.26618075096E+01  0.30198701026E+01  0.51100000000E-03 0. -1.
        -11    1    4    4    0    0  0.67778873913E+01  0.14362570771E+02  0.83730562405E+01  0.17953586486E+02  0.51100000000E-03 0.  1.
        -12    1    4    4    0    0 -0.16280610145E+02  0.18364123622E+02 -0.22645879288E+02  0.33393639391E+02  0.00000000000E+00 0.  1.
</event>
<event>
 8    1  0.2971508E-007  0.9118800E+02  0.7816164E-02  0.1184000E+00
        -11   -1    0    0    0    0  0.00000000000E+00  0.00000000000E+00  0.45593999997E+02  0.45594000000E+02  0.51100000000E-03 0. -1.
         11   -1    0    0    0    0 -0.00000000000E+00 -0.00000000000E+00 -0.45593999997E+02  0.45594000000E+02  0.51100000000E-03 0.  1.
         23    2    1    2    0    0  0.35527136788E-14 -0.17763568394E-14 -0.10658141036E-13  0.91188000000E+02  0.91188000000E+02 0.  0.
    9900012    2    3    3    0    0 -0.23074299201E+02  0.15008182608E+02  0.24456338790E+02  0.54367063893E+02  0.39999953757E+02 0.  0.
        -12    1    3    3    0    0  0.23074299201E+02 -0.15008182608E+02 -0.24456338790E+02  0.36820936107E+02  0.00000000000E+00 0.  1.
         11    1    4    4    0    0  0.19227624436E+01 -0.54218538360E+01  0.40910967957E+00  0.57672251061E+01  0.51100000000E-03 0.  1.
        -11    1    4    4    0    0 -0.24673992133E+02  0.25725819585E+02  0.24532575726E+02  0.43272057417E+02  0.51100000000E-03 0. -1.
         12    1    4    4    0    0 -0.32306951136E+00 -0.52957831413E+01 -0.48534661587E+00  0.53277813700E+01  0.00000000000E+00 0. -1.
</event>
<event>
 8    1  0.2971508E-007  0.9118800E+02  0.7816164E-02  0.1184000E+00
        -11   -1    0    0    0    0  0.00000000000E+00  0.00000000000E+00  0.45593999997E+02  0.45594000000E+02  0.51100000000E-03 0. -1.
         11   -1    0    0    0    0 -0.00000000000E+00 -0.00000000000E+00 -0.45593999997E+02  0.45594000000E+02  0.51100000000E-03 0.  1.
         23    2    1    2    0    0  0.35527136788E-14 -0.17763568394E-14 -0.35527136788E-14  0.91188000000E+02  0.91188000000E+02 0.  0.
    9900012    2    3    3    0    0  0.21212135549E+02  0.14167391878E+02 -0.26553919534E+02  0.54367077553E+02  0.39999984899E+02 0.  0.
         12    1    3    3    0    0 -0.21212135549E+02 -0.14167391878E+02  0.26553919534E+02  0.36820922447E+02  0.00000000000E+00 0. -1.
         11    1    4    4    0    0  0.20343232237E+02  0.22473656010E+01 -0.24687807299E+02  0.32068451467E+02  0.51100000000E-03 0.  1.
        -11    1    4    4    0    0 -0.28206777051E+01 -0.14229969787E+01 -0.68833526643E+01  0.75737498823E+01  0.51100000000E-03 0. -1.
         12    1    4    4    0    0  0.36895810169E+01  0.13343023256E+02  0.50172404294E+01  0.14724876204E+02  0.00000000000E+00 0. -1.
</event>
<event>
 8    1  0.2971508E-007  0.9118800E+02  0.7816164E-02  0.1184000E+00
        -11   -1    0    0    0    0  0.00000000000E+00  0.00000000000E+00  0.45593999997E+02  0.45594000000E+02  0.51100000000E-03 0. -1.
         11   -1    0    0    0    0 -0.00000000000E+00 -0.00000000000E+00 -0.45593999997E+02  0.45594000000E+02  0.51100000000E-03 0.  1.
         23    2    1    2    0    0  0.00000000000E+00  0.00000000000E+00  0.35527136788E-14  0.91188000000E+02  0.91188000000E+02 0.  0.
    9900012    2    3    3    0    0  0.12320247411E+02  0.14439575922E+02 -0.31551383043E+02  0.54367087178E+02  0.40000006840E+02 0.  0.
         12    1    3    3    0    0 -0.12320247411E+02 -0.14439575922E+02  0.31551383043E+02  0.36820912822E+02  0.00000000000E+00 0. -1.
         11    1    4    4    0    0  0.20261886597E+01  0.11402832578E+02 -0.58899007031E+00  0.11596419311E+02  0.51100000000E-03 0. -1.
        -11    1    4    4    0    0 -0.25158298087E+01  0.76978408484E+01  0.86729665954E+00  0.81448362237E+01  0.51100000000E-03 0.  1.
        -12    1    4    4    0    0  0.12809888560E+02 -0.46610975044E+01 -0.31829689633E+02  0.34625831643E+02  0.00000000000E+00 0.  1.
</event>
<event>
 8    1  0.2971508E-007  0.9118800E+02  0.7816164E-02  0.1184000E+00
        -11   -1    0    0    0    0  0.00000000000E+00  0.00000000000E+00  0.45593999997E+02  0.45594000000E+02  0.51100000000E-03 0.  1.
         11   -1    0    0    0    0 -0.00000000000E+00 -0.00000000000E+00 -0.45593999997E+02  0.45594000000E+02  0.51100000000E-03 0. -1.
         23    2    1    2    0    0  0.00000000000E+00 -0.35527136788E-14  0.00000000000E+00  0.91188000000E+02  0.91188000000E+02 0.  0.
    9900012    2    3    3    0    0  0.10846608898E+02 -0.23829834791E+02  0.25889840064E+02  0.54366895056E+02  0.39999568857E+02 0.  0.
         12    1    3    3    0    0 -0.10846608898E+02  0.23829834791E+02 -0.25889840064E+02  0.36821104944E+02  0.00000000000E+00 0. -1.
         11    1    4    4    0    0 -0.81682944023E+01 -0.15700600744E+02  0.16266985463E+02  0.24038400810E+02  0.51100000000E-03 0. -1.
        -11    1    4    4    0    0  0.10038943361E+02 -0.12082756686E+01 -0.54366065374E+01  0.11480287662E+02  0.51100000000E-03 0.  1.
         12    1    4    4    0    0  0.89759599392E+01 -0.69209583789E+01  0.15059461138E+02  0.18848206585E+02  0.00000000000E+00 0. -1.
</event>
<event>
 8    1  0.2971508E-007  0.9118800E+02  0.7816164E-02  0.1184000E+00
        -11   -1    0    0    0    0  0.00000000000E+00  0.00000000000E+00  0.45593999997E+02  0.45594000000E+02  0.51100000000E-03 0. -1.
         11   -1    0    0    0    0 -0.00000000000E+00 -0.00000000000E+00 -0.45593999997E+02  0.45594000000E+02  0.51100000000E-03 0.  1.
         23    2    1    2    0    0  0.00000000000E+00  0.71054273576E-14  0.00000000000E+00  0.91188000000E+02  0.91188000000E+02 0.  0.
    9900012    2    3    3    0    0 -0.93095484604E+01  0.35167337692E+02 -0.56888700118E+01  0.54367182860E+02  0.40000224965E+02 0.  0.
        -12    1    3    3    0    0  0.93095484604E+01 -0.35167337692E+02  0.56888700118E+01  0.36820817140E+02  0.00000000000E+00 0.  1.
         11    1    4    4    0    0  0.71092898616E+01  0.46980788218E+01  0.26764523306E+01  0.89318164049E+01  0.51100000000E-03 0. -1.
        -11    1    4    4    0    0 -0.13631695067E+02  0.17213539589E+02 -0.18343477459E+02  0.28611400195E+02  0.51100000000E-03 0.  1.
        -12    1    4    4    0    0 -0.27871432550E+01  0.13255719281E+02  0.99781551165E+01  0.16823966260E+02  0.00000000000E+00 0.  1.
</event>
<event>
 8    1  0.2971508E-007  0.9118800E+02  0.7816164E-02  0.1184000E+00
        -11   -1    0    0    0    0  0.00000000000E+00  0.00000000000E+00  0.45593999997E+02  0.45594000000E+02  0.51100000000E-03 0. -1.
         11   -1    0    0    0    0 -0.00000000000E+00 -0.00000000000E+00 -0.45593999997E+02  0.45594000000E+02  0.51100000000E-03 0.  1.
         23    2    1    2    0    0 -0.17763568394E-14  0.35527136788E-14  0.00000000000E+00  0.91188000000E+02  0.91188000000E+02 0.  0.
    9900012    2    3    3    0    0 -0.11982183728E+02  0.22208410085E+02  0.26814052962E+02  0.54367086898E+02  0.40000006201E+02 0.  0.
         12    1    3    3    0    0  0.11982183728E+02 -0.22208410085E+02 -0.26814052962E+02  0.36820913102E+02  0.00000000000E+00 0. -1.
         11    1    4    4    0    0  0.14236036268E+01  0.22715434065E+01  0.13109866735E+02  0.13381149532E+02  0.51100000000E-03 0. -1.
        -11    1    4    4    0    0 -0.20249502330E+02  0.81019645592E+01  0.25990321294E+00  0.21811733638E+02  0.51100000000E-03 0.  1.
         12    1    4    4    0    0  0.68437149750E+01  0.11834902120E+02  0.13444283014E+02  0.19174203728E+02  0.00000000000E+00 0. -1.
</event>
<event>
 8    1  0.2971508E-007  0.9118800E+02  0.7816164E-02  0.1184000E+00
        -11   -1    0    0    0    0  0.00000000000E+00  0.00000000000E+00  0.45593999997E+02  0.45594000000E+02  0.51100000000E-03 0.  1.
         11   -1    0    0    0    0 -0.00000000000E+00 -0.00000000000E+00 -0.45593999997E+02  0.45594000000E+02  0.51100000000E-03 0. -1.
         23    2    1    2    0    0  0.00000000000E+00  0.35527136788E-14  0.00000000000E+00  0.91188000000E+02  0.91188000000E+02 0.  0.
    9900012    2    3    3    0    0  0.22547211250E+02 -0.15043257882E+02  0.24921953906E+02  0.54367080276E+02  0.39999991105E+02 0.  0.
         12    1    3    3    0    0 -0.22547211250E+02  0.15043257882E+02 -0.24921953906E+02  0.36820919724E+02  0.00000000000E+00 0. -1.
         11    1    4    4    0    0  0.20830718507E+02 -0.14704942386E+02  0.81967956440E+01  0.26783233994E+02  0.51100000000E-03 0. -1.
        -11    1    4    4    0    0  0.70707872208E+01  0.17499541751E+01  0.19777653639E+02  0.21076383828E+02  0.51100000000E-03 0.  1.
         12    1    4    4    0    0 -0.53542944775E+01 -0.20882696707E+01 -0.30524953768E+01  0.65074624543E+01  0.00000000000E+00 0. -1.
</event>
<event>
 8    1  0.2971508E-007  0.9118800E+02  0.7816164E-02  0.1184000E+00
        -11   -1    0    0    0    0  0.00000000000E+00  0.00000000000E+00  0.45593999997E+02  0.45594000000E+02  0.51100000000E-03 0. -1.
         11   -1    0    0    0    0 -0.00000000000E+00 -0.00000000000E+00 -0.45593999997E+02  0.45594000000E+02  0.51100000000E-03 0.  1.
         23    2    1    2    0    0  0.35527136788E-14 -0.35527136788E-14 -0.35527136788E-14  0.91188000000E+02  0.91188000000E+02 0.  0.
    9900012    2    3    3    0    0  0.23392092165E+02  0.15087634956E+02  0.24103026698E+02  0.54367046720E+02  0.39999914608E+02 0.  0.
        -12    1    3    3    0    0 -0.23392092165E+02 -0.15087634956E+02 -0.24103026698E+02  0.36820953280E+02  0.00000000000E+00 0.  1.
         11    1    4    4    0    0  0.11219999795E+02  0.52394685050E+00  0.75747527911E+01  0.13547685995E+02  0.51100000000E-03 0.  1.
        -11    1    4    4    0    0  0.15131371731E+02  0.16237868775E+02  0.23951658685E+02  0.32654383272E+02  0.51100000000E-03 0. -1.
         12    1    4    4    0    0 -0.29592793610E+01 -0.16741806692E+01 -0.74233847786E+01  0.81649774538E+01  0.00000000000E+00 0. -1.
</event>
<event>
 8    1  0.2971508E-007  0.9118800E+02  0.7816164E-02  0.1184000E+00
        -11   -1    0    0    0    0  0.00000000000E+00  0.00000000000E+00  0.45593999997E+02  0.45594000000E+02  0.51100000000E-03 0. -1.
         11   -1    0    0    0    0 -0.00000000000E+00 -0.00000000000E+00 -0.45593999997E+02  0.45594000000E+02  0.51100000000E-03 0.  1.
         23    2    1    2    0    0  0.00000000000E+00  0.00000000000E+00  0.35527136788E-14  0.91188000000E+02  0.91188000000E+02 0.  0.
    9900012    2    3    3    0    0 -0.19231822183E+02  0.26512494812E+02 -0.16822727392E+02  0.54367088516E+02  0.40000009889E+02 0.  0.
         12    1    3    3    0    0  0.19231822183E+02 -0.26512494812E+02  0.16822727392E+02  0.36820911484E+02  0.00000000000E+00 0. -1.
         11    1    4    4    0    0 -0.10289424755E+02  0.35039264243E+01 -0.97768704140E+01  0.14619745468E+02  0.51100000000E-03 0. -1.
        -11    1    4    4    0    0  0.34910747034E+01 -0.27515621509E+01 -0.10047164444E+02  0.10986546795E+02  0.51100000000E-03 0.  1.
         12    1    4    4    0    0 -0.12433472131E+02  0.25760130538E+02  0.30013074659E+01  0.28760796253E+02  0.00000000000E+00 0. -1.
</event>
<event>
 8    1  0.2971508E-007  0.9118800E+02  0.7816164E-02  0.1184000E+00
        -11   -1    0    0    0    0  0.00000000000E+00  0.00000000000E+00  0.45593999997E+02  0.45594000000E+02  0.51100000000E-03 0.  1.
         11   -1    0    0    0    0 -0.00000000000E+00 -0.00000000000E+00 -0.45593999997E+02  0.45594000000E+02  0.51100000000E-03 0. -1.
         23    2    1    2    0    0  0.00000000000E+00  0.17763568394E-14  0.00000000000E+00  0.91188000000E+02  0.91188000000E+02 0.  0.
    9900012    2    3    3    0    0 -0.82478904799E+01 -0.15443735383E+02  0.32391980594E+02  0.54367121863E+02  0.40000085911E+02 0.  0.
         12    1    3    3    0    0  0.82478904799E+01  0.15443735383E+02 -0.32391980594E+02  0.36820878137E+02  0.00000000000E+00 0. -1.
         11    1    4    4    0    0  0.28561430006E+01  0.50983048705E+01 -0.10143820985E+01  0.59312087045E+01  0.51100000000E-03 0. -1.
        -11    1    4    4    0    0 -0.56115489785E+01 -0.23502292870E+02  0.34481144781E+02  0.42104591172E+02  0.51100000000E-03 0.  1.
         12    1    4    4    0    0 -0.54924845020E+01  0.29602526172E+01 -0.10747820880E+01  0.63313219866E+01  0.00000000000E+00 0. -1.
</event>
<event>
 8    1  0.2971508E-007  0.9118800E+02  0.7816164E-02  0.1184000E+00
        -11   -1    0    0    0    0  0.00000000000E+00  0.00000000000E+00  0.45593999997E+02  0.45594000000E+02  0.51100000000E-03 0. -1.
         11   -1    0    0    0    0 -0.00000000000E+00 -0.00000000000E+00 -0.45593999997E+02  0.45594000000E+02  0.51100000000E-03 0.  1.
         23    2    1    2    0    0 -0.17763568394E-14  0.35527136788E-14  0.00000000000E+00  0.91188000000E+02  0.91188000000E+02 0.  0.
    9900012    2    3    3    0    0  0.15295213810E+02 -0.25157243894E+02 -0.22112196710E+02  0.54367085709E+02  0.40000003492E+02 0.  0.
         12    1    3    3    0    0 -0.15295213810E+02  0.25157243894E+02  0.22112196710E+02  0.36820914291E+02  0.00000000000E+00 0. -1.
         11    1    4    4    0    0 -0.84365070789E+01  0.18113018724E+01 -0.11681838205E+02  0.14523112968E+02  0.51100000000E-03 0.  1.
        -11    1    4    4    0    0  0.19607368616E+02 -0.19691252420E+02 -0.13550561503E+02  0.30916210040E+02  0.51100000000E-03 0. -1.
        -12    1    4    4    0    0  0.41243522736E+01 -0.72772933461E+01  0.31202029976E+01  0.89277627022E+01  0.00000000000E+00 0.  1.
</event>
<event>
 8    1  0.2971508E-007  0.9118800E+02  0.7816164E-02  0.1184000E+00
        -11   -1    0    0    0    0  0.00000000000E+00  0.00000000000E+00  0.45593999997E+02  0.45594000000E+02  0.51100000000E-03 0. -1.
         11   -1    0    0    0    0 -0.00000000000E+00 -0.00000000000E+00 -0.45593999997E+02  0.45594000000E+02  0.51100000000E-03 0.  1.
         23    2    1    2    0    0  0.88817841970E-15 -0.35527136788E-14  0.00000000000E+00  0.91188000000E+02  0.91188000000E+02 0.  0.
    9900012    2    3    3    0    0  0.78274277088E+01  0.21239657642E+02 -0.29041176317E+02  0.54367060262E+02  0.39999945480E+02 0.  0.
         12    1    3    3    0    0 -0.78274277088E+01 -0.21239657642E+02  0.29041176317E+02  0.36820939738E+02  0.00000000000E+00 0. -1.
         11    1    4    4    0    0  0.27578792888E+01 -0.19550732229E+01  0.56022685968E+00  0.34266695017E+01  0.51100000000E-03 0. -1.
        -11    1    4    4    0    0  0.15482176342E+02  0.48096451545E+01 -0.22332982692E+01  0.16365148708E+02  0.51100000000E-03 0.  1.
         12    1    4    4    0    0 -0.10412627922E+02  0.18385085710E+02 -0.27368104908E+02  0.34575242053E+02  0.00000000000E+00 0. -1.
</event>
<event>
 8    1  0.2971508E-007  0.9118800E+02  0.7816164E-02  0.1184000E+00
        -11   -1    0    0    0    0  0.00000000000E+00  0.00000000000E+00  0.45593999997E+02  0.45594000000E+02  0.51100000000E-03 0.  1.
         11   -1    0    0    0    0 -0.00000000000E+00 -0.00000000000E+00 -0.45593999997E+02  0.45594000000E+02  0.51100000000E-03 0. -1.
         23    2    1    2    0    0  0.00000000000E+00  0.00000000000E+00 -0.35527136788E-14  0.91188000000E+02  0.91188000000E+02 0.  0.
    9900012    2    3    3    0    0  0.22656885557E+02  0.14147853918E+02 -0.25343313994E+02  0.54367084778E+02  0.40000001368E+02 0.  0.
        -12    1    3    3    0    0 -0.22656885557E+02 -0.14147853918E+02  0.25343313994E+02  0.36820915222E+02  0.00000000000E+00 0.  1.
         11    1    4    4    0    0  0.10055100938E+02 -0.25566776064E+01 -0.25745844646E+02  0.27757704733E+02  0.51100000000E-03 0. -1.
        -11    1    4    4    0    0  0.52307525362E+01  0.81794292332E+01 -0.79769837526E+01  0.12565671678E+02  0.51100000000E-03 0.  1.
        -12    1    4    4    0    0  0.73710320824E+01  0.85251022913E+01  0.83795144043E+01  0.14043708367E+02  0.00000000000E+00 0.  1.
</event>
<event>
 8    1  0.2971508E-007  0.9118800E+02  0.7816164E-02  0.1184000E+00
        -11   -1    0    0    0    0  0.00000000000E+00  0.00000000000E+00  0.45593999997E+02  0.45594000000E+02  0.51100000000E-03 0.  1.
         11   -1    0    0    0    0 -0.00000000000E+00 -0.00000000000E+00 -0.45593999997E+02  0.45594000000E+02  0.51100000000E-03 0. -1.
         23    2    1    2    0    0  0.11102230246E-15  0.00000000000E+00  0.00000000000E+00  0.91188000000E+02  0.91188000000E+02 0.  0.
    9900012    2    3    3    0    0 -0.92423774037E+00  0.85425672482E+01 -0.35804378528E+02  0.54367038683E+02  0.39999896285E+02 0.  0.
        -12    1    3    3    0    0  0.92423774037E+00 -0.85425672482E+01  0.35804378528E+02  0.36820961317E+02  0.00000000000E+00 0.  1.
         11    1    4    4    0    0 -0.35119907023E+01  0.59439644421E+01  0.61311992139E+01  0.92334390150E+01  0.51100000000E-03 0.  1.
        -11    1    4    4    0    0  0.27313130243E+01  0.92600169374E+01 -0.19997919048E+02  0.22206412385E+02  0.51100000000E-03 0. -1.
         12    1    4    4    0    0 -0.14356006236E+00 -0.66614141313E+01 -0.21937658694E+02  0.22927187282E+02  0.00000000000E+00 0. -1.
</event>
<event>
 8    1  0.2971508E-007  0.9118800E+02  0.7816164E-02  0.1184000E+00
        -11   -1    0    0    0    0  0.00000000000E+00  0.00000000000E+00  0.45593999997E+02  0.45594000000E+02  0.51100000000E-03 0. -1.
         11   -1    0    0    0    0 -0.00000000000E+00 -0.00000000000E+00 -0.45593999997E+02  0.45594000000E+02  0.51100000000E-03 0.  1.
         23    2    1    2    0    0  0.00000000000E+00  0.66613381478E-15  0.00000000000E+00  0.91188000000E+02  0.91188000000E+02 0.  0.
    9900012    2    3    3    0    0 -0.22308435250E+02 -0.11186589192E+01  0.29272209237E+02  0.54367083190E+02  0.39999997749E+02 0.  0.
         12    1    3    3    0    0  0.22308435250E+02  0.11186589192E+01 -0.29272209237E+02  0.36820916810E+02  0.00000000000E+00 0. -1.
         11    1    4    4    0    0 -0.11960349307E+02 -0.37183599237E+01  0.21248733828E+02  0.24665458553E+02  0.51100000000E-03 0. -1.
        -11    1    4    4    0    0 -0.17063664482E+02 -0.56344416840E+01  0.48686174348E+01  0.18617707019E+02  0.51100000000E-03 0.  1.
        -12    1    4    4    0    0  0.67155785389E+01  0.82341426884E+01  0.31548579740E+01  0.11083917618E+02  0.00000000000E+00 0.  1.
</event>
<event>
 8    1  0.2971508E-007  0.9118800E+02  0.7816164E-02  0.1184000E+00
        -11   -1    0    0    0    0  0.00000000000E+00  0.00000000000E+00  0.45593999997E+02  0.45594000000E+02  0.51100000000E-03 0.  1.
         11   -1    0    0    0    0 -0.00000000000E+00 -0.00000000000E+00 -0.45593999997E+02  0.45594000000E+02  0.51100000000E-03 0. -1.
         23    2    1    2    0    0  0.88817841970E-15  0.00000000000E+00  0.00000000000E+00  0.91188000000E+02  0.91188000000E+02 0.  0.
    9900012    2    3    3    0    0 -0.25685168091E+01 -0.21441409961E+02 -0.29823620426E+02  0.54367086444E+02  0.40000005167E+02 0.  0.
        -12    1    3    3    0    0  0.25685168091E+01  0.21441409961E+02  0.29823620426E+02  0.36820913556E+02  0.00000000000E+00 0.  1.
         11    1    4    4    0    0  0.68488786490E+01 -0.13419564567E+02 -0.73710404890E+01  0.16772718625E+02  0.51100000000E-03 0. -1.
        -11    1    4    4    0    0 -0.85461916053E+01 -0.68124847235E+01  0.35941632343E+01  0.11505014067E+02  0.51100000000E-03 0.  1.
         12    1    4    4    0    0 -0.87120385286E+00 -0.12093606707E+01 -0.26046743172E+02  0.26089353753E+02  0.00000000000E+00 0. -1.
</event>
<event>
 8    1  0.2971508E-007  0.9118800E+02  0.7816164E-02  0.1184000E+00
        -11   -1    0    0    0    0  0.00000000000E+00  0.00000000000E+00  0.45593999997E+02  0.45594000000E+02  0.51100000000E-03 0. -1.
         11   -1    0    0    0    0 -0.00000000000E+00 -0.00000000000E+00 -0.45593999997E+02  0.45594000000E+02  0.51100000000E-03 0.  1.
         23    2    1    2    0    0  0.00000000000E+00  0.00000000000E+00 -0.17763568394E-14  0.91188000000E+02  0.91188000000E+02 0.  0.
    9900012    2    3    3    0    0  0.28565638835E+01 -0.33081220754E+02 -0.15913911253E+02  0.54367086171E+02  0.40000004545E+02 0.  0.
         12    1    3    3    0    0 -0.28565638835E+01  0.33081220754E+02  0.15913911253E+02  0.36820913829E+02  0.00000000000E+00 0. -1.
         11    1    4    4    0    0 -0.14192175799E+02 -0.22969953097E+02 -0.10795013457E+02  0.29078667696E+02  0.51100000000E-03 0. -1.
        -11    1    4    4    0    0  0.11139688580E+02  0.70070847137E+00 -0.64566644402E+01  0.12894656645E+02  0.51100000000E-03 0.  1.
        -12    1    4    4    0    0  0.59090511024E+01 -0.10811976128E+02  0.13377666434E+01  0.12393761831E+02  0.00000000000E+00 0.  1.
</event>
<event>
 8    1  0.2971508E-007  0.9118800E+02  0.7816164E-02  0.1184000E+00
        -11   -1    0    0    0    0  0.00000000000E+00  0.00000000000E+00  0.45593999997E+02  0.45594000000E+02  0.51100000000E-03 0. -1.
         11   -1    0    0    0    0 -0.00000000000E+00 -0.00000000000E+00 -0.45593999997E+02  0.45594000000E+02  0.51100000000E-03 0.  1.
         23    2    1    2    0    0  0.17763568394E-14  0.00000000000E+00 -0.71054273576E-14  0.91188000000E+02  0.91188000000E+02 0.  0.
    9900012    2    3    3    0    0  0.52903923305E+01 -0.83011713741E+01 -0.35480727025E+02  0.54367086277E+02  0.40000004785E+02 0.  0.
         12    1    3    3    0    0 -0.52903923305E+01  0.83011713741E+01  0.35480727025E+02  0.36820913723E+02  0.00000000000E+00 0. -1.
         11    1    4    4    0    0 -0.15173562416E+01  0.71443957119E+00  0.21824320188E+01  0.27524177813E+01  0.51100000000E-03 0. -1.
        -11    1    4    4    0    0  0.17490753910E+02 -0.32900265161E+01 -0.34910574476E+02  0.39185443182E+02  0.51100000000E-03 0.  1.
        -12    1    4    4    0    0 -0.10683005338E+02 -0.57255844292E+01 -0.27525845674E+01  0.12429225314E+02  0.00000000000E+00 0.  1.
</event>
<event>
 8    1  0.2971508E-007  0.9118800E+02  0.7816164E-02  0.1184000E+00
        -11   -1    0    0    0    0  0.00000000000E+00  0.00000000000E+00  0.45593999997E+02  0.45594000000E+02  0.51100000000E-03 0. -1.
         11   -1    0    0    0    0 -0.00000000000E+00 -0.00000000000E+00 -0.45593999997E+02  0.45594000000E+02  0.51100000000E-03 0.  1.
         23    2    1    2    0    0  0.17763568394E-14  0.71054273576E-14 -0.17763568394E-14  0.91188000000E+02  0.91188000000E+02 0.  0.
    9900012    2    3    3    0    0 -0.43274401667E+01 -0.34166398787E+02 -0.13027319356E+02  0.54367073965E+02  0.39999976718E+02 0.  0.
         12    1    3    3    0    0  0.43274401667E+01  0.34166398787E+02  0.13027319356E+02  0.36820926035E+02  0.00000000000E+00 0. -1.
         11    1    4    4    0    0 -0.53605647877E+01 -0.99463950838E+01 -0.20263086178E+01  0.11479214123E+02  0.51100000000E-03 0. -1.
        -11    1    4    4    0    0  0.15921420128E+02 -0.18337147030E+02 -0.11503810880E+02  0.26871550850E+02  0.51100000000E-03 0.  1.
        -12    1    4    4    0    0 -0.14888295507E+02 -0.58828566735E+01  0.50280014143E+00  0.16016308992E+02  0.00000000000E+00 0.  1.
</event>
<event>
 8    1  0.2971508E-007  0.9118800E+02  0.7816164E-02  0.1184000E+00
        -11   -1    0    0    0    0  0.00000000000E+00  0.00000000000E+00  0.45593999997E+02  0.45594000000E+02  0.51100000000E-03 0. -1.
         11   -1    0    0    0    0 -0.00000000000E+00 -0.00000000000E+00 -0.45593999997E+02  0.45594000000E+02  0.51100000000E-03 0.  1.
         23    2    1    2    0    0 -0.35527136788E-14  0.00000000000E+00 -0.71054273576E-14  0.91188000000E+02  0.91188000000E+02 0.  0.
    9900012    2    3    3    0    0 -0.11352672370E+02 -0.86600390751E+01 -0.33939646508E+02  0.54367094908E+02  0.40000024462E+02 0.  0.
         12    1    3    3    0    0  0.11352672370E+02  0.86600390751E+01  0.33939646508E+02  0.36820905092E+02  0.00000000000E+00 0. -1.
         11    1    4    4    0    0  0.40214408333E+01 -0.47270292982E+00 -0.66160978616E+01  0.77568154298E+01  0.51100000000E-03 0. -1.
        -11    1    4    4    0    0  0.69152544805E+01  0.26690205769E+01 -0.19102327821E+02  0.20490079156E+02  0.51100000000E-03 0.  1.
        -12    1    4    4    0    0 -0.22289367684E+02 -0.10856356722E+02 -0.82212208247E+01  0.26120200322E+02  0.00000000000E+00 0.  1.
</event>
<event>
 8    1  0.2971508E-007  0.9118800E+02  0.7816164E-02  0.1184000E+00
        -11   -1    0    0    0    0  0.00000000000E+00  0.00000000000E+00  0.45593999997E+02  0.45594000000E+02  0.51100000000E-03 0. -1.
         11   -1    0    0    0    0 -0.00000000000E+00 -0.00000000000E+00 -0.45593999997E+02  0.45594000000E+02  0.51100000000E-03 0.  1.
         23    2    1    2    0    0  0.00000000000E+00 -0.17763568394E-14  0.00000000000E+00  0.91188000000E+02  0.91188000000E+02 0.  0.
    9900012    2    3    3    0    0  0.22288501488E+02  0.46553462812E+01 -0.28936657864E+02  0.54367085890E+02  0.40000003903E+02 0.  0.
         12    1    3    3    0    0 -0.22288501488E+02 -0.46553462812E+01  0.28936657864E+02  0.36820914110E+02  0.00000000000E+00 0. -1.
         11    1    4    4    0    0  0.79721777159E+01  0.13712245932E+01 -0.66322899572E+00  0.81163875819E+01  0.51100000000E-03 0. -1.
        -11    1    4    4    0    0  0.13908357407E+02 -0.13495860979E+02 -0.11570655903E+02  0.22571237175E+02  0.51100000000E-03 0.  1.
         12    1    4    4    0    0  0.40796636524E+00  0.16779982667E+02 -0.16702772965E+02  0.23679461133E+02  0.00000000000E+00 0. -1.
</event>
<event>
 8    1  0.2971508E-007  0.9118800E+02  0.7816164E-02  0.1184000E+00
        -11   -1    0    0    0    0  0.00000000000E+00  0.00000000000E+00  0.45593999997E+02  0.45594000000E+02  0.51100000000E-03 0.  1.
         11   -1    0    0    0    0 -0.00000000000E+00 -0.00000000000E+00 -0.45593999997E+02  0.45594000000E+02  0.51100000000E-03 0. -1.
         23    2    1    2    0    0  0.00000000000E+00  0.35527136788E-14  0.00000000000E+00  0.91188000000E+02  0.91188000000E+02 0.  0.
    9900012    2    3    3    0    0  0.16770800226E+02 -0.23242375159E+02 -0.23115225282E+02  0.54367063250E+02  0.39999952292E+02 0.  0.
         12    1    3    3    0    0 -0.16770800226E+02  0.23242375159E+02  0.23115225282E+02  0.36820936750E+02  0.00000000000E+00 0. -1.
         11    1    4    4    0    0 -0.30042942374E+01 -0.15412623174E+02 -0.11571378680E+02  0.19505679732E+02  0.51100000000E-03 0. -1.
        -11    1    4    4    0    0  0.15635156583E+02 -0.15133061712E+02 -0.15572775507E+01  0.21814967151E+02  0.51100000000E-03 0.  1.
        -12    1    4    4    0    0  0.41399378808E+01  0.73033097269E+01 -0.99865690517E+01  0.13046416368E+02  0.00000000000E+00 0.  1.
</event>
<event>
 8    1  0.2971508E-007  0.9118800E+02  0.7816164E-02  0.1184000E+00
        -11   -1    0    0    0    0  0.00000000000E+00  0.00000000000E+00  0.45593999997E+02  0.45594000000E+02  0.51100000000E-03 0. -1.
         11   -1    0    0    0    0 -0.00000000000E+00 -0.00000000000E+00 -0.45593999997E+02  0.45594000000E+02  0.51100000000E-03 0.  1.
         23    2    1    2    0    0  0.00000000000E+00  0.35527136788E-14  0.00000000000E+00  0.91188000000E+02  0.91188000000E+02 0.  0.
    9900012    2    3    3    0    0  0.22978104829E+02 -0.27946509663E+02 -0.68395313453E+01  0.54367083487E+02  0.39999998424E+02 0.  0.
        -12    1    3    3    0    0 -0.22978104829E+02  0.27946509663E+02  0.68395313453E+01  0.36820916513E+02  0.00000000000E+00 0.  1.
         11    1    4    4    0    0 -0.11967509627E+01 -0.22971886589E+02 -0.16563628532E+01  0.23062595788E+02  0.51100000000E-03 0. -1.
        -11    1    4    4    0    0  0.88952066687E+00 -0.56722055698E+01 -0.55785725902E+01  0.80053504263E+01  0.51100000000E-03 0.  1.
         12    1    4    4    0    0  0.23285335125E+02  0.69758249609E+00  0.39540409814E+00  0.23299137272E+02  0.00000000000E+00 0. -1.
</event>
<event>
 8    1  0.2971508E-007  0.9118800E+02  0.7816164E-02  0.1184000E+00
        -11   -1    0    0    0    0  0.00000000000E+00  0.00000000000E+00  0.45593999997E+02  0.45594000000E+02  0.51100000000E-03 0.  1.
         11   -1    0    0    0    0 -0.00000000000E+00 -0.00000000000E+00 -0.45593999997E+02  0.45594000000E+02  0.51100000000E-03 0. -1.
         23    2    1    2    0    0  0.00000000000E+00  0.17763568394E-14  0.71054273576E-14  0.91188000000E+02  0.91188000000E+02 0.  0.
    9900012    2    3    3    0    0  0.21584469953E+02  0.11631763106E+02  0.27469851766E+02  0.54367081867E+02  0.39999994732E+02 0.  0.
         12    1    3    3    0    0 -0.21584469953E+02 -0.11631763106E+02 -0.27469851766E+02  0.36820918133E+02  0.00000000000E+00 0. -1.
         11    1    4    4    0    0 -0.75804710449E+01 -0.58920547326E+01 -0.12012239997E+01  0.96758870184E+01  0.51100000000E-03 0. -1.
        -11    1    4    4    0    0  0.22786600866E+02  0.15409503031E+02  0.24018336900E+02  0.36517974621E+02  0.51100000000E-03 0.  1.
         12    1    4    4    0    0  0.63783401316E+01  0.21143148076E+01  0.46527388662E+01  0.81732202281E+01  0.00000000000E+00 0. -1.
</event>
<event>
 8    1  0.2971508E-007  0.9118800E+02  0.7816164E-02  0.1184000E+00
        -11   -1    0    0    0    0  0.00000000000E+00  0.00000000000E+00  0.45593999997E+02  0.45594000000E+02  0.51100000000E-03 0.  1.
         11   -1    0    0    0    0 -0.00000000000E+00 -0.00000000000E+00 -0.45593999997E+02  0.45594000000E+02  0.51100000000E-03 0. -1.
         23    2    1    2    0    0  0.00000000000E+00 -0.35527136788E-14  0.88817841970E-15  0.91188000000E+02  0.91188000000E+02 0.  0.
    9900012    2    3    3    0    0 -0.31416527471E+02  0.18631518512E+02 -0.46527033366E+01  0.54367091147E+02  0.40000015889E+02 0.  0.
        -12    1    3    3    0    0  0.31416527471E+02 -0.18631518512E+02  0.46527033366E+01  0.36820908853E+02  0.00000000000E+00 0.  1.
         11    1    4    4    0    0 -0.18169043083E+02  0.22473475627E+02  0.80129985199E+01  0.29989654530E+02  0.51100000000E-03 0.  1.
        -11    1    4    4    0    0 -0.25760702282E+01 -0.76459452172E+01 -0.10237871545E+01  0.81329426707E+01  0.51100000000E-03 0. -1.
        -12    1    4    4    0    0 -0.10671414159E+02  0.38039881025E+01 -0.11641914702E+02  0.16244493946E+02  0.00000000000E+00 0.  1.
</event>
<event>
 8    1  0.2971508E-007  0.9118800E+02  0.7816164E-02  0.1184000E+00
        -11   -1    0    0    0    0  0.00000000000E+00  0.00000000000E+00  0.45593999997E+02  0.45594000000E+02  0.51100000000E-03 0. -1.
         11   -1    0    0    0    0 -0.00000000000E+00 -0.00000000000E+00 -0.45593999997E+02  0.45594000000E+02  0.51100000000E-03 0.  1.
         23    2    1    2    0    0  0.00000000000E+00  0.00000000000E+00  0.00000000000E+00  0.91188000000E+02  0.91188000000E+02 0.  0.
    9900012    2    3    3    0    0 -0.28096371095E+02  0.17852345321E+02  0.15737436413E+02  0.54367092800E+02  0.40000019656E+02 0.  0.
        -12    1    3    3    0    0  0.28096371095E+02 -0.17852345321E+02 -0.15737436413E+02  0.36820907200E+02  0.00000000000E+00 0.  1.
         11    1    4    4    0    0  0.35361256868E+00  0.84441832770E+01 -0.57394009551E+01  0.10216163499E+02  0.51100000000E-03 0.  1.
        -11    1    4    4    0    0 -0.14308525885E+02  0.16851655617E+02  0.89677464517E+01  0.23856501980E+02  0.51100000000E-03 0. -1.
         12    1    4    4    0    0 -0.14141457779E+02 -0.74434935735E+01  0.12509090917E+02  0.20294427320E+02  0.00000000000E+00 0. -1.
</event>
<event>
 8    1  0.2971508E-007  0.9118800E+02  0.7816164E-02  0.1184000E+00
        -11   -1    0    0    0    0  0.00000000000E+00  0.00000000000E+00  0.45593999997E+02  0.45594000000E+02  0.51100000000E-03 0. -1.
         11   -1    0    0    0    0 -0.00000000000E+00 -0.00000000000E+00 -0.45593999997E+02  0.45594000000E+02  0.51100000000E-03 0.  1.
         23    2    1    2    0    0 -0.66613381478E-15  0.00000000000E+00  0.00000000000E+00  0.91188000000E+02  0.91188000000E+02 0.  0.
    9900012    2    3    3    0    0 -0.13395803424E+01  0.17730901874E+02  0.32242772666E+02  0.54367139799E+02  0.40000126800E+02 0.  0.
        -12    1    3    3    0    0  0.13395803424E+01 -0.17730901874E+02 -0.32242772666E+02  0.36820860201E+02  0.00000000000E+00 0.  1.
         11    1    4    4    0    0  0.65680088575E+01  0.16513308664E+02  0.21127936849E+02  0.27608292580E+02  0.51100000000E-03 0. -1.
        -11    1    4    4    0    0 -0.41479288803E+01  0.12012093429E+02  0.75671763228E+01  0.14790465183E+02  0.51100000000E-03 0.  1.
         12    1    4    4    0    0 -0.37596603195E+01 -0.10794500219E+02  0.35476594935E+01  0.11968382037E+02  0.00000000000E+00 0. -1.
</event>
<event>
 8    1  0.2971508E-007  0.9118800E+02  0.7816164E-02  0.1184000E+00
        -11   -1    0    0    0    0  0.00000000000E+00  0.00000000000E+00  0.45593999997E+02  0.45594000000E+02  0.51100000000E-03 0.  1.
         11   -1    0    0    0    0 -0.00000000000E+00 -0.00000000000E+00 -0.45593999997E+02  0.45594000000E+02  0.51100000000E-03 0. -1.
         23    2    1    2    0    0 -0.17763568394E-14 -0.88817841970E-15  0.00000000000E+00  0.91188000000E+02  0.91188000000E+02 0.  0.
    9900012    2    3    3    0    0  0.74659967411E+01 -0.67941996117E+01 -0.35410134696E+02  0.54367083459E+02  0.39999998362E+02 0.  0.
        -12    1    3    3    0    0 -0.74659967411E+01  0.67941996117E+01  0.35410134696E+02  0.36820916541E+02  0.00000000000E+00 0.  1.
         11    1    4    4    0    0 -0.63863652801E+01 -0.15753897559E+02 -0.21660023618E+02  0.27534116532E+02  0.51100000000E-03 0. -1.
        -11    1    4    4    0    0  0.82910540725E+01  0.73967189178E+01  0.83821452257E+00  0.11142514628E+02  0.51100000000E-03 0.  1.
        -12    1    4    4    0    0  0.55613079486E+01  0.15629790294E+01 -0.14588325600E+02  0.15690452300E+02  0.00000000000E+00 0.  1.
</event>
<event>
 8    1  0.2971508E-007  0.9118800E+02  0.7816164E-02  0.1184000E+00
        -11   -1    0    0    0    0  0.00000000000E+00  0.00000000000E+00  0.45593999997E+02  0.45594000000E+02  0.51100000000E-03 0. -1.
         11   -1    0    0    0    0 -0.00000000000E+00 -0.00000000000E+00 -0.45593999997E+02  0.45594000000E+02  0.51100000000E-03 0.  1.
         23    2    1    2    0    0  0.71054273576E-14  0.00000000000E+00  0.00000000000E+00  0.91188000000E+02  0.91188000000E+02 0.  0.
    9900012    2    3    3    0    0 -0.23345739772E+02  0.68029300028E+01 -0.27649151576E+02  0.54367095543E+02  0.40000025910E+02 0.  0.
         12    1    3    3    0    0  0.23345739772E+02 -0.68029300028E+01  0.27649151576E+02  0.36820904457E+02  0.00000000000E+00 0. -1.
         11    1    4    4    0    0 -0.52754112407E+01 -0.10094877738E+02  0.33454140876E+01  0.11871323262E+02  0.51100000000E-03 0. -1.
        -11    1    4    4    0    0 -0.18008085736E+02  0.19457392973E+02 -0.28338338561E+02  0.38806477885E+02  0.51100000000E-03 0.  1.
         12    1    4    4    0    0 -0.62242795178E-01 -0.25595852314E+01 -0.26562271024E+01  0.36892943962E+01  0.00000000000E+00 0. -1.
</event>
<event>
 8    1  0.2971508E-007  0.9118800E+02  0.7816164E-02  0.1184000E+00
        -11   -1    0    0    0    0  0.00000000000E+00  0.00000000000E+00  0.45593999997E+02  0.45594000000E+02  0.51100000000E-03 0. -1.
         11   -1    0    0    0    0 -0.00000000000E+00 -0.00000000000E+00 -0.45593999997E+02  0.45594000000E+02  0.51100000000E-03 0.  1.
         23    2    1    2    0    0  0.00000000000E+00 -0.35527136788E-14 -0.88817841970E-15  0.91188000000E+02  0.91188000000E+02 0.  0.
    9900012    2    3    3    0    0  0.29333478112E+02 -0.21828007572E+02 -0.43434946615E+01  0.54367071188E+02  0.39999970387E+02 0.  0.
        -12    1    3    3    0    0 -0.29333478112E+02  0.21828007572E+02  0.43434946615E+01  0.36820928812E+02  0.00000000000E+00 0.  1.
         11    1    4    4    0    0 -0.78590153954E+00  0.42267483861E+01 -0.26942162387E+01  0.50736421386E+01  0.51100000000E-03 0. -1.
        -11    1    4    4    0    0 -0.20293168760E+00 -0.17269369484E+02 -0.36819424256E+01  0.17658680696E+02  0.51100000000E-03 0.  1.
         12    1    4    4    0    0  0.30322311339E+02 -0.87853864743E+01  0.20326640027E+01  0.31634748354E+02  0.00000000000E+00 0. -1.
</event>
<event>
 8    1  0.2971508E-007  0.9118800E+02  0.7816164E-02  0.1184000E+00
        -11   -1    0    0    0    0  0.00000000000E+00  0.00000000000E+00  0.45593999997E+02  0.45594000000E+02  0.51100000000E-03 0.  1.
         11   -1    0    0    0    0 -0.00000000000E+00 -0.00000000000E+00 -0.45593999997E+02  0.45594000000E+02  0.51100000000E-03 0. -1.
         23    2    1    2    0    0  0.38857805862E-15  0.00000000000E+00 -0.35527136788E-14  0.91188000000E+02  0.91188000000E+02 0.  0.
    9900012    2    3    3    0    0  0.30317415024E+00  0.20551618867E+02 -0.30550264447E+02  0.54367087322E+02  0.40000007168E+02 0.  0.
        -12    1    3    3    0    0 -0.30317415024E+00 -0.20551618867E+02  0.30550264447E+02  0.36820912678E+02  0.00000000000E+00 0.  1.
         11    1    4    4    0    0  0.12174097560E+02  0.84303283607E+01 -0.15319888784E+02  0.21306761375E+02  0.51100000000E-03 0. -1.
        -11    1    4    4    0    0 -0.63777950384E+00  0.47945559261E+01  0.61485502910E+01  0.78229917657E+01  0.51100000000E-03 0.  1.
         12    1    4    4    0    0 -0.11233143906E+02  0.73267345806E+01 -0.21378925955E+02  0.25237334182E+02  0.00000000000E+00 0. -1.
</event>
<event>
 8    1  0.2971508E-007  0.9118800E+02  0.7816164E-02  0.1184000E+00
        -11   -1    0    0    0    0  0.00000000000E+00  0.00000000000E+00  0.45593999997E+02  0.45594000000E+02  0.51100000000E-03 0.  1.
         11   -1    0    0    0    0 -0.00000000000E+00 -0.00000000000E+00 -0.45593999997E+02  0.45594000000E+02  0.51100000000E-03 0. -1.
         23    2    1    2    0    0  0.00000000000E+00  0.00000000000E+00 -0.22204460493E-15  0.91188000000E+02  0.91188000000E+02 0.  0.
    9900012    2    3    3    0    0 -0.36046813110E+02 -0.74903627582E+01 -0.54837412244E+00  0.54367095831E+02  0.40000026567E+02 0.  0.
         12    1    3    3    0    0  0.36046813110E+02  0.74903627582E+01  0.54837412244E+00  0.36820904169E+02  0.00000000000E+00 0. -1.
         11    1    4    4    0    0 -0.14518716931E+02  0.70114568316E+01 -0.35006325709E+01  0.16498730159E+02  0.51100000000E-03 0. -1.
        -11    1    4    4    0    0 -0.16765640043E+02  0.37008892882E+01 -0.43068750402E+01  0.17701198842E+02  0.51100000000E-03 0.  1.
         12    1    4    4    0    0 -0.47624561362E+01 -0.18202708878E+02  0.72591334887E+01  0.20167166830E+02  0.00000000000E+00 0. -1.
</event>
<event>
 8    1  0.2971508E-007  0.9118800E+02  0.7816164E-02  0.1184000E+00
        -11   -1    0    0    0    0  0.00000000000E+00  0.00000000000E+00  0.45593999997E+02  0.45594000000E+02  0.51100000000E-03 0.  1.
         11   -1    0    0    0    0 -0.00000000000E+00 -0.00000000000E+00 -0.45593999997E+02  0.45594000000E+02  0.51100000000E-03 0. -1.
         23    2    1    2    0    0  0.00000000000E+00  0.00000000000E+00 -0.35527136788E-14  0.91188000000E+02  0.91188000000E+02 0.  0.
    9900012    2    3    3    0    0  0.45914847133E+01  0.24562334434E+02  0.27044224493E+02  0.54367080903E+02  0.39999992534E+02 0.  0.
         12    1    3    3    0    0 -0.45914847133E+01 -0.24562334434E+02 -0.27044224493E+02  0.36820919097E+02  0.00000000000E+00 0. -1.
         11    1    4    4    0    0 -0.90541743450E+00 -0.19597385713E+01 -0.84536281683E+01  0.87249175049E+01  0.51100000000E-03 0. -1.
        -11    1    4    4    0    0  0.16309528496E-01  0.17942274834E+02  0.18110334698E+02  0.25493326879E+02  0.51100000000E-03 0.  1.
         12    1    4    4    0    0  0.54805926193E+01  0.85797981718E+01  0.17387517964E+02  0.20148836519E+02  0.00000000000E+00 0. -1.
</event>
<event>
 8    1  0.2971508E-007  0.9118800E+02  0.7816164E-02  0.1184000E+00
        -11   -1    0    0    0    0  0.00000000000E+00  0.00000000000E+00  0.45593999997E+02  0.45594000000E+02  0.51100000000E-03 0.  1.
         11   -1    0    0    0    0 -0.00000000000E+00 -0.00000000000E+00 -0.45593999997E+02  0.45594000000E+02  0.51100000000E-03 0. -1.
         23    2    1    2    0    0 -0.11102230246E-14  0.00000000000E+00  0.35527136788E-14  0.91188000000E+02  0.91188000000E+02 0.  0.
    9900012    2    3    3    0    0 -0.19342948550E+01  0.21562711648E+02  0.29784048040E+02  0.54367061013E+02  0.39999947191E+02 0.  0.
         12    1    3    3    0    0  0.19342948550E+01 -0.21562711648E+02 -0.29784048040E+02  0.36820938987E+02  0.00000000000E+00 0. -1.
         11    1    4    4    0    0 -0.52802354794E+01  0.44742702243E+01  0.11052221895E+01  0.70086729919E+01  0.51100000000E-03 0. -1.
        -11    1    4    4    0    0 -0.12718105805E+02  0.17124564214E+02  0.19243700228E+02  0.28728399077E+02  0.51100000000E-03 0.  1.
         12    1    4    4    0    0  0.16064046430E+02 -0.36122789868E-01  0.94351256224E+01  0.18629988944E+02  0.00000000000E+00 0. -1.
</event>
<event>
 8    1  0.2971508E-007  0.9118800E+02  0.7816164E-02  0.1184000E+00
        -11   -1    0    0    0    0  0.00000000000E+00  0.00000000000E+00  0.45593999997E+02  0.45594000000E+02  0.51100000000E-03 0.  1.
         11   -1    0    0    0    0 -0.00000000000E+00 -0.00000000000E+00 -0.45593999997E+02  0.45594000000E+02  0.51100000000E-03 0. -1.
         23    2    1    2    0    0  0.88817841970E-15  0.00000000000E+00 -0.35527136788E-14  0.91188000000E+02  0.91188000000E+02 0.  0.
    9900012    2    3    3    0    0 -0.59809050298E+01 -0.24408520468E+02 -0.26911598105E+02  0.54367065616E+02  0.39999957684E+02 0.  0.
        -12    1    3    3    0    0  0.59809050298E+01  0.24408520468E+02  0.26911598105E+02  0.36820934384E+02  0.00000000000E+00 0.  1.
         11    1    4    4    0    0 -0.10781661525E+02 -0.11558855130E+02 -0.57125630457E+01  0.16807282171E+02  0.51100000000E-03 0. -1.
        -11    1    4    4    0    0  0.11842575116E+02 -0.14664125560E+02 -0.45476397359E+01  0.19389796060E+02  0.51100000000E-03 0.  1.
        -12    1    4    4    0    0 -0.70418186210E+01  0.18144602224E+01 -0.16651395323E+02  0.18169987385E+02  0.00000000000E+00 0.  1.
</event>
<event>
 8    1  0.2971508E-007  0.9118800E+02  0.7816164E-02  0.1184000E+00
        -11   -1    0    0    0    0  0.00000000000E+00  0.00000000000E+00  0.45593999997E+02  0.45594000000E+02  0.51100000000E-03 0.  1.
         11   -1    0    0    0    0 -0.00000000000E+00 -0.00000000000E+00 -0.45593999997E+02  0.45594000000E+02  0.51100000000E-03 0. -1.
         23    2    1    2    0    0  0.00000000000E+00  0.00000000000E+00 -0.88817841970E-15  0.91188000000E+02  0.91188000000E+02 0.  0.
    9900012    2    3    3    0    0  0.19797046019E+02 -0.30433007594E+02  0.61389960002E+01  0.54367105739E+02  0.40000049153E+02 0.  0.
        -12    1    3    3    0    0 -0.19797046019E+02  0.30433007594E+02 -0.61389960002E+01  0.36820894261E+02  0.00000000000E+00 0.  1.
         11    1    4    4    0    0  0.83568718045E+01 -0.15035497396E+02 -0.95067786193E+01  0.19654066456E+02  0.51100000000E-03 0. -1.
        -11    1    4    4    0    0 -0.30307274315E+01 -0.13790768005E+02  0.14291705299E+02  0.20090381568E+02  0.51100000000E-03 0.  1.
        -12    1    4    4    0    0  0.14470901645E+02 -0.16067421936E+01  0.13540693202E+01  0.14622657714E+02  0.00000000000E+00 0.  1.
</event>
<event>
 8    1  0.2971508E-007  0.9118800E+02  0.7816164E-02  0.1184000E+00
        -11   -1    0    0    0    0  0.00000000000E+00  0.00000000000E+00  0.45593999997E+02  0.45594000000E+02  0.51100000000E-03 0. -1.
         11   -1    0    0    0    0 -0.00000000000E+00 -0.00000000000E+00 -0.45593999997E+02  0.45594000000E+02  0.51100000000E-03 0.  1.
         23    2    1    2    0    0  0.00000000000E+00  0.00000000000E+00  0.35527136788E-14  0.91188000000E+02  0.91188000000E+02 0.  0.
    9900012    2    3    3    0    0 -0.11802687852E+02  0.17344548438E+02 -0.30259588346E+02  0.54367088985E+02  0.40000010960E+02 0.  0.
         12    1    3    3    0    0  0.11802687852E+02 -0.17344548438E+02  0.30259588346E+02  0.36820911015E+02  0.00000000000E+00 0. -1.
         11    1    4    4    0    0 -0.31051737022E+01 -0.12215259489E+02 -0.15663033980E+02  0.20104360269E+02  0.51100000000E-03 0. -1.
        -11    1    4    4    0    0 -0.30011040672E+01  0.91368305716E+01 -0.62884633131E+01  0.11490564373E+02  0.51100000000E-03 0.  1.
         12    1    4    4    0    0 -0.56964100828E+01  0.20422977356E+02 -0.83080910532E+01  0.22772164343E+02  0.00000000000E+00 0. -1.
</event>
<event>
 8    1  0.2971508E-007  0.9118800E+02  0.7816164E-02  0.1184000E+00
        -11   -1    0    0    0    0  0.00000000000E+00  0.00000000000E+00  0.45593999997E+02  0.45594000000E+02  0.51100000000E-03 0.  1.
         11   -1    0    0    0    0 -0.00000000000E+00 -0.00000000000E+00 -0.45593999997E+02  0.45594000000E+02  0.51100000000E-03 0. -1.
         23    2    1    2    0    0  0.00000000000E+00  0.00000000000E+00  0.00000000000E+00  0.91188000000E+02  0.91188000000E+02 0.  0.
    9900012    2    3    3    0    0  0.14481992533E+02 -0.26658678653E+02 -0.20865865768E+02  0.54366842909E+02  0.39999449976E+02 0.  0.
        -12    1    3    3    0    0 -0.14481992533E+02  0.26658678653E+02  0.20865865768E+02  0.36821157091E+02  0.00000000000E+00 0.  1.
         11    1    4    4    0    0 -0.18655454149E+01 -0.10439023036E+02 -0.12021064282E+02  0.16029954722E+02  0.51100000000E-03 0. -1.
        -11    1    4    4    0    0  0.57845542284E+01  0.39729874841E+01  0.75164969162E+01  0.10283162127E+02  0.51100000000E-03 0.  1.
         12    1    4    4    0    0  0.10562983719E+02 -0.20192643102E+02 -0.16361298402E+02  0.28053726061E+02  0.00000000000E+00 0. -1.
</event>
<event>
 8    1  0.2971508E-007  0.9118800E+02  0.7816164E-02  0.1184000E+00
        -11   -1    0    0    0    0  0.00000000000E+00  0.00000000000E+00  0.45593999997E+02  0.45594000000E+02  0.51100000000E-03 0.  1.
         11   -1    0    0    0    0 -0.00000000000E+00 -0.00000000000E+00 -0.45593999997E+02  0.45594000000E+02  0.51100000000E-03 0. -1.
         23    2    1    2    0    0  0.00000000000E+00  0.35527136788E-14  0.35527136788E-14  0.91188000000E+02  0.91188000000E+02 0.  0.
    9900012    2    3    3    0    0  0.79594342846E+01 -0.20604348389E+02 -0.29459928491E+02  0.54367093529E+02  0.40000021319E+02 0.  0.
        -12    1    3    3    0    0 -0.79594342846E+01  0.20604348389E+02  0.29459928491E+02  0.36820906471E+02  0.00000000000E+00 0.  1.
         11    1    4    4    0    0 -0.12818034580E+01 -0.17231584997E+02 -0.15907528562E+02  0.23486592065E+02  0.51100000000E-03 0. -1.
        -11    1    4    4    0    0  0.13885390673E+01 -0.47431191268E+01 -0.20016493130E+02  0.20617594847E+02  0.51100000000E-03 0.  1.
        -12    1    4    4    0    0  0.78526986752E+01  0.13703557349E+01  0.64640932015E+01  0.10262906618E+02  0.00000000000E+00 0.  1.
</event>
<event>
 8    1  0.2971508E-007  0.9118800E+02  0.7816164E-02  0.1184000E+00
        -11   -1    0    0    0    0  0.00000000000E+00  0.00000000000E+00  0.45593999997E+02  0.45594000000E+02  0.51100000000E-03 0.  1.
         11   -1    0    0    0    0 -0.00000000000E+00 -0.00000000000E+00 -0.45593999997E+02  0.45594000000E+02  0.51100000000E-03 0. -1.
         23    2    1    2    0    0  0.71054273576E-14  0.00000000000E+00  0.00000000000E+00  0.91188000000E+02  0.91188000000E+02 0.  0.
    9900012    2    3    3    0    0  0.34486493563E+02 -0.34729314154E+01  0.12425860910E+02  0.54367061524E+02  0.39999948357E+02 0.  0.
         12    1    3    3    0    0 -0.34486493563E+02  0.34729314154E+01 -0.12425860910E+02  0.36820938476E+02  0.00000000000E+00 0. -1.
         11    1    4    4    0    0 -0.22703762913E+01 -0.43637471666E+01  0.13090971375E+01  0.50902488559E+01  0.51100000000E-03 0. -1.
        -11    1    4    4    0    0  0.30617647009E+01 -0.51873409046E+01 -0.80376421987E+01  0.10044232231E+02  0.51100000000E-03 0.  1.
        -12    1    4    4    0    0  0.33695105153E+02  0.60781566558E+01  0.19154405971E+02  0.39232580437E+02  0.00000000000E+00 0.  1.
</event>
<event>
 8    1  0.2971508E-007  0.9118800E+02  0.7816164E-02  0.1184000E+00
        -11   -1    0    0    0    0  0.00000000000E+00  0.00000000000E+00  0.45593999997E+02  0.45594000000E+02  0.51100000000E-03 0.  1.
         11   -1    0    0    0    0 -0.00000000000E+00 -0.00000000000E+00 -0.45593999997E+02  0.45594000000E+02  0.51100000000E-03 0. -1.
         23    2    1    2    0    0 -0.35527136788E-14  0.00000000000E+00  0.00000000000E+00  0.91188000000E+02  0.91188000000E+02 0.  0.
    9900012    2    3    3    0    0  0.24542290112E+02  0.20043901754E+02 -0.18753616384E+02  0.54367080281E+02  0.39999991116E+02 0.  0.
        -12    1    3    3    0    0 -0.24542290112E+02 -0.20043901754E+02  0.18753616384E+02  0.36820919719E+02  0.00000000000E+00 0.  1.
         11    1    4    4    0    0  0.89327873902E+01  0.14352155497E+01 -0.17486518976E+02  0.19688394561E+02  0.51100000000E-03 0. -1.
        -11    1    4    4    0    0  0.11064762826E+02  0.92389715381E+00 -0.95341415393E+01  0.14634972412E+02  0.51100000000E-03 0.  1.
        -12    1    4    4    0    0  0.45447398958E+01  0.17684789051E+02  0.82670441313E+01  0.20043713307E+02  0.00000000000E+00 0.  1.
</event>
<event>
 8    1  0.2971508E-007  0.9118800E+02  0.7816164E-02  0.1184000E+00
        -11   -1    0    0    0    0  0.00000000000E+00  0.00000000000E+00  0.45593999997E+02  0.45594000000E+02  0.51100000000E-03 0. -1.
         11   -1    0    0    0    0 -0.00000000000E+00 -0.00000000000E+00 -0.45593999997E+02  0.45594000000E+02  0.51100000000E-03 0.  1.
         23    2    1    2    0    0  0.88817841970E-15  0.00000000000E+00  0.00000000000E+00  0.91188000000E+02  0.91188000000E+02 0.  0.
    9900012    2    3    3    0    0 -0.61241917142E+01 -0.14910924665E+02  0.33104962622E+02  0.54367082728E+02  0.39999996695E+02 0.  0.
        -12    1    3    3    0    0  0.61241917142E+01  0.14910924665E+02 -0.33104962622E+02  0.36820917272E+02  0.00000000000E+00 0.  1.
         11    1    4    4    0    0 -0.12068901540E+02 -0.13118350017E+02  0.20665828076E+02  0.27291499444E+02  0.51100000000E-03 0. -1.
        -11    1    4    4    0    0  0.71249055778E+01 -0.14539891702E+01 -0.54856316703E+01  0.91088154599E+01  0.51100000000E-03 0.  1.
         12    1    4    4    0    0 -0.11801957518E+01 -0.33858547794E+00  0.17924766216E+02  0.17966767824E+02  0.00000000000E+00 0. -1.
</event>
<event>
 8    1  0.2971508E-007  0.9118800E+02  0.7816164E-02  0.1184000E+00
        -11   -1    0    0    0    0  0.00000000000E+00  0.00000000000E+00  0.45593999997E+02  0.45594000000E+02  0.51100000000E-03 0.  1.
         11   -1    0    0    0    0 -0.00000000000E+00 -0.00000000000E+00 -0.45593999997E+02  0.45594000000E+02  0.51100000000E-03 0. -1.
         23    2    1    2    0    0 -0.71054273576E-14  0.00000000000E+00  0.44408920985E-15  0.91188000000E+02  0.91188000000E+02 0.  0.
    9900012    2    3    3    0    0  0.14463909876E+02 -0.33677642299E+02 -0.35202444604E+01  0.54367076590E+02  0.39999982702E+02 0.  0.
         12    1    3    3    0    0 -0.14463909876E+02  0.33677642299E+02  0.35202444604E+01  0.36820923410E+02  0.00000000000E+00 0. -1.
         11    1    4    4    0    0  0.23686061966E+02 -0.14133368662E+02 -0.56293161695E+01  0.28150858637E+02  0.51100000000E-03 0.  1.
        -11    1    4    4    0    0 -0.99518542024E+00 -0.15515666723E+02  0.54358841561E+01  0.16470432438E+02  0.51100000000E-03 0. -1.
         12    1    4    4    0    0 -0.82269666695E+01 -0.40286069135E+01 -0.33268124471E+01  0.97457855149E+01  0.00000000000E+00 0. -1.
</event>
<event>
 8    1  0.2971508E-007  0.9118800E+02  0.7816164E-02  0.1184000E+00
        -11   -1    0    0    0    0  0.00000000000E+00  0.00000000000E+00  0.45593999997E+02  0.45594000000E+02  0.51100000000E-03 0. -1.
         11   -1    0    0    0    0 -0.00000000000E+00 -0.00000000000E+00 -0.45593999997E+02  0.45594000000E+02  0.51100000000E-03 0.  1.
         23    2    1    2    0    0  0.00000000000E+00  0.00000000000E+00  0.00000000000E+00  0.91188000000E+02  0.91188000000E+02 0.  0.
    9900012    2    3    3    0    0 -0.23728054118E+02 -0.21035566732E+02  0.18715401603E+02  0.54367056542E+02  0.39999937000E+02 0.  0.
        -12    1    3    3    0    0  0.23728054118E+02  0.21035566732E+02 -0.18715401603E+02  0.36820943458E+02  0.00000000000E+00 0.  1.
         11    1    4    4    0    0 -0.59414033469E+01 -0.14649425208E+02  0.21884121970E+02  0.26996679931E+02  0.51100000000E-03 0. -1.
        -11    1    4    4    0    0 -0.77513476138E+01  0.31374930507E+01 -0.90635655769E+01  0.12331888489E+02  0.51100000000E-03 0.  1.
        -12    1    4    4    0    0 -0.10035303157E+02 -0.95236345747E+01  0.58948452104E+01  0.15038488123E+02  0.00000000000E+00 0.  1.
</event>
<event>
 8    1  0.2971508E-007  0.9118800E+02  0.7816164E-02  0.1184000E+00
        -11   -1    0    0    0    0  0.00000000000E+00  0.00000000000E+00  0.45593999997E+02  0.45594000000E+02  0.51100000000E-03 0. -1.
         11   -1    0    0    0    0 -0.00000000000E+00 -0.00000000000E+00 -0.45593999997E+02  0.45594000000E+02  0.51100000000E-03 0.  1.
         23    2    1    2    0    0  0.00000000000E+00  0.00000000000E+00 -0.35527136788E-14  0.91188000000E+02  0.91188000000E+02 0.  0.
    9900012    2    3    3    0    0 -0.20126633998E+02  0.18876477153E+02 -0.24379835655E+02  0.54367093271E+02  0.40000020729E+02 0.  0.
         12    1    3    3    0    0  0.20126633998E+02 -0.18876477153E+02  0.24379835655E+02  0.36820906729E+02  0.00000000000E+00 0. -1.
         11    1    4    4    0    0 -0.18441483418E+02  0.63995646255E+01 -0.16611481122E+02  0.25631699971E+02  0.51100000000E-03 0. -1.
        -11    1    4    4    0    0  0.89283189510E+01  0.14151225199E+02 -0.30851603406E+01  0.17014413552E+02  0.51100000000E-03 0.  1.
         12    1    4    4    0    0 -0.10613469531E+02 -0.16743126715E+01 -0.46831941921E+01  0.11720979748E+02  0.00000000000E+00 0. -1.
</event>
<event>
 8    1  0.2971508E-007  0.9118800E+02  0.7816164E-02  0.1184000E+00
        -11   -1    0    0    0    0  0.00000000000E+00  0.00000000000E+00  0.45593999997E+02  0.45594000000E+02  0.51100000000E-03 0.  1.
         11   -1    0    0    0    0 -0.00000000000E+00 -0.00000000000E+00 -0.45593999997E+02  0.45594000000E+02  0.51100000000E-03 0. -1.
         23    2    1    2    0    0  0.00000000000E+00  0.00000000000E+00  0.00000000000E+00  0.91188000000E+02  0.91188000000E+02 0.  0.
    9900012    2    3    3    0    0  0.12937374256E+02 -0.12669447807E+02 -0.32060641877E+02  0.54367145611E+02  0.40000140049E+02 0.  0.
        -12    1    3    3    0    0 -0.12937374256E+02  0.12669447807E+02  0.32060641877E+02  0.36820854389E+02  0.00000000000E+00 0.  1.
         11    1    4    4    0    0  0.15479399150E+02 -0.17968739282E+02 -0.12993493187E+02  0.27042896570E+02  0.51100000000E-03 0. -1.
        -11    1    4    4    0    0  0.24318619915E+01 -0.18308273403E+01 -0.18350428619E+02  0.18601185776E+02  0.51100000000E-03 0.  1.
        -12    1    4    4    0    0 -0.49738868857E+01  0.71301188154E+01 -0.71672007090E+00  0.87230632655E+01  0.00000000000E+00 0.  1.
</event>
<event>
 8    1  0.2971508E-007  0.9118800E+02  0.7816164E-02  0.1184000E+00
        -11   -1    0    0    0    0  0.00000000000E+00  0.00000000000E+00  0.45593999997E+02  0.45594000000E+02  0.51100000000E-03 0. -1.
         11   -1    0    0    0    0 -0.00000000000E+00 -0.00000000000E+00 -0.45593999997E+02  0.45594000000E+02  0.51100000000E-03 0.  1.
         23    2    1    2    0    0  0.00000000000E+00  0.15265566589E-14  0.00000000000E+00  0.91188000000E+02  0.91188000000E+02 0.  0.
    9900012    2    3    3    0    0  0.15158986525E+02 -0.12831336648E+00  0.33555459473E+02  0.54367079354E+02  0.39999989002E+02 0.  0.
        -12    1    3    3    0    0 -0.15158986525E+02  0.12831336648E+00 -0.33555459473E+02  0.36820920646E+02  0.00000000000E+00 0.  1.
         11    1    4    4    0    0  0.29700527286E+01  0.67644214916E+01 -0.48919025978E+01  0.88605486633E+01  0.51100000000E-03 0. -1.
        -11    1    4    4    0    0 -0.53335340631E+01 -0.11585746945E+01  0.12846200634E+02  0.13957569700E+02  0.51100000000E-03 0.  1.
         12    1    4    4    0    0  0.17522467860E+02 -0.57341601637E+01  0.25601161437E+02  0.31548960991E+02  0.00000000000E+00 0. -1.
</event>
<event>
 8    1  0.2971508E-007  0.9118800E+02  0.7816164E-02  0.1184000E+00
        -11   -1    0    0    0    0  0.00000000000E+00  0.00000000000E+00  0.45593999997E+02  0.45594000000E+02  0.51100000000E-03 0. -1.
         11   -1    0    0    0    0 -0.00000000000E+00 -0.00000000000E+00 -0.45593999997E+02  0.45594000000E+02  0.51100000000E-03 0.  1.
         23    2    1    2    0    0  0.00000000000E+00  0.88817841970E-15  0.00000000000E+00  0.91188000000E+02  0.91188000000E+02 0.  0.
    9900012    2    3    3    0    0  0.54544283064E+01 -0.56799184705E+01  0.35968967565E+02  0.54367097109E+02  0.40000029480E+02 0.  0.
        -12    1    3    3    0    0 -0.54544283064E+01  0.56799184705E+01 -0.35968967565E+02  0.36820902891E+02  0.00000000000E+00 0.  1.
         11    1    4    4    0    0 -0.39275987418E+01  0.13947815803E+02  0.32749302832E+01  0.14855731762E+02  0.51100000000E-03 0. -1.
        -11    1    4    4    0    0  0.95976158148E+01 -0.16917502179E+02  0.29180477304E+02  0.35068737720E+02  0.51100000000E-03 0.  1.
        -12    1    4    4    0    0 -0.21558876658E+00 -0.27102320941E+01  0.35135599777E+01  0.44426276276E+01  0.00000000000E+00 0.  1.
</event>
<event>
 8    1  0.2971508E-007  0.9118800E+02  0.7816164E-02  0.1184000E+00
        -11   -1    0    0    0    0  0.00000000000E+00  0.00000000000E+00  0.45593999997E+02  0.45594000000E+02  0.51100000000E-03 0. -1.
         11   -1    0    0    0    0 -0.00000000000E+00 -0.00000000000E+00 -0.45593999997E+02  0.45594000000E+02  0.51100000000E-03 0.  1.
         23    2    1    2    0    0  0.00000000000E+00 -0.71054273576E-14 -0.44408920985E-15  0.91188000000E+02  0.91188000000E+02 0.  0.
    9900012    2    3    3    0    0  0.35033108336E+01 -0.36579046786E+02 -0.23411398989E+01  0.54367071351E+02  0.39999970758E+02 0.  0.
         12    1    3    3    0    0 -0.35033108336E+01  0.36579046786E+02  0.23411398989E+01  0.36820928649E+02  0.00000000000E+00 0. -1.
         11    1    4    4    0    0 -0.35572523858E+01  0.60288937405E+01  0.39833518350E+01  0.80541105265E+01  0.51100000000E-03 0. -1.
        -11    1    4    4    0    0 -0.47822084426E+01 -0.15674339089E+02 -0.10462969079E+01  0.16420997562E+02  0.51100000000E-03 0.  1.
         12    1    4    4    0    0  0.11842771662E+02 -0.26933601438E+02 -0.52781948260E+01  0.29891963262E+02  0.00000000000E+00 0. -1.
</event>
<event>
 8    1  0.2971508E-007  0.9118800E+02  0.7816164E-02  0.1184000E+00
        -11   -1    0    0    0    0  0.00000000000E+00  0.00000000000E+00  0.45593999997E+02  0.45594000000E+02  0.51100000000E-03 0. -1.
         11   -1    0    0    0    0 -0.00000000000E+00 -0.00000000000E+00 -0.45593999997E+02  0.45594000000E+02  0.51100000000E-03 0.  1.
         23    2    1    2    0    0  0.17763568394E-14 -0.35527136788E-14  0.17763568394E-14  0.91188000000E+02  0.91188000000E+02 0.  0.
    9900012    2    3    3    0    0 -0.15672493357E+02 -0.29941319400E+02 -0.14617436032E+02  0.54367094368E+02  0.40000023231E+02 0.  0.
         12    1    3    3    0    0  0.15672493357E+02  0.29941319400E+02  0.14617436032E+02  0.36820905632E+02  0.00000000000E+00 0. -1.
         11    1    4    4    0    0 -0.72411422719E+01 -0.11582702710E+02 -0.42011432412E+01  0.14291352220E+02  0.51100000000E-03 0. -1.
        -11    1    4    4    0    0 -0.13661796220E+02  0.20614092558E+01 -0.12834981673E+02  0.18858176977E+02  0.51100000000E-03 0.  1.
         12    1    4    4    0    0  0.52304451353E+01 -0.20420025945E+02  0.24186888818E+01  0.21217565172E+02  0.00000000000E+00 0. -1.
</event>
<event>
 8    1  0.2971508E-007  0.9118800E+02  0.7816164E-02  0.1184000E+00
        -11   -1    0    0    0    0  0.00000000000E+00  0.00000000000E+00  0.45593999997E+02  0.45594000000E+02  0.51100000000E-03 0. -1.
         11   -1    0    0    0    0 -0.00000000000E+00 -0.00000000000E+00 -0.45593999997E+02  0.45594000000E+02  0.51100000000E-03 0.  1.
         23    2    1    2    0    0  0.00000000000E+00  0.00000000000E+00 -0.35527136788E-14  0.91188000000E+02  0.91188000000E+02 0.  0.
    9900012    2    3    3    0    0  0.25613753493E+01  0.29148053002E+02 -0.22351969836E+02  0.54367079411E+02  0.39999989133E+02 0.  0.
         12    1    3    3    0    0 -0.25613753493E+01 -0.29148053002E+02  0.22351969836E+02  0.36820920589E+02  0.00000000000E+00 0. -1.
         11    1    4    4    0    0 -0.10261244609E+01 -0.73342913025E+01 -0.58898126158E+01  0.94622752671E+01  0.51100000000E-03 0. -1.
        -11    1    4    4    0    0  0.70262360128E+01  0.12730372388E+02 -0.14953917703E+02  0.20857852923E+02  0.51100000000E-03 0.  1.
         12    1    4    4    0    0 -0.34387362026E+01  0.23751971916E+02 -0.15082395176E+01  0.24046951221E+02  0.00000000000E+00 0. -1.
</event>
<event>
 8    1  0.2971508E-007  0.9118800E+02  0.7816164E-02  0.1184000E+00
        -11   -1    0    0    0    0  0.00000000000E+00  0.00000000000E+00  0.45593999997E+02  0.45594000000E+02  0.51100000000E-03 0. -1.
         11   -1    0    0    0    0 -0.00000000000E+00 -0.00000000000E+00 -0.45593999997E+02  0.45594000000E+02  0.51100000000E-03 0.  1.
         23    2    1    2    0    0  0.00000000000E+00 -0.17763568394E-14 -0.88817841970E-15  0.91188000000E+02  0.91188000000E+02 0.  0.
    9900012    2    3    3    0    0  0.34415391865E+02  0.12168442681E+02  0.48260277075E+01  0.54367072011E+02  0.39999972264E+02 0.  0.
         12    1    3    3    0    0 -0.34415391865E+02 -0.12168442681E+02 -0.48260277075E+01  0.36820927989E+02  0.00000000000E+00 0. -1.
         11    1    4    4    0    0  0.15032750368E+02 -0.33157968665E+01  0.12261401846E+02  0.19680448877E+02  0.51100000000E-03 0. -1.
        -11    1    4    4    0    0  0.80371576793E+00  0.10553787165E+02  0.50891970238E+01  0.11744288363E+02  0.51100000000E-03 0.  1.
        -12    1    4    4    0    0  0.18578925729E+02  0.49304523828E+01 -0.12524571162E+02  0.22942334771E+02  0.00000000000E+00 0.  1.
</event>
<event>
 8    1  0.2971508E-007  0.9118800E+02  0.7816164E-02  0.1184000E+00
        -11   -1    0    0    0    0  0.00000000000E+00  0.00000000000E+00  0.45593999997E+02  0.45594000000E+02  0.51100000000E-03 0. -1.
         11   -1    0    0    0    0 -0.00000000000E+00 -0.00000000000E+00 -0.45593999997E+02  0.45594000000E+02  0.51100000000E-03 0.  1.
         23    2    1    2    0    0 -0.71054273576E-14  0.00000000000E+00 -0.22204460493E-15  0.91188000000E+02  0.91188000000E+02 0.  0.
    9900012    2    3    3    0    0  0.34608556264E+02 -0.12490231637E+02 -0.14210451981E+01  0.54367117033E+02  0.40000074900E+02 0.  0.
        -12    1    3    3    0    0 -0.34608556264E+02  0.12490231637E+02  0.14210451981E+01  0.36820882967E+02  0.00000000000E+00 0.  1.
         11    1    4    4    0    0  0.27745306372E+01 -0.43154639866E+01  0.69268406328E+01  0.86198823130E+01  0.51100000000E-03 0. -1.
        -11    1    4    4    0    0  0.24764905399E+02 -0.64409446445E+01  0.88472057083E+01  0.27075068909E+02  0.51100000000E-03 0.  1.
        -12    1    4    4    0    0  0.70691202278E+01 -0.17338230060E+01 -0.17195091539E+02  0.18672165810E+02  0.00000000000E+00 0.  1.
</event>
<event>
 8    1  0.2971508E-007  0.9118800E+02  0.7816164E-02  0.1184000E+00
        -11   -1    0    0    0    0  0.00000000000E+00  0.00000000000E+00  0.45593999997E+02  0.45594000000E+02  0.51100000000E-03 0.  1.
         11   -1    0    0    0    0 -0.00000000000E+00 -0.00000000000E+00 -0.45593999997E+02  0.45594000000E+02  0.51100000000E-03 0. -1.
         23    2    1    2    0    0  0.00000000000E+00 -0.35527136788E-14  0.88817841970E-15  0.91188000000E+02  0.91188000000E+02 0.  0.
    9900012    2    3    3    0    0  0.31356388704E+02  0.17602106156E+02 -0.79197701440E+01  0.54367081858E+02  0.39999994712E+02 0.  0.
         12    1    3    3    0    0 -0.31356388704E+02 -0.17602106156E+02  0.79197701440E+01  0.36820918142E+02  0.00000000000E+00 0. -1.
         11    1    4    4    0    0  0.11788480333E+02  0.16349119691E+02  0.79634611536E-01  0.20156098957E+02  0.51100000000E-03 0. -1.
        -11    1    4    4    0    0 -0.43907907694E+01  0.72264964278E+01 -0.81579286155E+00  0.84951052057E+01  0.51100000000E-03 0.  1.
         12    1    4    4    0    0  0.23958699141E+02 -0.59735099633E+01 -0.71836118940E+01  0.25715877695E+02  0.00000000000E+00 0. -1.
</event>
<event>
 8    1  0.2971508E-007  0.9118800E+02  0.7816164E-02  0.1184000E+00
        -11   -1    0    0    0    0  0.00000000000E+00  0.00000000000E+00  0.45593999997E+02  0.45594000000E+02  0.51100000000E-03 0.  1.
         11   -1    0    0    0    0 -0.00000000000E+00 -0.00000000000E+00 -0.45593999997E+02  0.45594000000E+02  0.51100000000E-03 0. -1.
         23    2    1    2    0    0  0.88817841970E-15 -0.13322676296E-14  0.00000000000E+00  0.91188000000E+02  0.91188000000E+02 0.  0.
    9900012    2    3    3    0    0  0.33839902190E+01  0.39509864860E+01 -0.36451589558E+02  0.54367081145E+02  0.39999993087E+02 0.  0.
        -12    1    3    3    0    0 -0.33839902190E+01 -0.39509864860E+01  0.36451589558E+02  0.36820918855E+02  0.00000000000E+00 0.  1.
         11    1    4    4    0    0  0.42328825309E+01 -0.10983174559E+01 -0.75778442516E+01  0.87491325008E+01  0.51100000000E-03 0. -1.
        -11    1    4    4    0    0  0.69569153888E+01 -0.65689184746E+01 -0.30083893599E+02  0.31568813978E+02  0.51100000000E-03 0.  1.
        -12    1    4    4    0    0 -0.78058077006E+01  0.11618222417E+02  0.12101482930E+01  0.14049134666E+02  0.00000000000E+00 0.  1.
</event>
<event>
 8    1  0.2971508E-007  0.9118800E+02  0.7816164E-02  0.1184000E+00
        -11   -1    0    0    0    0  0.00000000000E+00  0.00000000000E+00  0.45593999997E+02  0.45594000000E+02  0.51100000000E-03 0. -1.
         11   -1    0    0    0    0 -0.00000000000E+00 -0.00000000000E+00 -0.45593999997E+02  0.45594000000E+02  0.51100000000E-03 0.  1.
         23    2    1    2    0    0  0.00000000000E+00 -0.44408920985E-15  0.00000000000E+00  0.91188000000E+02  0.91188000000E+02 0.  0.
    9900012    2    3    3    0    0  0.36623774644E+02 -0.22465756881E+01 -0.30709974688E+01  0.54367095653E+02  0.40000026159E+02 0.  0.
        -12    1    3    3    0    0 -0.36623774644E+02  0.22465756881E+01  0.30709974688E+01  0.36820904347E+02  0.00000000000E+00 0.  1.
         11    1    4    4    0    0  0.88349499255E+00 -0.15689922457E+01  0.72859400797E+01  0.75051464459E+01  0.51100000000E-03 0. -1.
        -11    1    4    4    0    0  0.32696174443E+02 -0.37529695496E+01  0.27825406577E+01  0.33028277830E+02  0.51100000000E-03 0.  1.
        -12    1    4    4    0    0  0.30441052087E+01  0.30753861072E+01 -0.13139478206E+02  0.13833671377E+02  0.00000000000E+00 0.  1.
</event>
<event>
 8    1  0.2971508E-007  0.9118800E+02  0.7816164E-02  0.1184000E+00
        -11   -1    0    0    0    0  0.00000000000E+00  0.00000000000E+00  0.45593999997E+02  0.45594000000E+02  0.51100000000E-03 0.  1.
         11   -1    0    0    0    0 -0.00000000000E+00 -0.00000000000E+00 -0.45593999997E+02  0.45594000000E+02  0.51100000000E-03 0. -1.
         23    2    1    2    0    0 -0.35527136788E-14  0.35527136788E-14  0.00000000000E+00  0.91188000000E+02  0.91188000000E+02 0.  0.
    9900012    2    3    3    0    0 -0.20035235127E+02  0.29268106593E+02 -0.98867198755E+01  0.54367082847E+02  0.39999996965E+02 0.  0.
         12    1    3    3    0    0  0.20035235127E+02 -0.29268106593E+02  0.98867198755E+01  0.36820917153E+02  0.00000000000E+00 0. -1.
         11    1    4    4    0    0 -0.30427435166E+02  0.13320465899E+02 -0.81941459242E+01  0.34211221116E+02  0.51100000000E-03 0. -1.
        -11    1    4    4    0    0  0.48051058515E+01  0.47019174386E+01  0.20919143478E+01  0.70408220928E+01  0.51100000000E-03 0.  1.
         12    1    4    4    0    0  0.55870941882E+01  0.11245723256E+02 -0.37844882991E+01  0.13115039638E+02  0.00000000000E+00 0. -1.
</event>
<event>
 8    1  0.2971508E-007  0.9118800E+02  0.7816164E-02  0.1184000E+00
        -11   -1    0    0    0    0  0.00000000000E+00  0.00000000000E+00  0.45593999997E+02  0.45594000000E+02  0.51100000000E-03 0. -1.
         11   -1    0    0    0    0 -0.00000000000E+00 -0.00000000000E+00 -0.45593999997E+02  0.45594000000E+02  0.51100000000E-03 0.  1.
         23    2    1    2    0    0  0.17763568394E-14  0.35527136788E-14  0.00000000000E+00  0.91188000000E+02  0.91188000000E+02 0.  0.
    9900012    2    3    3    0    0 -0.11917245737E+02 -0.17280193223E+02 -0.30251526705E+02  0.54367072639E+02  0.39999973694E+02 0.  0.
         12    1    3    3    0    0  0.11917245737E+02  0.17280193223E+02  0.30251526705E+02  0.36820927361E+02  0.00000000000E+00 0. -1.
         11    1    4    4    0    0 -0.24203622545E+01 -0.13995161812E+02 -0.35691530451E+02  0.38413644110E+02  0.51100000000E-03 0. -1.
        -11    1    4    4    0    0  0.68014009028E-02 -0.52378680791E+01  0.12492030247E+01  0.53847763864E+01  0.51100000000E-03 0.  1.
         12    1    4    4    0    0 -0.95036848839E+01  0.19528366683E+01  0.41908007217E+01  0.10568652143E+02  0.00000000000E+00 0. -1.
</event>
<event>
 8    1  0.2971508E-007  0.9118800E+02  0.7816164E-02  0.1184000E+00
        -11   -1    0    0    0    0  0.00000000000E+00  0.00000000000E+00  0.45593999997E+02  0.45594000000E+02  0.51100000000E-03 0.  1.
         11   -1    0    0    0    0 -0.00000000000E+00 -0.00000000000E+00 -0.45593999997E+02  0.45594000000E+02  0.51100000000E-03 0. -1.
         23    2    1    2    0    0  0.00000000000E+00  0.00000000000E+00  0.00000000000E+00  0.91188000000E+02  0.91188000000E+02 0.  0.
    9900012    2    3    3    0    0  0.20650526328E+02 -0.24238694495E+02 -0.18488419177E+02  0.54367079423E+02  0.39999989161E+02 0.  0.
        -12    1    3    3    0    0 -0.20650526328E+02  0.24238694495E+02  0.18488419177E+02  0.36820920577E+02  0.00000000000E+00 0.  1.
         11    1    4    4    0    0  0.28168709507E+01  0.54986123159E+01  0.55225908000E+00  0.62027808043E+01  0.51100000000E-03 0.  1.
        -11    1    4    4    0    0  0.75758911969E+01 -0.32179028365E+02 -0.17802512363E+02  0.37547482481E+02  0.51100000000E-03 0. -1.
         12    1    4    4    0    0  0.10257764181E+02  0.24417215542E+01 -0.12381658940E+01  0.10616816138E+02  0.00000000000E+00 0. -1.
</event>
<event>
 8    1  0.2971508E-007  0.9118800E+02  0.7816164E-02  0.1184000E+00
        -11   -1    0    0    0    0  0.00000000000E+00  0.00000000000E+00  0.45593999997E+02  0.45594000000E+02  0.51100000000E-03 0. -1.
         11   -1    0    0    0    0 -0.00000000000E+00 -0.00000000000E+00 -0.45593999997E+02  0.45594000000E+02  0.51100000000E-03 0.  1.
         23    2    1    2    0    0  0.71054273576E-14 -0.17763568394E-14  0.11102230246E-15  0.91188000000E+02  0.91188000000E+02 0.  0.
    9900012    2    3    3    0    0  0.34982283642E+02 -0.11469342218E+02 -0.68709119131E+00  0.54367108185E+02  0.40000054729E+02 0.  0.
         12    1    3    3    0    0 -0.34982283642E+02  0.11469342218E+02  0.68709119131E+00  0.36820891815E+02  0.00000000000E+00 0. -1.
         11    1    4    4    0    0 -0.58314340326E+00 -0.56099322390E+01  0.76703844461E+01  0.95208294684E+01  0.51100000000E-03 0. -1.
        -11    1    4    4    0    0  0.67824830039E+01 -0.11780522369E+01 -0.13576229757E+02  0.15221823066E+02  0.51100000000E-03 0.  1.
        -12    1    4    4    0    0  0.28782944042E+02 -0.46813577419E+01  0.52187541201E+01  0.29624455650E+02  0.00000000000E+00 0.  1.
</event>
<event>
 8    1  0.2971508E-007  0.9118800E+02  0.7816164E-02  0.1184000E+00
        -11   -1    0    0    0    0  0.00000000000E+00  0.00000000000E+00  0.45593999997E+02  0.45594000000E+02  0.51100000000E-03 0.  1.
         11   -1    0    0    0    0 -0.00000000000E+00 -0.00000000000E+00 -0.45593999997E+02  0.45594000000E+02  0.51100000000E-03 0. -1.
         23    2    1    2    0    0 -0.81878948066E-15  0.35527136788E-14  0.35527136788E-14  0.91188000000E+02  0.91188000000E+02 0.  0.
    9900012    2    3    3    0    0 -0.46245642297E-01  0.28717239299E+02  0.23045551913E+02  0.54367089710E+02  0.40000012612E+02 0.  0.
         12    1    3    3    0    0  0.46245642297E-01 -0.28717239299E+02 -0.23045551913E+02  0.36820910290E+02  0.00000000000E+00 0. -1.
         11    1    4    4    0    0 -0.58839316837E+01 -0.24994671662E+01  0.11808113222E+02  0.13427565911E+02  0.51100000000E-03 0.  1.
        -11    1    4    4    0    0  0.10878494984E+02  0.31483268363E+02  0.63427148018E+01  0.33908227191E+02  0.51100000000E-03 0. -1.
         12    1    4    4    0    0 -0.50408089427E+01 -0.26656189705E+00  0.48947238889E+01  0.70312966081E+01  0.00000000000E+00 0. -1.
</event>
<event>
 8    1  0.2971508E-007  0.9118800E+02  0.7816164E-02  0.1184000E+00
        -11   -1    0    0    0    0  0.00000000000E+00  0.00000000000E+00  0.45593999997E+02  0.45594000000E+02  0.51100000000E-03 0. -1.
         11   -1    0    0    0    0 -0.00000000000E+00 -0.00000000000E+00 -0.45593999997E+02  0.45594000000E+02  0.51100000000E-03 0.  1.
         23    2    1    2    0    0  0.00000000000E+00 -0.17763568394E-14  0.00000000000E+00  0.91188000000E+02  0.91188000000E+02 0.  0.
    9900012    2    3    3    0    0 -0.33214574442E+01 -0.11122284799E+02 -0.34943467116E+02  0.54367038676E+02  0.39999896270E+02 0.  0.
         12    1    3    3    0    0  0.33214574442E+01  0.11122284799E+02  0.34943467116E+02  0.36820961324E+02  0.00000000000E+00 0. -1.
         11    1    4    4    0    0 -0.33353207888E+01  0.83132389752E+01 -0.50296904447E+01  0.10272881448E+02  0.51100000000E-03 0. -1.
        -11    1    4    4    0    0 -0.25258199223E+01 -0.25053823206E+02 -0.27957191292E+02  0.37625501574E+02  0.51100000000E-03 0.  1.
        -12    1    4    4    0    0  0.25396832669E+01  0.56182994328E+01 -0.19565853799E+01  0.64686556534E+01  0.00000000000E+00 0.  1.
</event>
<event>
 8    1  0.2971508E-007  0.9118800E+02  0.7816164E-02  0.1184000E+00
        -11   -1    0    0    0    0  0.00000000000E+00  0.00000000000E+00  0.45593999997E+02  0.45594000000E+02  0.51100000000E-03 0. -1.
         11   -1    0    0    0    0 -0.00000000000E+00 -0.00000000000E+00 -0.45593999997E+02  0.45594000000E+02  0.51100000000E-03 0.  1.
         23    2    1    2    0    0  0.00000000000E+00 -0.35527136788E-14  0.00000000000E+00  0.91188000000E+02  0.91188000000E+02 0.  0.
    9900012    2    3    3    0    0  0.19860705896E+02  0.25800739431E+02  0.17194871048E+02  0.54366954602E+02  0.39999704604E+02 0.  0.
        -12    1    3    3    0    0 -0.19860705896E+02 -0.25800739431E+02 -0.17194871048E+02  0.36821045398E+02  0.00000000000E+00 0.  1.
         11    1    4    4    0    0  0.13534503150E+01  0.73932505209E+01 -0.12088530548E+01  0.76127069423E+01  0.51100000000E-03 0.  1.
        -11    1    4    4    0    0 -0.20167098100E+01 -0.64839920804E+01 -0.36170060297E+01  0.76936340332E+01  0.51100000000E-03 0. -1.
         12    1    4    4    0    0  0.20523965391E+02  0.24891480991E+02  0.22020730132E+02  0.39060613626E+02  0.00000000000E+00 0. -1.
</event>
<event>
 8    1  0.2971508E-007  0.9118800E+02  0.7816164E-02  0.1184000E+00
        -11   -1    0    0    0    0  0.00000000000E+00  0.00000000000E+00  0.45593999997E+02  0.45594000000E+02  0.51100000000E-03 0.  1.
         11   -1    0    0    0    0 -0.00000000000E+00 -0.00000000000E+00 -0.45593999997E+02  0.45594000000E+02  0.51100000000E-03 0. -1.
         23    2    1    2    0    0  0.00000000000E+00 -0.44408920985E-15  0.88817841970E-15  0.91188000000E+02  0.91188000000E+02 0.  0.
    9900012    2    3    3    0    0 -0.36249716120E+02  0.26840510692E+00 -0.64548419186E+01  0.54367096368E+02  0.40000027790E+02 0.  0.
         12    1    3    3    0    0  0.36249716120E+02 -0.26840510692E+00  0.64548419186E+01  0.36820903632E+02  0.00000000000E+00 0. -1.
         11    1    4    4    0    0  0.21766137316E+01 -0.61079680351E+01  0.53646280159E+00  0.65063594624E+01  0.51100000000E-03 0. -1.
        -11    1    4    4    0    0 -0.16859195343E+02  0.15305226621E+02 -0.88836424645E+01  0.24441798895E+02  0.51100000000E-03 0.  1.
        -12    1    4    4    0    0 -0.21567134509E+02 -0.89288534793E+01  0.18923377443E+01  0.23418938010E+02  0.00000000000E+00 0.  1.
</event>
<event>
 8    1  0.2971508E-007  0.9118800E+02  0.7816164E-02  0.1184000E+00
        -11   -1    0    0    0    0  0.00000000000E+00  0.00000000000E+00  0.45593999997E+02  0.45594000000E+02  0.51100000000E-03 0.  1.
         11   -1    0    0    0    0 -0.00000000000E+00 -0.00000000000E+00 -0.45593999997E+02  0.45594000000E+02  0.51100000000E-03 0. -1.
         23    2    1    2    0    0  0.11102230246E-15 -0.17763568394E-14  0.00000000000E+00  0.91188000000E+02  0.91188000000E+02 0.  0.
    9900012    2    3    3    0    0 -0.54758575002E+00 -0.10913603147E+02  0.35162133059E+02  0.54367052361E+02  0.39999927467E+02 0.  0.
         12    1    3    3    0    0  0.54758575002E+00  0.10913603147E+02 -0.35162133059E+02  0.36820947639E+02  0.00000000000E+00 0. -1.
         11    1    4    4    0    0 -0.48195015428E+01  0.10025449728E+02  0.12729945789E+02  0.16905287854E+02  0.51100000000E-03 0. -1.
        -11    1    4    4    0    0 -0.82111093588E+00  0.39346537500E+01  0.78250257281E+00  0.40948789773E+01  0.51100000000E-03 0.  1.
        -12    1    4    4    0    0  0.50930267287E+01 -0.24873706624E+02  0.21649684697E+02  0.33366885530E+02  0.00000000000E+00 0.  1.
</event>
<event>
 8    1  0.2971508E-007  0.9118800E+02  0.7816164E-02  0.1184000E+00
        -11   -1    0    0    0    0  0.00000000000E+00  0.00000000000E+00  0.45593999997E+02  0.45594000000E+02  0.51100000000E-03 0.  1.
         11   -1    0    0    0    0 -0.00000000000E+00 -0.00000000000E+00 -0.45593999997E+02  0.45594000000E+02  0.51100000000E-03 0. -1.
         23    2    1    2    0    0  0.00000000000E+00 -0.35527136788E-14  0.00000000000E+00  0.91188000000E+02  0.91188000000E+02 0.  0.
    9900012    2    3    3    0    0 -0.17216179369E+02 -0.29035331602E+02 -0.14708239801E+02  0.54367087038E+02  0.40000006520E+02 0.  0.
        -12    1    3    3    0    0  0.17216179369E+02  0.29035331602E+02  0.14708239801E+02  0.36820912962E+02  0.00000000000E+00 0.  1.
         11    1    4    4    0    0  0.67717517600E+01 -0.15791315584E+02 -0.48217049340E+01  0.17845758838E+02  0.51100000000E-03 0. -1.
        -11    1    4    4    0    0 -0.15806338950E+02 -0.11027440110E+02  0.45293817930E+01  0.19797981869E+02  0.51100000000E-03 0.  1.
         12    1    4    4    0    0 -0.81815921785E+01 -0.22165759081E+01 -0.14415916660E+02  0.16723346331E+02  0.00000000000E+00 0. -1.
</event>
<event>
 8    1  0.2971508E-007  0.9118800E+02  0.7816164E-02  0.1184000E+00
        -11   -1    0    0    0    0  0.00000000000E+00  0.00000000000E+00  0.45593999997E+02  0.45594000000E+02  0.51100000000E-03 0. -1.
         11   -1    0    0    0    0 -0.00000000000E+00 -0.00000000000E+00 -0.45593999997E+02  0.45594000000E+02  0.51100000000E-03 0.  1.
         23    2    1    2    0    0 -0.35527136788E-14  0.00000000000E+00  0.71054273576E-14  0.91188000000E+02  0.91188000000E+02 0.  0.
    9900012    2    3    3    0    0  0.22483545157E+02 -0.17724486925E+02 -0.23153998736E+02  0.54367151326E+02  0.40000153077E+02 0.  0.
        -12    1    3    3    0    0 -0.22483545157E+02  0.17724486925E+02  0.23153998736E+02  0.36820848674E+02  0.00000000000E+00 0.  1.
         11    1    4    4    0    0  0.18806215742E+02 -0.83209076929E+01 -0.36970549916E+01  0.20894484230E+02  0.51100000000E-03 0. -1.
        -11    1    4    4    0    0  0.18857179563E+01 -0.30557195389E-02 -0.23141441000E+02  0.23218144486E+02  0.51100000000E-03 0.  1.
        -12    1    4    4    0    0  0.17916114593E+01 -0.94005235130E+01  0.36844972550E+01  0.10254522610E+02  0.00000000000E+00 0.  1.
</event>
<event>
 8    1  0.2971508E-007  0.9118800E+02  0.7816164E-02  0.1184000E+00
        -11   -1    0    0    0    0  0.00000000000E+00  0.00000000000E+00  0.45593999997E+02  0.45594000000E+02  0.51100000000E-03 0. -1.
         11   -1    0    0    0    0 -0.00000000000E+00 -0.00000000000E+00 -0.45593999997E+02  0.45594000000E+02  0.51100000000E-03 0.  1.
         23    2    1    2    0    0  0.71054273576E-14  0.00000000000E+00 -0.88817841970E-15  0.91188000000E+02  0.91188000000E+02 0.  0.
    9900012    2    3    3    0    0 -0.34562377581E+02 -0.10717797554E+02  0.68081767305E+01  0.54367076616E+02  0.39999982761E+02 0.  0.
        -12    1    3    3    0    0  0.34562377581E+02  0.10717797554E+02 -0.68081767305E+01  0.36820923384E+02  0.00000000000E+00 0.  1.
         11    1    4    4    0    0 -0.15460179094E+02 -0.16527732746E+02 -0.96823496922E+01  0.24615665402E+02  0.51100000000E-03 0. -1.
        -11    1    4    4    0    0 -0.70590470517E+01  0.19730567346E+01  0.15411709500E+02  0.17065869099E+02  0.51100000000E-03 0.  1.
         12    1    4    4    0    0 -0.12043151435E+02  0.38368784573E+01  0.10788169231E+01  0.12685542115E+02  0.00000000000E+00 0. -1.
</event>
<event>
 8    1  0.2971508E-007  0.9118800E+02  0.7816164E-02  0.1184000E+00
        -11   -1    0    0    0    0  0.00000000000E+00  0.00000000000E+00  0.45593999997E+02  0.45594000000E+02  0.51100000000E-03 0. -1.
         11   -1    0    0    0    0 -0.00000000000E+00 -0.00000000000E+00 -0.45593999997E+02  0.45594000000E+02  0.51100000000E-03 0.  1.
         23    2    1    2    0    0  0.00000000000E+00  0.00000000000E+00  0.35527136788E-14  0.91188000000E+02  0.91188000000E+02 0.  0.
    9900012    2    3    3    0    0 -0.26771774530E+02  0.15458078344E+02  0.20002467418E+02  0.54367098322E+02  0.40000032244E+02 0.  0.
        -12    1    3    3    0    0  0.26771774530E+02 -0.15458078344E+02 -0.20002467418E+02  0.36820901678E+02  0.00000000000E+00 0.  1.
         11    1    4    4    0    0 -0.12818870445E+02  0.53503228778E+01 -0.89781301198E+01  0.16539534911E+02  0.51100000000E-03 0. -1.
        -11    1    4    4    0    0 -0.86686380413E+01  0.64040822698E+00  0.22455101000E+01  0.89776235195E+01  0.51100000000E-03 0.  1.
        -12    1    4    4    0    0 -0.52842660442E+01  0.94673472393E+01  0.26735087438E+02  0.28849939891E+02  0.00000000000E+00 0.  1.
</event>
<event>
 8    1  0.2971508E-007  0.9118800E+02  0.7816164E-02  0.1184000E+00
        -11   -1    0    0    0    0  0.00000000000E+00  0.00000000000E+00  0.45593999997E+02  0.45594000000E+02  0.51100000000E-03 0.  1.
         11   -1    0    0    0    0 -0.00000000000E+00 -0.00000000000E+00 -0.45593999997E+02  0.45594000000E+02  0.51100000000E-03 0. -1.
         23    2    1    2    0    0 -0.35527136788E-14  0.00000000000E+00  0.17763568394E-14  0.91188000000E+02  0.91188000000E+02 0.  0.
    9900012    2    3    3    0    0 -0.17645914041E+02 -0.28133875205E+02  0.15902251981E+02  0.54367152176E+02  0.40000155016E+02 0.  0.
         12    1    3    3    0    0  0.17645914041E+02  0.28133875205E+02 -0.15902251981E+02  0.36820847824E+02  0.00000000000E+00 0. -1.
         11    1    4    4    0    0 -0.62158807430E+01 -0.15686004084E+02 -0.55739426584E+01  0.17769545142E+02  0.51100000000E-03 0. -1.
        -11    1    4    4    0    0 -0.12099118199E+02  0.23896308292E+01  0.26437484096E+01  0.12613025118E+02  0.51100000000E-03 0.  1.
         12    1    4    4    0    0  0.66908490096E+00 -0.14837501950E+02  0.18832446230E+02  0.23984581917E+02  0.00000000000E+00 0. -1.
</event>
<event>
 8    1  0.2971508E-007  0.9118800E+02  0.7816164E-02  0.1184000E+00
        -11   -1    0    0    0    0  0.00000000000E+00  0.00000000000E+00  0.45593999997E+02  0.45594000000E+02  0.51100000000E-03 0.  1.
         11   -1    0    0    0    0 -0.00000000000E+00 -0.00000000000E+00 -0.45593999997E+02  0.45594000000E+02  0.51100000000E-03 0. -1.
         23    2    1    2    0    0  0.00000000000E+00  0.00000000000E+00  0.00000000000E+00  0.91188000000E+02  0.91188000000E+02 0.  0.
    9900012    2    3    3    0    0 -0.18268502557E+02  0.18217693299E+02 -0.26270832816E+02  0.54367093009E+02  0.40000020133E+02 0.  0.
        -12    1    3    3    0    0  0.18268502557E+02 -0.18217693299E+02  0.26270832816E+02  0.36820906991E+02  0.00000000000E+00 0.  1.
         11    1    4    4    0    0  0.37009737185E+01  0.91958892128E+01 -0.33958854626E+01  0.10478245236E+02  0.51100000000E-03 0.  1.
        -11    1    4    4    0    0 -0.21842330545E+02 -0.23663504510E+01 -0.23888084280E+02  0.32455008688E+02  0.51100000000E-03 0. -1.
         12    1    4    4    0    0 -0.12714573001E+00  0.11388154538E+02  0.10131369270E+01  0.11433839086E+02  0.00000000000E+00 0. -1.
</event>
<event>
 8    1  0.2971508E-007  0.9118800E+02  0.7816164E-02  0.1184000E+00
        -11   -1    0    0    0    0  0.00000000000E+00  0.00000000000E+00  0.45593999997E+02  0.45594000000E+02  0.51100000000E-03 0. -1.
         11   -1    0    0    0    0 -0.00000000000E+00 -0.00000000000E+00 -0.45593999997E+02  0.45594000000E+02  0.51100000000E-03 0.  1.
         23    2    1    2    0    0  0.00000000000E+00  0.00000000000E+00  0.00000000000E+00  0.91188000000E+02  0.91188000000E+02 0.  0.
    9900012    2    3    3    0    0 -0.26660640663E+02 -0.19335627195E+02 -0.16465828707E+02  0.54367085364E+02  0.40000002705E+02 0.  0.
         12    1    3    3    0    0  0.26660640663E+02  0.19335627195E+02  0.16465828707E+02  0.36820914636E+02  0.00000000000E+00 0. -1.
         11    1    4    4    0    0  0.26317098575E+01  0.31444480055E+01 -0.11560835478E+02  0.12266473301E+02  0.51100000000E-03 0. -1.
        -11    1    4    4    0    0 -0.14736692274E+02 -0.63094965258E+01  0.67790426395E+01  0.17405035621E+02  0.51100000000E-03 0.  1.
        -12    1    4    4    0    0 -0.14555658247E+02 -0.16170578675E+02 -0.11684035869E+02  0.24695576443E+02  0.00000000000E+00 0.  1.
</event>
<event>
 8    1  0.2971508E-007  0.9118800E+02  0.7816164E-02  0.1184000E+00
        -11   -1    0    0    0    0  0.00000000000E+00  0.00000000000E+00  0.45593999997E+02  0.45594000000E+02  0.51100000000E-03 0.  1.
         11   -1    0    0    0    0 -0.00000000000E+00 -0.00000000000E+00 -0.45593999997E+02  0.45594000000E+02  0.51100000000E-03 0. -1.
         23    2    1    2    0    0  0.00000000000E+00 -0.17763568394E-14 -0.88817841970E-15  0.91188000000E+02  0.91188000000E+02 0.  0.
    9900012    2    3    3    0    0 -0.34247285191E+02 -0.11771992071E+02 -0.66577822145E+01  0.54367049384E+02  0.39999920681E+02 0.  0.
        -12    1    3    3    0    0  0.34247285191E+02  0.11771992071E+02  0.66577822145E+01  0.36820950616E+02  0.00000000000E+00 0.  1.
         11    1    4    4    0    0  0.85968770628E+01  0.56962954735E+00 -0.33030365431E+01  0.92271785352E+01  0.51100000000E-03 0.  1.
        -11    1    4    4    0    0 -0.24411739973E+02 -0.55974626984E+01  0.88019004335E+00  0.25060713715E+02  0.51100000000E-03 0. -1.
        -12    1    4    4    0    0 -0.18432422281E+02 -0.67441589201E+01 -0.42349357148E+01  0.20079157133E+02  0.00000000000E+00 0.  1.
</event>
<event>
 8    1  0.2971508E-007  0.9118800E+02  0.7816164E-02  0.1184000E+00
        -11   -1    0    0    0    0  0.00000000000E+00  0.00000000000E+00  0.45593999997E+02  0.45594000000E+02  0.51100000000E-03 0.  1.
         11   -1    0    0    0    0 -0.00000000000E+00 -0.00000000000E+00 -0.45593999997E+02  0.45594000000E+02  0.51100000000E-03 0. -1.
         23    2    1    2    0    0 -0.88817841970E-15 -0.88817841970E-15  0.00000000000E+00  0.91188000000E+02  0.91188000000E+02 0.  0.
    9900012    2    3    3    0    0 -0.76210201211E+01 -0.14992157507E+01  0.35992551547E+02  0.54366927740E+02  0.39999643367E+02 0.  0.
         12    1    3    3    0    0  0.76210201211E+01  0.14992157507E+01 -0.35992551547E+02  0.36821072260E+02  0.00000000000E+00 0. -1.
         11    1    4    4    0    0 -0.55089292461E+01 -0.80227009433E+01  0.26691359717E+02  0.28410222027E+02  0.51100000000E-03 0.  1.
        -11    1    4    4    0    0  0.21036612574E+01 -0.41860063530E+00 -0.72281877999E+01  0.75397159303E+01  0.51100000000E-03 0. -1.
         12    1    4    4    0    0 -0.42157521324E+01  0.69420858279E+01  0.16529379630E+02  0.18416989782E+02  0.00000000000E+00 0. -1.
</event>
<event>
 8    1  0.2971508E-007  0.9118800E+02  0.7816164E-02  0.1184000E+00
        -11   -1    0    0    0    0  0.00000000000E+00  0.00000000000E+00  0.45593999997E+02  0.45594000000E+02  0.51100000000E-03 0. -1.
         11   -1    0    0    0    0 -0.00000000000E+00 -0.00000000000E+00 -0.45593999997E+02  0.45594000000E+02  0.51100000000E-03 0.  1.
         23    2    1    2    0    0  0.00000000000E+00 -0.17763568394E-14 -0.71054273576E-14  0.91188000000E+02  0.91188000000E+02 0.  0.
    9900012    2    3    3    0    0  0.10212474546E+02  0.85615618883E+01 -0.34324699905E+02  0.54367082006E+02  0.39999995050E+02 0.  0.
         12    1    3    3    0    0 -0.10212474546E+02 -0.85615618883E+01  0.34324699905E+02  0.36820917994E+02  0.00000000000E+00 0. -1.
         11    1    4    4    0    0  0.11973086866E+02  0.17309342840E+02 -0.34737766260E+02  0.40616259843E+02  0.51100000000E-03 0. -1.
        -11    1    4    4    0    0  0.32368492536E+01 -0.21389679360E+01 -0.28830621104E+01  0.48336760664E+01  0.51100000000E-03 0.  1.
         12    1    4    4    0    0 -0.49974615737E+01 -0.66088130153E+01  0.32961284654E+01  0.89171460968E+01  0.00000000000E+00 0. -1.
</event>
<event>
 8    1  0.2971508E-007  0.9118800E+02  0.7816164E-02  0.1184000E+00
        -11   -1    0    0    0    0  0.00000000000E+00  0.00000000000E+00  0.45593999997E+02  0.45594000000E+02  0.51100000000E-03 0.  1.
         11   -1    0    0    0    0 -0.00000000000E+00 -0.00000000000E+00 -0.45593999997E+02  0.45594000000E+02  0.51100000000E-03 0. -1.
         23    2    1    2    0    0  0.00000000000E+00 -0.11102230246E-15 -0.44408920985E-15  0.91188000000E+02  0.91188000000E+02 0.  0.
    9900012    2    3    3    0    0 -0.36739167272E+02  0.40530900848E+00 -0.24183585342E+01  0.54367093639E+02  0.40000021570E+02 0.  0.
        -12    1    3    3    0    0  0.36739167272E+02 -0.40530900848E+00  0.24183585342E+01  0.36820906361E+02  0.00000000000E+00 0.  1.
         11    1    4    4    0    0  0.59339328542E+01  0.65043686889E+01 -0.38828431658E+01  0.96226213929E+01  0.51100000000E-03 0. -1.
        -11    1    4    4    0    0 -0.33686633357E+01  0.27664888129E+01  0.88730293976E+00  0.44484446483E+01  0.51100000000E-03 0.  1.
        -12    1    4    4    0    0 -0.39304436790E+02 -0.88655484933E+01  0.57718169186E+00  0.40296027598E+02  0.00000000000E+00 0.  1.
</event>
<event>
 8    1  0.2971508E-007  0.9118800E+02  0.7816164E-02  0.1184000E+00
        -11   -1    0    0    0    0  0.00000000000E+00  0.00000000000E+00  0.45593999997E+02  0.45594000000E+02  0.51100000000E-03 0.  1.
         11   -1    0    0    0    0 -0.00000000000E+00 -0.00000000000E+00 -0.45593999997E+02  0.45594000000E+02  0.51100000000E-03 0. -1.
         23    2    1    2    0    0 -0.35527136788E-14 -0.35527136788E-14  0.88817841970E-15  0.91188000000E+02  0.91188000000E+02 0.  0.
    9900012    2    3    3    0    0  0.28809975673E+02  0.22516719585E+02 -0.43315501225E+01  0.54367086302E+02  0.40000004842E+02 0.  0.
         12    1    3    3    0    0 -0.28809975673E+02 -0.22516719585E+02  0.43315501225E+01  0.36820913698E+02  0.00000000000E+00 0. -1.
         11    1    4    4    0    0  0.11704173676E+01 -0.49812958471E+01 -0.39144765814E+01  0.64425392741E+01  0.51100000000E-03 0. -1.
        -11    1    4    4    0    0  0.26251035873E+01  0.31807854000E+01  0.10572419416E+02  0.11348331030E+02  0.51100000000E-03 0.  1.
        -12    1    4    4    0    0  0.25014454718E+02  0.24317230032E+02 -0.10989492957E+02  0.36576215998E+02  0.00000000000E+00 0.  1.
</event>
<event>
 8    1  0.2971508E-007  0.9118800E+02  0.7816164E-02  0.1184000E+00
        -11   -1    0    0    0    0  0.00000000000E+00  0.00000000000E+00  0.45593999997E+02  0.45594000000E+02  0.51100000000E-03 0. -1.
         11   -1    0    0    0    0 -0.00000000000E+00 -0.00000000000E+00 -0.45593999997E+02  0.45594000000E+02  0.51100000000E-03 0.  1.
         23    2    1    2    0    0  0.00000000000E+00  0.00000000000E+00  0.00000000000E+00  0.91188000000E+02  0.91188000000E+02 0.  0.
    9900012    2    3    3    0    0 -0.20215241174E+02 -0.25878032340E+02 -0.16656871526E+02  0.54367083355E+02  0.39999998125E+02 0.  0.
         12    1    3    3    0    0  0.20215241174E+02  0.25878032340E+02  0.16656871526E+02  0.36820916645E+02  0.00000000000E+00 0. -1.
         11    1    4    4    0    0  0.17090641390E+01 -0.19082599084E+02 -0.11547772043E+01  0.19193748948E+02  0.51100000000E-03 0. -1.
        -11    1    4    4    0    0  0.95413131706E+00 -0.83979876193E+01 -0.59122307557E+01  0.10314603017E+02  0.51100000000E-03 0.  1.
         12    1    4    4    0    0 -0.22878436630E+02  0.16025543633E+01 -0.95898635664E+01  0.24858731391E+02  0.00000000000E+00 0. -1.
</event>
<event>
 8    1  0.2971508E-007  0.9118800E+02  0.7816164E-02  0.1184000E+00
        -11   -1    0    0    0    0  0.00000000000E+00  0.00000000000E+00  0.45593999997E+02  0.45594000000E+02  0.51100000000E-03 0. -1.
         11   -1    0    0    0    0 -0.00000000000E+00 -0.00000000000E+00 -0.45593999997E+02  0.45594000000E+02  0.51100000000E-03 0.  1.
         23    2    1    2    0    0 -0.35527136788E-14  0.00000000000E+00  0.00000000000E+00  0.91188000000E+02  0.91188000000E+02 0.  0.
    9900012    2    3    3    0    0 -0.21314113722E+02 -0.73870306093E+01  0.29101857088E+02  0.54367112572E+02  0.40000064730E+02 0.  0.
        -12    1    3    3    0    0  0.21314113722E+02  0.73870306093E+01 -0.29101857088E+02  0.36820887428E+02  0.00000000000E+00 0.  1.
         11    1    4    4    0    0 -0.12746450533E+02 -0.11570456075E+02  0.14943864942E+02  0.22796196056E+02  0.51100000000E-03 0. -1.
        -11    1    4    4    0    0 -0.83939029926E+01  0.14979590749E+02  0.10704891465E+02  0.20234634862E+02  0.51100000000E-03 0.  1.
        -12    1    4    4    0    0 -0.17376019686E+00 -0.10796165283E+02  0.34531006820E+01  0.11336281654E+02  0.00000000000E+00 0.  1.
</event>
<event>
 8    1  0.2971508E-007  0.9118800E+02  0.7816164E-02  0.1184000E+00
        -11   -1    0    0    0    0  0.00000000000E+00  0.00000000000E+00  0.45593999997E+02  0.45594000000E+02  0.51100000000E-03 0.  1.
         11   -1    0    0    0    0 -0.00000000000E+00 -0.00000000000E+00 -0.45593999997E+02  0.45594000000E+02  0.51100000000E-03 0. -1.
         23    2    1    2    0    0 -0.17763568394E-14  0.00000000000E+00  0.00000000000E+00  0.91188000000E+02  0.91188000000E+02 0.  0.
    9900012    2    3    3    0    0 -0.91038732872E+01 -0.20408465694E+02 -0.29264138200E+02  0.54367139535E+02  0.40000126197E+02 0.  0.
        -12    1    3    3    0    0  0.91038732872E+01  0.20408465694E+02  0.29264138200E+02  0.36820860465E+02  0.00000000000E+00 0.  1.
         11    1    4    4    0    0 -0.56884890393E+01 -0.13664797031E+02 -0.32279308207E+02  0.35511115500E+02  0.51100000000E-03 0. -1.
        -11    1    4    4    0    0 -0.51729985721E+00 -0.16291917270E+00 -0.67262933883E+01  0.67481230580E+01  0.51100000000E-03 0.  1.
        -12    1    4    4    0    0 -0.28980843907E+01 -0.65807494897E+01  0.97414633951E+01  0.12107900977E+02  0.00000000000E+00 0.  1.
</event>
<event>
 8    1  0.2971508E-007  0.9118800E+02  0.7816164E-02  0.1184000E+00
        -11   -1    0    0    0    0  0.00000000000E+00  0.00000000000E+00  0.45593999997E+02  0.45594000000E+02  0.51100000000E-03 0.  1.
         11   -1    0    0    0    0 -0.00000000000E+00 -0.00000000000E+00 -0.45593999997E+02  0.45594000000E+02  0.51100000000E-03 0. -1.
         23    2    1    2    0    0 -0.17763568394E-14 -0.35527136788E-14  0.35527136788E-14  0.91188000000E+02  0.91188000000E+02 0.  0.
    9900012    2    3    3    0    0 -0.15957315531E+02 -0.17099882037E+02  0.28438320337E+02  0.54367082735E+02  0.39999996711E+02 0.  0.
         12    1    3    3    0    0  0.15957315531E+02  0.17099882037E+02 -0.28438320337E+02  0.36820917265E+02  0.00000000000E+00 0. -1.
         11    1    4    4    0    0  0.51077600744E+01 -0.62762443032E+01  0.39551171733E+01  0.90068533710E+01  0.51100000000E-03 0. -1.
        -11    1    4    4    0    0 -0.16096862017E+02 -0.12242272065E+02  0.31018777562E+02  0.37028998823E+02  0.51100000000E-03 0.  1.
        -12    1    4    4    0    0 -0.49682135881E+01  0.14186343314E+01 -0.65355743981E+01  0.83312305415E+01  0.00000000000E+00 0.  1.
</event>
<event>
 8    1  0.2971508E-007  0.9118800E+02  0.7816164E-02  0.1184000E+00
        -11   -1    0    0    0    0  0.00000000000E+00  0.00000000000E+00  0.45593999997E+02  0.45594000000E+02  0.51100000000E-03 0. -1.
         11   -1    0    0    0    0 -0.00000000000E+00 -0.00000000000E+00 -0.45593999997E+02  0.45594000000E+02  0.51100000000E-03 0.  1.
         23    2    1    2    0    0  0.44408920985E-15  0.35527136788E-14 -0.35527136788E-14  0.91188000000E+02  0.91188000000E+02 0.  0.
    9900012    2    3    3    0    0  0.30660684559E+01  0.26586409034E+02  0.25289167753E+02  0.54367083027E+02  0.39999997376E+02 0.  0.
        -12    1    3    3    0    0 -0.30660684559E+01 -0.26586409034E+02 -0.25289167753E+02  0.36820916973E+02  0.00000000000E+00 0.  1.
         11    1    4    4    0    0  0.23771273217E+01  0.14656340880E+02  0.23317376307E+02  0.27643427797E+02  0.51100000000E-03 0.  1.
        -11    1    4    4    0    0  0.38662743591E+01  0.18681698408E+02  0.25118956337E+01  0.19242233570E+02  0.51100000000E-03 0. -1.
        -12    1    4    4    0    0 -0.31773332248E+01 -0.67516302542E+01 -0.54010418730E+00  0.74814216593E+01  0.00000000000E+00 0.  1.
</event>
<event>
 8    1  0.2971508E-007  0.9118800E+02  0.7816164E-02  0.1184000E+00
        -11   -1    0    0    0    0  0.00000000000E+00  0.00000000000E+00  0.45593999997E+02  0.45594000000E+02  0.51100000000E-03 0.  1.
         11   -1    0    0    0    0 -0.00000000000E+00 -0.00000000000E+00 -0.45593999997E+02  0.45594000000E+02  0.51100000000E-03 0. -1.
         23    2    1    2    0    0  0.26645352591E-14 -0.17763568394E-14  0.71054273576E-14  0.91188000000E+02  0.91188000000E+02 0.  0.
    9900012    2    3    3    0    0 -0.74811993274E+01  0.32150824451E+01 -0.35909243776E+02  0.54367097145E+02  0.40000029561E+02 0.  0.
        -12    1    3    3    0    0  0.74811993274E+01 -0.32150824451E+01  0.35909243776E+02  0.36820902855E+02  0.00000000000E+00 0.  1.
         11    1    4    4    0    0  0.14529059822E+01 -0.20367429510E+01  0.37699634166E+01  0.45245863971E+01  0.51100000000E-03 0.  1.
        -11    1    4    4    0    0 -0.11055301751E+02  0.13788462333E+02 -0.36384239493E+02  0.40449403877E+02  0.51100000000E-03 0. -1.
         12    1    4    4    0    0  0.21211964416E+01 -0.85366369367E+01 -0.32949676999E+01  0.93931068703E+01  0.00000000000E+00 0. -1.
</event>
<event>
 8    1  0.2971508E-007  0.9118800E+02  0.7816164E-02  0.1184000E+00
        -11   -1    0    0    0    0  0.00000000000E+00  0.00000000000E+00  0.45593999997E+02  0.45594000000E+02  0.51100000000E-03 0.  1.
         11   -1    0    0    0    0 -0.00000000000E+00 -0.00000000000E+00 -0.45593999997E+02  0.45594000000E+02  0.51100000000E-03 0. -1.
         23    2    1    2    0    0  0.00000000000E+00  0.00000000000E+00 -0.44408920985E-15  0.91188000000E+02  0.91188000000E+02 0.  0.
    9900012    2    3    3    0    0  0.19017987565E+02  0.31429116062E+02 -0.25113263352E+01  0.54367082746E+02  0.39999996735E+02 0.  0.
        -12    1    3    3    0    0 -0.19017987565E+02 -0.31429116062E+02  0.25113263352E+01  0.36820917254E+02  0.00000000000E+00 0.  1.
         11    1    4    4    0    0 -0.58869760433E+01  0.14319285726E+02  0.76713656730E+01  0.17278549771E+02  0.51100000000E-03 0. -1.
        -11    1    4    4    0    0  0.84894322503E+01  0.13433298084E+02  0.24132480494E+01  0.16073198927E+02  0.51100000000E-03 0.  1.
        -12    1    4    4    0    0  0.16415531358E+02  0.36765322522E+01 -0.12595940058E+02  0.21015334047E+02  0.00000000000E+00 0.  1.
</event>
<event>
 8    1  0.2971508E-007  0.9118800E+02  0.7816164E-02  0.1184000E+00
        -11   -1    0    0    0    0  0.00000000000E+00  0.00000000000E+00  0.45593999997E+02  0.45594000000E+02  0.51100000000E-03 0.  1.
         11   -1    0    0    0    0 -0.00000000000E+00 -0.00000000000E+00 -0.45593999997E+02  0.45594000000E+02  0.51100000000E-03 0. -1.
         23    2    1    2    0    0 -0.35527136788E-14  0.00000000000E+00  0.00000000000E+00  0.91188000000E+02  0.91188000000E+02 0.  0.
    9900012    2    3    3    0    0 -0.29914059725E+02  0.40420135138E+01 -0.21085314032E+02  0.54367091398E+02  0.40000016460E+02 0.  0.
        -12    1    3    3    0    0  0.29914059725E+02 -0.40420135138E+01  0.21085314032E+02  0.36820908602E+02  0.00000000000E+00 0.  1.
         11    1    4    4    0    0 -0.10803081219E+02  0.16093307440E+01  0.90115795041E+01  0.14159981451E+02  0.51100000000E-03 0. -1.
        -11    1    4    4    0    0 -0.39157810696E+01  0.26690587285E+01  0.16437935250E+01  0.50159020420E+01  0.51100000000E-03 0.  1.
         12    1    4    4    0    0 -0.15195197436E+02 -0.23637595860E+00 -0.31740687061E+02  0.35191207905E+02  0.00000000000E+00 0. -1.
</event>
<event>
 8    1  0.2971508E-007  0.9118800E+02  0.7816164E-02  0.1184000E+00
        -11   -1    0    0    0    0  0.00000000000E+00  0.00000000000E+00  0.45593999997E+02  0.45594000000E+02  0.51100000000E-03 0.  1.
         11   -1    0    0    0    0 -0.00000000000E+00 -0.00000000000E+00 -0.45593999997E+02  0.45594000000E+02  0.51100000000E-03 0. -1.
         23    2    1    2    0    0  0.00000000000E+00 -0.88817841970E-15 -0.35527136788E-14  0.91188000000E+02  0.91188000000E+02 0.  0.
    9900012    2    3    3    0    0  0.24659006838E+02 -0.37073486263E+01 -0.27091826915E+02  0.54367107322E+02  0.40000052761E+02 0.  0.
        -12    1    3    3    0    0 -0.24659006838E+02  0.37073486263E+01  0.27091826915E+02  0.36820892678E+02  0.00000000000E+00 0.  1.
         11    1    4    4    0    0 -0.92857822747E+00  0.40952880822E+01 -0.94479765897E+01  0.10339144254E+02  0.51100000000E-03 0. -1.
        -11    1    4    4    0    0  0.12530840667E+02  0.19127636233E+01 -0.23525339167E+02  0.26723065238E+02  0.51100000000E-03 0.  1.
        -12    1    4    4    0    0  0.13056744399E+02 -0.97154003318E+01  0.58814888426E+01  0.17304897830E+02  0.00000000000E+00 0.  1.
</event>
<event>
 8    1  0.2971508E-007  0.9118800E+02  0.7816164E-02  0.1184000E+00
        -11   -1    0    0    0    0  0.00000000000E+00  0.00000000000E+00  0.45593999997E+02  0.45594000000E+02  0.51100000000E-03 0.  1.
         11   -1    0    0    0    0 -0.00000000000E+00 -0.00000000000E+00 -0.45593999997E+02  0.45594000000E+02  0.51100000000E-03 0. -1.
         23    2    1    2    0    0  0.00000000000E+00 -0.17763568394E-14 -0.19984014443E-14  0.91188000000E+02  0.91188000000E+02 0.  0.
    9900012    2    3    3    0    0  0.34102583990E+02 -0.13865285180E+02 -0.73920160049E+00  0.54367098505E+02  0.40000032661E+02 0.  0.
         12    1    3    3    0    0 -0.34102583990E+02  0.13865285180E+02  0.73920160049E+00  0.36820901495E+02  0.00000000000E+00 0. -1.
         11    1    4    4    0    0  0.19251092445E+01 -0.55961905905E+00  0.95669462515E+01  0.97747470522E+01  0.51100000000E-03 0. -1.
        -11    1    4    4    0    0  0.69304393392E+01  0.68286586182E+01  0.21788561304E+01  0.99704053206E+01  0.51100000000E-03 0.  1.
         12    1    4    4    0    0  0.25247035407E+02 -0.20134324739E+02 -0.12485003982E+02  0.34621946132E+02  0.00000000000E+00 0. -1.
</event>
<event>
 8    1  0.2971508E-007  0.9118800E+02  0.7816164E-02  0.1184000E+00
        -11   -1    0    0    0    0  0.00000000000E+00  0.00000000000E+00  0.45593999997E+02  0.45594000000E+02  0.51100000000E-03 0. -1.
         11   -1    0    0    0    0 -0.00000000000E+00 -0.00000000000E+00 -0.45593999997E+02  0.45594000000E+02  0.51100000000E-03 0.  1.
         23    2    1    2    0    0  0.00000000000E+00 -0.11102230246E-14  0.00000000000E+00  0.91188000000E+02  0.91188000000E+02 0.  0.
    9900012    2    3    3    0    0 -0.23519480738E+02 -0.19101392971E+01  0.28265996632E+02  0.54367066118E+02  0.39999958830E+02 0.  0.
        -12    1    3    3    0    0  0.23519480738E+02  0.19101392971E+01 -0.28265996632E+02  0.36820933882E+02  0.00000000000E+00 0.  1.
         11    1    4    4    0    0  0.24973551760E+01 -0.61539330034E+01 -0.66573807360E+00  0.66746446894E+01  0.51100000000E-03 0. -1.
        -11    1    4    4    0    0 -0.14825382444E+01 -0.94216640324E+01  0.48610278575E+01  0.10704917789E+02  0.51100000000E-03 0.  1.
        -12    1    4    4    0    0 -0.24534297669E+02  0.13665457739E+02  0.24070706848E+02  0.36987503640E+02  0.00000000000E+00 0.  1.
</event>
<event>
 8    1  0.2971508E-007  0.9118800E+02  0.7816164E-02  0.1184000E+00
        -11   -1    0    0    0    0  0.00000000000E+00  0.00000000000E+00  0.45593999997E+02  0.45594000000E+02  0.51100000000E-03 0.  1.
         11   -1    0    0    0    0 -0.00000000000E+00 -0.00000000000E+00 -0.45593999997E+02  0.45594000000E+02  0.51100000000E-03 0. -1.
         23    2    1    2    0    0  0.71054273576E-14  0.00000000000E+00 -0.17763568394E-14  0.91188000000E+02  0.91188000000E+02 0.  0.
    9900012    2    3    3    0    0 -0.35937518371E+02  0.63267796042E+01  0.49239821166E+01  0.54367096064E+02  0.40000027097E+02 0.  0.
         12    1    3    3    0    0  0.35937518371E+02 -0.63267796042E+01 -0.49239821166E+01  0.36820903936E+02  0.00000000000E+00 0. -1.
         11    1    4    4    0    0 -0.11036403307E+01 -0.70463858039E+00  0.91450138987E+01  0.92382799793E+01  0.51100000000E-03 0. -1.
        -11    1    4    4    0    0 -0.39145185179E+02  0.71008507883E+01 -0.64035301376E+01  0.40296064362E+02  0.51100000000E-03 0.  1.
        -12    1    4    4    0    0  0.43113071391E+01 -0.69432603698E-01  0.21824983555E+01  0.48327517220E+01  0.00000000000E+00 0.  1.
</event>
<event>
 8    1  0.2971508E-007  0.9118800E+02  0.7816164E-02  0.1184000E+00
        -11   -1    0    0    0    0  0.00000000000E+00  0.00000000000E+00  0.45593999997E+02  0.45594000000E+02  0.51100000000E-03 0. -1.
         11   -1    0    0    0    0 -0.00000000000E+00 -0.00000000000E+00 -0.45593999997E+02  0.45594000000E+02  0.51100000000E-03 0.  1.
         23    2    1    2    0    0  0.00000000000E+00  0.00000000000E+00  0.17763568394E-14  0.91188000000E+02  0.91188000000E+02 0.  0.
    9900012    2    3    3    0    0 -0.72219797294E+01 -0.35084031067E+02 -0.85283947303E+01  0.54367085511E+02  0.40000003040E+02 0.  0.
        -12    1    3    3    0    0  0.72219797294E+01  0.35084031067E+02  0.85283947303E+01  0.36820914489E+02  0.00000000000E+00 0.  1.
         11    1    4    4    0    0 -0.87305654602E+01 -0.33092984894E+02 -0.74851527712E+01  0.35034210919E+02  0.51100000000E-03 0.  1.
        -11    1    4    4    0    0  0.19069919421E+01  0.29187262220E+01  0.81714670077E+01  0.88841687481E+01  0.51100000000E-03 0. -1.
        -12    1    4    4    0    0 -0.39840621136E+00 -0.49097723947E+01 -0.92147089668E+01  0.10448705844E+02  0.00000000000E+00 0.  1.
</event>
<event>
 8    1  0.2971508E-007  0.9118800E+02  0.7816164E-02  0.1184000E+00
        -11   -1    0    0    0    0  0.00000000000E+00  0.00000000000E+00  0.45593999997E+02  0.45594000000E+02  0.51100000000E-03 0.  1.
         11   -1    0    0    0    0 -0.00000000000E+00 -0.00000000000E+00 -0.45593999997E+02  0.45594000000E+02  0.51100000000E-03 0. -1.
         23    2    1    2    0    0 -0.35527136788E-14 -0.88817841970E-15  0.00000000000E+00  0.91188000000E+02  0.91188000000E+02 0.  0.
    9900012    2    3    3    0    0 -0.26768879238E+02  0.79828917824E+01  0.23989162424E+02  0.54367090577E+02  0.40000014589E+02 0.  0.
        -12    1    3    3    0    0  0.26768879238E+02 -0.79828917824E+01 -0.23989162424E+02  0.36820909423E+02  0.00000000000E+00 0.  1.
         11    1    4    4    0    0 -0.84010893153E+01  0.16443747207E+02  0.16935031464E+01  0.18543006150E+02  0.51100000000E-03 0. -1.
        -11    1    4    4    0    0 -0.15558110357E+02 -0.32471713755E+00  0.22328736624E+02  0.27216405321E+02  0.51100000000E-03 0.  1.
         12    1    4    4    0    0 -0.28096795659E+01 -0.81361382874E+01 -0.33077345976E-01  0.86076791067E+01  0.00000000000E+00 0. -1.
</event>
<event>
 8    1  0.2971508E-007  0.9118800E+02  0.7816164E-02  0.1184000E+00
        -11   -1    0    0    0    0  0.00000000000E+00  0.00000000000E+00  0.45593999997E+02  0.45594000000E+02  0.51100000000E-03 0.  1.
         11   -1    0    0    0    0 -0.00000000000E+00 -0.00000000000E+00 -0.45593999997E+02  0.45594000000E+02  0.51100000000E-03 0. -1.
         23    2    1    2    0    0 -0.88817841970E-15  0.88817841970E-15  0.71054273576E-14  0.91188000000E+02  0.91188000000E+02 0.  0.
    9900012    2    3    3    0    0  0.59592015828E+01 -0.13236721958E+01 -0.36311357786E+02  0.54367097026E+02  0.40000029290E+02 0.  0.
        -12    1    3    3    0    0 -0.59592015828E+01  0.13236721958E+01  0.36311357786E+02  0.36820902974E+02  0.00000000000E+00 0.  1.
         11    1    4    4    0    0  0.14855771656E+02 -0.14036006889E+02 -0.16993438389E+02  0.26579698821E+02  0.51100000000E-03 0. -1.
        -11    1    4    4    0    0 -0.57727721006E+00  0.11544063006E+02 -0.11707617146E+02  0.16451958521E+02  0.51100000000E-03 0.  1.
         12    1    4    4    0    0 -0.83192928629E+01  0.11682716872E+01 -0.76103022510E+01  0.11335439684E+02  0.00000000000E+00 0. -1.
</event>
<event>
 8    1  0.2971508E-007  0.9118800E+02  0.7816164E-02  0.1184000E+00
        -11   -1    0    0    0    0  0.00000000000E+00  0.00000000000E+00  0.45593999997E+02  0.45594000000E+02  0.51100000000E-03 0. -1.
         11   -1    0    0    0    0 -0.00000000000E+00 -0.00000000000E+00 -0.45593999997E+02  0.45594000000E+02  0.51100000000E-03 0.  1.
         23    2    1    2    0    0  0.00000000000E+00  0.17763568394E-14  0.00000000000E+00  0.91188000000E+02  0.91188000000E+02 0.  0.
    9900012    2    3    3    0    0 -0.49086109259E+01  0.15229265543E+02  0.33162554828E+02  0.54367081585E+02  0.39999994089E+02 0.  0.
        -12    1    3    3    0    0  0.49086109259E+01 -0.15229265543E+02 -0.33162554828E+02  0.36820918415E+02  0.00000000000E+00 0.  1.
         11    1    4    4    0    0 -0.30780774675E+01  0.70742120956E+01 -0.16116146489E+01  0.78813919905E+01  0.51100000000E-03 0. -1.
        -11    1    4    4    0    0  0.13402915915E+02  0.37115039705E-02  0.17626607980E+02  0.22143519999E+02  0.51100000000E-03 0.  1.
         12    1    4    4    0    0 -0.15233449374E+02  0.81513419436E+01  0.17147561497E+02  0.24342169595E+02  0.00000000000E+00 0. -1.
</event>
<event>
 8    1  0.2971508E-007  0.9118800E+02  0.7816164E-02  0.1184000E+00
        -11   -1    0    0    0    0  0.00000000000E+00  0.00000000000E+00  0.45593999997E+02  0.45594000000E+02  0.51100000000E-03 0. -1.
         11   -1    0    0    0    0 -0.00000000000E+00 -0.00000000000E+00 -0.45593999997E+02  0.45594000000E+02  0.51100000000E-03 0.  1.
         23    2    1    2    0    0  0.00000000000E+00 -0.17763568394E-14  0.00000000000E+00  0.91188000000E+02  0.91188000000E+02 0.  0.
    9900012    2    3    3    0    0  0.32149225785E+02  0.11415581363E+02  0.13852912471E+02  0.54366927224E+02  0.39999642191E+02 0.  0.
        -12    1    3    3    0    0 -0.32149225785E+02 -0.11415581363E+02 -0.13852912471E+02  0.36821072776E+02  0.00000000000E+00 0.  1.
         11    1    4    4    0    0 -0.52378389158E+01  0.65596127369E-01  0.80941548433E+01  0.96412967100E+01  0.51100000000E-03 0. -1.
        -11    1    4    4    0    0 -0.26425947202E+01  0.12533967384E+01 -0.51044178329E+00  0.29689832122E+01  0.51100000000E-03 0.  1.
         12    1    4    4    0    0  0.40029659421E+02  0.10096588497E+02  0.62691994109E+01  0.41756647302E+02  0.00000000000E+00 0. -1.
</event>
<event>
 8    1  0.2971508E-007  0.9118800E+02  0.7816164E-02  0.1184000E+00
        -11   -1    0    0    0    0  0.00000000000E+00  0.00000000000E+00  0.45593999997E+02  0.45594000000E+02  0.51100000000E-03 0. -1.
         11   -1    0    0    0    0 -0.00000000000E+00 -0.00000000000E+00 -0.45593999997E+02  0.45594000000E+02  0.51100000000E-03 0.  1.
         23    2    1    2    0    0  0.00000000000E+00 -0.35527136788E-14 -0.17763568394E-14  0.91188000000E+02  0.91188000000E+02 0.  0.
    9900012    2    3    3    0    0  0.18313810921E+02 -0.31867311265E+02 -0.22042669537E+01  0.54367082161E+02  0.39999995403E+02 0.  0.
        -12    1    3    3    0    0 -0.18313810921E+02  0.31867311265E+02  0.22042669537E+01  0.36820917839E+02  0.00000000000E+00 0.  1.
         11    1    4    4    0    0 -0.19974746262E+01 -0.17407129214E+01  0.12810823973E-01  0.26495567054E+01  0.51100000000E-03 0. -1.
        -11    1    4    4    0    0  0.62784909329E+01 -0.20131433181E+02 -0.18469820444E+02  0.28032629520E+02  0.51100000000E-03 0.  1.
         12    1    4    4    0    0  0.14032794614E+02 -0.99951651631E+01  0.16252742667E+02  0.23684895936E+02  0.00000000000E+00 0. -1.
</event>
<event>
 8    1  0.2971508E-007  0.9118800E+02  0.7816164E-02  0.1184000E+00
        -11   -1    0    0    0    0  0.00000000000E+00  0.00000000000E+00  0.45593999997E+02  0.45594000000E+02  0.51100000000E-03 0.  1.
         11   -1    0    0    0    0 -0.00000000000E+00 -0.00000000000E+00 -0.45593999997E+02  0.45594000000E+02  0.51100000000E-03 0. -1.
         23    2    1    2    0    0  0.35527136788E-14  0.00000000000E+00  0.13322676296E-14  0.91188000000E+02  0.91188000000E+02 0.  0.
    9900012    2    3    3    0    0  0.14304120668E+02  0.33744592795E+02  0.35320492258E+01  0.54367071403E+02  0.39999970877E+02 0.  0.
        -12    1    3    3    0    0 -0.14304120668E+02 -0.33744592795E+02 -0.35320492258E+01  0.36820928597E+02  0.00000000000E+00 0.  1.
         11    1    4    4    0    0  0.30320044152E+01  0.55162245255E+00 -0.58122462739E+01  0.65787191089E+01  0.51100000000E-03 0.  1.
        -11    1    4    4    0    0 -0.65086228567E+01 -0.13104400030E+01 -0.26700885309E+01  0.71560322468E+01  0.51100000000E-03 0. -1.
         12    1    4    4    0    0  0.17780739110E+02  0.34503410346E+02  0.12014384031E+02  0.40632320047E+02  0.00000000000E+00 0. -1.
</event>
<event>
 8    1  0.2971508E-007  0.9118800E+02  0.7816164E-02  0.1184000E+00
        -11   -1    0    0    0    0  0.00000000000E+00  0.00000000000E+00  0.45593999997E+02  0.45594000000E+02  0.51100000000E-03 0.  1.
         11   -1    0    0    0    0 -0.00000000000E+00 -0.00000000000E+00 -0.45593999997E+02  0.45594000000E+02  0.51100000000E-03 0. -1.
         23    2    1    2    0    0  0.35527136788E-14  0.22204460493E-15  0.00000000000E+00  0.91188000000E+02  0.91188000000E+02 0.  0.
    9900012    2    3    3    0    0  0.18454583932E+02 -0.18068268707E+01 -0.31811067871E+02  0.54367077543E+02  0.39999984876E+02 0.  0.
        -12    1    3    3    0    0 -0.18454583932E+02  0.18068268707E+01  0.31811067871E+02  0.36820922457E+02  0.00000000000E+00 0.  1.
         11    1    4    4    0    0 -0.46900555237E+01  0.62945924920E+01  0.44886106498E+01  0.90424632309E+01  0.51100000000E-03 0. -1.
        -11    1    4    4    0    0  0.20528069834E+02 -0.21564835488E+01 -0.27234133586E+02  0.34172358783E+02  0.51100000000E-03 0.  1.
         12    1    4    4    0    0  0.26165696223E+01 -0.59449358139E+01 -0.90655449351E+01  0.11152255529E+02  0.00000000000E+00 0. -1.
</event>
<event>
 8    1  0.2971508E-007  0.9118800E+02  0.7816164E-02  0.1184000E+00
        -11   -1    0    0    0    0  0.00000000000E+00  0.00000000000E+00  0.45593999997E+02  0.45594000000E+02  0.51100000000E-03 0.  1.
         11   -1    0    0    0    0 -0.00000000000E+00 -0.00000000000E+00 -0.45593999997E+02  0.45594000000E+02  0.51100000000E-03 0. -1.
         23    2    1    2    0    0 -0.10824674490E-14  0.35527136788E-14  0.00000000000E+00  0.91188000000E+02  0.91188000000E+02 0.  0.
    9900012    2    3    3    0    0 -0.23556046980E+00  0.26611961729E+02  0.25446604919E+02  0.54367058978E+02  0.39999942553E+02 0.  0.
         12    1    3    3    0    0  0.23556046980E+00 -0.26611961729E+02 -0.25446604919E+02  0.36820941022E+02  0.00000000000E+00 0. -1.
         11    1    4    4    0    0  0.52828505808E+01  0.18861414615E+02 -0.32090065118E+01  0.19848405341E+02  0.51100000000E-03 0. -1.
        -11    1    4    4    0    0  0.41986004647E+01 -0.65077678795E-01  0.12053537066E+01  0.43686792953E+01  0.51100000000E-03 0.  1.
        -12    1    4    4    0    0 -0.97170115153E+01  0.78156247930E+01  0.27450257724E+02  0.30149974342E+02  0.00000000000E+00 0.  1.
</event>
<event>
 8    1  0.2971508E-007  0.9118800E+02  0.7816164E-02  0.1184000E+00
        -11   -1    0    0    0    0  0.00000000000E+00  0.00000000000E+00  0.45593999997E+02  0.45594000000E+02  0.51100000000E-03 0.  1.
         11   -1    0    0    0    0 -0.00000000000E+00 -0.00000000000E+00 -0.45593999997E+02  0.45594000000E+02  0.51100000000E-03 0. -1.
         23    2    1    2    0    0 -0.35527136788E-14  0.35527136788E-14  0.00000000000E+00  0.91188000000E+02  0.91188000000E+02 0.  0.
    9900012    2    3    3    0    0  0.28323786273E+02 -0.22975282879E+02 -0.50674599665E+01  0.54367086884E+02  0.40000006168E+02 0.  0.
        -12    1    3    3    0    0 -0.28323786273E+02  0.22975282879E+02  0.50674599665E+01  0.36820913116E+02  0.00000000000E+00 0.  1.
         11    1    4    4    0    0  0.28415707316E+01 -0.77181452114E+01  0.71745994470E+01  0.10914172768E+02  0.51100000000E-03 0. -1.
        -11    1    4    4    0    0 -0.19003403957E+01  0.61073475211E+01 -0.46337854480E+01  0.78982881185E+01  0.51100000000E-03 0.  1.
         12    1    4    4    0    0  0.27382555937E+02 -0.21364485189E+02 -0.76082739656E+01  0.35554625997E+02  0.00000000000E+00 0. -1.
</event>
<event>
 8    1  0.2971508E-007  0.9118800E+02  0.7816164E-02  0.1184000E+00
        -11   -1    0    0    0    0  0.00000000000E+00  0.00000000000E+00  0.45593999997E+02  0.45594000000E+02  0.51100000000E-03 0. -1.
         11   -1    0    0    0    0 -0.00000000000E+00 -0.00000000000E+00 -0.45593999997E+02  0.45594000000E+02  0.51100000000E-03 0.  1.
         23    2    1    2    0    0  0.00000000000E+00 -0.35527136788E-14  0.17763568394E-14  0.91188000000E+02  0.91188000000E+02 0.  0.
    9900012    2    3    3    0    0  0.28078304302E+02 -0.22297157387E+02  0.83801211648E+01  0.54367070751E+02  0.39999969391E+02 0.  0.
        -12    1    3    3    0    0 -0.28078304302E+02  0.22297157387E+02 -0.83801211648E+01  0.36820929249E+02  0.00000000000E+00 0.  1.
         11    1    4    4    0    0  0.23911520556E+02 -0.30867954631E+02  0.15799309188E+02  0.42121367612E+02  0.51100000000E-03 0. -1.
        -11    1    4    4    0    0  0.17642478438E+01  0.50965791095E+01 -0.51197225589E+01  0.74363464426E+01  0.51100000000E-03 0.  1.
         12    1    4    4    0    0  0.24025359027E+01  0.34742181351E+01 -0.22994654640E+01  0.48093566965E+01  0.00000000000E+00 0. -1.
</event>
<event>
 8    1  0.2971508E-007  0.9118800E+02  0.7816164E-02  0.1184000E+00
        -11   -1    0    0    0    0  0.00000000000E+00  0.00000000000E+00  0.45593999997E+02  0.45594000000E+02  0.51100000000E-03 0.  1.
         11   -1    0    0    0    0 -0.00000000000E+00 -0.00000000000E+00 -0.45593999997E+02  0.45594000000E+02  0.51100000000E-03 0. -1.
         23    2    1    2    0    0  0.00000000000E+00 -0.17763568394E-14  0.00000000000E+00  0.91188000000E+02  0.91188000000E+02 0.  0.
    9900012    2    3    3    0    0  0.34512747221E+02 -0.10347705876E+02 -0.75878324683E+01  0.54367082857E+02  0.39999996990E+02 0.  0.
        -12    1    3    3    0    0 -0.34512747221E+02  0.10347705876E+02  0.75878324683E+01  0.36820917143E+02  0.00000000000E+00 0.  1.
         11    1    4    4    0    0  0.45033441488E+01 -0.39140583846E+01 -0.55717907411E+01  0.81636274955E+01  0.51100000000E-03 0. -1.
        -11    1    4    4    0    0  0.17983747024E+02  0.11892125842E+02  0.67564774085E+01  0.22593977103E+02  0.51100000000E-03 0.  1.
        -12    1    4    4    0    0  0.12025656048E+02 -0.18325773334E+02 -0.87725191356E+01  0.23609478259E+02  0.00000000000E+00 0.  1.
</event>
<event>
 8    1  0.2971508E-007  0.9118800E+02  0.7816164E-02  0.1184000E+00
        -11   -1    0    0    0    0  0.00000000000E+00  0.00000000000E+00  0.45593999997E+02  0.45594000000E+02  0.51100000000E-03 0.  1.
         11   -1    0    0    0    0 -0.00000000000E+00 -0.00000000000E+00 -0.45593999997E+02  0.45594000000E+02  0.51100000000E-03 0. -1.
         23    2    1    2    0    0  0.00000000000E+00  0.00000000000E+00  0.17763568394E-14  0.91188000000E+02  0.91188000000E+02 0.  0.
    9900012    2    3    3    0    0  0.31480008054E+02 -0.17229189425E+02  0.82428245637E+01  0.54367081596E+02  0.39999994114E+02 0.  0.
         12    1    3    3    0    0 -0.31480008054E+02  0.17229189425E+02 -0.82428245637E+01  0.36820918404E+02  0.00000000000E+00 0. -1.
         11    1    4    4    0    0  0.46743017908E+01  0.72105101115E+01  0.38009841624E+01  0.93961712502E+01  0.51100000000E-03 0. -1.
        -11    1    4    4    0    0  0.22286136289E+02 -0.56671974669E+01 -0.49142953311E+01  0.23514661313E+02  0.51100000000E-03 0.  1.
        -12    1    4    4    0    0  0.45195699749E+01 -0.18772502070E+02  0.93561357323E+01  0.21456249033E+02  0.00000000000E+00 0.  1.
</event>
<event>
 8    1  0.2971508E-007  0.9118800E+02  0.7816164E-02  0.1184000E+00
        -11   -1    0    0    0    0  0.00000000000E+00  0.00000000000E+00  0.45593999997E+02  0.45594000000E+02  0.51100000000E-03 0. -1.
         11   -1    0    0    0    0 -0.00000000000E+00 -0.00000000000E+00 -0.45593999997E+02  0.45594000000E+02  0.51100000000E-03 0.  1.
         23    2    1    2    0    0  0.88817841970E-15  0.88817841970E-15 -0.71054273576E-14  0.91188000000E+02  0.91188000000E+02 0.  0.
    9900012    2    3    3    0    0  0.54060001001E+01  0.56029666956E+01 -0.35988358161E+02  0.54367082086E+02  0.39999995232E+02 0.  0.
         12    1    3    3    0    0 -0.54060001001E+01 -0.56029666956E+01  0.35988358161E+02  0.36820917914E+02  0.00000000000E+00 0. -1.
         11    1    4    4    0    0  0.15159335819E+02 -0.20726377908E+01 -0.32686494621E+02  0.36090278757E+02  0.51100000000E-03 0.  1.
        -11    1    4    4    0    0 -0.12719851245E+02  0.41756779790E+01 -0.24083610213E+01  0.13602613916E+02  0.51100000000E-03 0. -1.
        -12    1    4    4    0    0  0.29665155259E+01  0.34999265074E+01 -0.89350251899E+00  0.46741894136E+01  0.00000000000E+00 0.  1.
</event>
<event>
 8    1  0.2971508E-007  0.9118800E+02  0.7816164E-02  0.1184000E+00
        -11   -1    0    0    0    0  0.00000000000E+00  0.00000000000E+00  0.45593999997E+02  0.45594000000E+02  0.51100000000E-03 0.  1.
         11   -1    0    0    0    0 -0.00000000000E+00 -0.00000000000E+00 -0.45593999997E+02  0.45594000000E+02  0.51100000000E-03 0. -1.
         23    2    1    2    0    0  0.44408920985E-15  0.17763568394E-14 -0.71054273576E-14  0.91188000000E+02  0.91188000000E+02 0.  0.
    9900012    2    3    3    0    0  0.16440001975E+01 -0.13639009844E+02 -0.34162074602E+02  0.54367181605E+02  0.40000222104E+02 0.  0.
        -12    1    3    3    0    0 -0.16440001975E+01  0.13639009844E+02  0.34162074602E+02  0.36820818395E+02  0.00000000000E+00 0.  1.
         11    1    4    4    0    0  0.81977369552E+01  0.64469589842E+01  0.10735599169E+01  0.10484212058E+02  0.51100000000E-03 0. -1.
        -11    1    4    4    0    0 -0.15902888424E+01 -0.19309392403E+02 -0.20022739810E+02  0.27862012909E+02  0.51100000000E-03 0.  1.
         12    1    4    4    0    0 -0.49634479153E+01 -0.77657642494E+00 -0.15212894709E+02  0.16020956638E+02  0.00000000000E+00 0. -1.
</event>
<event>
 8    1  0.2971508E-007  0.9118800E+02  0.7816164E-02  0.1184000E+00
        -11   -1    0    0    0    0  0.00000000000E+00  0.00000000000E+00  0.45593999997E+02  0.45594000000E+02  0.51100000000E-03 0.  1.
         11   -1    0    0    0    0 -0.00000000000E+00 -0.00000000000E+00 -0.45593999997E+02  0.45594000000E+02  0.51100000000E-03 0. -1.
         23    2    1    2    0    0 -0.71054273576E-14  0.00000000000E+00  0.88817841970E-15  0.91188000000E+02  0.91188000000E+02 0.  0.
    9900012    2    3    3    0    0  0.31775356289E+02  0.18601004877E+02  0.32146293595E+00  0.54367163669E+02  0.40000181215E+02 0.  0.
        -12    1    3    3    0    0 -0.31775356289E+02 -0.18601004877E+02 -0.32146293595E+00  0.36820836331E+02  0.00000000000E+00 0.  1.
         11    1    4    4    0    0  0.14690082784E+02  0.50809307263E+01 -0.14788241432E+02  0.21454754115E+02  0.51100000000E-03 0. -1.
        -11    1    4    4    0    0  0.18511221467E+02  0.32824201867E+01  0.11052433926E+02  0.21808161280E+02  0.51100000000E-03 0.  1.
         12    1    4    4    0    0 -0.14259479613E+01  0.10237653964E+02  0.40572704419E+01  0.11104248273E+02  0.00000000000E+00 0. -1.
</event>
<event>
 8    1  0.2971508E-007  0.9118800E+02  0.7816164E-02  0.1184000E+00
        -11   -1    0    0    0    0  0.00000000000E+00  0.00000000000E+00  0.45593999997E+02  0.45594000000E+02  0.51100000000E-03 0.  1.
         11   -1    0    0    0    0 -0.00000000000E+00 -0.00000000000E+00 -0.45593999997E+02  0.45594000000E+02  0.51100000000E-03 0. -1.
         23    2    1    2    0    0  0.00000000000E+00  0.00000000000E+00  0.35527136788E-14  0.91188000000E+02  0.91188000000E+02 0.  0.
    9900012    2    3    3    0    0 -0.18483630762E+02  0.19315658077E+02  0.25318788721E+02  0.54367077749E+02  0.39999985345E+02 0.  0.
         12    1    3    3    0    0  0.18483630762E+02 -0.19315658077E+02 -0.25318788721E+02  0.36820922251E+02  0.00000000000E+00 0. -1.
         11    1    4    4    0    0  0.14997393461E+00  0.69878160921E+01  0.11260941977E+02  0.13253711948E+02  0.51100000000E-03 0. -1.
        -11    1    4    4    0    0 -0.84321797348E+01  0.19598356893E+02 -0.12032310559E+01  0.21369253923E+02  0.51100000000E-03 0.  1.
         12    1    4    4    0    0 -0.10201424961E+02 -0.72705149081E+01  0.15261077800E+02  0.19744111879E+02  0.00000000000E+00 0. -1.
</event>
<event>
 8    1  0.2971508E-007  0.9118800E+02  0.7816164E-02  0.1184000E+00
        -11   -1    0    0    0    0  0.00000000000E+00  0.00000000000E+00  0.45593999997E+02  0.45594000000E+02  0.51100000000E-03 0. -1.
         11   -1    0    0    0    0 -0.00000000000E+00 -0.00000000000E+00 -0.45593999997E+02  0.45594000000E+02  0.51100000000E-03 0.  1.
         23    2    1    2    0    0 -0.35527136788E-14  0.00000000000E+00  0.17763568394E-14  0.91188000000E+02  0.91188000000E+02 0.  0.
    9900012    2    3    3    0    0  0.13722720047E+02  0.32611236294E+02  0.10196004339E+02  0.54367295463E+02  0.40000481664E+02 0.  0.
         12    1    3    3    0    0 -0.13722720047E+02 -0.32611236294E+02 -0.10196004339E+02  0.36820704537E+02  0.00000000000E+00 0. -1.
         11    1    4    4    0    0  0.20883692523E+02  0.16441215893E+02 -0.81709263591E+01  0.27806586113E+02  0.51100000000E-03 0. -1.
        -11    1    4    4    0    0 -0.30832441933E+01  0.69847092311E+01  0.30082372787E+01  0.82062201764E+01  0.51100000000E-03 0.  1.
         12    1    4    4    0    0 -0.40777282828E+01  0.91853111703E+01  0.15358693420E+02  0.18354489173E+02  0.00000000000E+00 0. -1.
</event>
<event>
 8    1  0.2971508E-007  0.9118800E+02  0.7816164E-02  0.1184000E+00
        -11   -1    0    0    0    0  0.00000000000E+00  0.00000000000E+00  0.45593999997E+02  0.45594000000E+02  0.51100000000E-03 0. -1.
         11   -1    0    0    0    0 -0.00000000000E+00 -0.00000000000E+00 -0.45593999997E+02  0.45594000000E+02  0.51100000000E-03 0.  1.
         23    2    1    2    0    0  0.35527136788E-14  0.35527136788E-14  0.17763568394E-14  0.91188000000E+02  0.91188000000E+02 0.  0.
    9900012    2    3    3    0    0  0.21398255636E+02 -0.29468831911E+02 -0.54298609513E+01  0.54367071326E+02  0.39999970703E+02 0.  0.
         12    1    3    3    0    0 -0.21398255636E+02  0.29468831911E+02  0.54298609513E+01  0.36820928674E+02  0.00000000000E+00 0. -1.
         11    1    4    4    0    0 -0.63994546811E+00  0.13021583076E+01 -0.37115926153E+01  0.39851055774E+01  0.51100000000E-03 0. -1.
        -11    1    4    4    0    0 -0.76152280006E+01 -0.28808316625E+01 -0.49779525785E+01  0.95431074972E+01  0.51100000000E-03 0.  1.
        -12    1    4    4    0    0  0.29653429105E+02 -0.27890158556E+02  0.32596842424E+01  0.40838858252E+02  0.00000000000E+00 0.  1.
</event>
<event>
 8    1  0.2971508E-007  0.9118800E+02  0.7816164E-02  0.1184000E+00
        -11   -1    0    0    0    0  0.00000000000E+00  0.00000000000E+00  0.45593999997E+02  0.45594000000E+02  0.51100000000E-03 0.  1.
         11   -1    0    0    0    0 -0.00000000000E+00 -0.00000000000E+00 -0.45593999997E+02  0.45594000000E+02  0.51100000000E-03 0. -1.
         23    2    1    2    0    0  0.00000000000E+00  0.00000000000E+00  0.35527136788E-14  0.91188000000E+02  0.91188000000E+02 0.  0.
    9900012    2    3    3    0    0  0.15968570734E+02  0.21755567916E+02 -0.25049569200E+02  0.54367069760E+02  0.39999967131E+02 0.  0.
        -12    1    3    3    0    0 -0.15968570734E+02 -0.21755567916E+02  0.25049569200E+02  0.36820930240E+02  0.00000000000E+00 0.  1.
         11    1    4    4    0    0  0.25550102109E+01 -0.26570755846E+01 -0.31554428503E+01  0.48523136423E+01  0.51100000000E-03 0. -1.
        -11    1    4    4    0    0 -0.37077030237E+01 -0.50655786827E-01 -0.19176626384E+02  0.19531836254E+02  0.51100000000E-03 0.  1.
        -12    1    4    4    0    0  0.17121263547E+02  0.24463299288E+02 -0.27174999660E+01  0.29982919863E+02  0.00000000000E+00 0.  1.
</event>
<event>
 8    1  0.2971508E-007  0.9118800E+02  0.7816164E-02  0.1184000E+00
        -11   -1    0    0    0    0  0.00000000000E+00  0.00000000000E+00  0.45593999997E+02  0.45594000000E+02  0.51100000000E-03 0. -1.
         11   -1    0    0    0    0 -0.00000000000E+00 -0.00000000000E+00 -0.45593999997E+02  0.45594000000E+02  0.51100000000E-03 0.  1.
         23    2    1    2    0    0  0.35527136788E-14  0.00000000000E+00  0.00000000000E+00  0.91188000000E+02  0.91188000000E+02 0.  0.
    9900012    2    3    3    0    0  0.16376710011E+02  0.16518230179E+02 -0.28543476532E+02  0.54367100885E+02  0.40000038088E+02 0.  0.
         12    1    3    3    0    0 -0.16376710011E+02 -0.16518230179E+02  0.28543476532E+02  0.36820899115E+02  0.00000000000E+00 0. -1.
         11    1    4    4    0    0  0.10716726835E+02 -0.45965527139E+01  0.56458917330E+01  0.12955795021E+02  0.51100000000E-03 0. -1.
        -11    1    4    4    0    0  0.71050371685E+01  0.16813425923E+02 -0.23183567969E+02  0.29506790210E+02  0.51100000000E-03 0.  1.
         12    1    4    4    0    0 -0.14450539917E+01  0.43013569704E+01 -0.11005800296E+02  0.11904515655E+02  0.00000000000E+00 0. -1.
</event>
<event>
 8    1  0.2971508E-007  0.9118800E+02  0.7816164E-02  0.1184000E+00
        -11   -1    0    0    0    0  0.00000000000E+00  0.00000000000E+00  0.45593999997E+02  0.45594000000E+02  0.51100000000E-03 0.  1.
         11   -1    0    0    0    0 -0.00000000000E+00 -0.00000000000E+00 -0.45593999997E+02  0.45594000000E+02  0.51100000000E-03 0. -1.
         23    2    1    2    0    0 -0.35527136788E-14  0.00000000000E+00  0.00000000000E+00  0.91188000000E+02  0.91188000000E+02 0.  0.
    9900012    2    3    3    0    0  0.25194370541E+02  0.10548171941E+02  0.24693310854E+02  0.54367084216E+02  0.40000000086E+02 0.  0.
         12    1    3    3    0    0 -0.25194370541E+02 -0.10548171941E+02 -0.24693310854E+02  0.36820915784E+02  0.00000000000E+00 0. -1.
         11    1    4    4    0    0  0.32398797824E+02  0.41042080347E+01  0.18502179035E+02  0.37534747279E+02  0.51100000000E-03 0. -1.
        -11    1    4    4    0    0 -0.62957363069E+01  0.95690910857E+01  0.70707214949E+01  0.13461014173E+02  0.51100000000E-03 0.  1.
        -12    1    4    4    0    0 -0.90869097563E+00 -0.31251271794E+01 -0.87958967566E+00  0.33713227633E+01  0.00000000000E+00 0.  1.
</event>
<event>
 8    1  0.2971508E-007  0.9118800E+02  0.7816164E-02  0.1184000E+00
        -11   -1    0    0    0    0  0.00000000000E+00  0.00000000000E+00  0.45593999997E+02  0.45594000000E+02  0.51100000000E-03 0.  1.
         11   -1    0    0    0    0 -0.00000000000E+00 -0.00000000000E+00 -0.45593999997E+02  0.45594000000E+02  0.51100000000E-03 0. -1.
         23    2    1    2    0    0  0.00000000000E+00  0.35527136788E-14  0.35527136788E-14  0.91188000000E+02  0.91188000000E+02 0.  0.
    9900012    2    3    3    0    0 -0.21263401412E+02  0.24899543088E+02  0.16842306486E+02  0.54367044372E+02  0.39999909254E+02 0.  0.
        -12    1    3    3    0    0  0.21263401412E+02 -0.24899543088E+02 -0.16842306486E+02  0.36820955628E+02  0.00000000000E+00 0.  1.
         11    1    4    4    0    0 -0.96610884057E+00  0.13889569741E+01 -0.65411396305E+01  0.67564099709E+01  0.51100000000E-03 0. -1.
        -11    1    4    4    0    0  0.48193858063E+01 -0.17380747173E+01  0.22254212562E+00  0.51280511436E+01  0.51100000000E-03 0.  1.
         12    1    4    4    0    0 -0.25116678378E+02  0.25248660832E+02  0.23160903991E+02  0.42482583257E+02  0.00000000000E+00 0. -1.
</event>
<event>
 8    1  0.2971508E-007  0.9118800E+02  0.7816164E-02  0.1184000E+00
        -11   -1    0    0    0    0  0.00000000000E+00  0.00000000000E+00  0.45593999997E+02  0.45594000000E+02  0.51100000000E-03 0.  1.
         11   -1    0    0    0    0 -0.00000000000E+00 -0.00000000000E+00 -0.45593999997E+02  0.45594000000E+02  0.51100000000E-03 0. -1.
         23    2    1    2    0    0  0.35527136788E-14 -0.35527136788E-14 -0.17763568394E-14  0.91188000000E+02  0.91188000000E+02 0.  0.
    9900012    2    3    3    0    0  0.21633929518E+02 -0.28007248723E+02 -0.10165938757E+02  0.54367092919E+02  0.40000019927E+02 0.  0.
        -12    1    3    3    0    0 -0.21633929518E+02  0.28007248723E+02  0.10165938757E+02  0.36820907081E+02  0.00000000000E+00 0.  1.
         11    1    4    4    0    0  0.99700452894E+01 -0.22770188564E+02  0.32603401418E+01  0.25070163710E+02  0.51100000000E-03 0. -1.
        -11    1    4    4    0    0  0.22367730687E+01 -0.13036804669E+02 -0.10026382154E+02  0.16597884476E+02  0.51100000000E-03 0.  1.
        -12    1    4    4    0    0  0.94271111603E+01  0.77997445099E+01 -0.33998967454E+01  0.12699044733E+02  0.00000000000E+00 0.  1.
</event>
<event>
 8    1  0.2971508E-007  0.9118800E+02  0.7816164E-02  0.1184000E+00
        -11   -1    0    0    0    0  0.00000000000E+00  0.00000000000E+00  0.45593999997E+02  0.45594000000E+02  0.51100000000E-03 0.  1.
         11   -1    0    0    0    0 -0.00000000000E+00 -0.00000000000E+00 -0.45593999997E+02  0.45594000000E+02  0.51100000000E-03 0. -1.
         23    2    1    2    0    0  0.00000000000E+00  0.00000000000E+00  0.00000000000E+00  0.91188000000E+02  0.91188000000E+02 0.  0.
    9900012    2    3    3    0    0  0.25800028682E+02  0.96363333588E+01 -0.24439301057E+02  0.54367084248E+02  0.40000000161E+02 0.  0.
        -12    1    3    3    0    0 -0.25800028682E+02 -0.96363333588E+01  0.24439301057E+02  0.36820915752E+02  0.00000000000E+00 0.  1.
         11    1    4    4    0    0  0.36363652710E+00 -0.14370420953E+01 -0.23363617815E+01  0.27669311778E+01  0.51100000000E-03 0.  1.
        -11    1    4    4    0    0  0.13929752576E+02 -0.10177712854E+02  0.21226508059E+01  0.17381872525E+02  0.51100000000E-03 0. -1.
         12    1    4    4    0    0  0.11506639580E+02  0.21251088308E+02 -0.24225590082E+02  0.34218280546E+02  0.00000000000E+00 0. -1.
</event>
<event>
 8    1  0.2971508E-007  0.9118800E+02  0.7816164E-02  0.1184000E+00
        -11   -1    0    0    0    0  0.00000000000E+00  0.00000000000E+00  0.45593999997E+02  0.45594000000E+02  0.51100000000E-03 0.  1.
         11   -1    0    0    0    0 -0.00000000000E+00 -0.00000000000E+00 -0.45593999997E+02  0.45594000000E+02  0.51100000000E-03 0. -1.
         23    2    1    2    0    0  0.35527136788E-14  0.17763568394E-14  0.35527136788E-14  0.91188000000E+02  0.91188000000E+02 0.  0.
    9900012    2    3    3    0    0  0.26173855777E+02  0.14810401859E+02  0.21245269540E+02  0.54367079217E+02  0.39999988690E+02 0.  0.
        -12    1    3    3    0    0 -0.26173855777E+02 -0.14810401859E+02 -0.21245269540E+02  0.36820920783E+02  0.00000000000E+00 0.  1.
         11    1    4    4    0    0  0.19736046257E+02 -0.62106598782E+01  0.10013637508E+01  0.20714404351E+02  0.51100000000E-03 0. -1.
        -11    1    4    4    0    0  0.82911057011E+01  0.17790271568E+02  0.22044188999E+02  0.29515800262E+02  0.51100000000E-03 0.  1.
         12    1    4    4    0    0 -0.18532961811E+01  0.32307901692E+01 -0.18002832093E+01  0.41368746036E+01  0.00000000000E+00 0. -1.
</event>
<event>
 8    1  0.2971508E-007  0.9118800E+02  0.7816164E-02  0.1184000E+00
        -11   -1    0    0    0    0  0.00000000000E+00  0.00000000000E+00  0.45593999997E+02  0.45594000000E+02  0.51100000000E-03 0. -1.
         11   -1    0    0    0    0 -0.00000000000E+00 -0.00000000000E+00 -0.45593999997E+02  0.45594000000E+02  0.51100000000E-03 0.  1.
         23    2    1    2    0    0  0.00000000000E+00  0.00000000000E+00 -0.17763568394E-14  0.91188000000E+02  0.91188000000E+02 0.  0.
    9900012    2    3    3    0    0  0.48541526159E+01 -0.35298921456E+02 -0.92845237487E+01  0.54367095139E+02  0.40000024987E+02 0.  0.
         12    1    3    3    0    0 -0.48541526159E+01  0.35298921456E+02  0.92845237487E+01  0.36820904861E+02  0.00000000000E+00 0. -1.
         11    1    4    4    0    0  0.70252904264E+01 -0.19633830862E+02  0.24407162078E+01  0.20995216497E+02  0.51100000000E-03 0. -1.
        -11    1    4    4    0    0 -0.11338885584E+02 -0.71577541773E+01  0.33131502527E+01  0.13812339990E+02  0.51100000000E-03 0.  1.
        -12    1    4    4    0    0  0.91677477737E+01 -0.85073364165E+01 -0.15038390209E+02  0.19559538651E+02  0.00000000000E+00 0.  1.
</event>
<event>
 8    1  0.2971508E-007  0.9118800E+02  0.7816164E-02  0.1184000E+00
        -11   -1    0    0    0    0  0.00000000000E+00  0.00000000000E+00  0.45593999997E+02  0.45594000000E+02  0.51100000000E-03 0.  1.
         11   -1    0    0    0    0 -0.00000000000E+00 -0.00000000000E+00 -0.45593999997E+02  0.45594000000E+02  0.51100000000E-03 0. -1.
         23    2    1    2    0    0  0.17763568394E-14 -0.88817841970E-15  0.00000000000E+00  0.91188000000E+02  0.91188000000E+02 0.  0.
    9900012    2    3    3    0    0 -0.14738015174E+02 -0.45508427036E+01 -0.33434425724E+02  0.54367080891E+02  0.39999992507E+02 0.  0.
        -12    1    3    3    0    0  0.14738015174E+02  0.45508427036E+01  0.33434425724E+02  0.36820919109E+02  0.00000000000E+00 0.  1.
         11    1    4    4    0    0 -0.32025245115E+01  0.39946349786E+01 -0.17354636947E+02  0.18094106656E+02  0.51100000000E-03 0. -1.
        -11    1    4    4    0    0  0.25327895489E+00 -0.15246955538E+02 -0.16806070181E+02  0.22693122276E+02  0.51100000000E-03 0.  1.
        -12    1    4    4    0    0 -0.11788769617E+02  0.67014778560E+01  0.72628140497E+00  0.13579851959E+02  0.00000000000E+00 0.  1.
</event>
<event>
 8    1  0.2971508E-007  0.9118800E+02  0.7816164E-02  0.1184000E+00
        -11   -1    0    0    0    0  0.00000000000E+00  0.00000000000E+00  0.45593999997E+02  0.45594000000E+02  0.51100000000E-03 0. -1.
         11   -1    0    0    0    0 -0.00000000000E+00 -0.00000000000E+00 -0.45593999997E+02  0.45594000000E+02  0.51100000000E-03 0.  1.
         23    2    1    2    0    0  0.00000000000E+00  0.35527136788E-14  0.00000000000E+00  0.91188000000E+02  0.91188000000E+02 0.  0.
    9900012    2    3    3    0    0  0.16839750986E+02 -0.30232356084E+02 -0.12578107671E+02  0.54367063561E+02  0.39999953000E+02 0.  0.
        -12    1    3    3    0    0 -0.16839750986E+02  0.30232356084E+02  0.12578107671E+02  0.36820936439E+02  0.00000000000E+00 0.  1.
         11    1    4    4    0    0  0.20790444695E+02 -0.14313664749E+02  0.85785709889E+01  0.26659247357E+02  0.51100000000E-03 0. -1.
        -11    1    4    4    0    0 -0.54307016181E+01 -0.15047909122E+02 -0.17767833612E+02  0.23908743182E+02  0.51100000000E-03 0.  1.
         12    1    4    4    0    0  0.14800079093E+01 -0.87078221288E+00 -0.33888450471E+01  0.37990730220E+01  0.00000000000E+00 0. -1.
</event>
<event>
 8    1  0.2971508E-007  0.9118800E+02  0.7816164E-02  0.1184000E+00
        -11   -1    0    0    0    0  0.00000000000E+00  0.00000000000E+00  0.45593999997E+02  0.45594000000E+02  0.51100000000E-03 0.  1.
         11   -1    0    0    0    0 -0.00000000000E+00 -0.00000000000E+00 -0.45593999997E+02  0.45594000000E+02  0.51100000000E-03 0. -1.
         23    2    1    2    0    0 -0.11102230246E-14 -0.35527136788E-14  0.00000000000E+00  0.91188000000E+02  0.91188000000E+02 0.  0.
    9900012    2    3    3    0    0 -0.12275379848E+01  0.28267725402E+02  0.23562873909E+02  0.54367079645E+02  0.39999989668E+02 0.  0.
         12    1    3    3    0    0  0.12275379848E+01 -0.28267725402E+02 -0.23562873909E+02  0.36820920355E+02  0.00000000000E+00 0. -1.
         11    1    4    4    0    0  0.83688637344E+01  0.90317411331E+01 -0.63019635180E+00  0.12329127131E+02  0.51100000000E-03 0. -1.
        -11    1    4    4    0    0  0.78759006961E+01 -0.37800712473E+00  0.77037862383E+01  0.11023657461E+02  0.51100000000E-03 0.  1.
         12    1    4    4    0    0 -0.17472302415E+02  0.19613991394E+02  0.16489284022E+02  0.31014295053E+02  0.00000000000E+00 0. -1.
</event>
<event>
 8    1  0.2971508E-007  0.9118800E+02  0.7816164E-02  0.1184000E+00
        -11   -1    0    0    0    0  0.00000000000E+00  0.00000000000E+00  0.45593999997E+02  0.45594000000E+02  0.51100000000E-03 0.  1.
         11   -1    0    0    0    0 -0.00000000000E+00 -0.00000000000E+00 -0.45593999997E+02  0.45594000000E+02  0.51100000000E-03 0. -1.
         23    2    1    2    0    0 -0.35527136788E-14  0.17763568394E-14 -0.35527136788E-14  0.91188000000E+02  0.91188000000E+02 0.  0.
    9900012    2    3    3    0    0  0.29323243228E+02  0.73930177721E+01  0.21006185758E+02  0.54367229431E+02  0.40000331132E+02 0.  0.
         12    1    3    3    0    0 -0.29323243228E+02 -0.73930177721E+01 -0.21006185758E+02  0.36820770569E+02  0.00000000000E+00 0. -1.
         11    1    4    4    0    0 -0.11209078276E+01 -0.85885708797E+01  0.11982928752E+02  0.14785484972E+02  0.51100000000E-03 0. -1.
        -11    1    4    4    0    0  0.13499037013E+02  0.35080359352E+00  0.95216453336E+01  0.16522977745E+02  0.51100000000E-03 0.  1.
         12    1    4    4    0    0  0.16945114042E+02  0.15630785058E+02 -0.49838832736E+00  0.23058766714E+02  0.00000000000E+00 0. -1.
</event>
<event>
 8    1  0.2971508E-007  0.9118800E+02  0.7816164E-02  0.1184000E+00
        -11   -1    0    0    0    0  0.00000000000E+00  0.00000000000E+00  0.45593999997E+02  0.45594000000E+02  0.51100000000E-03 0. -1.
         11   -1    0    0    0    0 -0.00000000000E+00 -0.00000000000E+00 -0.45593999997E+02  0.45594000000E+02  0.51100000000E-03 0.  1.
         23    2    1    2    0    0 -0.35527136788E-14  0.00000000000E+00  0.17763568394E-14  0.91188000000E+02  0.91188000000E+02 0.  0.
    9900012    2    3    3    0    0 -0.21650654083E+02 -0.26602569096E+02  0.13391507771E+02  0.54367082234E+02  0.39999995569E+02 0.  0.
         12    1    3    3    0    0  0.21650654083E+02  0.26602569096E+02 -0.13391507771E+02  0.36820917766E+02  0.00000000000E+00 0. -1.
         11    1    4    4    0    0  0.57110097699E+01 -0.48732795279E+01 -0.83543624219E+00  0.75539684885E+01  0.51100000000E-03 0. -1.
        -11    1    4    4    0    0 -0.84113090775E+01 -0.17577718799E+01  0.17094547880E+02  0.19132784687E+02  0.51100000000E-03 0.  1.
        -12    1    4    4    0    0 -0.18950354776E+02 -0.19971517688E+02 -0.28676038666E+01  0.27680329059E+02  0.00000000000E+00 0.  1.
</event>
<event>
 8    1  0.2971508E-007  0.9118800E+02  0.7816164E-02  0.1184000E+00
        -11   -1    0    0    0    0  0.00000000000E+00  0.00000000000E+00  0.45593999997E+02  0.45594000000E+02  0.51100000000E-03 0. -1.
         11   -1    0    0    0    0 -0.00000000000E+00 -0.00000000000E+00 -0.45593999997E+02  0.45594000000E+02  0.51100000000E-03 0.  1.
         23    2    1    2    0    0 -0.17763568394E-14  0.00000000000E+00  0.35527136788E-14  0.91188000000E+02  0.91188000000E+02 0.  0.
    9900012    2    3    3    0    0 -0.13050731063E+02  0.19175293283E+02  0.28596627548E+02  0.54367074416E+02  0.39999977746E+02 0.  0.
        -12    1    3    3    0    0  0.13050731063E+02 -0.19175293283E+02 -0.28596627548E+02  0.36820925584E+02  0.00000000000E+00 0.  1.
         11    1    4    4    0    0  0.71991458538E+01 -0.40680122694E+01  0.14726281495E+01  0.83991105944E+01  0.51100000000E-03 0. -1.
        -11    1    4    4    0    0  0.26093562192E+01  0.61956533229E+01  0.11836792246E+02  0.13612659950E+02  0.51100000000E-03 0.  1.
        -12    1    4    4    0    0 -0.22859233136E+02  0.17047652230E+02  0.15287207152E+02  0.32355303872E+02  0.00000000000E+00 0.  1.
</event>
<event>
 8    1  0.2971508E-007  0.9118800E+02  0.7816164E-02  0.1184000E+00
        -11   -1    0    0    0    0  0.00000000000E+00  0.00000000000E+00  0.45593999997E+02  0.45594000000E+02  0.51100000000E-03 0.  1.
         11   -1    0    0    0    0 -0.00000000000E+00 -0.00000000000E+00 -0.45593999997E+02  0.45594000000E+02  0.51100000000E-03 0. -1.
         23    2    1    2    0    0  0.00000000000E+00 -0.44408920985E-15  0.35527136788E-14  0.91188000000E+02  0.91188000000E+02 0.  0.
    9900012    2    3    3    0    0 -0.32935454315E+02  0.91717295838E+00 -0.16437581751E+02  0.54367089487E+02  0.40000012104E+02 0.  0.
        -12    1    3    3    0    0  0.32935454315E+02 -0.91717295838E+00  0.16437581751E+02  0.36820910513E+02  0.00000000000E+00 0.  1.
         11    1    4    4    0    0 -0.86019872592E+01  0.60424245340E+01  0.71811734205E+01  0.12730841724E+02  0.51100000000E-03 0.  1.
        -11    1    4    4    0    0 -0.69762401692E+00 -0.97204374891E+01 -0.38355423338E+01  0.10473059224E+02  0.51100000000E-03 0. -1.
         12    1    4    4    0    0 -0.23635843039E+02  0.45951859136E+01 -0.19783212838E+02  0.31163188539E+02  0.00000000000E+00 0. -1.
</event>
<event>
 8    1  0.2971508E-007  0.9118800E+02  0.7816164E-02  0.1184000E+00
        -11   -1    0    0    0    0  0.00000000000E+00  0.00000000000E+00  0.45593999997E+02  0.45594000000E+02  0.51100000000E-03 0. -1.
         11   -1    0    0    0    0 -0.00000000000E+00 -0.00000000000E+00 -0.45593999997E+02  0.45594000000E+02  0.51100000000E-03 0.  1.
         23    2    1    2    0    0 -0.27755575616E-15  0.00000000000E+00  0.35527136788E-14  0.91188000000E+02  0.91188000000E+02 0.  0.
    9900012    2    3    3    0    0  0.36272705723E+00 -0.26470302267E+02  0.25592381607E+02  0.54367102817E+02  0.40000042493E+02 0.  0.
        -12    1    3    3    0    0 -0.36272705723E+00  0.26470302267E+02 -0.25592381607E+02  0.36820897183E+02  0.00000000000E+00 0.  1.
         11    1    4    4    0    0  0.25009622711E+01  0.18815288934E+01  0.10623172778E+02  0.11074599920E+02  0.51100000000E-03 0. -1.
        -11    1    4    4    0    0  0.11993170652E+02 -0.12725113630E+02  0.13649069314E+02  0.22182464980E+02  0.51100000000E-03 0.  1.
        -12    1    4    4    0    0 -0.14131405866E+02 -0.15626717530E+02  0.13201395151E+01  0.21110037917E+02  0.00000000000E+00 0.  1.
</event>
<event>
 8    1  0.2971508E-007  0.9118800E+02  0.7816164E-02  0.1184000E+00
        -11   -1    0    0    0    0  0.00000000000E+00  0.00000000000E+00  0.45593999997E+02  0.45594000000E+02  0.51100000000E-03 0. -1.
         11   -1    0    0    0    0 -0.00000000000E+00 -0.00000000000E+00 -0.45593999997E+02  0.45594000000E+02  0.51100000000E-03 0.  1.
         23    2    1    2    0    0  0.17763568394E-14  0.44408920985E-15 -0.71054273576E-14  0.91188000000E+02  0.91188000000E+02 0.  0.
    9900012    2    3    3    0    0 -0.13381386995E+02 -0.19234293773E+01  0.34249369022E+02  0.54367076914E+02  0.39999983441E+02 0.  0.
        -12    1    3    3    0    0  0.13381386995E+02  0.19234293773E+01 -0.34249369022E+02  0.36820923086E+02  0.00000000000E+00 0.  1.
         11    1    4    4    0    0 -0.15459175977E+02  0.31717944493E+01  0.40887411272E+01  0.16302276104E+02  0.51100000000E-03 0. -1.
        -11    1    4    4    0    0  0.10927237275E+02  0.13027858209E+01  0.21404726835E+02  0.24067905943E+02  0.51100000000E-03 0.  1.
        -12    1    4    4    0    0 -0.88494482933E+01 -0.63980096475E+01  0.87559010602E+01  0.13996894867E+02  0.00000000000E+00 0.  1.
</event>
<event>
 8    1  0.2971508E-007  0.9118800E+02  0.7816164E-02  0.1184000E+00
        -11   -1    0    0    0    0  0.00000000000E+00  0.00000000000E+00  0.45593999997E+02  0.45594000000E+02  0.51100000000E-03 0. -1.
         11   -1    0    0    0    0 -0.00000000000E+00 -0.00000000000E+00 -0.45593999997E+02  0.45594000000E+02  0.51100000000E-03 0.  1.
         23    2    1    2    0    0 -0.35527136788E-14  0.00000000000E+00 -0.35527136788E-14  0.91188000000E+02  0.91188000000E+02 0.  0.
    9900012    2    3    3    0    0 -0.16756952548E+02 -0.97164530672E+01 -0.31314142537E+02  0.54367076033E+02  0.39999981433E+02 0.  0.
         12    1    3    3    0    0  0.16756952548E+02  0.97164530672E+01  0.31314142537E+02  0.36820923967E+02  0.00000000000E+00 0. -1.
         11    1    4    4    0    0 -0.12792192491E+02 -0.43303019782E+01 -0.10487015357E+01  0.13545902669E+02  0.51100000000E-03 0. -1.
        -11    1    4    4    0    0 -0.14818014020E+02  0.90251655978E+00 -0.16746931472E+02  0.22379628899E+02  0.51100000000E-03 0.  1.
         12    1    4    4    0    0  0.10853253963E+02 -0.62886676487E+01 -0.13518509529E+02  0.18441544466E+02  0.00000000000E+00 0. -1.
</event>
<event>
 8    1  0.2971508E-007  0.9118800E+02  0.7816164E-02  0.1184000E+00
        -11   -1    0    0    0    0  0.00000000000E+00  0.00000000000E+00  0.45593999997E+02  0.45594000000E+02  0.51100000000E-03 0. -1.
         11   -1    0    0    0    0 -0.00000000000E+00 -0.00000000000E+00 -0.45593999997E+02  0.45594000000E+02  0.51100000000E-03 0.  1.
         23    2    1    2    0    0 -0.88817841970E-15  0.13322676296E-14  0.00000000000E+00  0.91188000000E+02  0.91188000000E+02 0.  0.
    9900012    2    3    3    0    0  0.30723998478E+01 -0.18829094876E+01 -0.36644156031E+02  0.54367093436E+02  0.40000021105E+02 0.  0.
         12    1    3    3    0    0 -0.30723998478E+01  0.18829094876E+01  0.36644156031E+02  0.36820906564E+02  0.00000000000E+00 0. -1.
         11    1    4    4    0    0 -0.47166644450E+00 -0.16008306833E+02 -0.83849650671E+01  0.18077499726E+02  0.51100000000E-03 0. -1.
        -11    1    4    4    0    0  0.75319327146E+01  0.16152786786E+02 -0.19267588410E+02  0.26246571105E+02  0.51100000000E-03 0.  1.
        -12    1    4    4    0    0 -0.39878664223E+01 -0.20273894408E+01 -0.89916025539E+01  0.10043022605E+02  0.00000000000E+00 0.  1.
</event>
<event>
 8    1  0.2971508E-007  0.9118800E+02  0.7816164E-02  0.1184000E+00
        -11   -1    0    0    0    0  0.00000000000E+00  0.00000000000E+00  0.45593999997E+02  0.45594000000E+02  0.51100000000E-03 0. -1.
         11   -1    0    0    0    0 -0.00000000000E+00 -0.00000000000E+00 -0.45593999997E+02  0.45594000000E+02  0.51100000000E-03 0.  1.
         23    2    1    2    0    0  0.00000000000E+00  0.00000000000E+00 -0.17763568394E-14  0.91188000000E+02  0.91188000000E+02 0.  0.
    9900012    2    3    3    0    0 -0.34831500082E+02  0.10934910849E+02  0.47934539041E+01  0.54367043011E+02  0.39999906153E+02 0.  0.
         12    1    3    3    0    0  0.34831500082E+02 -0.10934910849E+02 -0.47934539041E+01  0.36820956989E+02  0.00000000000E+00 0. -1.
         11    1    4    4    0    0 -0.96846543457E+01  0.18382321104E+02  0.12933337716E+02  0.24473934782E+02  0.51100000000E-03 0. -1.
        -11    1    4    4    0    0 -0.15669039849E+01 -0.47779267212E+01 -0.12196952808E+01  0.51741113913E+01  0.51100000000E-03 0.  1.
        -12    1    4    4    0    0 -0.23579941751E+02 -0.26694835346E+01 -0.69201885316E+01  0.24718996838E+02  0.00000000000E+00 0.  1.
</event>
<event>
 8    1  0.2971508E-007  0.9118800E+02  0.7816164E-02  0.1184000E+00
        -11   -1    0    0    0    0  0.00000000000E+00  0.00000000000E+00  0.45593999997E+02  0.45594000000E+02  0.51100000000E-03 0.  1.
         11   -1    0    0    0    0 -0.00000000000E+00 -0.00000000000E+00 -0.45593999997E+02  0.45594000000E+02  0.51100000000E-03 0. -1.
         23    2    1    2    0    0  0.35527136788E-14  0.00000000000E+00  0.00000000000E+00  0.91188000000E+02  0.91188000000E+02 0.  0.
    9900012    2    3    3    0    0 -0.24516498153E+02  0.14449486181E+02  0.23365250963E+02  0.54367064580E+02  0.39999955324E+02 0.  0.
         12    1    3    3    0    0  0.24516498153E+02 -0.14449486181E+02 -0.23365250963E+02  0.36820935420E+02  0.00000000000E+00 0. -1.
         11    1    4    4    0    0 -0.76520966930E+01  0.15798461270E+01  0.22592869583E+01  0.81335647415E+01  0.51100000000E-03 0. -1.
        -11    1    4    4    0    0  0.58011103040E+01  0.17113201257E+02  0.88883809233E+01  0.20137473866E+02  0.51100000000E-03 0.  1.
         12    1    4    4    0    0 -0.22665511764E+02 -0.42435612025E+01  0.12217583082E+02  0.26096025973E+02  0.00000000000E+00 0. -1.
</event>
<event>
 8    1  0.2971508E-007  0.9118800E+02  0.7816164E-02  0.1184000E+00
        -11   -1    0    0    0    0  0.00000000000E+00  0.00000000000E+00  0.45593999997E+02  0.45594000000E+02  0.51100000000E-03 0.  1.
         11   -1    0    0    0    0 -0.00000000000E+00 -0.00000000000E+00 -0.45593999997E+02  0.45594000000E+02  0.51100000000E-03 0. -1.
         23    2    1    2    0    0 -0.17763568394E-14  0.00000000000E+00  0.00000000000E+00  0.91188000000E+02  0.91188000000E+02 0.  0.
    9900012    2    3    3    0    0 -0.13845747171E+02 -0.33258286100E+02 -0.76133016900E+01  0.54367072911E+02  0.39999974316E+02 0.  0.
        -12    1    3    3    0    0  0.13845747171E+02  0.33258286100E+02  0.76133016900E+01  0.36820927089E+02  0.00000000000E+00 0.  1.
         11    1    4    4    0    0 -0.14116657940E+02 -0.14673942544E+02  0.39637095035E+01  0.20744050098E+02  0.51100000000E-03 0. -1.
        -11    1    4    4    0    0 -0.73059922262E+01  0.84040348035E+00 -0.10402822465E+02  0.12739800466E+02  0.51100000000E-03 0.  1.
         12    1    4    4    0    0  0.75769029951E+01 -0.19424747037E+02 -0.11741887288E+01  0.20883222347E+02  0.00000000000E+00 0. -1.
</event>
<event>
 8    1  0.2971508E-007  0.9118800E+02  0.7816164E-02  0.1184000E+00
        -11   -1    0    0    0    0  0.00000000000E+00  0.00000000000E+00  0.45593999997E+02  0.45594000000E+02  0.51100000000E-03 0. -1.
         11   -1    0    0    0    0 -0.00000000000E+00 -0.00000000000E+00 -0.45593999997E+02  0.45594000000E+02  0.51100000000E-03 0.  1.
         23    2    1    2    0    0  0.44408920985E-15  0.17763568394E-14  0.00000000000E+00  0.91188000000E+02  0.91188000000E+02 0.  0.
    9900012    2    3    3    0    0 -0.26205263076E+01  0.57371583199E+01 -0.36276711668E+02  0.54367055510E+02  0.39999934646E+02 0.  0.
         12    1    3    3    0    0  0.26205263076E+01 -0.57371583199E+01  0.36276711668E+02  0.36820944490E+02  0.00000000000E+00 0. -1.
         11    1    4    4    0    0  0.30377476418E+01  0.21052342858E+02 -0.16965712017E+02  0.27207800996E+02  0.51100000000E-03 0. -1.
        -11    1    4    4    0    0  0.16286542748E+01 -0.27791287193E+01 -0.27945350998E+00  0.32332902298E+01  0.51100000000E-03 0.  1.
        -12    1    4    4    0    0 -0.72869282242E+01 -0.12536055818E+02 -0.19031546141E+02  0.23925964284E+02  0.00000000000E+00 0.  1.
</event>
<event>
 8    1  0.2971508E-007  0.9118800E+02  0.7816164E-02  0.1184000E+00
        -11   -1    0    0    0    0  0.00000000000E+00  0.00000000000E+00  0.45593999997E+02  0.45594000000E+02  0.51100000000E-03 0. -1.
         11   -1    0    0    0    0 -0.00000000000E+00 -0.00000000000E+00 -0.45593999997E+02  0.45594000000E+02  0.51100000000E-03 0.  1.
         23    2    1    2    0    0 -0.71054273576E-14  0.00000000000E+00  0.88817841970E-15  0.91188000000E+02  0.91188000000E+02 0.  0.
    9900012    2    3    3    0    0  0.34985552425E+02 -0.11312556853E+02  0.19533230767E+01  0.54367105224E+02  0.40000047980E+02 0.  0.
        -12    1    3    3    0    0 -0.34985552425E+02  0.11312556853E+02 -0.19533230767E+01  0.36820894776E+02  0.00000000000E+00 0.  1.
         11    1    4    4    0    0  0.22908037224E+01 -0.68634809058E+01  0.79179397810E+01  0.10726086074E+02  0.51100000000E-03 0. -1.
        -11    1    4    4    0    0  0.31448008101E+02 -0.10885393666E+02  0.19837895025E+01  0.33337732823E+02  0.51100000000E-03 0.  1.
        -12    1    4    4    0    0  0.12467406018E+01  0.64363177184E+01 -0.79484062068E+01  0.10303286327E+02  0.00000000000E+00 0.  1.
</event>
<event>
 8    1  0.2971508E-007  0.9118800E+02  0.7816164E-02  0.1184000E+00
        -11   -1    0    0    0    0  0.00000000000E+00  0.00000000000E+00  0.45593999997E+02  0.45594000000E+02  0.51100000000E-03 0.  1.
         11   -1    0    0    0    0 -0.00000000000E+00 -0.00000000000E+00 -0.45593999997E+02  0.45594000000E+02  0.51100000000E-03 0. -1.
         23    2    1    2    0    0  0.00000000000E+00  0.00000000000E+00 -0.26645352591E-14  0.91188000000E+02  0.91188000000E+02 0.  0.
    9900012    2    3    3    0    0 -0.35340529501E+02  0.95040447627E+01 -0.40620302665E+01  0.54367082275E+02  0.39999995662E+02 0.  0.
         12    1    3    3    0    0  0.35340529501E+02 -0.95040447627E+01  0.40620302665E+01  0.36820917725E+02  0.00000000000E+00 0. -1.
         11    1    4    4    0    0 -0.40381932853E+02  0.14426974805E+02 -0.83735819088E+01  0.43691589319E+02  0.51100000000E-03 0. -1.
        -11    1    4    4    0    0  0.14996592936E+01  0.11278661760E+01 -0.75775682333E+00  0.20236738305E+01  0.51100000000E-03 0.  1.
        -12    1    4    4    0    0  0.35417440592E+01 -0.60507962181E+01  0.50693084656E+01  0.86518191251E+01  0.00000000000E+00 0.  1.
</event>
<event>
 8    1  0.2971508E-007  0.9118800E+02  0.7816164E-02  0.1184000E+00
        -11   -1    0    0    0    0  0.00000000000E+00  0.00000000000E+00  0.45593999997E+02  0.45594000000E+02  0.51100000000E-03 0.  1.
         11   -1    0    0    0    0 -0.00000000000E+00 -0.00000000000E+00 -0.45593999997E+02  0.45594000000E+02  0.51100000000E-03 0. -1.
         23    2    1    2    0    0  0.35527136788E-14  0.88817841970E-15  0.00000000000E+00  0.91188000000E+02  0.91188000000E+02 0.  0.
    9900012    2    3    3    0    0  0.27603133345E+02 -0.78319299038E+01  0.23076135041E+02  0.54367080607E+02  0.39999991860E+02 0.  0.
         12    1    3    3    0    0 -0.27603133345E+02  0.78319299038E+01 -0.23076135041E+02  0.36820919393E+02  0.00000000000E+00 0. -1.
         11    1    4    4    0    0  0.25255470171E+02 -0.86410732599E+01  0.11242967703E+02  0.28963964571E+02  0.51100000000E-03 0.  1.
        -11    1    4    4    0    0 -0.66588762149E+01 -0.11767130214E+01 -0.34205282504E+01  0.75779482549E+01  0.51100000000E-03 0. -1.
        -12    1    4    4    0    0  0.90065393894E+01  0.19858563775E+01  0.15253695589E+02  0.17825167782E+02  0.00000000000E+00 0.  1.
</event>
<event>
 8    1  0.2971508E-007  0.9118800E+02  0.7816164E-02  0.1184000E+00
        -11   -1    0    0    0    0  0.00000000000E+00  0.00000000000E+00  0.45593999997E+02  0.45594000000E+02  0.51100000000E-03 0.  1.
         11   -1    0    0    0    0 -0.00000000000E+00 -0.00000000000E+00 -0.45593999997E+02  0.45594000000E+02  0.51100000000E-03 0. -1.
         23    2    1    2    0    0  0.00000000000E+00  0.00000000000E+00  0.00000000000E+00  0.91188000000E+02  0.91188000000E+02 0.  0.
    9900012    2    3    3    0    0 -0.21239271462E+02  0.28849446899E+02  0.85077675829E+01  0.54367090887E+02  0.40000015296E+02 0.  0.
        -12    1    3    3    0    0  0.21239271462E+02 -0.28849446899E+02 -0.85077675829E+01  0.36820909113E+02  0.00000000000E+00 0.  1.
         11    1    4    4    0    0 -0.74706922739E+01  0.20309121643E+01  0.61972794955E+01  0.99167595855E+01  0.51100000000E-03 0. -1.
        -11    1    4    4    0    0 -0.99008214722E+01  0.22091818062E+02  0.16300494147E+02  0.29185283977E+02  0.51100000000E-03 0.  1.
         12    1    4    4    0    0 -0.38677577160E+01  0.47267166730E+01 -0.13990006060E+02  0.15265047325E+02  0.00000000000E+00 0. -1.
</event>
<event>
 8    1  0.2971508E-007  0.9118800E+02  0.7816164E-02  0.1184000E+00
        -11   -1    0    0    0    0  0.00000000000E+00  0.00000000000E+00  0.45593999997E+02  0.45594000000E+02  0.51100000000E-03 0. -1.
         11   -1    0    0    0    0 -0.00000000000E+00 -0.00000000000E+00 -0.45593999997E+02  0.45594000000E+02  0.51100000000E-03 0.  1.
         23    2    1    2    0    0  0.00000000000E+00  0.00000000000E+00 -0.88817841970E-15  0.91188000000E+02  0.91188000000E+02 0.  0.
    9900012    2    3    3    0    0  0.32091476508E+02  0.17559558615E+02  0.41927388221E+01  0.54367081733E+02  0.39999994426E+02 0.  0.
        -12    1    3    3    0    0 -0.32091476508E+02 -0.17559558615E+02 -0.41927388221E+01  0.36820918267E+02  0.00000000000E+00 0.  1.
         11    1    4    4    0    0  0.12566857524E+02 -0.90302091665E+01 -0.31349289560E+01  0.15789185079E+02  0.51100000000E-03 0. -1.
        -11    1    4    4    0    0  0.32893527280E+01  0.29532816870E+01  0.88179710789E+01  0.98639914994E+01  0.51100000000E-03 0.  1.
        -12    1    4    4    0    0  0.16235266255E+02  0.23636486095E+02 -0.14903033008E+01  0.28713905155E+02  0.00000000000E+00 0.  1.
</event>
<event>
 8    1  0.2971508E-007  0.9118800E+02  0.7816164E-02  0.1184000E+00
        -11   -1    0    0    0    0  0.00000000000E+00  0.00000000000E+00  0.45593999997E+02  0.45594000000E+02  0.51100000000E-03 0. -1.
         11   -1    0    0    0    0 -0.00000000000E+00 -0.00000000000E+00 -0.45593999997E+02  0.45594000000E+02  0.51100000000E-03 0.  1.
         23    2    1    2    0    0  0.00000000000E+00 -0.35527136788E-14  0.00000000000E+00  0.91188000000E+02  0.91188000000E+02 0.  0.
    9900012    2    3    3    0    0 -0.15620131581E+02 -0.23554059268E+02 -0.23600804581E+02  0.54367079378E+02  0.39999989057E+02 0.  0.
         12    1    3    3    0    0  0.15620131581E+02  0.23554059268E+02  0.23600804581E+02  0.36820920622E+02  0.00000000000E+00 0. -1.
         11    1    4    4    0    0  0.57900278598E+01  0.73173967045E+00  0.29422735316E+00  0.58434951492E+01  0.51100000000E-03 0. -1.
        -11    1    4    4    0    0  0.55035464236E+01 -0.30376789969E+01  0.69946687702E+00  0.63250115492E+01  0.51100000000E-03 0.  1.
        -12    1    4    4    0    0 -0.26913705864E+02 -0.21248119941E+02 -0.24594498811E+02  0.42198572679E+02  0.00000000000E+00 0.  1.
</event>
<event>
 8    1  0.2971508E-007  0.9118800E+02  0.7816164E-02  0.1184000E+00
        -11   -1    0    0    0    0  0.00000000000E+00  0.00000000000E+00  0.45593999997E+02  0.45594000000E+02  0.51100000000E-03 0.  1.
         11   -1    0    0    0    0 -0.00000000000E+00 -0.00000000000E+00 -0.45593999997E+02  0.45594000000E+02  0.51100000000E-03 0. -1.
         23    2    1    2    0    0  0.88817841970E-15  0.00000000000E+00  0.00000000000E+00  0.91188000000E+02  0.91188000000E+02 0.  0.
    9900012    2    3    3    0    0  0.64572510469E+01 -0.98534633278E+01 -0.34885412538E+02  0.54367097803E+02  0.40000031063E+02 0.  0.
        -12    1    3    3    0    0 -0.64572510469E+01  0.98534633278E+01  0.34885412538E+02  0.36820902197E+02  0.00000000000E+00 0.  1.
         11    1    4    4    0    0  0.56038900620E+01 -0.36066243883E+01  0.14025830016E+01  0.68101808084E+01  0.51100000000E-03 0. -1.
        -11    1    4    4    0    0  0.15461997516E+02 -0.35373943444E+01 -0.19572189254E+02  0.25192401997E+02  0.51100000000E-03 0.  1.
         12    1    4    4    0    0 -0.14608636531E+02 -0.27094445951E+01 -0.16715806285E+02  0.22364514998E+02  0.00000000000E+00 0. -1.
</event>
<event>
 8    1  0.2971508E-007  0.9118800E+02  0.7816164E-02  0.1184000E+00
        -11   -1    0    0    0    0  0.00000000000E+00  0.00000000000E+00  0.45593999997E+02  0.45594000000E+02  0.51100000000E-03 0. -1.
         11   -1    0    0    0    0 -0.00000000000E+00 -0.00000000000E+00 -0.45593999997E+02  0.45594000000E+02  0.51100000000E-03 0.  1.
         23    2    1    2    0    0  0.22204460493E-15  0.17763568394E-14  0.00000000000E+00  0.91188000000E+02  0.91188000000E+02 0.  0.
    9900012    2    3    3    0    0  0.17200986918E+01 -0.15558270845E+02 -0.33328071739E+02  0.54367097009E+02  0.40000029252E+02 0.  0.
         12    1    3    3    0    0 -0.17200986918E+01  0.15558270845E+02  0.33328071739E+02  0.36820902991E+02  0.00000000000E+00 0. -1.
         11    1    4    4    0    0 -0.11739974335E+01 -0.11488158748E+02 -0.41921161944E+02  0.43482638839E+02  0.51100000000E-03 0.  1.
        -11    1    4    4    0    0  0.27764521625E+01 -0.51016903216E+00  0.22507729326E+01  0.36103930682E+01  0.51100000000E-03 0. -1.
        -12    1    4    4    0    0  0.11764396285E+00 -0.35599430650E+01  0.63423172722E+01  0.72740651021E+01  0.00000000000E+00 0.  1.
</event>
<event>
 8    1  0.2971508E-007  0.9118800E+02  0.7816164E-02  0.1184000E+00
        -11   -1    0    0    0    0  0.00000000000E+00  0.00000000000E+00  0.45593999997E+02  0.45594000000E+02  0.51100000000E-03 0. -1.
         11   -1    0    0    0    0 -0.00000000000E+00 -0.00000000000E+00 -0.45593999997E+02  0.45594000000E+02  0.51100000000E-03 0.  1.
         23    2    1    2    0    0 -0.17763568394E-14  0.00000000000E+00  0.35527136788E-14  0.91188000000E+02  0.91188000000E+02 0.  0.
    9900012    2    3    3    0    0 -0.11691351750E+02  0.19162845263E+02 -0.29186939237E+02  0.54367085205E+02  0.40000002342E+02 0.  0.
         12    1    3    3    0    0  0.11691351750E+02 -0.19162845263E+02  0.29186939237E+02  0.36820914795E+02  0.00000000000E+00 0. -1.
         11    1    4    4    0    0 -0.79466873138E+01  0.31856313558E+01  0.21083876045E+01  0.88172209312E+01  0.51100000000E-03 0. -1.
        -11    1    4    4    0    0  0.26921031542E+01  0.14994483233E+01  0.50416490449E+01  0.59088061417E+01  0.51100000000E-03 0.  1.
        -12    1    4    4    0    0 -0.64367675909E+01  0.14477765583E+02 -0.36336975886E+02  0.39641058132E+02  0.00000000000E+00 0.  1.
</event>
<event>
 8    1  0.2971508E-007  0.9118800E+02  0.7816164E-02  0.1184000E+00
        -11   -1    0    0    0    0  0.00000000000E+00  0.00000000000E+00  0.45593999997E+02  0.45594000000E+02  0.51100000000E-03 0. -1.
         11   -1    0    0    0    0 -0.00000000000E+00 -0.00000000000E+00 -0.45593999997E+02  0.45594000000E+02  0.51100000000E-03 0.  1.
         23    2    1    2    0    0  0.00000000000E+00 -0.35527136788E-14  0.00000000000E+00  0.91188000000E+02  0.91188000000E+02 0.  0.
    9900012    2    3    3    0    0  0.16645369728E+02 -0.22310232892E+02 -0.24103212123E+02  0.54367086653E+02  0.40000005642E+02 0.  0.
         12    1    3    3    0    0 -0.16645369728E+02  0.22310232892E+02  0.24103212123E+02  0.36820913347E+02  0.00000000000E+00 0. -1.
         11    1    4    4    0    0 -0.90662524630E+01 -0.17234506472E+02 -0.63754937553E+01  0.20490780071E+02  0.51100000000E-03 0. -1.
        -11    1    4    4    0    0 -0.22308456766E+00 -0.19350207136E+01  0.51287086826E+00  0.20142265700E+01  0.51100000000E-03 0.  1.
        -12    1    4    4    0    0  0.25934706758E+02 -0.31407057068E+01 -0.18240589236E+02  0.31862080011E+02  0.00000000000E+00 0.  1.
</event>
<event>
 8    1  0.2971508E-007  0.9118800E+02  0.7816164E-02  0.1184000E+00
        -11   -1    0    0    0    0  0.00000000000E+00  0.00000000000E+00  0.45593999997E+02  0.45594000000E+02  0.51100000000E-03 0. -1.
         11   -1    0    0    0    0 -0.00000000000E+00 -0.00000000000E+00 -0.45593999997E+02  0.45594000000E+02  0.51100000000E-03 0.  1.
         23    2    1    2    0    0  0.00000000000E+00 -0.17763568394E-14  0.00000000000E+00  0.91188000000E+02  0.91188000000E+02 0.  0.
    9900012    2    3    3    0    0  0.13462821391E+02  0.97100902588E+01 -0.32867110070E+02  0.54367077456E+02  0.39999984676E+02 0.  0.
         12    1    3    3    0    0 -0.13462821391E+02 -0.97100902588E+01  0.32867110070E+02  0.36820922544E+02  0.00000000000E+00 0. -1.
         11    1    4    4    0    0 -0.72901830059E+01 -0.70961079716E+01 -0.15094811776E+02  0.18203155205E+02  0.51100000000E-03 0. -1.
        -11    1    4    4    0    0  0.21649221858E+02  0.98095878744E+01 -0.10347684882E+02  0.25922796994E+02  0.51100000000E-03 0.  1.
        -12    1    4    4    0    0 -0.89621746047E+00  0.69966103561E+01 -0.74246134117E+01  0.10241125257E+02  0.00000000000E+00 0.  1.
</event>
<event>
 8    1  0.2971508E-007  0.9118800E+02  0.7816164E-02  0.1184000E+00
        -11   -1    0    0    0    0  0.00000000000E+00  0.00000000000E+00  0.45593999997E+02  0.45594000000E+02  0.51100000000E-03 0.  1.
         11   -1    0    0    0    0 -0.00000000000E+00 -0.00000000000E+00 -0.45593999997E+02  0.45594000000E+02  0.51100000000E-03 0. -1.
         23    2    1    2    0    0 -0.22204460493E-15  0.00000000000E+00 -0.35527136788E-14  0.91188000000E+02  0.91188000000E+02 0.  0.
    9900012    2    3    3    0    0  0.19683422515E+01  0.20967225785E+02 -0.30203981339E+02  0.54367089948E+02  0.40000013154E+02 0.  0.
        -12    1    3    3    0    0 -0.19683422515E+01 -0.20967225785E+02  0.30203981339E+02  0.36820910052E+02  0.00000000000E+00 0.  1.
         11    1    4    4    0    0 -0.69870344027E+01  0.15241186228E+01 -0.16170396667E+01  0.73318759445E+01  0.51100000000E-03 0. -1.
        -11    1    4    4    0    0 -0.11452558446E+02  0.62073986434E+01 -0.10037253175E+02  0.16445040116E+02  0.51100000000E-03 0.  1.
         12    1    4    4    0    0  0.20407935100E+02  0.13235708519E+02 -0.18549688498E+02  0.30590173887E+02  0.00000000000E+00 0. -1.
</event>
<event>
 8    1  0.2971508E-007  0.9118800E+02  0.7816164E-02  0.1184000E+00
        -11   -1    0    0    0    0  0.00000000000E+00  0.00000000000E+00  0.45593999997E+02  0.45594000000E+02  0.51100000000E-03 0.  1.
         11   -1    0    0    0    0 -0.00000000000E+00 -0.00000000000E+00 -0.45593999997E+02  0.45594000000E+02  0.51100000000E-03 0. -1.
         23    2    1    2    0    0  0.00000000000E+00  0.35527136788E-14  0.00000000000E+00  0.91188000000E+02  0.91188000000E+02 0.  0.
    9900012    2    3    3    0    0  0.27717086893E+02  0.17455879344E+02  0.16817707647E+02  0.54367083118E+02  0.39999997584E+02 0.  0.
         12    1    3    3    0    0 -0.27717086893E+02 -0.17455879344E+02 -0.16817707647E+02  0.36820916882E+02  0.00000000000E+00 0. -1.
         11    1    4    4    0    0  0.33255350447E+01  0.69913735920E+01  0.20886205062E+02  0.22274919757E+02  0.51100000000E-03 0. -1.
        -11    1    4    4    0    0  0.12528434610E+02 -0.38588879025E+01 -0.28129274450E+00  0.13112277281E+02  0.51100000000E-03 0.  1.
        -12    1    4    4    0    0  0.11863117238E+02  0.14323393655E+02 -0.37872046702E+01  0.18979886080E+02  0.00000000000E+00 0.  1.
</event>
<event>
 8    1  0.2971508E-007  0.9118800E+02  0.7816164E-02  0.1184000E+00
        -11   -1    0    0    0    0  0.00000000000E+00  0.00000000000E+00  0.45593999997E+02  0.45594000000E+02  0.51100000000E-03 0.  1.
         11   -1    0    0    0    0 -0.00000000000E+00 -0.00000000000E+00 -0.45593999997E+02  0.45594000000E+02  0.51100000000E-03 0. -1.
         23    2    1    2    0    0  0.00000000000E+00  0.00000000000E+00  0.00000000000E+00  0.91188000000E+02  0.91188000000E+02 0.  0.
    9900012    2    3    3    0    0 -0.16205668470E+02 -0.20501568397E+02 -0.25939118183E+02  0.54367138394E+02  0.40000123597E+02 0.  0.
        -12    1    3    3    0    0  0.16205668470E+02  0.20501568397E+02  0.25939118183E+02  0.36820861606E+02  0.00000000000E+00 0.  1.
         11    1    4    4    0    0 -0.97626428202E+01 -0.14626421227E+02  0.54120611323E+00  0.17593586816E+02  0.51100000000E-03 0.  1.
        -11    1    4    4    0    0  0.76135590777E+01  0.35596503142E+01 -0.10917073651E+02  0.13777513911E+02  0.51100000000E-03 0. -1.
         12    1    4    4    0    0 -0.14056584728E+02 -0.94347974839E+01 -0.15563250645E+02  0.22996037667E+02  0.00000000000E+00 0. -1.
</event>
<event>
 8    1  0.2971508E-007  0.9118800E+02  0.7816164E-02  0.1184000E+00
        -11   -1    0    0    0    0  0.00000000000E+00  0.00000000000E+00  0.45593999997E+02  0.45594000000E+02  0.51100000000E-03 0. -1.
         11   -1    0    0    0    0 -0.00000000000E+00 -0.00000000000E+00 -0.45593999997E+02  0.45594000000E+02  0.51100000000E-03 0.  1.
         23    2    1    2    0    0  0.88817841970E-15  0.00000000000E+00  0.17763568394E-14  0.91188000000E+02  0.91188000000E+02 0.  0.
    9900012    2    3    3    0    0  0.40186327798E+01  0.34181774824E+02  0.13085698195E+02  0.54367100543E+02  0.40000037308E+02 0.  0.
        -12    1    3    3    0    0 -0.40186327798E+01 -0.34181774824E+02 -0.13085698195E+02  0.36820899457E+02  0.00000000000E+00 0.  1.
         11    1    4    4    0    0 -0.10370359815E+02  0.18301105691E+02  0.47420670850E+01  0.21562978289E+02  0.51100000000E-03 0.  1.
        -11    1    4    4    0    0  0.17735579497E+02  0.64276507009E+01  0.11736992993E+02  0.22217616397E+02  0.51100000000E-03 0. -1.
         12    1    4    4    0    0 -0.33465869018E+01  0.94530184330E+01 -0.33933618826E+01  0.10586505857E+02  0.00000000000E+00 0. -1.
</event>
<event>
 8    1  0.2971508E-007  0.9118800E+02  0.7816164E-02  0.1184000E+00
        -11   -1    0    0    0    0  0.00000000000E+00  0.00000000000E+00  0.45593999997E+02  0.45594000000E+02  0.51100000000E-03 0.  1.
         11   -1    0    0    0    0 -0.00000000000E+00 -0.00000000000E+00 -0.45593999997E+02  0.45594000000E+02  0.51100000000E-03 0. -1.
         23    2    1    2    0    0 -0.35527136788E-14  0.17763568394E-14  0.35527136788E-14  0.91188000000E+02  0.91188000000E+02 0.  0.
    9900012    2    3    3    0    0  0.23918700941E+02 -0.14713258470E+02  0.23815844185E+02  0.54367100177E+02  0.40000036474E+02 0.  0.
         12    1    3    3    0    0 -0.23918700941E+02  0.14713258470E+02 -0.23815844185E+02  0.36820899823E+02  0.00000000000E+00 0. -1.
         11    1    4    4    0    0  0.35893112855E+01 -0.40988370858E+01  0.29636273310E+02  0.30132910860E+02  0.51100000000E-03 0.  1.
        -11    1    4    4    0    0  0.54562855252E+01 -0.47995999921E+01 -0.36048065682E+01  0.81118334840E+01  0.51100000000E-03 0. -1.
        -12    1    4    4    0    0  0.14873104130E+02 -0.58148213925E+01 -0.22156225562E+01  0.16122355833E+02  0.00000000000E+00 0.  1.
</event>
<event>
 8    1  0.2971508E-007  0.9118800E+02  0.7816164E-02  0.1184000E+00
        -11   -1    0    0    0    0  0.00000000000E+00  0.00000000000E+00  0.45593999997E+02  0.45594000000E+02  0.51100000000E-03 0.  1.
         11   -1    0    0    0    0 -0.00000000000E+00 -0.00000000000E+00 -0.45593999997E+02  0.45594000000E+02  0.51100000000E-03 0. -1.
         23    2    1    2    0    0 -0.35527136788E-14  0.71054273576E-14 -0.35527136788E-14  0.91188000000E+02  0.91188000000E+02 0.  0.
    9900012    2    3    3    0    0  0.28603930591E+02 -0.17732895634E+02  0.14937937629E+02  0.54367049259E+02  0.39999920397E+02 0.  0.
         12    1    3    3    0    0 -0.28603930591E+02  0.17732895634E+02 -0.14937937629E+02  0.36820950741E+02  0.00000000000E+00 0. -1.
         11    1    4    4    0    0 -0.86970655681E+01 -0.19371948164E+01 -0.11715790666E+01  0.89868944036E+01  0.51100000000E-03 0. -1.
        -11    1    4    4    0    0  0.36116463857E+02 -0.12321616238E+02  0.16713924540E+02  0.41660250383E+02  0.51100000000E-03 0.  1.
         12    1    4    4    0    0  0.11845323028E+01 -0.34740845796E+01 -0.60440784429E+00  0.37199044725E+01  0.00000000000E+00 0. -1.
</event>
<event>
 8    1  0.2971508E-007  0.9118800E+02  0.7816164E-02  0.1184000E+00
        -11   -1    0    0    0    0  0.00000000000E+00  0.00000000000E+00  0.45593999997E+02  0.45594000000E+02  0.51100000000E-03 0.  1.
         11   -1    0    0    0    0 -0.00000000000E+00 -0.00000000000E+00 -0.45593999997E+02  0.45594000000E+02  0.51100000000E-03 0. -1.
         23    2    1    2    0    0  0.00000000000E+00 -0.35527136788E-14 -0.35527136788E-14  0.91188000000E+02  0.91188000000E+02 0.  0.
    9900012    2    3    3    0    0 -0.75831936520E+01  0.28455905382E+02 -0.22102863142E+02  0.54367082899E+02  0.39999997085E+02 0.  0.
        -12    1    3    3    0    0  0.75831936520E+01 -0.28455905382E+02  0.22102863142E+02  0.36820917101E+02  0.00000000000E+00 0.  1.
         11    1    4    4    0    0 -0.10099776823E+02  0.18115010485E+02 -0.20973757339E+02  0.29496738700E+02  0.51100000000E-03 0. -1.
        -11    1    4    4    0    0  0.73400441984E-01  0.16689098257E+02 -0.44907508721E+01  0.17282888413E+02  0.51100000000E-03 0.  1.
        -12    1    4    4    0    0  0.24431827287E+01 -0.63482033598E+01  0.33616450688E+01  0.75874557865E+01  0.00000000000E+00 0.  1.
</event>
<event>
 8    1  0.2971508E-007  0.9118800E+02  0.7816164E-02  0.1184000E+00
        -11   -1    0    0    0    0  0.00000000000E+00  0.00000000000E+00  0.45593999997E+02  0.45594000000E+02  0.51100000000E-03 0.  1.
         11   -1    0    0    0    0 -0.00000000000E+00 -0.00000000000E+00 -0.45593999997E+02  0.45594000000E+02  0.51100000000E-03 0. -1.
         23    2    1    2    0    0  0.35527136788E-14 -0.13322676296E-14  0.00000000000E+00  0.91188000000E+02  0.91188000000E+02 0.  0.
    9900012    2    3    3    0    0  0.22979250982E+02  0.17564710785E+01  0.28716683995E+02  0.54367094172E+02  0.40000022784E+02 0.  0.
         12    1    3    3    0    0 -0.22979250982E+02 -0.17564710785E+01 -0.28716683995E+02  0.36820905828E+02  0.00000000000E+00 0. -1.
         11    1    4    4    0    0  0.95513978916E+01  0.53651590136E+01  0.19733351458E+02  0.22570318849E+02  0.51100000000E-03 0. -1.
        -11    1    4    4    0    0  0.96382359453E+01 -0.15343742573E+02  0.62346243180E+01  0.19162373781E+02  0.51100000000E-03 0.  1.
         12    1    4    4    0    0  0.37896171450E+01  0.11735054638E+02  0.27487082188E+01  0.12634401542E+02  0.00000000000E+00 0. -1.
</event>
<event>
 8    1  0.2971508E-007  0.9118800E+02  0.7816164E-02  0.1184000E+00
        -11   -1    0    0    0    0  0.00000000000E+00  0.00000000000E+00  0.45593999997E+02  0.45594000000E+02  0.51100000000E-03 0. -1.
         11   -1    0    0    0    0 -0.00000000000E+00 -0.00000000000E+00 -0.45593999997E+02  0.45594000000E+02  0.51100000000E-03 0.  1.
         23    2    1    2    0    0  0.00000000000E+00  0.35527136788E-14  0.17763568394E-14  0.91188000000E+02  0.91188000000E+02 0.  0.
    9900012    2    3    3    0    0  0.32367045662E+02 -0.89380149665E+01 -0.15108468422E+02  0.54367087810E+02  0.40000008281E+02 0.  0.
         12    1    3    3    0    0 -0.32367045662E+02  0.89380149665E+01  0.15108468422E+02  0.36820912190E+02  0.00000000000E+00 0. -1.
         11    1    4    4    0    0  0.21254332780E+02 -0.24650794813E+01 -0.40387945294E+01  0.21774644435E+02  0.51100000000E-03 0. -1.
        -11    1    4    4    0    0  0.82821622883E+01  0.99812037467E+01 -0.80772965123E+00  0.12995040125E+02  0.51100000000E-03 0.  1.
        -12    1    4    4    0    0  0.28305505943E+01 -0.16454139232E+02 -0.10261944241E+02  0.19597403250E+02  0.00000000000E+00 0.  1.
</event>
<event>
 8    1  0.2971508E-007  0.9118800E+02  0.7816164E-02  0.1184000E+00
        -11   -1    0    0    0    0  0.00000000000E+00  0.00000000000E+00  0.45593999997E+02  0.45594000000E+02  0.51100000000E-03 0.  1.
         11   -1    0    0    0    0 -0.00000000000E+00 -0.00000000000E+00 -0.45593999997E+02  0.45594000000E+02  0.51100000000E-03 0. -1.
         23    2    1    2    0    0  0.00000000000E+00 -0.35527136788E-14  0.35527136788E-14  0.91188000000E+02  0.91188000000E+02 0.  0.
    9900012    2    3    3    0    0  0.43801769991E+01  0.25650615393E+02 -0.26050719081E+02  0.54367082233E+02  0.39999995566E+02 0.  0.
        -12    1    3    3    0    0 -0.43801769991E+01 -0.25650615393E+02  0.26050719081E+02  0.36820917767E+02  0.00000000000E+00 0.  1.
         11    1    4    4    0    0  0.34796695891E+01 -0.65659134436E+01 -0.75696607964E+01  0.10607501338E+02  0.51100000000E-03 0. -1.
        -11    1    4    4    0    0  0.24609147925E+01  0.32580655956E+02 -0.86503824446E+01  0.33799176926E+02  0.51100000000E-03 0.  1.
        -12    1    4    4    0    0 -0.15604073825E+01 -0.36412711993E+00 -0.98306758400E+01  0.99604039692E+01  0.00000000000E+00 0.  1.
</event>
<event>
 8    1  0.2971508E-007  0.9118800E+02  0.7816164E-02  0.1184000E+00
        -11   -1    0    0    0    0  0.00000000000E+00  0.00000000000E+00  0.45593999997E+02  0.45594000000E+02  0.51100000000E-03 0.  1.
         11   -1    0    0    0    0 -0.00000000000E+00 -0.00000000000E+00 -0.45593999997E+02  0.45594000000E+02  0.51100000000E-03 0. -1.
         23    2    1    2    0    0  0.00000000000E+00 -0.35527136788E-14 -0.17763568394E-14  0.91188000000E+02  0.91188000000E+02 0.  0.
    9900012    2    3    3    0    0 -0.16423530418E+02 -0.29523572671E+02 -0.14642453473E+02  0.54367148049E+02  0.40000145608E+02 0.  0.
         12    1    3    3    0    0  0.16423530418E+02  0.29523572671E+02  0.14642453473E+02  0.36820851951E+02  0.00000000000E+00 0. -1.
         11    1    4    4    0    0 -0.14968960718E+02 -0.30799048547E+02 -0.18058353435E+02  0.38713761189E+02  0.51100000000E-03 0. -1.
        -11    1    4    4    0    0 -0.35815907485E+01 -0.45514900027E+01  0.65167451468E+01  0.87184758475E+01  0.51100000000E-03 0.  1.
         12    1    4    4    0    0  0.21270210483E+01  0.58269658786E+01 -0.31008451850E+01  0.69349110125E+01  0.00000000000E+00 0. -1.
</event>
<event>
 8    1  0.2971508E-007  0.9118800E+02  0.7816164E-02  0.1184000E+00
        -11   -1    0    0    0    0  0.00000000000E+00  0.00000000000E+00  0.45593999997E+02  0.45594000000E+02  0.51100000000E-03 0.  1.
         11   -1    0    0    0    0 -0.00000000000E+00 -0.00000000000E+00 -0.45593999997E+02  0.45594000000E+02  0.51100000000E-03 0. -1.
         23    2    1    2    0    0 -0.88817841970E-15  0.00000000000E+00 -0.71054273576E-14  0.91188000000E+02  0.91188000000E+02 0.  0.
    9900012    2    3    3    0    0  0.72079578687E+01 -0.20929689781E+02  0.29423954469E+02  0.54367140863E+02  0.40000129226E+02 0.  0.
         12    1    3    3    0    0 -0.72079578687E+01  0.20929689781E+02 -0.29423954469E+02  0.36820859137E+02  0.00000000000E+00 0. -1.
         11    1    4    4    0    0  0.40217476061E+01 -0.18718982571E+02  0.37837218793E+02  0.42405540777E+02  0.51100000000E-03 0.  1.
        -11    1    4    4    0    0  0.78830615363E+00  0.10021196538E+01 -0.78029039268E+01  0.79063885778E+01  0.51100000000E-03 0. -1.
        -12    1    4    4    0    0  0.23979041090E+01 -0.32128268633E+01 -0.61036039711E+00  0.40552115091E+01  0.00000000000E+00 0.  1.
</event>
<event>
 8    1  0.2971508E-007  0.9118800E+02  0.7816164E-02  0.1184000E+00
        -11   -1    0    0    0    0  0.00000000000E+00  0.00000000000E+00  0.45593999997E+02  0.45594000000E+02  0.51100000000E-03 0.  1.
         11   -1    0    0    0    0 -0.00000000000E+00 -0.00000000000E+00 -0.45593999997E+02  0.45594000000E+02  0.51100000000E-03 0. -1.
         23    2    1    2    0    0  0.35527136788E-14  0.00000000000E+00  0.00000000000E+00  0.91188000000E+02  0.91188000000E+02 0.  0.
    9900012    2    3    3    0    0 -0.31715490635E+02 -0.86351409470E+01 -0.16593600961E+02  0.54367006013E+02  0.39999821806E+02 0.  0.
        -12    1    3    3    0    0  0.31715490635E+02  0.86351409470E+01  0.16593600961E+02  0.36820993987E+02  0.00000000000E+00 0.  1.
         11    1    4    4    0    0 -0.23171567061E+01  0.16191989778E+01  0.12630010595E+01  0.30961576943E+01  0.51100000000E-03 0. -1.
        -11    1    4    4    0    0 -0.31238717022E+02 -0.36732752566E+01  0.73564282554E+00  0.31462542219E+02  0.51100000000E-03 0.  1.
        -12    1    4    4    0    0  0.18403830931E+01 -0.65810646682E+01 -0.18592244846E+02  0.19808306099E+02  0.00000000000E+00 0.  1.
</event>
<event>
 8    1  0.2971508E-007  0.9118800E+02  0.7816164E-02  0.1184000E+00
        -11   -1    0    0    0    0  0.00000000000E+00  0.00000000000E+00  0.45593999997E+02  0.45594000000E+02  0.51100000000E-03 0. -1.
         11   -1    0    0    0    0 -0.00000000000E+00 -0.00000000000E+00 -0.45593999997E+02  0.45594000000E+02  0.51100000000E-03 0.  1.
         23    2    1    2    0    0  0.00000000000E+00  0.00000000000E+00  0.17763568394E-14  0.91188000000E+02  0.91188000000E+02 0.  0.
    9900012    2    3    3    0    0  0.25031428532E+02  0.22595545088E+02 -0.14786766837E+02  0.54367088201E+02  0.40000009172E+02 0.  0.
         12    1    3    3    0    0 -0.25031428532E+02 -0.22595545088E+02  0.14786766837E+02  0.36820911799E+02  0.00000000000E+00 0. -1.
         11    1    4    4    0    0 -0.52227869088E+00  0.20376918471E+02  0.15222387654E+01  0.20440371634E+02  0.51100000000E-03 0. -1.
        -11    1    4    4    0    0  0.19873603286E+02  0.26959436628E+01 -0.18997066018E+02  0.27624567641E+02  0.51100000000E-03 0.  1.
         12    1    4    4    0    0  0.56801039367E+01 -0.47731704533E+00  0.26880604149E+01  0.63021489262E+01  0.00000000000E+00 0. -1.
</event>
<event>
 8    1  0.2971508E-007  0.9118800E+02  0.7816164E-02  0.1184000E+00
        -11   -1    0    0    0    0  0.00000000000E+00  0.00000000000E+00  0.45593999997E+02  0.45594000000E+02  0.51100000000E-03 0. -1.
         11   -1    0    0    0    0 -0.00000000000E+00 -0.00000000000E+00 -0.45593999997E+02  0.45594000000E+02  0.51100000000E-03 0.  1.
         23    2    1    2    0    0  0.17763568394E-14  0.00000000000E+00  0.71054273576E-14  0.91188000000E+02  0.91188000000E+02 0.  0.
    9900012    2    3    3    0    0  0.98097153837E+01 -0.44365867802E+01  0.35211736583E+02  0.54367079162E+02  0.39999988567E+02 0.  0.
        -12    1    3    3    0    0 -0.98097153837E+01  0.44365867802E+01 -0.35211736583E+02  0.36820920838E+02  0.00000000000E+00 0.  1.
         11    1    4    4    0    0  0.74332633586E+01  0.38130511475E+01 -0.60984407339E+00  0.83764355944E+01  0.51100000000E-03 0. -1.
        -11    1    4    4    0    0 -0.11976100240E+02 -0.25186666923E+01  0.22384555555E+02  0.25511546142E+02  0.51100000000E-03 0.  1.
         12    1    4    4    0    0  0.14352552266E+02 -0.57309712354E+01  0.13437025101E+02  0.20479097426E+02  0.00000000000E+00 0. -1.
</event>
<event>
 8    1  0.2971508E-007  0.9118800E+02  0.7816164E-02  0.1184000E+00
        -11   -1    0    0    0    0  0.00000000000E+00  0.00000000000E+00  0.45593999997E+02  0.45594000000E+02  0.51100000000E-03 0.  1.
         11   -1    0    0    0    0 -0.00000000000E+00 -0.00000000000E+00 -0.45593999997E+02  0.45594000000E+02  0.51100000000E-03 0. -1.
         23    2    1    2    0    0  0.17763568394E-14  0.00000000000E+00  0.00000000000E+00  0.91188000000E+02  0.91188000000E+02 0.  0.
    9900012    2    3    3    0    0  0.10411619265E+02  0.26468741637E+02 -0.23383425468E+02  0.54367072715E+02  0.39999973867E+02 0.  0.
        -12    1    3    3    0    0 -0.10411619265E+02 -0.26468741637E+02  0.23383425468E+02  0.36820927285E+02  0.00000000000E+00 0.  1.
         11    1    4    4    0    0 -0.13479003982E+02  0.68146182893E+01 -0.98589001511E+01  0.18036642793E+02  0.51100000000E-03 0. -1.
        -11    1    4    4    0    0  0.64470305135E+01  0.37080464769E+01  0.24199091561E+01  0.78211106438E+01  0.51100000000E-03 0.  1.
         12    1    4    4    0    0  0.17443592734E+02  0.15946076871E+02 -0.15944434473E+02  0.28509319278E+02  0.00000000000E+00 0. -1.
</event>
<event>
 8    1  0.2971508E-007  0.9118800E+02  0.7816164E-02  0.1184000E+00
        -11   -1    0    0    0    0  0.00000000000E+00  0.00000000000E+00  0.45593999997E+02  0.45594000000E+02  0.51100000000E-03 0.  1.
         11   -1    0    0    0    0 -0.00000000000E+00 -0.00000000000E+00 -0.45593999997E+02  0.45594000000E+02  0.51100000000E-03 0. -1.
         23    2    1    2    0    0  0.00000000000E+00  0.00000000000E+00 -0.44408920985E-15  0.91188000000E+02  0.91188000000E+02 0.  0.
    9900012    2    3    3    0    0 -0.36400905526E+02  0.45074929368E+01  0.32305063804E+01  0.54367087638E+02  0.40000007889E+02 0.  0.
         12    1    3    3    0    0  0.36400905526E+02 -0.45074929368E+01 -0.32305063804E+01  0.36820912362E+02  0.00000000000E+00 0. -1.
         11    1    4    4    0    0 -0.33554381648E+01 -0.33185527094E+01 -0.12556252144E+02  0.13413844547E+02  0.51100000000E-03 0. -1.
        -11    1    4    4    0    0 -0.19100906899E+02 -0.28679181369E+01  0.12686554518E+02  0.23108835206E+02  0.51100000000E-03 0.  1.
         12    1    4    4    0    0 -0.13944560462E+02  0.10693963783E+02  0.31002040065E+01  0.17844407885E+02  0.00000000000E+00 0. -1.
</event>
<event>
 8    1  0.2971508E-007  0.9118800E+02  0.7816164E-02  0.1184000E+00
        -11   -1    0    0    0    0  0.00000000000E+00  0.00000000000E+00  0.45593999997E+02  0.45594000000E+02  0.51100000000E-03 0. -1.
         11   -1    0    0    0    0 -0.00000000000E+00 -0.00000000000E+00 -0.45593999997E+02  0.45594000000E+02  0.51100000000E-03 0.  1.
         23    2    1    2    0    0 -0.71054273576E-14  0.00000000000E+00  0.00000000000E+00  0.91188000000E+02  0.91188000000E+02 0.  0.
    9900012    2    3    3    0    0  0.29123460971E+02 -0.18924745236E+02 -0.12225285435E+02  0.54367087938E+02  0.40000008571E+02 0.  0.
        -12    1    3    3    0    0 -0.29123460971E+02  0.18924745236E+02  0.12225285435E+02  0.36820912062E+02  0.00000000000E+00 0.  1.
         11    1    4    4    0    0  0.16338324399E+02 -0.26868037968E+02 -0.18208269903E+01  0.31498376460E+02  0.51100000000E-03 0. -1.
        -11    1    4    4    0    0  0.70958312879E+00  0.19921593966E+00 -0.83435705307E+01  0.83760590177E+01  0.51100000000E-03 0.  1.
         12    1    4    4    0    0  0.12075553443E+02  0.77440767928E+01 -0.20608879139E+01  0.14492652460E+02  0.00000000000E+00 0. -1.
</event>
<event>
 8    1  0.2971508E-007  0.9118800E+02  0.7816164E-02  0.1184000E+00
        -11   -1    0    0    0    0  0.00000000000E+00  0.00000000000E+00  0.45593999997E+02  0.45594000000E+02  0.51100000000E-03 0.  1.
         11   -1    0    0    0    0 -0.00000000000E+00 -0.00000000000E+00 -0.45593999997E+02  0.45594000000E+02  0.51100000000E-03 0. -1.
         23    2    1    2    0    0  0.55511151231E-15  0.00000000000E+00  0.17763568394E-14  0.91188000000E+02  0.91188000000E+02 0.  0.
    9900012    2    3    3    0    0 -0.88584810938E+00  0.36005844201E+02  0.76533865545E+01  0.54367083808E+02  0.39999999156E+02 0.  0.
         12    1    3    3    0    0  0.88584810938E+00 -0.36005844201E+02 -0.76533865545E+01  0.36820916192E+02  0.00000000000E+00 0. -1.
         11    1    4    4    0    0 -0.49661391535E+01  0.17063662019E+00 -0.66801380423E+01  0.83256170626E+01  0.51100000000E-03 0. -1.
        -11    1    4    4    0    0  0.83082613323E+01  0.57238816443E+01  0.11806282717E+02  0.15529917556E+02  0.51100000000E-03 0.  1.
         12    1    4    4    0    0 -0.42279702882E+01  0.30111325936E+02  0.25272418803E+01  0.30511549189E+02  0.00000000000E+00 0. -1.
</event>
<event>
 8    1  0.2971508E-007  0.9118800E+02  0.7816164E-02  0.1184000E+00
        -11   -1    0    0    0    0  0.00000000000E+00  0.00000000000E+00  0.45593999997E+02  0.45594000000E+02  0.51100000000E-03 0.  1.
         11   -1    0    0    0    0 -0.00000000000E+00 -0.00000000000E+00 -0.45593999997E+02  0.45594000000E+02  0.51100000000E-03 0. -1.
         23    2    1    2    0    0  0.00000000000E+00  0.00000000000E+00  0.00000000000E+00  0.91188000000E+02  0.91188000000E+02 0.  0.
    9900012    2    3    3    0    0  0.88927444658E+01 -0.25675818235E+02 -0.24848340499E+02  0.54367237220E+02  0.40000348888E+02 0.  0.
        -12    1    3    3    0    0 -0.88927444658E+01  0.25675818235E+02  0.24848340499E+02  0.36820762780E+02  0.00000000000E+00 0.  1.
         11    1    4    4    0    0 -0.23007105858E+01 -0.23292728286E+00 -0.13145663294E+02  0.13347508682E+02  0.51100000000E-03 0. -1.
        -11    1    4    4    0    0 -0.42841816066E+01  0.40720433481E+01 -0.85749829978E+00  0.59725248147E+01  0.51100000000E-03 0.  1.
         12    1    4    4    0    0  0.15477636658E+02 -0.29514934301E+02 -0.10845178905E+02  0.35047203723E+02  0.00000000000E+00 0. -1.
</event>
<event>
 8    1  0.2971508E-007  0.9118800E+02  0.7816164E-02  0.1184000E+00
        -11   -1    0    0    0    0  0.00000000000E+00  0.00000000000E+00  0.45593999997E+02  0.45594000000E+02  0.51100000000E-03 0.  1.
         11   -1    0    0    0    0 -0.00000000000E+00 -0.00000000000E+00 -0.45593999997E+02  0.45594000000E+02  0.51100000000E-03 0. -1.
         23    2    1    2    0    0 -0.17763568394E-14 -0.17763568394E-14 -0.71054273576E-14  0.91188000000E+02  0.91188000000E+02 0.  0.
    9900012    2    3    3    0    0  0.13841808007E+02  0.78392147078E+01  0.33207257906E+02  0.54367205417E+02  0.40000276388E+02 0.  0.
         12    1    3    3    0    0 -0.13841808007E+02 -0.78392147078E+01 -0.33207257906E+02  0.36820794583E+02  0.00000000000E+00 0. -1.
         11    1    4    4    0    0 -0.62031302550E+01 -0.54893188337E+01  0.13593615721E+02  0.15918474640E+02  0.51100000000E-03 0. -1.
        -11    1    4    4    0    0  0.15887276434E+02  0.17151203187E+02  0.22197210973E+02  0.32237951214E+02  0.51100000000E-03 0.  1.
         12    1    4    4    0    0  0.41576618281E+01 -0.38226696458E+01 -0.25835687883E+01  0.62107795632E+01  0.00000000000E+00 0. -1.
</event>
<event>
 8    1  0.2971508E-007  0.9118800E+02  0.7816164E-02  0.1184000E+00
        -11   -1    0    0    0    0  0.00000000000E+00  0.00000000000E+00  0.45593999997E+02  0.45594000000E+02  0.51100000000E-03 0. -1.
         11   -1    0    0    0    0 -0.00000000000E+00 -0.00000000000E+00 -0.45593999997E+02  0.45594000000E+02  0.51100000000E-03 0.  1.
         23    2    1    2    0    0 -0.44408920985E-15 -0.17763568394E-14  0.71054273576E-14  0.91188000000E+02  0.91188000000E+02 0.  0.
    9900012    2    3    3    0    0 -0.22245723171E+01 -0.10631907062E+02  0.35182289467E+02  0.54367086623E+02  0.40000005575E+02 0.  0.
        -12    1    3    3    0    0  0.22245723171E+01  0.10631907062E+02 -0.35182289467E+02  0.36820913377E+02  0.00000000000E+00 0.  1.
         11    1    4    4    0    0 -0.42330332003E+01 -0.10976141811E+02  0.43661060171E+02  0.45218164875E+02  0.51100000000E-03 0. -1.
        -11    1    4    4    0    0  0.49676432103E+00 -0.72611272872E+00 -0.59481173279E+01  0.60128291588E+01  0.51100000000E-03 0.  1.
         12    1    4    4    0    0  0.15116965622E+01  0.10703474773E+01 -0.25306533767E+01  0.31360925897E+01  0.00000000000E+00 0. -1.
</event>
<event>
 8    1  0.2971508E-007  0.9118800E+02  0.7816164E-02  0.1184000E+00
        -11   -1    0    0    0    0  0.00000000000E+00  0.00000000000E+00  0.45593999997E+02  0.45594000000E+02  0.51100000000E-03 0. -1.
         11   -1    0    0    0    0 -0.00000000000E+00 -0.00000000000E+00 -0.45593999997E+02  0.45594000000E+02  0.51100000000E-03 0.  1.
         23    2    1    2    0    0  0.17763568394E-14  0.35527136788E-14 -0.35527136788E-14  0.91188000000E+02  0.91188000000E+02 0.  0.
    9900012    2    3    3    0    0  0.17321619979E+01 -0.21216383201E+02  0.30044042390E+02  0.54367084960E+02  0.40000001783E+02 0.  0.
        -12    1    3    3    0    0 -0.17321619979E+01  0.21216383201E+02 -0.30044042390E+02  0.36820915040E+02  0.00000000000E+00 0.  1.
         11    1    4    4    0    0  0.40134507087E+01 -0.62283945673E+00  0.25059363415E+02  0.25386362689E+02  0.51100000000E-03 0. -1.
        -11    1    4    4    0    0  0.64215490836E+01 -0.28939893648E+01 -0.30603216845E+01  0.76796507832E+01  0.51100000000E-03 0.  1.
        -12    1    4    4    0    0 -0.87028377944E+01 -0.17699554379E+02  0.80450006594E+01  0.21301071487E+02  0.00000000000E+00 0.  1.
</event>
<event>
 8    1  0.2971508E-007  0.9118800E+02  0.7816164E-02  0.1184000E+00
        -11   -1    0    0    0    0  0.00000000000E+00  0.00000000000E+00  0.45593999997E+02  0.45594000000E+02  0.51100000000E-03 0.  1.
         11   -1    0    0    0    0 -0.00000000000E+00 -0.00000000000E+00 -0.45593999997E+02  0.45594000000E+02  0.51100000000E-03 0. -1.
         23    2    1    2    0    0  0.00000000000E+00  0.88817841970E-15  0.00000000000E+00  0.91188000000E+02  0.91188000000E+02 0.  0.
    9900012    2    3    3    0    0 -0.32414212957E+02 -0.34560483013E+01  0.17121769196E+02  0.54367075896E+02  0.39999981120E+02 0.  0.
         12    1    3    3    0    0  0.32414212957E+02  0.34560483013E+01 -0.17121769196E+02  0.36820924104E+02  0.00000000000E+00 0. -1.
         11    1    4    4    0    0 -0.13315994065E+01  0.16182798367E+01  0.18923310758E+00  0.21042328862E+01  0.51100000000E-03 0. -1.
        -11    1    4    4    0    0 -0.12829288609E+02  0.78368810141E+01  0.24426682664E+02  0.28682227536E+02  0.51100000000E-03 0.  1.
        -12    1    4    4    0    0 -0.18253324942E+02 -0.12911209152E+02 -0.74941465752E+01  0.23580615473E+02  0.00000000000E+00 0.  1.
</event>
<event>
 8    1  0.2971508E-007  0.9118800E+02  0.7816164E-02  0.1184000E+00
        -11   -1    0    0    0    0  0.00000000000E+00  0.00000000000E+00  0.45593999997E+02  0.45594000000E+02  0.51100000000E-03 0.  1.
         11   -1    0    0    0    0 -0.00000000000E+00 -0.00000000000E+00 -0.45593999997E+02  0.45594000000E+02  0.51100000000E-03 0. -1.
         23    2    1    2    0    0 -0.17763568394E-14 -0.71054273576E-14  0.00000000000E+00  0.91188000000E+02  0.91188000000E+02 0.  0.
    9900012    2    3    3    0    0 -0.11573124369E+02  0.34060149395E+02  0.78580947449E+01  0.54367073375E+02  0.39999975373E+02 0.  0.
         12    1    3    3    0    0  0.11573124369E+02 -0.34060149395E+02 -0.78580947449E+01  0.36820926625E+02  0.00000000000E+00 0. -1.
         11    1    4    4    0    0 -0.63641622824E+01  0.67472637152E+01  0.77840050784E+01  0.12108627689E+02  0.51100000000E-03 0.  1.
        -11    1    4    4    0    0  0.25874735182E+01  0.21852410259E+02 -0.13398072391E+02  0.25762981143E+02  0.51100000000E-03 0. -1.
         12    1    4    4    0    0 -0.77964356049E+01  0.54604754209E+01  0.13472162057E+02  0.16495464542E+02  0.00000000000E+00 0. -1.
</event>
<event>
 8    1  0.2971508E-007  0.9118800E+02  0.7816164E-02  0.1184000E+00
        -11   -1    0    0    0    0  0.00000000000E+00  0.00000000000E+00  0.45593999997E+02  0.45594000000E+02  0.51100000000E-03 0.  1.
         11   -1    0    0    0    0 -0.00000000000E+00 -0.00000000000E+00 -0.45593999997E+02  0.45594000000E+02  0.51100000000E-03 0. -1.
         23    2    1    2    0    0  0.00000000000E+00  0.00000000000E+00  0.00000000000E+00  0.91188000000E+02  0.91188000000E+02 0.  0.
    9900012    2    3    3    0    0 -0.27113888138E+02  0.12582491431E+02 -0.21501115182E+02  0.54367082376E+02  0.39999995893E+02 0.  0.
        -12    1    3    3    0    0  0.27113888138E+02 -0.12582491431E+02  0.21501115182E+02  0.36820917624E+02  0.00000000000E+00 0.  1.
         11    1    4    4    0    0 -0.58673859170E+01 -0.77261253973E+01  0.17342167279E+01  0.98552899031E+01  0.51100000000E-03 0.  1.
        -11    1    4    4    0    0 -0.21224795624E+02  0.72473851095E+01 -0.66345232885E+01  0.23388746006E+02  0.51100000000E-03 0. -1.
         12    1    4    4    0    0 -0.21706597506E-01  0.13061231719E+02 -0.16600808621E+02  0.21123046468E+02  0.00000000000E+00 0. -1.
</event>
<event>
 8    1  0.2971508E-007  0.9118800E+02  0.7816164E-02  0.1184000E+00
        -11   -1    0    0    0    0  0.00000000000E+00  0.00000000000E+00  0.45593999997E+02  0.45594000000E+02  0.51100000000E-03 0.  1.
         11   -1    0    0    0    0 -0.00000000000E+00 -0.00000000000E+00 -0.45593999997E+02  0.45594000000E+02  0.51100000000E-03 0. -1.
         23    2    1    2    0    0  0.00000000000E+00  0.35527136788E-14  0.00000000000E+00  0.91188000000E+02  0.91188000000E+02 0.  0.
    9900012    2    3    3    0    0  0.19737159274E+02  0.13017337685E+02  0.28227191203E+02  0.54367070356E+02  0.39999968491E+02 0.  0.
         12    1    3    3    0    0 -0.19737159274E+02 -0.13017337685E+02 -0.28227191203E+02  0.36820929644E+02  0.00000000000E+00 0. -1.
         11    1    4    4    0    0  0.10187903044E+02  0.42466336973E+01  0.21795592653E+01  0.11250677538E+02  0.51100000000E-03 0. -1.
        -11    1    4    4    0    0  0.67470668372E+01  0.19105850492E+02  0.73208105580E+01  0.21544157013E+02  0.51100000000E-03 0.  1.
         12    1    4    4    0    0  0.28021893926E+01 -0.10335146504E+02  0.18726821380E+02  0.21572235805E+02  0.00000000000E+00 0. -1.
</event>
<event>
 8    1  0.2971508E-007  0.9118800E+02  0.7816164E-02  0.1184000E+00
        -11   -1    0    0    0    0  0.00000000000E+00  0.00000000000E+00  0.45593999997E+02  0.45594000000E+02  0.51100000000E-03 0.  1.
         11   -1    0    0    0    0 -0.00000000000E+00 -0.00000000000E+00 -0.45593999997E+02  0.45594000000E+02  0.51100000000E-03 0. -1.
         23    2    1    2    0    0 -0.71054273576E-14  0.26645352591E-14  0.00000000000E+00  0.91188000000E+02  0.91188000000E+02 0.  0.
    9900012    2    3    3    0    0 -0.32795781708E+02  0.61033926346E+01  0.15587271587E+02  0.54367112789E+02  0.40000065224E+02 0.  0.
         12    1    3    3    0    0  0.32795781708E+02 -0.61033926346E+01 -0.15587271587E+02  0.36820887211E+02  0.00000000000E+00 0. -1.
         11    1    4    4    0    0 -0.14554291494E+02  0.17404317193E+02  0.80900727834E+01  0.24087069887E+02  0.51100000000E-03 0. -1.
        -11    1    4    4    0    0 -0.14053975631E+02  0.96295179115E-01 -0.28343317544E+01  0.14337257079E+02  0.51100000000E-03 0.  1.
        -12    1    4    4    0    0 -0.41875145831E+01 -0.11397219737E+02  0.10331530558E+02  0.15942785823E+02  0.00000000000E+00 0.  1.
</event>
<event>
 8    1  0.2971508E-007  0.9118800E+02  0.7816164E-02  0.1184000E+00
        -11   -1    0    0    0    0  0.00000000000E+00  0.00000000000E+00  0.45593999997E+02  0.45594000000E+02  0.51100000000E-03 0. -1.
         11   -1    0    0    0    0 -0.00000000000E+00 -0.00000000000E+00 -0.45593999997E+02  0.45594000000E+02  0.51100000000E-03 0.  1.
         23    2    1    2    0    0  0.00000000000E+00 -0.17763568394E-14  0.00000000000E+00  0.91188000000E+02  0.91188000000E+02 0.  0.
    9900012    2    3    3    0    0 -0.27409714182E+01  0.13086912031E+02 -0.34307441279E+02  0.54367072283E+02  0.39999972884E+02 0.  0.
         12    1    3    3    0    0  0.27409714182E+01 -0.13086912031E+02  0.34307441279E+02  0.36820927717E+02  0.00000000000E+00 0. -1.
         11    1    4    4    0    0 -0.16271035828E+02 -0.27098116187E+01 -0.19540866614E+02  0.25572155838E+02  0.51100000000E-03 0. -1.
        -11    1    4    4    0    0  0.47661044666E+01  0.61977575205E+01 -0.13673646566E+02  0.15751081256E+02  0.51100000000E-03 0.  1.
         12    1    4    4    0    0  0.87639599427E+01  0.95989661290E+01 -0.10929280993E+01  0.13043835190E+02  0.00000000000E+00 0. -1.
</event>
<event>
 8    1  0.2971508E-007  0.9118800E+02  0.7816164E-02  0.1184000E+00
        -11   -1    0    0    0    0  0.00000000000E+00  0.00000000000E+00  0.45593999997E+02  0.45594000000E+02  0.51100000000E-03 0.  1.
         11   -1    0    0    0    0 -0.00000000000E+00 -0.00000000000E+00 -0.45593999997E+02  0.45594000000E+02  0.51100000000E-03 0. -1.
         23    2    1    2    0    0 -0.35527136788E-14  0.00000000000E+00  0.00000000000E+00  0.91188000000E+02  0.91188000000E+02 0.  0.
    9900012    2    3    3    0    0  0.28706674263E+02  0.20016136039E+02  0.11448202428E+02  0.54367079479E+02  0.39999989287E+02 0.  0.
         12    1    3    3    0    0 -0.28706674263E+02 -0.20016136039E+02 -0.11448202428E+02  0.36820920521E+02  0.00000000000E+00 0. -1.
         11    1    4    4    0    0  0.27317804267E+02  0.13074275598E+02 -0.86438933779E+01  0.31494698052E+02  0.51100000000E-03 0. -1.
        -11    1    4    4    0    0  0.38853495164E+01  0.16659462575E+01  0.13095007917E+02  0.13760470574E+02  0.51100000000E-03 0.  1.
         12    1    4    4    0    0 -0.24964795203E+01  0.52759141835E+01  0.69970878882E+01  0.91119108524E+01  0.00000000000E+00 0. -1.
</event>
<event>
 8    1  0.2971508E-007  0.9118800E+02  0.7816164E-02  0.1184000E+00
        -11   -1    0    0    0    0  0.00000000000E+00  0.00000000000E+00  0.45593999997E+02  0.45594000000E+02  0.51100000000E-03 0. -1.
         11   -1    0    0    0    0 -0.00000000000E+00 -0.00000000000E+00 -0.45593999997E+02  0.45594000000E+02  0.51100000000E-03 0.  1.
         23    2    1    2    0    0  0.00000000000E+00  0.00000000000E+00 -0.17763568394E-14  0.91188000000E+02  0.91188000000E+02 0.  0.
    9900012    2    3    3    0    0 -0.60516318212E+01  0.33992783759E+02 -0.12792504224E+02  0.54367085295E+02  0.40000002547E+02 0.  0.
        -12    1    3    3    0    0  0.60516318212E+01 -0.33992783759E+02  0.12792504224E+02  0.36820914705E+02  0.00000000000E+00 0.  1.
         11    1    4    4    0    0 -0.90069242446E+01  0.14991694290E+02  0.43463893866E+01  0.18021284166E+02  0.51100000000E-03 0. -1.
        -11    1    4    4    0    0  0.10839085428E+02  0.21098503389E+02 -0.14357277377E+02  0.27726594312E+02  0.51100000000E-03 0.  1.
        -12    1    4    4    0    0 -0.78837930046E+01 -0.20974139198E+01 -0.27816162341E+01  0.86192068176E+01  0.00000000000E+00 0.  1.
</event>
<event>
 8    1  0.2971508E-007  0.9118800E+02  0.7816164E-02  0.1184000E+00
        -11   -1    0    0    0    0  0.00000000000E+00  0.00000000000E+00  0.45593999997E+02  0.45594000000E+02  0.51100000000E-03 0.  1.
         11   -1    0    0    0    0 -0.00000000000E+00 -0.00000000000E+00 -0.45593999997E+02  0.45594000000E+02  0.51100000000E-03 0. -1.
         23    2    1    2    0    0  0.00000000000E+00 -0.17763568394E-14  0.35527136788E-14  0.91188000000E+02  0.91188000000E+02 0.  0.
    9900012    2    3    3    0    0  0.18857693824E+02  0.11661373219E+02 -0.29396895384E+02  0.54367113265E+02  0.40000066310E+02 0.  0.
        -12    1    3    3    0    0 -0.18857693824E+02 -0.11661373219E+02  0.29396895384E+02  0.36820886735E+02  0.00000000000E+00 0.  1.
         11    1    4    4    0    0  0.85579454778E+01  0.13099735725E+02 -0.20664253440E+02  0.25920124949E+02  0.51100000000E-03 0. -1.
        -11    1    4    4    0    0  0.77801915395E+01  0.59468191918E+01  0.62057115574E+01  0.11593398772E+02  0.51100000000E-03 0.  1.
         12    1    4    4    0    0  0.25195568071E+01 -0.73851816970E+01 -0.14938353501E+02  0.16853589544E+02  0.00000000000E+00 0. -1.
</event>
<event>
 8    1  0.2971508E-007  0.9118800E+02  0.7816164E-02  0.1184000E+00
        -11   -1    0    0    0    0  0.00000000000E+00  0.00000000000E+00  0.45593999997E+02  0.45594000000E+02  0.51100000000E-03 0.  1.
         11   -1    0    0    0    0 -0.00000000000E+00 -0.00000000000E+00 -0.45593999997E+02  0.45594000000E+02  0.51100000000E-03 0. -1.
         23    2    1    2    0    0 -0.35527136788E-14  0.35527136788E-14  0.00000000000E+00  0.91188000000E+02  0.91188000000E+02 0.  0.
    9900012    2    3    3    0    0 -0.24573075519E+02  0.27046579018E+02 -0.45196032274E+01  0.54367078089E+02  0.39999986119E+02 0.  0.
         12    1    3    3    0    0  0.24573075519E+02 -0.27046579018E+02  0.45196032274E+01  0.36820921911E+02  0.00000000000E+00 0. -1.
         11    1    4    4    0    0  0.65606102323E+01  0.73134930187E+01 -0.10312626086E+00  0.98254476764E+01  0.51100000000E-03 0. -1.
        -11    1    4    4    0    0 -0.48789920081E+01  0.50532203242E+01  0.91570956674E+01  0.11540883848E+02  0.51100000000E-03 0.  1.
        -12    1    4    4    0    0 -0.26254693743E+02  0.14679865675E+02 -0.13573572634E+02  0.33000746565E+02  0.00000000000E+00 0.  1.
</event>
<event>
 8    1  0.2971508E-007  0.9118800E+02  0.7816164E-02  0.1184000E+00
        -11   -1    0    0    0    0  0.00000000000E+00  0.00000000000E+00  0.45593999997E+02  0.45594000000E+02  0.51100000000E-03 0.  1.
         11   -1    0    0    0    0 -0.00000000000E+00 -0.00000000000E+00 -0.45593999997E+02  0.45594000000E+02  0.51100000000E-03 0. -1.
         23    2    1    2    0    0  0.35527136788E-14  0.00000000000E+00 -0.35527136788E-14  0.91188000000E+02  0.91188000000E+02 0.  0.
    9900012    2    3    3    0    0  0.10815240591E+02  0.25904437358E+02  0.23827943407E+02  0.54367079440E+02  0.39999989199E+02 0.  0.
         12    1    3    3    0    0 -0.10815240591E+02 -0.25904437358E+02 -0.23827943407E+02  0.36820920560E+02  0.00000000000E+00 0. -1.
         11    1    4    4    0    0 -0.99831433604E+01  0.18359090566E+02  0.19282447272E+02  0.28434699415E+02  0.51100000000E-03 0. -1.
        -11    1    4    4    0    0 -0.10525400272E+01 -0.75286672981E+00 -0.13048930438E+01  0.18377690112E+01  0.51100000000E-03 0.  1.
         12    1    4    4    0    0  0.21850923978E+02  0.82982135214E+01  0.58503891792E+01  0.24094611014E+02  0.00000000000E+00 0. -1.
</event>
<event>
 8    1  0.2971508E-007  0.9118800E+02  0.7816164E-02  0.1184000E+00
        -11   -1    0    0    0    0  0.00000000000E+00  0.00000000000E+00  0.45593999997E+02  0.45594000000E+02  0.51100000000E-03 0. -1.
         11   -1    0    0    0    0 -0.00000000000E+00 -0.00000000000E+00 -0.45593999997E+02  0.45594000000E+02  0.51100000000E-03 0.  1.
         23    2    1    2    0    0  0.00000000000E+00  0.00000000000E+00  0.00000000000E+00  0.91188000000E+02  0.91188000000E+02 0.  0.
    9900012    2    3    3    0    0  0.23107619640E+02 -0.25668315815E+01  0.28552236328E+02  0.54367069687E+02  0.39999966964E+02 0.  0.
        -12    1    3    3    0    0 -0.23107619640E+02  0.25668315815E+01 -0.28552236328E+02  0.36820930313E+02  0.00000000000E+00 0.  1.
         11    1    4    4    0    0  0.15633391981E+02  0.20763246129E+01 -0.69011150502E+01  0.17214513003E+02  0.51100000000E-03 0. -1.
        -11    1    4    4    0    0  0.10417109899E+01 -0.45566462909E+01  0.14898195464E+02  0.15614237591E+02  0.51100000000E-03 0.  1.
         12    1    4    4    0    0  0.64325166693E+01 -0.86509903523E-01  0.20555155915E+02  0.21538319093E+02  0.00000000000E+00 0. -1.
</event>
<event>
 8    1  0.2971508E-007  0.9118800E+02  0.7816164E-02  0.1184000E+00
        -11   -1    0    0    0    0  0.00000000000E+00  0.00000000000E+00  0.45593999997E+02  0.45594000000E+02  0.51100000000E-03 0.  1.
         11   -1    0    0    0    0 -0.00000000000E+00 -0.00000000000E+00 -0.45593999997E+02  0.45594000000E+02  0.51100000000E-03 0. -1.
         23    2    1    2    0    0  0.00000000000E+00  0.17763568394E-14  0.00000000000E+00  0.91188000000E+02  0.91188000000E+02 0.  0.
    9900012    2    3    3    0    0 -0.71611632645E+01  0.15615805307E+02 -0.32567552140E+02  0.54367067270E+02  0.39999961455E+02 0.  0.
        -12    1    3    3    0    0  0.71611632645E+01 -0.15615805307E+02  0.32567552140E+02  0.36820932730E+02  0.00000000000E+00 0.  1.
         11    1    4    4    0    0 -0.14270281238E+02  0.26655559517E+02 -0.23333106952E+02  0.38191539116E+02  0.51100000000E-03 0. -1.
        -11    1    4    4    0    0  0.35866807838E+01 -0.70617939498E+01 -0.48555611373E+01  0.92903006977E+01  0.51100000000E-03 0.  1.
         12    1    4    4    0    0  0.35224371901E+01 -0.39779602598E+01 -0.43788840510E+01  0.68852274558E+01  0.00000000000E+00 0. -1.
</event>
<event>
 8    1  0.2971508E-007  0.9118800E+02  0.7816164E-02  0.1184000E+00
        -11   -1    0    0    0    0  0.00000000000E+00  0.00000000000E+00  0.45593999997E+02  0.45594000000E+02  0.51100000000E-03 0.  1.
         11   -1    0    0    0    0 -0.00000000000E+00 -0.00000000000E+00 -0.45593999997E+02  0.45594000000E+02  0.51100000000E-03 0. -1.
         23    2    1    2    0    0  0.00000000000E+00  0.00000000000E+00  0.35527136788E-14  0.91188000000E+02  0.91188000000E+02 0.  0.
    9900012    2    3    3    0    0 -0.24115699874E+02 -0.97853141918E+01  0.26047270344E+02  0.54367086831E+02  0.40000006049E+02 0.  0.
         12    1    3    3    0    0  0.24115699874E+02  0.97853141918E+01 -0.26047270344E+02  0.36820913169E+02  0.00000000000E+00 0. -1.
         11    1    4    4    0    0 -0.16893385203E+02  0.22414833826E+01  0.19881769186E+02  0.26185787320E+02  0.51100000000E-03 0. -1.
        -11    1    4    4    0    0 -0.10264225910E+02 -0.98041338916E+01  0.13718952425E+02  0.19740441505E+02  0.51100000000E-03 0.  1.
         12    1    4    4    0    0  0.30419112393E+01 -0.22226636828E+01 -0.75534512672E+01  0.84408580062E+01  0.00000000000E+00 0. -1.
</event>
<event>
 8    1  0.2971508E-007  0.9118800E+02  0.7816164E-02  0.1184000E+00
        -11   -1    0    0    0    0  0.00000000000E+00  0.00000000000E+00  0.45593999997E+02  0.45594000000E+02  0.51100000000E-03 0.  1.
         11   -1    0    0    0    0 -0.00000000000E+00 -0.00000000000E+00 -0.45593999997E+02  0.45594000000E+02  0.51100000000E-03 0. -1.
         23    2    1    2    0    0  0.00000000000E+00  0.00000000000E+00  0.49960036108E-15  0.91188000000E+02  0.91188000000E+02 0.  0.
    9900012    2    3    3    0    0  0.32379433531E+02 -0.17524611294E+02 -0.49011153731E+00  0.54367083035E+02  0.39999997394E+02 0.  0.
        -12    1    3    3    0    0 -0.32379433531E+02  0.17524611294E+02  0.49011153731E+00  0.36820916965E+02  0.00000000000E+00 0.  1.
         11    1    4    4    0    0  0.56629175288E+01 -0.19870892661E+02 -0.34933950574E+01  0.20955305280E+02  0.51100000000E-03 0. -1.
        -11    1    4    4    0    0  0.16534230840E+02  0.98285300395E+01  0.64959556150E+01  0.20302173082E+02  0.51100000000E-03 0.  1.
        -12    1    4    4    0    0  0.10182285162E+02 -0.74822486729E+01 -0.34926720948E+01  0.13109604673E+02  0.00000000000E+00 0.  1.
</event>
<event>
 8    1  0.2971508E-007  0.9118800E+02  0.7816164E-02  0.1184000E+00
        -11   -1    0    0    0    0  0.00000000000E+00  0.00000000000E+00  0.45593999997E+02  0.45594000000E+02  0.51100000000E-03 0. -1.
         11   -1    0    0    0    0 -0.00000000000E+00 -0.00000000000E+00 -0.45593999997E+02  0.45594000000E+02  0.51100000000E-03 0.  1.
         23    2    1    2    0    0  0.00000000000E+00  0.71054273576E-14 -0.33306690739E-15  0.91188000000E+02  0.91188000000E+02 0.  0.
    9900012    2    3    3    0    0 -0.10687523821E+02 -0.35223309354E+02 -0.93503412330E+00  0.54367095936E+02  0.40000026805E+02 0.  0.
         12    1    3    3    0    0  0.10687523821E+02  0.35223309354E+02  0.93503412330E+00  0.36820904064E+02  0.00000000000E+00 0. -1.
         11    1    4    4    0    0 -0.55942279925E+01 -0.64755950794E+01  0.87817413602E+00  0.86023199510E+01  0.51100000000E-03 0. -1.
        -11    1    4    4    0    0 -0.15836017209E+02 -0.30836262896E+02 -0.27925112978E+01  0.34777186057E+02  0.51100000000E-03 0.  1.
         12    1    4    4    0    0  0.10742721380E+02  0.20885486211E+01  0.97930303852E+00  0.10987589928E+02  0.00000000000E+00 0. -1.
</event>
<event>
 8    1  0.2971508E-007  0.9118800E+02  0.7816164E-02  0.1184000E+00
        -11   -1    0    0    0    0  0.00000000000E+00  0.00000000000E+00  0.45593999997E+02  0.45594000000E+02  0.51100000000E-03 0. -1.
         11   -1    0    0    0    0 -0.00000000000E+00 -0.00000000000E+00 -0.45593999997E+02  0.45594000000E+02  0.51100000000E-03 0.  1.
         23    2    1    2    0    0 -0.35527136788E-14  0.00000000000E+00  0.22204460493E-15  0.91188000000E+02  0.91188000000E+02 0.  0.
    9900012    2    3    3    0    0  0.31585002261E+02 -0.18894015153E+02 -0.10882718612E+01  0.54367075078E+02  0.39999979255E+02 0.  0.
         12    1    3    3    0    0 -0.31585002261E+02  0.18894015153E+02  0.10882718612E+01  0.36820924922E+02  0.00000000000E+00 0. -1.
         11    1    4    4    0    0  0.29744430657E+02 -0.44246833471E+01  0.47085540615E+01  0.30438125098E+02  0.51100000000E-03 0. -1.
        -11    1    4    4    0    0  0.75199486261E+01 -0.26824093817E+01  0.25831827997E+01  0.83915303174E+01  0.51100000000E-03 0.  1.
        -12    1    4    4    0    0 -0.56793770220E+01 -0.11786922425E+02 -0.83800087224E+01  0.15537419663E+02  0.00000000000E+00 0.  1.
</event>
<event>
 8    1  0.2971508E-007  0.9118800E+02  0.7816164E-02  0.1184000E+00
        -11   -1    0    0    0    0  0.00000000000E+00  0.00000000000E+00  0.45593999997E+02  0.45594000000E+02  0.51100000000E-03 0.  1.
         11   -1    0    0    0    0 -0.00000000000E+00 -0.00000000000E+00 -0.45593999997E+02  0.45594000000E+02  0.51100000000E-03 0. -1.
         23    2    1    2    0    0  0.71054273576E-14  0.00000000000E+00 -0.88817841970E-15  0.91188000000E+02  0.91188000000E+02 0.  0.
    9900012    2    3    3    0    0  0.32791548539E+02  0.16182069655E+02 -0.43167315863E+01  0.54367092821E+02  0.40000019703E+02 0.  0.
         12    1    3    3    0    0 -0.32791548539E+02 -0.16182069655E+02  0.43167315863E+01  0.36820907179E+02  0.00000000000E+00 0. -1.
         11    1    4    4    0    0  0.20653899097E+02  0.67693483827E+01 -0.15268475422E+00  0.21735476492E+02  0.51100000000E-03 0.  1.
        -11    1    4    4    0    0 -0.18252702061E+00  0.51539366287E+01  0.11291135598E+02  0.12413143125E+02  0.51100000000E-03 0. -1.
         12    1    4    4    0    0  0.12320176463E+02  0.42587846438E+01 -0.15455182430E+02  0.20218473203E+02  0.00000000000E+00 0. -1.
</event>
<event>
 8    1  0.2971508E-007  0.9118800E+02  0.7816164E-02  0.1184000E+00
        -11   -1    0    0    0    0  0.00000000000E+00  0.00000000000E+00  0.45593999997E+02  0.45594000000E+02  0.51100000000E-03 0.  1.
         11   -1    0    0    0    0 -0.00000000000E+00 -0.00000000000E+00 -0.45593999997E+02  0.45594000000E+02  0.51100000000E-03 0. -1.
         23    2    1    2    0    0 -0.35527136788E-14 -0.17763568394E-14  0.00000000000E+00  0.91188000000E+02  0.91188000000E+02 0.  0.
    9900012    2    3    3    0    0 -0.29797471481E+02 -0.14583997375E+02  0.15974898311E+02  0.54367086620E+02  0.40000005567E+02 0.  0.
         12    1    3    3    0    0  0.29797471481E+02  0.14583997375E+02 -0.15974898311E+02  0.36820913380E+02  0.00000000000E+00 0. -1.
         11    1    4    4    0    0  0.33735164351E+00 -0.22011814798E+00  0.11824743879E+02  0.11831602858E+02  0.51100000000E-03 0. -1.
        -11    1    4    4    0    0 -0.14896148145E+01 -0.57549776957E+01 -0.82394917334E+01  0.10160115396E+02  0.51100000000E-03 0.  1.
        -12    1    4    4    0    0 -0.28645208310E+02 -0.86089015316E+01  0.12389646165E+02  0.32375368366E+02  0.00000000000E+00 0.  1.
</event>
<event>
 8    1  0.2971508E-007  0.9118800E+02  0.7816164E-02  0.1184000E+00
        -11   -1    0    0    0    0  0.00000000000E+00  0.00000000000E+00  0.45593999997E+02  0.45594000000E+02  0.51100000000E-03 0.  1.
         11   -1    0    0    0    0 -0.00000000000E+00 -0.00000000000E+00 -0.45593999997E+02  0.45594000000E+02  0.51100000000E-03 0. -1.
         23    2    1    2    0    0  0.00000000000E+00  0.00000000000E+00 -0.13322676296E-14  0.91188000000E+02  0.91188000000E+02 0.  0.
    9900012    2    3    3    0    0 -0.22355304539E+02 -0.28994317512E+02 -0.39181279112E+01  0.54367057381E+02  0.39999938911E+02 0.  0.
         12    1    3    3    0    0  0.22355304539E+02  0.28994317512E+02  0.39181279112E+01  0.36820942619E+02  0.00000000000E+00 0. -1.
         11    1    4    4    0    0 -0.17630226199E+02 -0.17764186063E+02  0.18318722818E+01  0.25094759186E+02  0.51100000000E-03 0. -1.
        -11    1    4    4    0    0 -0.92973896155E+01 -0.44862454938E+01  0.81552170047E+01  0.13155813048E+02  0.51100000000E-03 0.  1.
         12    1    4    4    0    0  0.45723112748E+01 -0.67438859549E+01 -0.13905217198E+02  0.16116485147E+02  0.00000000000E+00 0. -1.
</event>
<event>
 8    1  0.2971508E-007  0.9118800E+02  0.7816164E-02  0.1184000E+00
        -11   -1    0    0    0    0  0.00000000000E+00  0.00000000000E+00  0.45593999997E+02  0.45594000000E+02  0.51100000000E-03 0.  1.
         11   -1    0    0    0    0 -0.00000000000E+00 -0.00000000000E+00 -0.45593999997E+02  0.45594000000E+02  0.51100000000E-03 0. -1.
         23    2    1    2    0    0  0.35527136788E-14  0.35527136788E-14  0.00000000000E+00  0.91188000000E+02  0.91188000000E+02 0.  0.
    9900012    2    3    3    0    0 -0.22771156304E+02 -0.23304084937E+02 -0.17151459594E+02  0.54367102396E+02  0.40000041531E+02 0.  0.
        -12    1    3    3    0    0  0.22771156304E+02  0.23304084937E+02  0.17151459594E+02  0.36820897604E+02  0.00000000000E+00 0.  1.
         11    1    4    4    0    0  0.88484272444E+00 -0.32917583895E+01  0.65714086078E+01  0.74028394075E+01  0.51100000000E-03 0.  1.
        -11    1    4    4    0    0  0.54445958923E+01 -0.63763203202E+01 -0.53505603514E+01  0.99463350834E+01  0.51100000000E-03 0. -1.
         12    1    4    4    0    0 -0.29100594921E+02 -0.13636006227E+02 -0.18372307850E+02  0.37017927905E+02  0.00000000000E+00 0. -1.
</event>
<event>
 8    1  0.2971508E-007  0.9118800E+02  0.7816164E-02  0.1184000E+00
        -11   -1    0    0    0    0  0.00000000000E+00  0.00000000000E+00  0.45593999997E+02  0.45594000000E+02  0.51100000000E-03 0. -1.
         11   -1    0    0    0    0 -0.00000000000E+00 -0.00000000000E+00 -0.45593999997E+02  0.45594000000E+02  0.51100000000E-03 0.  1.
         23    2    1    2    0    0 -0.35527136788E-14  0.00000000000E+00  0.17763568394E-14  0.91188000000E+02  0.91188000000E+02 0.  0.
    9900012    2    3    3    0    0  0.24324898961E+02  0.24255062307E+02 -0.13257888412E+02  0.54367077115E+02  0.39999983899E+02 0.  0.
        -12    1    3    3    0    0 -0.24324898961E+02 -0.24255062307E+02  0.13257888412E+02  0.36820922885E+02  0.00000000000E+00 0.  1.
         11    1    4    4    0    0  0.31023679131E+01 -0.81390741054E+01  0.50408625839E+01  0.10063772146E+02  0.51100000000E-03 0. -1.
        -11    1    4    4    0    0  0.10691434184E+02  0.12185034882E+02 -0.13311247916E+02  0.20975489537E+02  0.51100000000E-03 0.  1.
        -12    1    4    4    0    0  0.10531096863E+02  0.20209101530E+02 -0.49875030803E+01  0.23327815431E+02  0.00000000000E+00 0.  1.
</event>
<event>
 8    1  0.2971508E-007  0.9118800E+02  0.7816164E-02  0.1184000E+00
        -11   -1    0    0    0    0  0.00000000000E+00  0.00000000000E+00  0.45593999997E+02  0.45594000000E+02  0.51100000000E-03 0. -1.
         11   -1    0    0    0    0 -0.00000000000E+00 -0.00000000000E+00 -0.45593999997E+02  0.45594000000E+02  0.51100000000E-03 0.  1.
         23    2    1    2    0    0 -0.88817841970E-15  0.71054273576E-14  0.00000000000E+00  0.91188000000E+02  0.91188000000E+02 0.  0.
    9900012    2    3    3    0    0 -0.59607009093E+01 -0.31423595983E+02  0.18242993597E+02  0.54367093503E+02  0.40000021260E+02 0.  0.
        -12    1    3    3    0    0  0.59607009093E+01  0.31423595983E+02 -0.18242993597E+02  0.36820906497E+02  0.00000000000E+00 0.  1.
         11    1    4    4    0    0  0.59712842225E+01 -0.77327408329E+01  0.76964318444E+01  0.12437305956E+02  0.51100000000E-03 0. -1.
        -11    1    4    4    0    0  0.74692978260E+00 -0.17914191539E+02 -0.72395751000E+01  0.19336173626E+02  0.51100000000E-03 0.  1.
         12    1    4    4    0    0 -0.12678914914E+02 -0.57766636115E+01  0.17786136853E+02  0.22593613922E+02  0.00000000000E+00 0. -1.
</event>
<event>
 8    1  0.2971508E-007  0.9118800E+02  0.7816164E-02  0.1184000E+00
        -11   -1    0    0    0    0  0.00000000000E+00  0.00000000000E+00  0.45593999997E+02  0.45594000000E+02  0.51100000000E-03 0.  1.
         11   -1    0    0    0    0 -0.00000000000E+00 -0.00000000000E+00 -0.45593999997E+02  0.45594000000E+02  0.51100000000E-03 0. -1.
         23    2    1    2    0    0 -0.71054273576E-14  0.17763568394E-14  0.35527136788E-14  0.91188000000E+02  0.91188000000E+02 0.  0.
    9900012    2    3    3    0    0  0.17756729776E+02 -0.15219229318E+02 -0.28440328795E+02  0.54367099749E+02  0.40000035497E+02 0.  0.
        -12    1    3    3    0    0 -0.17756729776E+02  0.15219229318E+02  0.28440328795E+02  0.36820900251E+02  0.00000000000E+00 0.  1.
         11    1    4    4    0    0  0.98467169889E+01  0.43969337969E+01 -0.49034583882E+01  0.11846297595E+02  0.51100000000E-03 0. -1.
        -11    1    4    4    0    0  0.20464864614E+01 -0.56405847576E+01 -0.26420350710E+02  0.27093158457E+02  0.51100000000E-03 0.  1.
        -12    1    4    4    0    0  0.58635263253E+01 -0.13975578357E+02  0.28834803037E+01  0.15427643697E+02  0.00000000000E+00 0.  1.
</event>
<event>
 8    1  0.2971508E-007  0.9118800E+02  0.7816164E-02  0.1184000E+00
        -11   -1    0    0    0    0  0.00000000000E+00  0.00000000000E+00  0.45593999997E+02  0.45594000000E+02  0.51100000000E-03 0.  1.
         11   -1    0    0    0    0 -0.00000000000E+00 -0.00000000000E+00 -0.45593999997E+02  0.45594000000E+02  0.51100000000E-03 0. -1.
         23    2    1    2    0    0  0.00000000000E+00 -0.35527136788E-14 -0.88817841970E-15  0.91188000000E+02  0.91188000000E+02 0.  0.
    9900012    2    3    3    0    0  0.21196577968E+02 -0.29760887933E+02  0.45579854965E+01  0.54367073886E+02  0.39999976537E+02 0.  0.
         12    1    3    3    0    0 -0.21196577968E+02  0.29760887933E+02 -0.45579854965E+01  0.36820926114E+02  0.00000000000E+00 0. -1.
         11    1    4    4    0    0  0.23733932041E+01 -0.73049576863E+00  0.45094027540E+01  0.51479445246E+01  0.51100000000E-03 0. -1.
        -11    1    4    4    0    0  0.40473409463E+01 -0.10852640550E+02 -0.16770058170E+02  0.20381256755E+02  0.51100000000E-03 0.  1.
        -12    1    4    4    0    0  0.14775843818E+02 -0.18177751615E+02  0.16818640912E+02  0.28837872606E+02  0.00000000000E+00 0.  1.
</event>
<event>
 8    1  0.2971508E-007  0.9118800E+02  0.7816164E-02  0.1184000E+00
        -11   -1    0    0    0    0  0.00000000000E+00  0.00000000000E+00  0.45593999997E+02  0.45594000000E+02  0.51100000000E-03 0. -1.
         11   -1    0    0    0    0 -0.00000000000E+00 -0.00000000000E+00 -0.45593999997E+02  0.45594000000E+02  0.51100000000E-03 0.  1.
         23    2    1    2    0    0  0.17763568394E-14 -0.17763568394E-14  0.00000000000E+00  0.91188000000E+02  0.91188000000E+02 0.  0.
    9900012    2    3    3    0    0 -0.54538814845E+01  0.13190652346E+02 -0.33941674131E+02  0.54367144831E+02  0.40000138270E+02 0.  0.
         12    1    3    3    0    0  0.54538814845E+01 -0.13190652346E+02  0.33941674131E+02  0.36820855169E+02  0.00000000000E+00 0. -1.
         11    1    4    4    0    0 -0.16480448286E+02 -0.19249397607E+01 -0.27406409588E+01  0.16817303052E+02  0.51100000000E-03 0. -1.
        -11    1    4    4    0    0  0.87089773309E+01  0.40875427464E+01 -0.14063747497E+02  0.17039462602E+02  0.51100000000E-03 0.  1.
         12    1    4    4    0    0  0.23175894710E+01  0.11028049360E+02 -0.17137285676E+02  0.20510379177E+02  0.00000000000E+00 0. -1.
</event>
<event>
 8    1  0.2971508E-007  0.9118800E+02  0.7816164E-02  0.1184000E+00
        -11   -1    0    0    0    0  0.00000000000E+00  0.00000000000E+00  0.45593999997E+02  0.45594000000E+02  0.51100000000E-03 0.  1.
         11   -1    0    0    0    0 -0.00000000000E+00 -0.00000000000E+00 -0.45593999997E+02  0.45594000000E+02  0.51100000000E-03 0. -1.
         23    2    1    2    0    0 -0.17763568394E-14 -0.35527136788E-14 -0.35527136788E-14  0.91188000000E+02  0.91188000000E+02 0.  0.
    9900012    2    3    3    0    0  0.12360931371E+02  0.18340888817E+02  0.29438040587E+02  0.54367094789E+02  0.40000024190E+02 0.  0.
         12    1    3    3    0    0 -0.12360931371E+02 -0.18340888817E+02 -0.29438040587E+02  0.36820905211E+02  0.00000000000E+00 0. -1.
         11    1    4    4    0    0 -0.15942608617E+01  0.16639127259E+02  0.10785259140E+02  0.19892813743E+02  0.51100000000E-03 0. -1.
        -11    1    4    4    0    0  0.15402548444E+02  0.11338237225E+02  0.13825730744E+02  0.23599681201E+02  0.51100000000E-03 0.  1.
        -12    1    4    4    0    0 -0.14473562116E+01 -0.96364756668E+01  0.48270507033E+01  0.10874599844E+02  0.00000000000E+00 0.  1.
</event>
<event>
 8    1  0.2971508E-007  0.9118800E+02  0.7816164E-02  0.1184000E+00
        -11   -1    0    0    0    0  0.00000000000E+00  0.00000000000E+00  0.45593999997E+02  0.45594000000E+02  0.51100000000E-03 0. -1.
         11   -1    0    0    0    0 -0.00000000000E+00 -0.00000000000E+00 -0.45593999997E+02  0.45594000000E+02  0.51100000000E-03 0.  1.
         23    2    1    2    0    0  0.35527136788E-14  0.35527136788E-14 -0.35527136788E-14  0.91188000000E+02  0.91188000000E+02 0.  0.
    9900012    2    3    3    0    0 -0.23795239997E+02 -0.21354225382E+02  0.18263745449E+02  0.54367071359E+02  0.39999970776E+02 0.  0.
        -12    1    3    3    0    0  0.23795239997E+02  0.21354225382E+02 -0.18263745449E+02  0.36820928641E+02  0.00000000000E+00 0.  1.
         11    1    4    4    0    0 -0.10882612921E+01  0.36630452852E+01  0.16569004769E+02  0.17003944621E+02  0.51100000000E-03 0. -1.
        -11    1    4    4    0    0 -0.14961529999E+02 -0.14074862802E+02  0.86165249310E+01  0.22275404485E+02  0.51100000000E-03 0.  1.
        -12    1    4    4    0    0 -0.77454487057E+01 -0.10942407866E+02 -0.69217842508E+01  0.15087722252E+02  0.00000000000E+00 0.  1.
</event>
<event>
 8    1  0.2971508E-007  0.9118800E+02  0.7816164E-02  0.1184000E+00
        -11   -1    0    0    0    0  0.00000000000E+00  0.00000000000E+00  0.45593999997E+02  0.45594000000E+02  0.51100000000E-03 0. -1.
         11   -1    0    0    0    0 -0.00000000000E+00 -0.00000000000E+00 -0.45593999997E+02  0.45594000000E+02  0.51100000000E-03 0.  1.
         23    2    1    2    0    0 -0.88817841970E-15  0.00000000000E+00  0.00000000000E+00  0.91188000000E+02  0.91188000000E+02 0.  0.
    9900012    2    3    3    0    0 -0.76955084702E+01  0.24964850092E+02  0.25948303959E+02  0.54367094673E+02  0.40000023926E+02 0.  0.
        -12    1    3    3    0    0  0.76955084702E+01 -0.24964850092E+02 -0.25948303959E+02  0.36820905327E+02  0.00000000000E+00 0.  1.
         11    1    4    4    0    0  0.78136655878E+00 -0.35080306858E+01 -0.49701720948E+01  0.61334675270E+01  0.51100000000E-03 0. -1.
        -11    1    4    4    0    0 -0.47528482312E+01 -0.14567442914E+01  0.11050994463E+02  0.12117596673E+02  0.51100000000E-03 0.  1.
         12    1    4    4    0    0 -0.37240267977E+01  0.29929625069E+02  0.19867481591E+02  0.36116030473E+02  0.00000000000E+00 0. -1.
</event>
<event>
 8    1  0.2971508E-007  0.9118800E+02  0.7816164E-02  0.1184000E+00
        -11   -1    0    0    0    0  0.00000000000E+00  0.00000000000E+00  0.45593999997E+02  0.45594000000E+02  0.51100000000E-03 0. -1.
         11   -1    0    0    0    0 -0.00000000000E+00 -0.00000000000E+00 -0.45593999997E+02  0.45594000000E+02  0.51100000000E-03 0.  1.
         23    2    1    2    0    0  0.35527136788E-14  0.17763568394E-14  0.35527136788E-14  0.91188000000E+02  0.91188000000E+02 0.  0.
    9900012    2    3    3    0    0  0.21181942734E+02  0.91102517466E+01  0.28707291537E+02  0.54367082409E+02  0.39999995968E+02 0.  0.
        -12    1    3    3    0    0 -0.21181942734E+02 -0.91102517466E+01 -0.28707291537E+02  0.36820917591E+02  0.00000000000E+00 0.  1.
         11    1    4    4    0    0  0.15083353053E+02  0.61880092707E-01  0.49136392098E+01  0.15863644569E+02  0.51100000000E-03 0. -1.
        -11    1    4    4    0    0  0.98622167063E+01 -0.72658753740E+01  0.47296665373E+01  0.13131108450E+02  0.51100000000E-03 0.  1.
         12    1    4    4    0    0 -0.37636270255E+01  0.16314247028E+02  0.19063985790E+02  0.25372329390E+02  0.00000000000E+00 0. -1.
</event>
<event>
 8    1  0.2971508E-007  0.9118800E+02  0.7816164E-02  0.1184000E+00
        -11   -1    0    0    0    0  0.00000000000E+00  0.00000000000E+00  0.45593999997E+02  0.45594000000E+02  0.51100000000E-03 0.  1.
         11   -1    0    0    0    0 -0.00000000000E+00 -0.00000000000E+00 -0.45593999997E+02  0.45594000000E+02  0.51100000000E-03 0. -1.
         23    2    1    2    0    0 -0.35527136788E-14  0.00000000000E+00  0.35527136788E-14  0.91188000000E+02  0.91188000000E+02 0.  0.
    9900012    2    3    3    0    0  0.16082322902E+02 -0.27260930183E+02 -0.18814405779E+02  0.54367064525E+02  0.39999955198E+02 0.  0.
        -12    1    3    3    0    0 -0.16082322902E+02  0.27260930183E+02  0.18814405779E+02  0.36820935475E+02  0.00000000000E+00 0.  1.
         11    1    4    4    0    0  0.40522810710E+01 -0.10180309842E+02  0.82110810750E+01  0.13692389968E+02  0.51100000000E-03 0.  1.
        -11    1    4    4    0    0 -0.49138886286E+01 -0.71617166940E+01 -0.15874890742E+02  0.18095542097E+02  0.51100000000E-03 0. -1.
        -12    1    4    4    0    0  0.16943930460E+02 -0.99189036478E+01 -0.11150596113E+02  0.22579132461E+02  0.00000000000E+00 0.  1.
</event>
<event>
 8    1  0.2971508E-007  0.9118800E+02  0.7816164E-02  0.1184000E+00
        -11   -1    0    0    0    0  0.00000000000E+00  0.00000000000E+00  0.45593999997E+02  0.45594000000E+02  0.51100000000E-03 0. -1.
         11   -1    0    0    0    0 -0.00000000000E+00 -0.00000000000E+00 -0.45593999997E+02  0.45594000000E+02  0.51100000000E-03 0.  1.
         23    2    1    2    0    0  0.00000000000E+00  0.00000000000E+00  0.00000000000E+00  0.91188000000E+02  0.91188000000E+02 0.  0.
    9900012    2    3    3    0    0  0.31501227058E+02 -0.10679522436E+02 -0.15792405322E+02  0.54367087851E+02  0.40000008374E+02 0.  0.
        -12    1    3    3    0    0 -0.31501227058E+02  0.10679522436E+02  0.15792405322E+02  0.36820912149E+02  0.00000000000E+00 0.  1.
         11    1    4    4    0    0 -0.19280190827E+01 -0.48796858752E+01  0.76219215775E+01  0.92532308206E+01  0.51100000000E-03 0. -1.
        -11    1    4    4    0    0  0.94008706438E+01  0.60993081607E+01 -0.10483601207E+02  0.15345482183E+02  0.51100000000E-03 0.  1.
        -12    1    4    4    0    0  0.24028375497E+02 -0.11899144721E+02 -0.12930725693E+02  0.29768374848E+02  0.00000000000E+00 0.  1.
</event>
<event>
 8    1  0.2971508E-007  0.9118800E+02  0.7816164E-02  0.1184000E+00
        -11   -1    0    0    0    0  0.00000000000E+00  0.00000000000E+00  0.45593999997E+02  0.45594000000E+02  0.51100000000E-03 0.  1.
         11   -1    0    0    0    0 -0.00000000000E+00 -0.00000000000E+00 -0.45593999997E+02  0.45594000000E+02  0.51100000000E-03 0. -1.
         23    2    1    2    0    0  0.00000000000E+00 -0.17763568394E-14  0.00000000000E+00  0.91188000000E+02  0.91188000000E+02 0.  0.
    9900012    2    3    3    0    0 -0.54563185791E+01 -0.97398205815E+01 -0.35087673373E+02  0.54367077413E+02  0.39999984579E+02 0.  0.
        -12    1    3    3    0    0  0.54563185791E+01  0.97398205815E+01  0.35087673373E+02  0.36820922587E+02  0.00000000000E+00 0.  1.
         11    1    4    4    0    0  0.46115731276E+00 -0.69061884143E+01  0.54935123161E+01  0.88366725813E+01  0.51100000000E-03 0.  1.
        -11    1    4    4    0    0 -0.87036384927E+01 -0.66887858922E+01 -0.10896196685E+02  0.15466747628E+02  0.51100000000E-03 0. -1.
         12    1    4    4    0    0  0.27861626008E+01  0.38551537249E+01 -0.29684989005E+02  0.30063657204E+02  0.00000000000E+00 0. -1.
</event>
<event>
 8    1  0.2971508E-007  0.9118800E+02  0.7816164E-02  0.1184000E+00
        -11   -1    0    0    0    0  0.00000000000E+00  0.00000000000E+00  0.45593999997E+02  0.45594000000E+02  0.51100000000E-03 0.  1.
         11   -1    0    0    0    0 -0.00000000000E+00 -0.00000000000E+00 -0.45593999997E+02  0.45594000000E+02  0.51100000000E-03 0. -1.
         23    2    1    2    0    0 -0.71054273576E-14  0.00000000000E+00 -0.88817841970E-15  0.91188000000E+02  0.91188000000E+02 0.  0.
    9900012    2    3    3    0    0  0.33098315252E+02  0.15854105819E+02  0.29880539973E+01  0.54367087321E+02  0.40000007165E+02 0.  0.
         12    1    3    3    0    0 -0.33098315252E+02 -0.15854105819E+02 -0.29880539973E+01  0.36820912679E+02  0.00000000000E+00 0. -1.
         11    1    4    4    0    0  0.13643248923E+02 -0.88420367310E+01  0.54483455220E+00  0.16267043360E+02  0.51100000000E-03 0. -1.
        -11    1    4    4    0    0  0.12623577004E+02  0.11300967142E+02  0.11564193782E+02  0.20513340362E+02  0.51100000000E-03 0.  1.
        -12    1    4    4    0    0  0.68314893250E+01  0.13395175407E+02 -0.91209743370E+01  0.17586703598E+02  0.00000000000E+00 0.  1.
</event>
<event>
 8    1  0.2971508E-007  0.9118800E+02  0.7816164E-02  0.1184000E+00
        -11   -1    0    0    0    0  0.00000000000E+00  0.00000000000E+00  0.45593999997E+02  0.45594000000E+02  0.51100000000E-03 0. -1.
         11   -1    0    0    0    0 -0.00000000000E+00 -0.00000000000E+00 -0.45593999997E+02  0.45594000000E+02  0.51100000000E-03 0.  1.
         23    2    1    2    0    0  0.17763568394E-14  0.00000000000E+00  0.00000000000E+00  0.91188000000E+02  0.91188000000E+02 0.  0.
    9900012    2    3    3    0    0  0.11686520663E+02  0.97933079672E+01 -0.33515626528E+02  0.54367070249E+02  0.39999968246E+02 0.  0.
         12    1    3    3    0    0 -0.11686520663E+02 -0.97933079672E+01  0.33515626528E+02  0.36820929751E+02  0.00000000000E+00 0. -1.
         11    1    4    4    0    0  0.86563084095E+01 -0.29331695209E+01 -0.10714232752E+02  0.14082966394E+02  0.51100000000E-03 0. -1.
        -11    1    4    4    0    0 -0.95008026978E+01 -0.55583378622E+01 -0.66899649937E+01  0.12880838621E+02  0.51100000000E-03 0.  1.
        -12    1    4    4    0    0  0.12531014951E+02  0.18284815350E+02 -0.16111428782E+02  0.27403265234E+02  0.00000000000E+00 0.  1.
</event>
<event>
 8    1  0.2971508E-007  0.9118800E+02  0.7816164E-02  0.1184000E+00
        -11   -1    0    0    0    0  0.00000000000E+00  0.00000000000E+00  0.45593999997E+02  0.45594000000E+02  0.51100000000E-03 0. -1.
         11   -1    0    0    0    0 -0.00000000000E+00 -0.00000000000E+00 -0.45593999997E+02  0.45594000000E+02  0.51100000000E-03 0.  1.
         23    2    1    2    0    0  0.17763568394E-14  0.71054273576E-14  0.00000000000E+00  0.91188000000E+02  0.91188000000E+02 0.  0.
    9900012    2    3    3    0    0  0.10386726086E+02  0.34130955577E+02 -0.91089645875E+01  0.54367089593E+02  0.40000012345E+02 0.  0.
         12    1    3    3    0    0 -0.10386726086E+02 -0.34130955577E+02  0.91089645875E+01  0.36820910407E+02  0.00000000000E+00 0. -1.
         11    1    4    4    0    0  0.81026258697E+01  0.68420807175E+01 -0.38258302688E+01  0.11274022886E+02  0.51100000000E-03 0. -1.
        -11    1    4    4    0    0  0.17419672191E+02  0.13868786142E+02 -0.51962084133E+01  0.22864575011E+02  0.51100000000E-03 0.  1.
         12    1    4    4    0    0 -0.15135571975E+02  0.13420088717E+02 -0.86925905369E-01  0.20228491696E+02  0.00000000000E+00 0. -1.
</event>
<event>
 8    1  0.2971508E-007  0.9118800E+02  0.7816164E-02  0.1184000E+00
        -11   -1    0    0    0    0  0.00000000000E+00  0.00000000000E+00  0.45593999997E+02  0.45594000000E+02  0.51100000000E-03 0.  1.
         11   -1    0    0    0    0 -0.00000000000E+00 -0.00000000000E+00 -0.45593999997E+02  0.45594000000E+02  0.51100000000E-03 0. -1.
         23    2    1    2    0    0  0.71054273576E-14  0.00000000000E+00  0.35527136788E-14  0.91188000000E+02  0.91188000000E+02 0.  0.
    9900012    2    3    3    0    0 -0.32271477554E+02  0.56364128675E+01 -0.16809593585E+02  0.54367084069E+02  0.39999999752E+02 0.  0.
        -12    1    3    3    0    0  0.32271477554E+02 -0.56364128675E+01  0.16809593585E+02  0.36820915931E+02  0.00000000000E+00 0.  1.
         11    1    4    4    0    0  0.35644072510E+01 -0.33055757945E+01 -0.10388863060E+02  0.11469974121E+02  0.51100000000E-03 0. -1.
        -11    1    4    4    0    0 -0.53946873594E+01  0.78192123865E+01  0.45329079676E+01  0.10525682351E+02  0.51100000000E-03 0.  1.
        -12    1    4    4    0    0 -0.30441197445E+02  0.11227762755E+01 -0.10953638492E+02  0.32371427597E+02  0.00000000000E+00 0.  1.
</event>
<event>
 8    1  0.2971508E-007  0.9118800E+02  0.7816164E-02  0.1184000E+00
        -11   -1    0    0    0    0  0.00000000000E+00  0.00000000000E+00  0.45593999997E+02  0.45594000000E+02  0.51100000000E-03 0.  1.
         11   -1    0    0    0    0 -0.00000000000E+00 -0.00000000000E+00 -0.45593999997E+02  0.45594000000E+02  0.51100000000E-03 0. -1.
         23    2    1    2    0    0  0.00000000000E+00 -0.44408920985E-15  0.00000000000E+00  0.91188000000E+02  0.91188000000E+02 0.  0.
    9900012    2    3    3    0    0  0.29920038302E+02 -0.35794635403E+01  0.21160313240E+02  0.54367080571E+02  0.39999991777E+02 0.  0.
         12    1    3    3    0    0 -0.29920038302E+02  0.35794635403E+01 -0.21160313240E+02  0.36820919429E+02  0.00000000000E+00 0. -1.
         11    1    4    4    0    0  0.26457769578E+02 -0.36554094938E+01  0.17203218388E+02  0.31769896330E+02  0.51100000000E-03 0.  1.
        -11    1    4    4    0    0  0.42327861963E+01  0.44331726131E+00 -0.88191972955E+01  0.97924077925E+01  0.51100000000E-03 0. -1.
         12    1    4    4    0    0 -0.77051747314E+00 -0.36737130781E+00  0.12776292148E+02  0.12804776449E+02  0.00000000000E+00 0. -1.
</event>
<event>
 8    1  0.2971508E-007  0.9118800E+02  0.7816164E-02  0.1184000E+00
        -11   -1    0    0    0    0  0.00000000000E+00  0.00000000000E+00  0.45593999997E+02  0.45594000000E+02  0.51100000000E-03 0.  1.
         11   -1    0    0    0    0 -0.00000000000E+00 -0.00000000000E+00 -0.45593999997E+02  0.45594000000E+02  0.51100000000E-03 0. -1.
         23    2    1    2    0    0  0.71054273576E-14  0.99920072216E-15 -0.17763568394E-14  0.91188000000E+02  0.91188000000E+02 0.  0.
    9900012    2    3    3    0    0 -0.35910768833E+02 -0.65365768264E+00 -0.81098012565E+01  0.54367089325E+02  0.40000011733E+02 0.  0.
        -12    1    3    3    0    0  0.35910768833E+02  0.65365768264E+00  0.81098012565E+01  0.36820910675E+02  0.00000000000E+00 0.  1.
         11    1    4    4    0    0 -0.46770849287E+01  0.97772463255E+01 -0.37313464878E+01  0.11462661821E+02  0.51100000000E-03 0. -1.
        -11    1    4    4    0    0  0.17680950580E+01  0.22601024766E+00 -0.78513907761E+01  0.80511848908E+01  0.51100000000E-03 0.  1.
         12    1    4    4    0    0 -0.33001778962E+02 -0.10656914256E+02  0.34729360074E+01  0.34853242613E+02  0.00000000000E+00 0. -1.
</event>
<event>
 8    1  0.2971508E-007  0.9118800E+02  0.7816164E-02  0.1184000E+00
        -11   -1    0    0    0    0  0.00000000000E+00  0.00000000000E+00  0.45593999997E+02  0.45594000000E+02  0.51100000000E-03 0. -1.
         11   -1    0    0    0    0 -0.00000000000E+00 -0.00000000000E+00 -0.45593999997E+02  0.45594000000E+02  0.51100000000E-03 0.  1.
         23    2    1    2    0    0  0.00000000000E+00  0.17763568394E-14  0.00000000000E+00  0.91188000000E+02  0.91188000000E+02 0.  0.
    9900012    2    3    3    0    0 -0.33682902629E+02  0.12770248977E+02  0.76263812201E+01  0.54367097255E+02  0.40000029811E+02 0.  0.
        -12    1    3    3    0    0  0.33682902629E+02 -0.12770248977E+02 -0.76263812201E+01  0.36820902745E+02  0.00000000000E+00 0.  1.
         11    1    4    4    0    0 -0.59769159531E+01 -0.10052183412E+02 -0.30598363975E+01  0.12088528227E+02  0.51100000000E-03 0.  1.
        -11    1    4    4    0    0 -0.23801973104E+02  0.22402171844E+02  0.20015333136E+01  0.32747478725E+02  0.51100000000E-03 0. -1.
         12    1    4    4    0    0 -0.39040135723E+01  0.42026054447E+00  0.86846843040E+01  0.95310903027E+01  0.00000000000E+00 0. -1.
</event>
<event>
 8    1  0.2971508E-007  0.9118800E+02  0.7816164E-02  0.1184000E+00
        -11   -1    0    0    0    0  0.00000000000E+00  0.00000000000E+00  0.45593999997E+02  0.45594000000E+02  0.51100000000E-03 0.  1.
         11   -1    0    0    0    0 -0.00000000000E+00 -0.00000000000E+00 -0.45593999997E+02  0.45594000000E+02  0.51100000000E-03 0. -1.
         23    2    1    2    0    0  0.00000000000E+00  0.35527136788E-14  0.00000000000E+00  0.91188000000E+02  0.91188000000E+02 0.  0.
    9900012    2    3    3    0    0 -0.22618602829E+02 -0.18076537249E+02 -0.22746809725E+02  0.54367085488E+02  0.40000002986E+02 0.  0.
        -12    1    3    3    0    0  0.22618602829E+02  0.18076537249E+02  0.22746809725E+02  0.36820914512E+02  0.00000000000E+00 0.  1.
         11    1    4    4    0    0 -0.69547010282E+01 -0.72746405809E+01 -0.72970969932E+01  0.12431246388E+02  0.51100000000E-03 0. -1.
        -11    1    4    4    0    0 -0.17205223389E+00 -0.14246227856E+02  0.58265717817E+01  0.15392645941E+02  0.51100000000E-03 0.  1.
        -12    1    4    4    0    0 -0.15491849566E+02  0.34443311874E+01 -0.21276284514E+02  0.26543193158E+02  0.00000000000E+00 0.  1.
</event>
<event>
 8    1  0.2971508E-007  0.9118800E+02  0.7816164E-02  0.1184000E+00
        -11   -1    0    0    0    0  0.00000000000E+00  0.00000000000E+00  0.45593999997E+02  0.45594000000E+02  0.51100000000E-03 0. -1.
         11   -1    0    0    0    0 -0.00000000000E+00 -0.00000000000E+00 -0.45593999997E+02  0.45594000000E+02  0.51100000000E-03 0.  1.
         23    2    1    2    0    0  0.00000000000E+00 -0.17763568394E-14  0.00000000000E+00  0.91188000000E+02  0.91188000000E+02 0.  0.
    9900012    2    3    3    0    0  0.34437113766E+02 -0.11862214897E+02 -0.53992827681E+01  0.54367092879E+02  0.40000019836E+02 0.  0.
        -12    1    3    3    0    0 -0.34437113766E+02  0.11862214897E+02  0.53992827681E+01  0.36820907121E+02  0.00000000000E+00 0.  1.
         11    1    4    4    0    0 -0.24365201642E-01 -0.86971478659E+01  0.83419053441E+01  0.12051072969E+02  0.51100000000E-03 0. -1.
        -11    1    4    4    0    0  0.20966971456E+02 -0.11743295881E+02 -0.83936504763E+01  0.25455299228E+02  0.51100000000E-03 0.  1.
         12    1    4    4    0    0  0.13494507511E+02  0.85782288496E+01 -0.53475376359E+01  0.16860720683E+02  0.00000000000E+00 0. -1.
</event>
<event>
 8    1  0.2971508E-007  0.9118800E+02  0.7816164E-02  0.1184000E+00
        -11   -1    0    0    0    0  0.00000000000E+00  0.00000000000E+00  0.45593999997E+02  0.45594000000E+02  0.51100000000E-03 0.  1.
         11   -1    0    0    0    0 -0.00000000000E+00 -0.00000000000E+00 -0.45593999997E+02  0.45594000000E+02  0.51100000000E-03 0. -1.
         23    2    1    2    0    0  0.00000000000E+00  0.22204460493E-14 -0.17763568394E-14  0.91188000000E+02  0.91188000000E+02 0.  0.
    9900012    2    3    3    0    0  0.34075737364E+02  0.37317666001E+01  0.13442395729E+02  0.54367082551E+02  0.39999996291E+02 0.  0.
         12    1    3    3    0    0 -0.34075737364E+02 -0.37317666001E+01 -0.13442395729E+02  0.36820917449E+02  0.00000000000E+00 0. -1.
         11    1    4    4    0    0  0.19556638571E+01  0.81029240444E+01  0.14226788667E+01  0.84561229065E+01  0.51100000000E-03 0. -1.
        -11    1    4    4    0    0  0.90236703537E+01  0.12652279283E+02  0.55205147034E+01  0.16491903485E+02  0.51100000000E-03 0.  1.
         12    1    4    4    0    0  0.23096403153E+02 -0.17023436727E+02  0.64992021585E+01  0.29419056160E+02  0.00000000000E+00 0. -1.
</event>
<event>
 8    1  0.2971508E-007  0.9118800E+02  0.7816164E-02  0.1184000E+00
        -11   -1    0    0    0    0  0.00000000000E+00  0.00000000000E+00  0.45593999997E+02  0.45594000000E+02  0.51100000000E-03 0. -1.
         11   -1    0    0    0    0 -0.00000000000E+00 -0.00000000000E+00 -0.45593999997E+02  0.45594000000E+02  0.51100000000E-03 0.  1.
         23    2    1    2    0    0  0.88817841970E-15 -0.35527136788E-14  0.00000000000E+00  0.91188000000E+02  0.91188000000E+02 0.  0.
    9900012    2    3    3    0    0  0.77418759714E+01  0.20175826074E+02 -0.29812395380E+02  0.54367088555E+02  0.40000009979E+02 0.  0.
         12    1    3    3    0    0 -0.77418759714E+01 -0.20175826074E+02  0.29812395380E+02  0.36820911445E+02  0.00000000000E+00 0. -1.
         11    1    4    4    0    0  0.56579094778E+01  0.23921485320E+02 -0.19343634108E+02  0.31279795082E+02  0.51100000000E-03 0. -1.
        -11    1    4    4    0    0  0.63953367296E+01  0.48717937898E+01 -0.10778426900E+02  0.13446530903E+02  0.51100000000E-03 0.  1.
         12    1    4    4    0    0 -0.43113702360E+01 -0.86174530358E+01  0.30966562810E+00  0.96407625703E+01  0.00000000000E+00 0. -1.
</event>
<event>
 8    1  0.2971508E-007  0.9118800E+02  0.7816164E-02  0.1184000E+00
        -11   -1    0    0    0    0  0.00000000000E+00  0.00000000000E+00  0.45593999997E+02  0.45594000000E+02  0.51100000000E-03 0.  1.
         11   -1    0    0    0    0 -0.00000000000E+00 -0.00000000000E+00 -0.45593999997E+02  0.45594000000E+02  0.51100000000E-03 0. -1.
         23    2    1    2    0    0  0.00000000000E+00 -0.13322676296E-14  0.00000000000E+00  0.91188000000E+02  0.91188000000E+02 0.  0.
    9900012    2    3    3    0    0 -0.49094222984E+01  0.39132993535E+01 -0.36281633555E+02  0.54367173386E+02  0.40000203367E+02 0.  0.
        -12    1    3    3    0    0  0.49094222984E+01 -0.39132993535E+01  0.36281633555E+02  0.36820826614E+02  0.00000000000E+00 0.  1.
         11    1    4    4    0    0  0.49006742276E+01  0.11342753916E+02 -0.22113044892E+02  0.25331036870E+02  0.51100000000E-03 0. -1.
        -11    1    4    4    0    0  0.71459191055E+01 -0.33114717919E+01 -0.49414643061E+01  0.92977456967E+01  0.51100000000E-03 0.  1.
         12    1    4    4    0    0 -0.16956015632E+02 -0.41179827706E+01 -0.92271243575E+01  0.19738390819E+02  0.00000000000E+00 0. -1.
</event>
<event>
 8    1  0.2971508E-007  0.9118800E+02  0.7816164E-02  0.1184000E+00
        -11   -1    0    0    0    0  0.00000000000E+00  0.00000000000E+00  0.45593999997E+02  0.45594000000E+02  0.51100000000E-03 0. -1.
         11   -1    0    0    0    0 -0.00000000000E+00 -0.00000000000E+00 -0.45593999997E+02  0.45594000000E+02  0.51100000000E-03 0.  1.
         23    2    1    2    0    0  0.00000000000E+00 -0.17763568394E-14 -0.35527136788E-14  0.91188000000E+02  0.91188000000E+02 0.  0.
    9900012    2    3    3    0    0 -0.17510993073E+02 -0.84829484569E+01  0.31259913528E+02  0.54367116161E+02  0.40000072912E+02 0.  0.
        -12    1    3    3    0    0  0.17510993073E+02  0.84829484569E+01 -0.31259913528E+02  0.36820883839E+02  0.00000000000E+00 0.  1.
         11    1    4    4    0    0 -0.58017903100E+01  0.92974472103E+01 -0.35929676308E+01  0.11533113720E+02  0.51100000000E-03 0. -1.
        -11    1    4    4    0    0 -0.46570985042E+01 -0.88248514603E+01  0.27537700983E+02  0.29289785685E+02  0.51100000000E-03 0.  1.
         12    1    4    4    0    0 -0.70521042591E+01 -0.89555442069E+01  0.73151801759E+01  0.13544216756E+02  0.00000000000E+00 0. -1.
</event>
<event>
 8    1  0.2971508E-007  0.9118800E+02  0.7816164E-02  0.1184000E+00
        -11   -1    0    0    0    0  0.00000000000E+00  0.00000000000E+00  0.45593999997E+02  0.45594000000E+02  0.51100000000E-03 0.  1.
         11   -1    0    0    0    0 -0.00000000000E+00 -0.00000000000E+00 -0.45593999997E+02  0.45594000000E+02  0.51100000000E-03 0. -1.
         23    2    1    2    0    0  0.71054273576E-14 -0.17763568394E-14 -0.71054273576E-14  0.91188000000E+02  0.91188000000E+02 0.  0.
    9900012    2    3    3    0    0  0.17738570503E+02 -0.68054285573E+01 -0.31540592518E+02  0.54367085865E+02  0.40000003846E+02 0.  0.
        -12    1    3    3    0    0 -0.17738570503E+02  0.68054285573E+01  0.31540592518E+02  0.36820914135E+02  0.00000000000E+00 0.  1.
         11    1    4    4    0    0  0.11825095037E+02 -0.42058929752E+01 -0.19290151497E+02  0.23013742707E+02  0.51100000000E-03 0. -1.
        -11    1    4    4    0    0  0.13505477090E+02 -0.47606924729E+01  0.25823239712E+01  0.14550962223E+02  0.51100000000E-03 0.  1.
        -12    1    4    4    0    0 -0.75920016240E+01  0.21611568909E+01 -0.14832764992E+02  0.16802380935E+02  0.00000000000E+00 0.  1.
</event>
<event>
 8    1  0.2971508E-007  0.9118800E+02  0.7816164E-02  0.1184000E+00
        -11   -1    0    0    0    0  0.00000000000E+00  0.00000000000E+00  0.45593999997E+02  0.45594000000E+02  0.51100000000E-03 0.  1.
         11   -1    0    0    0    0 -0.00000000000E+00 -0.00000000000E+00 -0.45593999997E+02  0.45594000000E+02  0.51100000000E-03 0. -1.
         23    2    1    2    0    0  0.00000000000E+00  0.35527136788E-14  0.00000000000E+00  0.91188000000E+02  0.91188000000E+02 0.  0.
    9900012    2    3    3    0    0 -0.27696002861E+02  0.22083911521E+02  0.10050614313E+02  0.54367047125E+02  0.39999915530E+02 0.  0.
         12    1    3    3    0    0  0.27696002861E+02 -0.22083911521E+02 -0.10050614313E+02  0.36820952875E+02  0.00000000000E+00 0. -1.
         11    1    4    4    0    0 -0.77327042364E+01  0.21309335615E+02  0.53387060369E+00  0.22675262231E+02  0.51100000000E-03 0. -1.
        -11    1    4    4    0    0 -0.29715100974E+01  0.10320265208E+02  0.33449183651E+01  0.11248387678E+02  0.51100000000E-03 0.  1.
         12    1    4    4    0    0 -0.16991788528E+02 -0.95456893026E+01  0.61718253446E+01  0.20443397216E+02  0.00000000000E+00 0. -1.
</event>
<event>
 8    1  0.2971508E-007  0.9118800E+02  0.7816164E-02  0.1184000E+00
        -11   -1    0    0    0    0  0.00000000000E+00  0.00000000000E+00  0.45593999997E+02  0.45594000000E+02  0.51100000000E-03 0.  1.
         11   -1    0    0    0    0 -0.00000000000E+00 -0.00000000000E+00 -0.45593999997E+02  0.45594000000E+02  0.51100000000E-03 0. -1.
         23    2    1    2    0    0  0.00000000000E+00 -0.13322676296E-14  0.00000000000E+00  0.91188000000E+02  0.91188000000E+02 0.  0.
    9900012    2    3    3    0    0 -0.94465586927E+01 -0.37910987351E+01 -0.35386017951E+02  0.54367079762E+02  0.39999989934E+02 0.  0.
        -12    1    3    3    0    0  0.94465586927E+01  0.37910987351E+01  0.35386017951E+02  0.36820920238E+02  0.00000000000E+00 0.  1.
         11    1    4    4    0    0 -0.36879652848E+01 -0.30956540816E+01  0.52383565056E+00  0.48434044003E+01  0.51100000000E-03 0. -1.
        -11    1    4    4    0    0 -0.16329762573E+01  0.12786057413E+02 -0.32579904332E+02  0.35037123772E+02  0.51100000000E-03 0.  1.
         12    1    4    4    0    0 -0.41256171505E+01 -0.13481502067E+02 -0.33299492686E+01  0.14486551590E+02  0.00000000000E+00 0. -1.
</event>
<event>
 8    1  0.2971508E-007  0.9118800E+02  0.7816164E-02  0.1184000E+00
        -11   -1    0    0    0    0  0.00000000000E+00  0.00000000000E+00  0.45593999997E+02  0.45594000000E+02  0.51100000000E-03 0. -1.
         11   -1    0    0    0    0 -0.00000000000E+00 -0.00000000000E+00 -0.45593999997E+02  0.45594000000E+02  0.51100000000E-03 0.  1.
         23    2    1    2    0    0 -0.35527136788E-14  0.00000000000E+00 -0.35527136788E-14  0.91188000000E+02  0.91188000000E+02 0.  0.
    9900012    2    3    3    0    0 -0.17879405154E+02  0.30869850674E+02  0.91191338758E+01  0.54367090017E+02  0.40000013313E+02 0.  0.
         12    1    3    3    0    0  0.17879405154E+02 -0.30869850674E+02 -0.91191338758E+01  0.36820909983E+02  0.00000000000E+00 0. -1.
         11    1    4    4    0    0 -0.22099417360E+02  0.23026287927E+02  0.47104226377E+01  0.32261157218E+02  0.51100000000E-03 0.  1.
        -11    1    4    4    0    0  0.76591621995E+01  0.64467826560E+01  0.10792870493E+02  0.14721067419E+02  0.51100000000E-03 0. -1.
         12    1    4    4    0    0 -0.34391499935E+01  0.13967800913E+01 -0.63841592549E+01  0.73848653808E+01  0.00000000000E+00 0. -1.
</event>
<event>
 8    1  0.2971508E-007  0.9118800E+02  0.7816164E-02  0.1184000E+00
        -11   -1    0    0    0    0  0.00000000000E+00  0.00000000000E+00  0.45593999997E+02  0.45594000000E+02  0.51100000000E-03 0.  1.
         11   -1    0    0    0    0 -0.00000000000E+00 -0.00000000000E+00 -0.45593999997E+02  0.45594000000E+02  0.51100000000E-03 0. -1.
         23    2    1    2    0    0  0.00000000000E+00  0.00000000000E+00  0.00000000000E+00  0.91188000000E+02  0.91188000000E+02 0.  0.
    9900012    2    3    3    0    0 -0.17015187275E+02 -0.27525192522E+02  0.17567823553E+02  0.54367065116E+02  0.39999956544E+02 0.  0.
         12    1    3    3    0    0  0.17015187275E+02  0.27525192522E+02 -0.17567823553E+02  0.36820934884E+02  0.00000000000E+00 0. -1.
         11    1    4    4    0    0 -0.15745717467E+01 -0.15372179137E+02  0.10213191458E+02  0.18522754861E+02  0.51100000000E-03 0. -1.
        -11    1    4    4    0    0 -0.23453056309E+01 -0.19097321127E+01  0.16564369558E+02  0.16838226580E+02  0.51100000000E-03 0.  1.
        -12    1    4    4    0    0 -0.13095309897E+02 -0.10243281272E+02 -0.92097374631E+01  0.19006083675E+02  0.00000000000E+00 0.  1.
</event>
<event>
 8    1  0.2971508E-007  0.9118800E+02  0.7816164E-02  0.1184000E+00
        -11   -1    0    0    0    0  0.00000000000E+00  0.00000000000E+00  0.45593999997E+02  0.45594000000E+02  0.51100000000E-03 0.  1.
         11   -1    0    0    0    0 -0.00000000000E+00 -0.00000000000E+00 -0.45593999997E+02  0.45594000000E+02  0.51100000000E-03 0. -1.
         23    2    1    2    0    0  0.00000000000E+00  0.72164496601E-15  0.00000000000E+00  0.91188000000E+02  0.91188000000E+02 0.  0.
    9900012    2    3    3    0    0 -0.19122930897E+02 -0.26571053443E+00  0.31464633637E+02  0.54367078527E+02  0.39999987118E+02 0.  0.
         12    1    3    3    0    0  0.19122930897E+02  0.26571053443E+00 -0.31464633637E+02  0.36820921473E+02  0.00000000000E+00 0. -1.
         11    1    4    4    0    0 -0.20852670101E+02 -0.29521642483E+01  0.31516133659E+02  0.37905353252E+02  0.51100000000E-03 0. -1.
        -11    1    4    4    0    0  0.53025114342E+01 -0.23389372787E+01  0.56281316025E+01  0.80785593208E+01  0.51100000000E-03 0.  1.
         12    1    4    4    0    0 -0.35727722299E+01  0.50253909926E+01 -0.56796316237E+01  0.83831659542E+01  0.00000000000E+00 0. -1.
</event>
<event>
 8    1  0.2971508E-007  0.9118800E+02  0.7816164E-02  0.1184000E+00
        -11   -1    0    0    0    0  0.00000000000E+00  0.00000000000E+00  0.45593999997E+02  0.45594000000E+02  0.51100000000E-03 0. -1.
         11   -1    0    0    0    0 -0.00000000000E+00 -0.00000000000E+00 -0.45593999997E+02  0.45594000000E+02  0.51100000000E-03 0.  1.
         23    2    1    2    0    0  0.17763568394E-14  0.00000000000E+00  0.00000000000E+00  0.91188000000E+02  0.91188000000E+02 0.  0.
    9900012    2    3    3    0    0  0.69295676800E+01  0.59180636141E+01  0.35675433469E+02  0.54367096449E+02  0.40000027974E+02 0.  0.
        -12    1    3    3    0    0 -0.69295676800E+01 -0.59180636141E+01 -0.35675433469E+02  0.36820903551E+02  0.00000000000E+00 0.  1.
         11    1    4    4    0    0  0.81006685017E+01 -0.10942782041E+02  0.20774978179E+02  0.24838780718E+02  0.51100000000E-03 0. -1.
        -11    1    4    4    0    0 -0.54108094362E+01  0.18531732801E+02  0.15722392793E+02  0.24897703001E+02  0.51100000000E-03 0.  1.
        -12    1    4    4    0    0  0.42397086145E+01 -0.16708871453E+01 -0.82193750287E+00  0.46306127291E+01  0.00000000000E+00 0.  1.
</event>
<event>
 8    1  0.2971508E-007  0.9118800E+02  0.7816164E-02  0.1184000E+00
        -11   -1    0    0    0    0  0.00000000000E+00  0.00000000000E+00  0.45593999997E+02  0.45594000000E+02  0.51100000000E-03 0. -1.
         11   -1    0    0    0    0 -0.00000000000E+00 -0.00000000000E+00 -0.45593999997E+02  0.45594000000E+02  0.51100000000E-03 0.  1.
         23    2    1    2    0    0  0.00000000000E+00  0.17763568394E-14 -0.35527136788E-14  0.91188000000E+02  0.91188000000E+02 0.  0.
    9900012    2    3    3    0    0 -0.22476635156E+02  0.10468896033E+02 -0.27220980496E+02  0.54367099804E+02  0.40000035623E+02 0.  0.
         12    1    3    3    0    0  0.22476635156E+02 -0.10468896033E+02  0.27220980496E+02  0.36820900196E+02  0.00000000000E+00 0. -1.
         11    1    4    4    0    0 -0.19856641012E+02 -0.33642965501E+01 -0.28396799621E+02  0.34813544958E+02  0.51100000000E-03 0. -1.
        -11    1    4    4    0    0 -0.46867750155E+01  0.15890078756E+02  0.57743884465E+00  0.16576908602E+02  0.51100000000E-03 0.  1.
         12    1    4    4    0    0  0.20667808716E+01 -0.20568861726E+01  0.59838028124E+00  0.29766462435E+01  0.00000000000E+00 0. -1.
</event>
<event>
 8    1  0.2971508E-007  0.9118800E+02  0.7816164E-02  0.1184000E+00
        -11   -1    0    0    0    0  0.00000000000E+00  0.00000000000E+00  0.45593999997E+02  0.45594000000E+02  0.51100000000E-03 0. -1.
         11   -1    0    0    0    0 -0.00000000000E+00 -0.00000000000E+00 -0.45593999997E+02  0.45594000000E+02  0.51100000000E-03 0.  1.
         23    2    1    2    0    0 -0.71054273576E-14 -0.35527136788E-14  0.88817841970E-15  0.91188000000E+02  0.91188000000E+02 0.  0.
    9900012    2    3    3    0    0 -0.31457600348E+02 -0.18510708038E+02  0.48531331012E+01  0.54367084305E+02  0.40000000290E+02 0.  0.
         12    1    3    3    0    0  0.31457600348E+02  0.18510708038E+02 -0.48531331012E+01  0.36820915695E+02  0.00000000000E+00 0. -1.
         11    1    4    4    0    0 -0.34779115726E+02 -0.25825237153E+02 -0.19359671424E+01  0.43362169384E+02  0.51100000000E-03 0.  1.
        -11    1    4    4    0    0 -0.57349902008E+00  0.15968423151E+01  0.18116783890E+01  0.24821332260E+01  0.51100000000E-03 0. -1.
        -12    1    4    4    0    0  0.38950143980E+01  0.57176867994E+01  0.49774218547E+01  0.85227816947E+01  0.00000000000E+00 0.  1.
</event>
<event>
 8    1  0.2971508E-007  0.9118800E+02  0.7816164E-02  0.1184000E+00
        -11   -1    0    0    0    0  0.00000000000E+00  0.00000000000E+00  0.45593999997E+02  0.45594000000E+02  0.51100000000E-03 0. -1.
         11   -1    0    0    0    0 -0.00000000000E+00 -0.00000000000E+00 -0.45593999997E+02  0.45594000000E+02  0.51100000000E-03 0.  1.
         23    2    1    2    0    0 -0.17763568394E-14  0.35527136788E-14  0.71054273576E-14  0.91188000000E+02  0.91188000000E+02 0.  0.
    9900012    2    3    3    0    0  0.15809650160E+02 -0.16932925695E+02 -0.28620110866E+02  0.54367085335E+02  0.40000002637E+02 0.  0.
         12    1    3    3    0    0 -0.15809650160E+02  0.16932925695E+02  0.28620110866E+02  0.36820914665E+02  0.00000000000E+00 0. -1.
         11    1    4    4    0    0  0.18648065617E+02 -0.66506352616E+01 -0.23059905290E+02  0.30393100087E+02  0.51100000000E-03 0. -1.
        -11    1    4    4    0    0 -0.10475182513E+02 -0.32691920369E+01 -0.76762498757E+01  0.13391858634E+02  0.51100000000E-03 0.  1.
         12    1    4    4    0    0  0.76367670563E+01 -0.70130983970E+01  0.21160442992E+01  0.10582126614E+02  0.00000000000E+00 0. -1.
</event>
<event>
 8    1  0.2971508E-007  0.9118800E+02  0.7816164E-02  0.1184000E+00
        -11   -1    0    0    0    0  0.00000000000E+00  0.00000000000E+00  0.45593999997E+02  0.45594000000E+02  0.51100000000E-03 0.  1.
         11   -1    0    0    0    0 -0.00000000000E+00 -0.00000000000E+00 -0.45593999997E+02  0.45594000000E+02  0.51100000000E-03 0. -1.
         23    2    1    2    0    0 -0.88817841970E-15  0.00000000000E+00  0.35527136788E-14  0.91188000000E+02  0.91188000000E+02 0.  0.
    9900012    2    3    3    0    0  0.76338925452E+01 -0.27146117646E+02 -0.23676814997E+02  0.54367087640E+02  0.40000007892E+02 0.  0.
        -12    1    3    3    0    0 -0.76338925452E+01  0.27146117646E+02  0.23676814997E+02  0.36820912360E+02  0.00000000000E+00 0.  1.
         11    1    4    4    0    0  0.44954228745E+01 -0.36372169538E+01 -0.17384365851E+02  0.18320871985E+02  0.51100000000E-03 0. -1.
        -11    1    4    4    0    0  0.69413046523E+01  0.37986065438E+01 -0.17419229593E+01  0.81021859895E+01  0.51100000000E-03 0.  1.
         12    1    4    4    0    0 -0.38028349817E+01 -0.27307507236E+02 -0.45505261871E+01  0.27944029665E+02  0.00000000000E+00 0. -1.
</event>
<event>
 8    1  0.2971508E-007  0.9118800E+02  0.7816164E-02  0.1184000E+00
        -11   -1    0    0    0    0  0.00000000000E+00  0.00000000000E+00  0.45593999997E+02  0.45594000000E+02  0.51100000000E-03 0. -1.
         11   -1    0    0    0    0 -0.00000000000E+00 -0.00000000000E+00 -0.45593999997E+02  0.45594000000E+02  0.51100000000E-03 0.  1.
         23    2    1    2    0    0 -0.17763568394E-14  0.00000000000E+00  0.00000000000E+00  0.91188000000E+02  0.91188000000E+02 0.  0.
    9900012    2    3    3    0    0 -0.92361092396E+01  0.17336246371E+02  0.31143671662E+02  0.54367089681E+02  0.40000012546E+02 0.  0.
        -12    1    3    3    0    0  0.92361092396E+01 -0.17336246371E+02 -0.31143671662E+02  0.36820910319E+02  0.00000000000E+00 0.  1.
         11    1    4    4    0    0  0.69027176734E+01  0.17507335091E+02  0.25312063416E+02  0.31541319692E+02  0.51100000000E-03 0. -1.
        -11    1    4    4    0    0 -0.17896088306E+02 -0.35578160119E+01  0.50309276725E+01  0.18927183228E+02  0.51100000000E-03 0.  1.
         12    1    4    4    0    0  0.17572613929E+01  0.33867272922E+01  0.80068057319E+00  0.38985867613E+01  0.00000000000E+00 0. -1.
</event>
<event>
 8    1  0.2971508E-007  0.9118800E+02  0.7816164E-02  0.1184000E+00
        -11   -1    0    0    0    0  0.00000000000E+00  0.00000000000E+00  0.45593999997E+02  0.45594000000E+02  0.51100000000E-03 0.  1.
         11   -1    0    0    0    0 -0.00000000000E+00 -0.00000000000E+00 -0.45593999997E+02  0.45594000000E+02  0.51100000000E-03 0. -1.
         23    2    1    2    0    0  0.00000000000E+00  0.17763568394E-14  0.00000000000E+00  0.91188000000E+02  0.91188000000E+02 0.  0.
    9900012    2    3    3    0    0 -0.19912509124E+02 -0.99036236502E+01  0.29346075081E+02  0.54367056182E+02  0.39999936178E+02 0.  0.
         12    1    3    3    0    0  0.19912509124E+02  0.99036236502E+01 -0.29346075081E+02  0.36820943818E+02  0.00000000000E+00 0. -1.
         11    1    4    4    0    0 -0.14775713460E+02 -0.14492513110E+02  0.40327397909E+01  0.21085958242E+02  0.51100000000E-03 0. -1.
        -11    1    4    4    0    0 -0.56488394377E+01  0.82282471881E+01  0.26565275052E+01  0.10328144917E+02  0.51100000000E-03 0.  1.
         12    1    4    4    0    0  0.51204377420E+00 -0.36393577284E+01  0.22656807784E+02  0.22952953023E+02  0.00000000000E+00 0. -1.
</event>
<event>
 8    1  0.2971508E-007  0.9118800E+02  0.7816164E-02  0.1184000E+00
        -11   -1    0    0    0    0  0.00000000000E+00  0.00000000000E+00  0.45593999997E+02  0.45594000000E+02  0.51100000000E-03 0. -1.
         11   -1    0    0    0    0 -0.00000000000E+00 -0.00000000000E+00 -0.45593999997E+02  0.45594000000E+02  0.51100000000E-03 0.  1.
         23    2    1    2    0    0  0.00000000000E+00 -0.17763568394E-14  0.00000000000E+00  0.91188000000E+02  0.91188000000E+02 0.  0.
    9900012    2    3    3    0    0  0.27594153758E+02  0.14399086136E+02  0.19672534723E+02  0.54367087116E+02  0.40000006698E+02 0.  0.
        -12    1    3    3    0    0 -0.27594153758E+02 -0.14399086136E+02 -0.19672534723E+02  0.36820912884E+02  0.00000000000E+00 0.  1.
         11    1    4    4    0    0  0.29945185482E+01  0.56030499460E+01  0.16208910457E+02  0.17409482717E+02  0.51100000000E-03 0. -1.
        -11    1    4    4    0    0  0.23242226027E+02  0.71756714325E+01 -0.77632303187E+01  0.25533489312E+02  0.51100000000E-03 0.  1.
        -12    1    4    4    0    0  0.13574091828E+01  0.16203647572E+01  0.11226854585E+02  0.11424115087E+02  0.00000000000E+00 0.  1.
</event>
<event>
 8    1  0.2971508E-007  0.9118800E+02  0.7816164E-02  0.1184000E+00
        -11   -1    0    0    0    0  0.00000000000E+00  0.00000000000E+00  0.45593999997E+02  0.45594000000E+02  0.51100000000E-03 0.  1.
         11   -1    0    0    0    0 -0.00000000000E+00 -0.00000000000E+00 -0.45593999997E+02  0.45594000000E+02  0.51100000000E-03 0. -1.
         23    2    1    2    0    0 -0.71054273576E-14  0.88817841970E-15 -0.35527136788E-14  0.91188000000E+02  0.91188000000E+02 0.  0.
    9900012    2    3    3    0    0  0.31643160460E+02  0.45702450492E+01 -0.18264697700E+02  0.54367137357E+02  0.40000121232E+02 0.  0.
        -12    1    3    3    0    0 -0.31643160460E+02 -0.45702450492E+01  0.18264697700E+02  0.36820862643E+02  0.00000000000E+00 0.  1.
         11    1    4    4    0    0  0.41125735115E+02  0.15669959480E+01 -0.14120051104E+02  0.43510428732E+02  0.51100000000E-03 0. -1.
        -11    1    4    4    0    0 -0.65108209173E+01  0.21407509086E+01 -0.21832591308E+01  0.71930677852E+01  0.51100000000E-03 0.  1.
         12    1    4    4    0    0 -0.29717537375E+01  0.86249819266E+00 -0.19613874656E+01  0.36636408393E+01  0.00000000000E+00 0. -1.
</event>
<event>
 8    1  0.2971508E-007  0.9118800E+02  0.7816164E-02  0.1184000E+00
        -11   -1    0    0    0    0  0.00000000000E+00  0.00000000000E+00  0.45593999997E+02  0.45594000000E+02  0.51100000000E-03 0.  1.
         11   -1    0    0    0    0 -0.00000000000E+00 -0.00000000000E+00 -0.45593999997E+02  0.45594000000E+02  0.51100000000E-03 0. -1.
         23    2    1    2    0    0 -0.71054273576E-14  0.17763568394E-14  0.88817841970E-15  0.91188000000E+02  0.91188000000E+02 0.  0.
    9900012    2    3    3    0    0  0.34348142597E+02 -0.11167158833E+02 -0.71609702644E+01  0.54367084322E+02  0.40000000329E+02 0.  0.
        -12    1    3    3    0    0 -0.34348142597E+02  0.11167158833E+02  0.71609702644E+01  0.36820915678E+02  0.00000000000E+00 0.  1.
         11    1    4    4    0    0  0.70391913555E+01 -0.64144855183E+01 -0.14950845919E+02  0.17726354204E+02  0.51100000000E-03 0. -1.
        -11    1    4    4    0    0  0.13038463001E+02  0.82952863300E+00  0.14841427512E+02  0.19772647927E+02  0.51100000000E-03 0.  1.
         12    1    4    4    0    0  0.14270488241E+02 -0.55822019474E+01 -0.70515518578E+01  0.16868082191E+02  0.00000000000E+00 0. -1.
</event>
<event>
 8    1  0.2971508E-007  0.9118800E+02  0.7816164E-02  0.1184000E+00
        -11   -1    0    0    0    0  0.00000000000E+00  0.00000000000E+00  0.45593999997E+02  0.45594000000E+02  0.51100000000E-03 0.  1.
         11   -1    0    0    0    0 -0.00000000000E+00 -0.00000000000E+00 -0.45593999997E+02  0.45594000000E+02  0.51100000000E-03 0. -1.
         23    2    1    2    0    0  0.35527136788E-14 -0.71054273576E-14 -0.35527136788E-14  0.91188000000E+02  0.91188000000E+02 0.  0.
    9900012    2    3    3    0    0 -0.16807285131E+02  0.27606965893E+02  0.17639440339E+02  0.54367092152E+02  0.40000018178E+02 0.  0.
         12    1    3    3    0    0  0.16807285131E+02 -0.27606965893E+02 -0.17639440339E+02  0.36820907848E+02  0.00000000000E+00 0. -1.
         11    1    4    4    0    0 -0.51218012479E+01  0.39866359874E+00  0.26154341423E+01  0.57647442877E+01  0.51100000000E-03 0. -1.
        -11    1    4    4    0    0 -0.12959948880E+01 -0.86970765059E+01  0.37640550752E+01  0.95648760248E+01  0.51100000000E-03 0.  1.
        -12    1    4    4    0    0 -0.10389488995E+02  0.35905378800E+02  0.11259951122E+02  0.39037471839E+02  0.00000000000E+00 0.  1.
</event>
<event>
 8    1  0.2971508E-007  0.9118800E+02  0.7816164E-02  0.1184000E+00
        -11   -1    0    0    0    0  0.00000000000E+00  0.00000000000E+00  0.45593999997E+02  0.45594000000E+02  0.51100000000E-03 0.  1.
         11   -1    0    0    0    0 -0.00000000000E+00 -0.00000000000E+00 -0.45593999997E+02  0.45594000000E+02  0.51100000000E-03 0. -1.
         23    2    1    2    0    0 -0.35527136788E-14  0.17763568394E-14  0.71054273576E-14  0.91188000000E+02  0.91188000000E+02 0.  0.
    9900012    2    3    3    0    0  0.20713843117E+02 -0.89533320088E+01 -0.29095659393E+02  0.54367043383E+02  0.39999906999E+02 0.  0.
        -12    1    3    3    0    0 -0.20713843117E+02  0.89533320088E+01  0.29095659393E+02  0.36820956617E+02  0.00000000000E+00 0.  1.
         11    1    4    4    0    0 -0.83250234954E+01 -0.89598156936E+01 -0.58778079464E+01  0.13569559314E+02  0.51100000000E-03 0. -1.
        -11    1    4    4    0    0  0.29553975626E+02  0.26315420981E+01 -0.17406145830E+02  0.34399657005E+02  0.51100000000E-03 0.  1.
        -12    1    4    4    0    0 -0.51510901432E+00 -0.26250584132E+01 -0.58117056160E+01  0.63978270637E+01  0.00000000000E+00 0.  1.
</event>
<event>
 8    1  0.2971508E-007  0.9118800E+02  0.7816164E-02  0.1184000E+00
        -11   -1    0    0    0    0  0.00000000000E+00  0.00000000000E+00  0.45593999997E+02  0.45594000000E+02  0.51100000000E-03 0.  1.
         11   -1    0    0    0    0 -0.00000000000E+00 -0.00000000000E+00 -0.45593999997E+02  0.45594000000E+02  0.51100000000E-03 0. -1.
         23    2    1    2    0    0 -0.17763568394E-14 -0.17763568394E-14  0.00000000000E+00  0.91188000000E+02  0.91188000000E+02 0.  0.
    9900012    2    3    3    0    0  0.11250652272E+02 -0.94658440281E+01 -0.33757972517E+02  0.54367080835E+02  0.39999992379E+02 0.  0.
        -12    1    3    3    0    0 -0.11250652272E+02  0.94658440281E+01  0.33757972517E+02  0.36820919165E+02  0.00000000000E+00 0.  1.
         11    1    4    4    0    0  0.68653490464E+01  0.79158713729E+01 -0.82578178197E+01  0.13341124110E+02  0.51100000000E-03 0. -1.
        -11    1    4    4    0    0 -0.84065317213E+01 -0.17376665446E+02 -0.14289238132E+02  0.24016673464E+02  0.51100000000E-03 0.  1.
        -12    1    4    4    0    0  0.12791834947E+02 -0.50499548774E-02 -0.11210916565E+02  0.17009283261E+02  0.00000000000E+00 0.  1.
</event>
<event>
 8    1  0.2971508E-007  0.9118800E+02  0.7816164E-02  0.1184000E+00
        -11   -1    0    0    0    0  0.00000000000E+00  0.00000000000E+00  0.45593999997E+02  0.45594000000E+02  0.51100000000E-03 0.  1.
         11   -1    0    0    0    0 -0.00000000000E+00 -0.00000000000E+00 -0.45593999997E+02  0.45594000000E+02  0.51100000000E-03 0. -1.
         23    2    1    2    0    0  0.35527136788E-14  0.17763568394E-14  0.00000000000E+00  0.91188000000E+02  0.91188000000E+02 0.  0.
    9900012    2    3    3    0    0  0.10470168963E+02  0.10937074746E+02  0.33563900797E+02  0.54367089110E+02  0.40000011243E+02 0.  0.
         12    1    3    3    0    0 -0.10470168963E+02 -0.10937074746E+02 -0.33563900797E+02  0.36820910890E+02  0.00000000000E+00 0. -1.
         11    1    4    4    0    0 -0.26064879673E+01  0.10622105324E+02 -0.22513947951E+01  0.11166542877E+02  0.51100000000E-03 0. -1.
        -11    1    4    4    0    0  0.16931014537E+02  0.52009148478E+01  0.23777304486E+02  0.29649097413E+02  0.51100000000E-03 0.  1.
         12    1    4    4    0    0 -0.38543576068E+01 -0.48859454258E+01  0.12037991106E+02  0.13551448820E+02  0.00000000000E+00 0. -1.
</event>
<event>
 8    1  0.2971508E-007  0.9118800E+02  0.7816164E-02  0.1184000E+00
        -11   -1    0    0    0    0  0.00000000000E+00  0.00000000000E+00  0.45593999997E+02  0.45594000000E+02  0.51100000000E-03 0. -1.
         11   -1    0    0    0    0 -0.00000000000E+00 -0.00000000000E+00 -0.45593999997E+02  0.45594000000E+02  0.51100000000E-03 0.  1.
         23    2    1    2    0    0  0.00000000000E+00  0.44408920985E-15 -0.35527136788E-14  0.91188000000E+02  0.91188000000E+02 0.  0.
    9900012    2    3    3    0    0  0.23846215569E+02 -0.25486511067E+01  0.27939999965E+02  0.54367065500E+02  0.39999957420E+02 0.  0.
        -12    1    3    3    0    0 -0.23846215569E+02  0.25486511067E+01 -0.27939999965E+02  0.36820934500E+02  0.00000000000E+00 0.  1.
         11    1    4    4    0    0  0.80019434653E+01 -0.40910594641E+01  0.17338567254E+02  0.19529305708E+02  0.51100000000E-03 0. -1.
        -11    1    4    4    0    0 -0.10275303723E+01  0.12400412128E+02  0.69675774766E+00  0.12462403911E+02  0.51100000000E-03 0.  1.
        -12    1    4    4    0    0  0.16871802476E+02 -0.10858003771E+02  0.99046749632E+01  0.22375355881E+02  0.00000000000E+00 0.  1.
</event>
<event>
 8    1  0.2971508E-007  0.9118800E+02  0.7816164E-02  0.1184000E+00
        -11   -1    0    0    0    0  0.00000000000E+00  0.00000000000E+00  0.45593999997E+02  0.45594000000E+02  0.51100000000E-03 0.  1.
         11   -1    0    0    0    0 -0.00000000000E+00 -0.00000000000E+00 -0.45593999997E+02  0.45594000000E+02  0.51100000000E-03 0. -1.
         23    2    1    2    0    0  0.88817841970E-15  0.00000000000E+00  0.00000000000E+00  0.91188000000E+02  0.91188000000E+02 0.  0.
    9900012    2    3    3    0    0 -0.68019715218E+01  0.20742764628E+02  0.29652154874E+02  0.54367090320E+02  0.40000014002E+02 0.  0.
         12    1    3    3    0    0  0.68019715218E+01 -0.20742764628E+02 -0.29652154874E+02  0.36820909680E+02  0.00000000000E+00 0. -1.
         11    1    4    4    0    0 -0.31425014063E+01  0.20961057038E+02  0.12396634372E+02  0.24554383952E+02  0.51100000000E-03 0. -1.
        -11    1    4    4    0    0 -0.68972561782E+01  0.35690606365E+00  0.22547864834E+02  0.23581894190E+02  0.51100000000E-03 0.  1.
         12    1    4    4    0    0  0.32377860626E+01 -0.57519847337E+00 -0.52923443324E+01  0.62308121785E+01  0.00000000000E+00 0. -1.
</event>
<event>
 8    1  0.2971508E-007  0.9118800E+02  0.7816164E-02  0.1184000E+00
        -11   -1    0    0    0    0  0.00000000000E+00  0.00000000000E+00  0.45593999997E+02  0.45594000000E+02  0.51100000000E-03 0.  1.
         11   -1    0    0    0    0 -0.00000000000E+00 -0.00000000000E+00 -0.45593999997E+02  0.45594000000E+02  0.51100000000E-03 0. -1.
         23    2    1    2    0    0  0.00000000000E+00  0.00000000000E+00  0.00000000000E+00  0.91188000000E+02  0.91188000000E+02 0.  0.
    9900012    2    3    3    0    0  0.35554810107E+02  0.84869588843E+01 -0.44282878539E+01  0.54367045013E+02  0.39999910715E+02 0.  0.
         12    1    3    3    0    0 -0.35554810107E+02 -0.84869588843E+01  0.44282878539E+01  0.36820954987E+02  0.00000000000E+00 0. -1.
         11    1    4    4    0    0  0.87939225140E+00  0.11771535235E+02 -0.18725451261E+01  0.11951936999E+02  0.51100000000E-03 0. -1.
        -11    1    4    4    0    0 -0.12010387702E+01  0.45399432448E+01  0.25471661657E+01  0.53424371339E+01  0.51100000000E-03 0.  1.
         12    1    4    4    0    0  0.35876456626E+02 -0.78245195958E+01 -0.51029088935E+01  0.37072670879E+02  0.00000000000E+00 0. -1.
</event>
<event>
 8    1  0.2971508E-007  0.9118800E+02  0.7816164E-02  0.1184000E+00
        -11   -1    0    0    0    0  0.00000000000E+00  0.00000000000E+00  0.45593999997E+02  0.45594000000E+02  0.51100000000E-03 0. -1.
         11   -1    0    0    0    0 -0.00000000000E+00 -0.00000000000E+00 -0.45593999997E+02  0.45594000000E+02  0.51100000000E-03 0.  1.
         23    2    1    2    0    0 -0.88817841970E-15  0.00000000000E+00  0.35527136788E-14  0.91188000000E+02  0.91188000000E+02 0.  0.
    9900012    2    3    3    0    0 -0.37899513323E+01  0.26179660113E+02 -0.25613295984E+02  0.54367092001E+02  0.40000017834E+02 0.  0.
         12    1    3    3    0    0  0.37899513323E+01 -0.26179660113E+02  0.25613295984E+02  0.36820907999E+02  0.00000000000E+00 0. -1.
         11    1    4    4    0    0 -0.72767871311E+01  0.45699368126E+01 -0.40784056737E+01  0.95115375478E+01  0.51100000000E-03 0. -1.
        -11    1    4    4    0    0 -0.12494494583E+02  0.10673387635E+00 -0.80306843854E+01  0.14853137007E+02  0.51100000000E-03 0.  1.
        -12    1    4    4    0    0  0.15981330381E+02  0.21502989424E+02 -0.13504205925E+02  0.30002417446E+02  0.00000000000E+00 0.  1.
</event>
<event>
 8    1  0.2971508E-007  0.9118800E+02  0.7816164E-02  0.1184000E+00
        -11   -1    0    0    0    0  0.00000000000E+00  0.00000000000E+00  0.45593999997E+02  0.45594000000E+02  0.51100000000E-03 0.  1.
         11   -1    0    0    0    0 -0.00000000000E+00 -0.00000000000E+00 -0.45593999997E+02  0.45594000000E+02  0.51100000000E-03 0. -1.
         23    2    1    2    0    0  0.35527136788E-14  0.00000000000E+00  0.88817841970E-15  0.91188000000E+02  0.91188000000E+02 0.  0.
    9900012    2    3    3    0    0  0.29416037648E+02 -0.20755057438E+02  0.77269261116E+01  0.54367067539E+02  0.39999962069E+02 0.  0.
         12    1    3    3    0    0 -0.29416037648E+02  0.20755057438E+02 -0.77269261116E+01  0.36820932461E+02  0.00000000000E+00 0. -1.
         11    1    4    4    0    0 -0.35109610983E+01  0.83040955860E+01 -0.11890962805E+01  0.90938881431E+01  0.51100000000E-03 0. -1.
        -11    1    4    4    0    0  0.19304236619E+02 -0.13363514764E+02  0.30326692891E+01  0.23673490692E+02  0.51100000000E-03 0.  1.
         12    1    4    4    0    0  0.13622762128E+02 -0.15695638260E+02  0.58833531029E+01  0.21599688704E+02  0.00000000000E+00 0. -1.
</event>
<event>
 8    1  0.2971508E-007  0.9118800E+02  0.7816164E-02  0.1184000E+00
        -11   -1    0    0    0    0  0.00000000000E+00  0.00000000000E+00  0.45593999997E+02  0.45594000000E+02  0.51100000000E-03 0. -1.
         11   -1    0    0    0    0 -0.00000000000E+00 -0.00000000000E+00 -0.45593999997E+02  0.45594000000E+02  0.51100000000E-03 0.  1.
         23    2    1    2    0    0  0.00000000000E+00 -0.17763568394E-14  0.71054273576E-14  0.91188000000E+02  0.91188000000E+02 0.  0.
    9900012    2    3    3    0    0  0.13638764403E+02 -0.88316713120E+01  0.33041842165E+02  0.54367113994E+02  0.40000067972E+02 0.  0.
        -12    1    3    3    0    0 -0.13638764403E+02  0.88316713120E+01 -0.33041842165E+02  0.36820886006E+02  0.00000000000E+00 0.  1.
         11    1    4    4    0    0  0.53150470456E+01 -0.23585525174E+02  0.13866459080E+02  0.27871229081E+02  0.51100000000E-03 0. -1.
        -11    1    4    4    0    0  0.46106408786E+01  0.83307938096E+01  0.15561685900E+02  0.18243524964E+02  0.51100000000E-03 0.  1.
        -12    1    4    4    0    0  0.37130764784E+01  0.64230600522E+01  0.36136971847E+01  0.82523599480E+01  0.00000000000E+00 0.  1.
</event>
<event>
 8    1  0.2971508E-007  0.9118800E+02  0.7816164E-02  0.1184000E+00
        -11   -1    0    0    0    0  0.00000000000E+00  0.00000000000E+00  0.45593999997E+02  0.45594000000E+02  0.51100000000E-03 0.  1.
         11   -1    0    0    0    0 -0.00000000000E+00 -0.00000000000E+00 -0.45593999997E+02  0.45594000000E+02  0.51100000000E-03 0. -1.
         23    2    1    2    0    0 -0.71054273576E-14 -0.17763568394E-14  0.88817841970E-15  0.91188000000E+02  0.91188000000E+02 0.  0.
    9900012    2    3    3    0    0  0.33547619834E+02 -0.14365500832E+02 -0.48958967862E+01  0.54367079098E+02  0.39999988421E+02 0.  0.
         12    1    3    3    0    0 -0.33547619834E+02  0.14365500832E+02  0.48958967862E+01  0.36820920902E+02  0.00000000000E+00 0. -1.
         11    1    4    4    0    0  0.21485283161E+02  0.60779745301E+01  0.43357789677E+00  0.22332647782E+02  0.51100000000E-03 0. -1.
        -11    1    4    4    0    0 -0.35381910424E+01 -0.16220447804E+00 -0.53870626494E+01  0.64471350532E+01  0.51100000000E-03 0.  1.
        -12    1    4    4    0    0  0.15600527715E+02 -0.20281270884E+02  0.57587966431E-01  0.25587296263E+02  0.00000000000E+00 0.  1.
</event>
<event>
 8    1  0.2971508E-007  0.9118800E+02  0.7816164E-02  0.1184000E+00
        -11   -1    0    0    0    0  0.00000000000E+00  0.00000000000E+00  0.45593999997E+02  0.45594000000E+02  0.51100000000E-03 0.  1.
         11   -1    0    0    0    0 -0.00000000000E+00 -0.00000000000E+00 -0.45593999997E+02  0.45594000000E+02  0.51100000000E-03 0. -1.
         23    2    1    2    0    0 -0.88817841970E-15 -0.35527136788E-14  0.00000000000E+00  0.91188000000E+02  0.91188000000E+02 0.  0.
    9900012    2    3    3    0    0  0.42600631594E+01  0.16765951723E+02  0.32504369399E+02  0.54367091465E+02  0.40000016614E+02 0.  0.
         12    1    3    3    0    0 -0.42600631594E+01 -0.16765951723E+02 -0.32504369399E+02  0.36820908535E+02  0.00000000000E+00 0. -1.
         11    1    4    4    0    0  0.11313975777E+02 -0.44359913437E+01  0.20235814596E+02  0.23604496600E+02  0.51100000000E-03 0. -1.
        -11    1    4    4    0    0 -0.51404781764E+01  0.21180427069E+02  0.15681088522E+02  0.26850168421E+02  0.51100000000E-03 0.  1.
        -12    1    4    4    0    0 -0.19134344413E+01  0.21515997084E-01 -0.34125337196E+01  0.39124264449E+01  0.00000000000E+00 0.  1.
</event>
<event>
 8    1  0.2971508E-007  0.9118800E+02  0.7816164E-02  0.1184000E+00
        -11   -1    0    0    0    0  0.00000000000E+00  0.00000000000E+00  0.45593999997E+02  0.45594000000E+02  0.51100000000E-03 0.  1.
         11   -1    0    0    0    0 -0.00000000000E+00 -0.00000000000E+00 -0.45593999997E+02  0.45594000000E+02  0.51100000000E-03 0. -1.
         23    2    1    2    0    0  0.00000000000E+00  0.44408920985E-15  0.00000000000E+00  0.91188000000E+02  0.91188000000E+02 0.  0.
    9900012    2    3    3    0    0  0.36539902055E+02 -0.28753859290E+01 -0.35140071386E+01  0.54367074799E+02  0.39999978620E+02 0.  0.
         12    1    3    3    0    0 -0.36539902055E+02  0.28753859290E+01  0.35140071386E+01  0.36820925201E+02  0.00000000000E+00 0. -1.
         11    1    4    4    0    0  0.85638761723E+01 -0.34170053817E+01  0.24139771902E+01  0.95311692362E+01  0.51100000000E-03 0. -1.
        -11    1    4    4    0    0  0.12371073047E+02  0.16990971365E+02 -0.69566204907E+01  0.22138905239E+02  0.51100000000E-03 0.  1.
         12    1    4    4    0    0  0.15604952837E+02 -0.16449351913E+02  0.10286361619E+01  0.22697000325E+02  0.00000000000E+00 0. -1.
</event>
<event>
 8    1  0.2971508E-007  0.9118800E+02  0.7816164E-02  0.1184000E+00
        -11   -1    0    0    0    0  0.00000000000E+00  0.00000000000E+00  0.45593999997E+02  0.45594000000E+02  0.51100000000E-03 0. -1.
         11   -1    0    0    0    0 -0.00000000000E+00 -0.00000000000E+00 -0.45593999997E+02  0.45594000000E+02  0.51100000000E-03 0.  1.
         23    2    1    2    0    0  0.00000000000E+00  0.17763568394E-14  0.00000000000E+00  0.91188000000E+02  0.91188000000E+02 0.  0.
    9900012    2    3    3    0    0 -0.88030001507E+01  0.15291682423E+02  0.32318028231E+02  0.54367037061E+02  0.39999892589E+02 0.  0.
        -12    1    3    3    0    0  0.88030001507E+01 -0.15291682423E+02 -0.32318028231E+02  0.36820962939E+02  0.00000000000E+00 0.  1.
         11    1    4    4    0    0  0.10302539315E+01  0.16020059035E+02  0.33956676815E+02  0.37560080075E+02  0.51100000000E-03 0. -1.
        -11    1    4    4    0    0 -0.75638655156E+01  0.52382829021E+01  0.20610850299E+01  0.94286659216E+01  0.51100000000E-03 0.  1.
         12    1    4    4    0    0 -0.22693885667E+01 -0.59666595141E+01 -0.36997336140E+01  0.73782910649E+01  0.00000000000E+00 0. -1.
</event>
<event>
 8    1  0.2971508E-007  0.9118800E+02  0.7816164E-02  0.1184000E+00
        -11   -1    0    0    0    0  0.00000000000E+00  0.00000000000E+00  0.45593999997E+02  0.45594000000E+02  0.51100000000E-03 0.  1.
         11   -1    0    0    0    0 -0.00000000000E+00 -0.00000000000E+00 -0.45593999997E+02  0.45594000000E+02  0.51100000000E-03 0. -1.
         23    2    1    2    0    0  0.44408920985E-15 -0.88817841970E-15 -0.71054273576E-14  0.91188000000E+02  0.91188000000E+02 0.  0.
    9900012    2    3    3    0    0  0.23468803777E+01 -0.23296984547E+01 -0.36672124859E+02  0.54367080891E+02  0.39999992507E+02 0.  0.
        -12    1    3    3    0    0 -0.23468803777E+01  0.23296984547E+01  0.36672124859E+02  0.36820919109E+02  0.00000000000E+00 0.  1.
         11    1    4    4    0    0 -0.41756480590E+01 -0.71759306598E+00  0.47243058970E+01  0.63458681826E+01  0.51100000000E-03 0.  1.
        -11    1    4    4    0    0  0.72438421026E+01  0.71667912972E+01 -0.36598865567E+02  0.37990960858E+02  0.51100000000E-03 0. -1.
         12    1    4    4    0    0 -0.72131366586E+00 -0.87788966859E+01 -0.47975651888E+01  0.10030251850E+02  0.00000000000E+00 0. -1.
</event>
<event>
 8    1  0.2971508E-007  0.9118800E+02  0.7816164E-02  0.1184000E+00
        -11   -1    0    0    0    0  0.00000000000E+00  0.00000000000E+00  0.45593999997E+02  0.45594000000E+02  0.51100000000E-03 0.  1.
         11   -1    0    0    0    0 -0.00000000000E+00 -0.00000000000E+00 -0.45593999997E+02  0.45594000000E+02  0.51100000000E-03 0. -1.
         23    2    1    2    0    0 -0.17763568394E-14  0.00000000000E+00  0.00000000000E+00  0.91188000000E+02  0.91188000000E+02 0.  0.
    9900012    2    3    3    0    0 -0.97213285250E+01 -0.98765766818E+01 -0.34113474418E+02  0.54367080238E+02  0.39999991019E+02 0.  0.
        -12    1    3    3    0    0  0.97213285250E+01  0.98765766818E+01  0.34113474418E+02  0.36820919762E+02  0.00000000000E+00 0.  1.
         11    1    4    4    0    0  0.96383723634E+00 -0.15728882212E+02 -0.22366115924E+02  0.27360004745E+02  0.51100000000E-03 0. -1.
        -11    1    4    4    0    0 -0.95499848937E+01  0.74474880915E+01 -0.17300947364E+02  0.21118476988E+02  0.51100000000E-03 0.  1.
        -12    1    4    4    0    0 -0.11351808676E+01 -0.15951825611E+01  0.55535888705E+01  0.58885985046E+01  0.00000000000E+00 0.  1.
</event>
<event>
 8    1  0.2971508E-007  0.9118800E+02  0.7816164E-02  0.1184000E+00
        -11   -1    0    0    0    0  0.00000000000E+00  0.00000000000E+00  0.45593999997E+02  0.45594000000E+02  0.51100000000E-03 0.  1.
         11   -1    0    0    0    0 -0.00000000000E+00 -0.00000000000E+00 -0.45593999997E+02  0.45594000000E+02  0.51100000000E-03 0. -1.
         23    2    1    2    0    0  0.00000000000E+00  0.35527136788E-14  0.35527136788E-14  0.91188000000E+02  0.91188000000E+02 0.  0.
    9900012    2    3    3    0    0  0.16926616697E+02  0.24793795346E+02  0.21319841423E+02  0.54367105405E+02  0.40000048392E+02 0.  0.
         12    1    3    3    0    0 -0.16926616697E+02 -0.24793795346E+02 -0.21319841423E+02  0.36820894595E+02  0.00000000000E+00 0. -1.
         11    1    4    4    0    0  0.22912473941E+01  0.85406730337E+01  0.13220201067E+02  0.15904924615E+02  0.51100000000E-03 0. -1.
        -11    1    4    4    0    0  0.70677098892E+01  0.22247319429E+02  0.13930711419E+02  0.27183827283E+02  0.51100000000E-03 0.  1.
         12    1    4    4    0    0  0.75676594138E+01 -0.59941971167E+01 -0.58310710640E+01  0.11278353507E+02  0.00000000000E+00 0. -1.
</event>
<event>
 8    1  0.2971508E-007  0.9118800E+02  0.7816164E-02  0.1184000E+00
        -11   -1    0    0    0    0  0.00000000000E+00  0.00000000000E+00  0.45593999997E+02  0.45594000000E+02  0.51100000000E-03 0.  1.
         11   -1    0    0    0    0 -0.00000000000E+00 -0.00000000000E+00 -0.45593999997E+02  0.45594000000E+02  0.51100000000E-03 0. -1.
         23    2    1    2    0    0  0.35527136788E-14  0.00000000000E+00  0.00000000000E+00  0.91188000000E+02  0.91188000000E+02 0.  0.
    9900012    2    3    3    0    0 -0.17307251220E+02 -0.22239406991E+02  0.23699107347E+02  0.54367083972E+02  0.39999999531E+02 0.  0.
         12    1    3    3    0    0  0.17307251220E+02  0.22239406991E+02 -0.23699107347E+02  0.36820916028E+02  0.00000000000E+00 0. -1.
         11    1    4    4    0    0 -0.11841858695E+02 -0.16511971357E+02  0.27536987756E+01  0.20505064561E+02  0.51100000000E-03 0. -1.
        -11    1    4    4    0    0 -0.56020071550E+01 -0.91403105884E+01 -0.17922758850E+01  0.10869223290E+02  0.51100000000E-03 0.  1.
         12    1    4    4    0    0  0.13661463036E+00  0.34128749549E+01  0.22737684457E+02  0.22992796121E+02  0.00000000000E+00 0. -1.
</event>
<event>
 8    1  0.2971508E-007  0.9118800E+02  0.7816164E-02  0.1184000E+00
        -11   -1    0    0    0    0  0.00000000000E+00  0.00000000000E+00  0.45593999997E+02  0.45594000000E+02  0.51100000000E-03 0.  1.
         11   -1    0    0    0    0 -0.00000000000E+00 -0.00000000000E+00 -0.45593999997E+02  0.45594000000E+02  0.51100000000E-03 0. -1.
         23    2    1    2    0    0  0.17763568394E-14  0.00000000000E+00  0.17763568394E-14  0.91188000000E+02  0.91188000000E+02 0.  0.
    9900012    2    3    3    0    0  0.40840322604E+01  0.33734593537E+02 -0.14180107598E+02  0.54367115001E+02  0.40000070269E+02 0.  0.
        -12    1    3    3    0    0 -0.40840322604E+01 -0.33734593537E+02  0.14180107598E+02  0.36820884999E+02  0.00000000000E+00 0.  1.
         11    1    4    4    0    0 -0.56789598890E+01  0.16524491884E+01 -0.17288429845E+01  0.61619860489E+01  0.51100000000E-03 0. -1.
        -11    1    4    4    0    0 -0.91448777969E+01  0.18133903838E+02  0.23360254480E+01  0.20443196264E+02  0.51100000000E-03 0.  1.
         12    1    4    4    0    0  0.18907869946E+02  0.13948240510E+02 -0.14787290062E+02  0.27761932688E+02  0.00000000000E+00 0. -1.
</event>
<event>
 8    1  0.2971508E-007  0.9118800E+02  0.7816164E-02  0.1184000E+00
        -11   -1    0    0    0    0  0.00000000000E+00  0.00000000000E+00  0.45593999997E+02  0.45594000000E+02  0.51100000000E-03 0.  1.
         11   -1    0    0    0    0 -0.00000000000E+00 -0.00000000000E+00 -0.45593999997E+02  0.45594000000E+02  0.51100000000E-03 0. -1.
         23    2    1    2    0    0  0.35527136788E-14  0.00000000000E+00 -0.88817841970E-15  0.91188000000E+02  0.91188000000E+02 0.  0.
    9900012    2    3    3    0    0  0.18842741106E+02  0.31148364111E+02 -0.55235514990E+01  0.54367094249E+02  0.40000022959E+02 0.  0.
        -12    1    3    3    0    0 -0.18842741106E+02 -0.31148364111E+02  0.55235514990E+01  0.36820905751E+02  0.00000000000E+00 0.  1.
         11    1    4    4    0    0 -0.24050413988E+01  0.17811321910E+01  0.57637219003E+01  0.64943934602E+01  0.51100000000E-03 0. -1.
        -11    1    4    4    0    0  0.68659125992E+00 -0.46787742196E+01  0.30127706940E+01  0.56070601274E+01  0.51100000000E-03 0.  1.
         12    1    4    4    0    0  0.20561191245E+02  0.34046006139E+02 -0.14300044093E+02  0.42265640661E+02  0.00000000000E+00 0. -1.
</event>
<event>
 8    1  0.2971508E-007  0.9118800E+02  0.7816164E-02  0.1184000E+00
        -11   -1    0    0    0    0  0.00000000000E+00  0.00000000000E+00  0.45593999997E+02  0.45594000000E+02  0.51100000000E-03 0. -1.
         11   -1    0    0    0    0 -0.00000000000E+00 -0.00000000000E+00 -0.45593999997E+02  0.45594000000E+02  0.51100000000E-03 0.  1.
         23    2    1    2    0    0  0.00000000000E+00  0.00000000000E+00  0.88817841970E-15  0.91188000000E+02  0.91188000000E+02 0.  0.
    9900012    2    3    3    0    0  0.17388497678E+02  0.32166991640E+02 -0.43247186566E+01  0.54367103839E+02  0.40000044821E+02 0.  0.
         12    1    3    3    0    0 -0.17388497678E+02 -0.32166991640E+02  0.43247186566E+01  0.36820896161E+02  0.00000000000E+00 0. -1.
         11    1    4    4    0    0 -0.60527456289E+01 -0.38311931150E+00  0.40677930867E+01  0.73027016174E+01  0.51100000000E-03 0. -1.
        -11    1    4    4    0    0  0.87154381126E+01  0.29633608922E+02 -0.85557158779E+01  0.32051675677E+02  0.51100000000E-03 0.  1.
         12    1    4    4    0    0  0.14725805195E+02  0.29165020295E+01  0.16320413455E+00  0.15012726545E+02  0.00000000000E+00 0. -1.
</event>
<event>
 8    1  0.2971508E-007  0.9118800E+02  0.7816164E-02  0.1184000E+00
        -11   -1    0    0    0    0  0.00000000000E+00  0.00000000000E+00  0.45593999997E+02  0.45594000000E+02  0.51100000000E-03 0.  1.
         11   -1    0    0    0    0 -0.00000000000E+00 -0.00000000000E+00 -0.45593999997E+02  0.45594000000E+02  0.51100000000E-03 0. -1.
         23    2    1    2    0    0  0.00000000000E+00  0.00000000000E+00 -0.35527136788E-14  0.91188000000E+02  0.91188000000E+02 0.  0.
    9900012    2    3    3    0    0 -0.30112145882E+02 -0.25504417587E+01 -0.21036484341E+02  0.54367085342E+02  0.40000002655E+02 0.  0.
        -12    1    3    3    0    0  0.30112145882E+02  0.25504417587E+01  0.21036484341E+02  0.36820914658E+02  0.00000000000E+00 0.  1.
         11    1    4    4    0    0  0.30748563637E+01  0.32145086697E+01 -0.14838433644E+02  0.15490865725E+02  0.51100000000E-03 0. -1.
        -11    1    4    4    0    0 -0.33395277910E+02 -0.27779464904E+01 -0.18042354998E+01  0.33559154330E+02  0.51100000000E-03 0.  1.
        -12    1    4    4    0    0  0.20827566397E+00 -0.29870039380E+01 -0.43938151975E+01  0.53170652871E+01  0.00000000000E+00 0.  1.
</event>
<event>
 8    1  0.2971508E-007  0.9118800E+02  0.7816164E-02  0.1184000E+00
        -11   -1    0    0    0    0  0.00000000000E+00  0.00000000000E+00  0.45593999997E+02  0.45594000000E+02  0.51100000000E-03 0. -1.
         11   -1    0    0    0    0 -0.00000000000E+00 -0.00000000000E+00 -0.45593999997E+02  0.45594000000E+02  0.51100000000E-03 0.  1.
         23    2    1    2    0    0  0.00000000000E+00  0.00000000000E+00 -0.17763568394E-14  0.91188000000E+02  0.91188000000E+02 0.  0.
    9900012    2    3    3    0    0 -0.34231727616E+02 -0.11053565667E+02 -0.78603037177E+01  0.54367124615E+02  0.40000092185E+02 0.  0.
        -12    1    3    3    0    0  0.34231727616E+02  0.11053565667E+02  0.78603037177E+01  0.36820875385E+02  0.00000000000E+00 0.  1.
         11    1    4    4    0    0 -0.25697745699E+02  0.69481693809E+01 -0.55723946634E+01  0.27197477352E+02  0.51100000000E-03 0. -1.
        -11    1    4    4    0    0 -0.12441881156E+02 -0.19236641359E+02 -0.26144931913E+01  0.23058281644E+02  0.51100000000E-03 0.  1.
        -12    1    4    4    0    0  0.39078992388E+01  0.12349063110E+01  0.32658413699E+00  0.41113656193E+01  0.00000000000E+00 0.  1.
</event>
<event>
 8    1  0.2971508E-007  0.9118800E+02  0.7816164E-02  0.1184000E+00
        -11   -1    0    0    0    0  0.00000000000E+00  0.00000000000E+00  0.45593999997E+02  0.45594000000E+02  0.51100000000E-03 0.  1.
         11   -1    0    0    0    0 -0.00000000000E+00 -0.00000000000E+00 -0.45593999997E+02  0.45594000000E+02  0.51100000000E-03 0. -1.
         23    2    1    2    0    0 -0.35527136788E-14  0.00000000000E+00 -0.44408920985E-15  0.91188000000E+02  0.91188000000E+02 0.  0.
    9900012    2    3    3    0    0 -0.20159767868E+02  0.30628775215E+02  0.33516662653E+01  0.54367193675E+02  0.40000249620E+02 0.  0.
         12    1    3    3    0    0  0.20159767868E+02 -0.30628775215E+02 -0.33516662653E+01  0.36820806325E+02  0.00000000000E+00 0. -1.
         11    1    4    4    0    0 -0.19380463862E+02  0.10400967823E+02 -0.81696154746E-01  0.21995208244E+02  0.51100000000E-03 0. -1.
        -11    1    4    4    0    0 -0.27325704743E+01  0.25812622919E+02  0.45454448296E+01  0.26351840777E+02  0.51100000000E-03 0.  1.
         12    1    4    4    0    0  0.19532664680E+01 -0.55848155277E+01 -0.11120824095E+01  0.60201446543E+01  0.00000000000E+00 0. -1.
</event>
<event>
 8    1  0.2971508E-007  0.9118800E+02  0.7816164E-02  0.1184000E+00
        -11   -1    0    0    0    0  0.00000000000E+00  0.00000000000E+00  0.45593999997E+02  0.45594000000E+02  0.51100000000E-03 0. -1.
         11   -1    0    0    0    0 -0.00000000000E+00 -0.00000000000E+00 -0.45593999997E+02  0.45594000000E+02  0.51100000000E-03 0.  1.
         23    2    1    2    0    0 -0.17763568394E-14  0.00000000000E+00  0.71054273576E-14  0.91188000000E+02  0.91188000000E+02 0.  0.
    9900012    2    3    3    0    0 -0.14686204498E+02  0.89454526530E+01  0.32558784723E+02  0.54367079474E+02  0.39999989277E+02 0.  0.
        -12    1    3    3    0    0  0.14686204498E+02 -0.89454526530E+01 -0.32558784723E+02  0.36820920526E+02  0.00000000000E+00 0.  1.
         11    1    4    4    0    0 -0.43752706905E+01 -0.12816264164E+01  0.58616132069E+01  0.74259053007E+01  0.51100000000E-03 0. -1.
        -11    1    4    4    0    0 -0.10418303873E+02  0.68715353587E+01  0.35441389996E+02  0.37574608167E+02  0.51100000000E-03 0.  1.
        -12    1    4    4    0    0  0.10737006570E+00  0.33555437107E+01 -0.87442184799E+01  0.93665660062E+01  0.00000000000E+00 0.  1.
</event>
<event>
 8    1  0.2971508E-007  0.9118800E+02  0.7816164E-02  0.1184000E+00
        -11   -1    0    0    0    0  0.00000000000E+00  0.00000000000E+00  0.45593999997E+02  0.45594000000E+02  0.51100000000E-03 0.  1.
         11   -1    0    0    0    0 -0.00000000000E+00 -0.00000000000E+00 -0.45593999997E+02  0.45594000000E+02  0.51100000000E-03 0. -1.
         23    2    1    2    0    0  0.00000000000E+00  0.17763568394E-14  0.00000000000E+00  0.91188000000E+02  0.91188000000E+02 0.  0.
    9900012    2    3    3    0    0 -0.16041469597E+02  0.14403265156E+02  0.29849550302E+02  0.54367103118E+02  0.40000043178E+02 0.  0.
         12    1    3    3    0    0  0.16041469597E+02 -0.14403265156E+02 -0.29849550302E+02  0.36820896882E+02  0.00000000000E+00 0. -1.
         11    1    4    4    0    0 -0.24588824655E+02 -0.24647526246E+01  0.14966719132E+02  0.28890967192E+02  0.51100000000E-03 0.  1.
        -11    1    4    4    0    0  0.56392548626E+01  0.11720020148E+02  0.49491032608E+01  0.13915950956E+02  0.51100000000E-03 0. -1.
        -12    1    4    4    0    0  0.29081001955E+01  0.51479976330E+01  0.99337279085E+01  0.11560184970E+02  0.00000000000E+00 0.  1.
</event>
<event>
 8    1  0.2971508E-007  0.9118800E+02  0.7816164E-02  0.1184000E+00
        -11   -1    0    0    0    0  0.00000000000E+00  0.00000000000E+00  0.45593999997E+02  0.45594000000E+02  0.51100000000E-03 0.  1.
         11   -1    0    0    0    0 -0.00000000000E+00 -0.00000000000E+00 -0.45593999997E+02  0.45594000000E+02  0.51100000000E-03 0. -1.
         23    2    1    2    0    0  0.00000000000E+00  0.00000000000E+00  0.00000000000E+00  0.91188000000E+02  0.91188000000E+02 0.  0.
    9900012    2    3    3    0    0  0.24209076505E+02 -0.26602401064E+02  0.78748112834E+01  0.54367085015E+02  0.40000001909E+02 0.  0.
         12    1    3    3    0    0 -0.24209076505E+02  0.26602401064E+02 -0.78748112834E+01  0.36820914985E+02  0.00000000000E+00 0. -1.
         11    1    4    4    0    0 -0.36270785862E+01 -0.14313870739E+01  0.46727715995E+01  0.60859972649E+01  0.51100000000E-03 0. -1.
        -11    1    4    4    0    0  0.19706940972E+02 -0.31588151938E+02 -0.63375611826E+00  0.37236762915E+02  0.51100000000E-03 0.  1.
        -12    1    4    4    0    0  0.81292141188E+01  0.64171379475E+01  0.38357958021E+01  0.11044324835E+02  0.00000000000E+00 0.  1.
</event>
<event>
 8    1  0.2971508E-007  0.9118800E+02  0.7816164E-02  0.1184000E+00
        -11   -1    0    0    0    0  0.00000000000E+00  0.00000000000E+00  0.45593999997E+02  0.45594000000E+02  0.51100000000E-03 0.  1.
         11   -1    0    0    0    0 -0.00000000000E+00 -0.00000000000E+00 -0.45593999997E+02  0.45594000000E+02  0.51100000000E-03 0. -1.
         23    2    1    2    0    0  0.00000000000E+00  0.88817841970E-15 -0.35527136788E-14  0.91188000000E+02  0.91188000000E+02 0.  0.
    9900012    2    3    3    0    0  0.30527819789E+02  0.44113613619E+01 -0.20109001123E+02  0.54367084526E+02  0.40000000794E+02 0.  0.
        -12    1    3    3    0    0 -0.30527819789E+02 -0.44113613619E+01  0.20109001123E+02  0.36820915474E+02  0.00000000000E+00 0.  1.
         11    1    4    4    0    0  0.15550489357E+02 -0.13311911513E+01  0.26493776566E+01  0.15830634585E+02  0.51100000000E-03 0. -1.
        -11    1    4    4    0    0  0.11281783425E+02 -0.68301682856E+01 -0.11154569763E+01  0.13235334547E+02  0.51100000000E-03 0.  1.
        -12    1    4    4    0    0  0.36955470076E+01  0.12572720799E+02 -0.21642921804E+02  0.25301115394E+02  0.00000000000E+00 0.  1.
</event>
<event>
 8    1  0.2971508E-007  0.9118800E+02  0.7816164E-02  0.1184000E+00
        -11   -1    0    0    0    0  0.00000000000E+00  0.00000000000E+00  0.45593999997E+02  0.45594000000E+02  0.51100000000E-03 0. -1.
         11   -1    0    0    0    0 -0.00000000000E+00 -0.00000000000E+00 -0.45593999997E+02  0.45594000000E+02  0.51100000000E-03 0.  1.
         23    2    1    2    0    0  0.22204460493E-15 -0.88817841970E-15  0.71054273576E-14  0.91188000000E+02  0.91188000000E+02 0.  0.
    9900012    2    3    3    0    0  0.19356850037E+01  0.67616548107E+01 -0.36142955734E+02  0.54367080656E+02  0.39999991971E+02 0.  0.
         12    1    3    3    0    0 -0.19356850037E+01 -0.67616548107E+01  0.36142955734E+02  0.36820919344E+02  0.00000000000E+00 0. -1.
         11    1    4    4    0    0 -0.46855455323E+00 -0.13055635921E+02 -0.46571698683E+01  0.13869333225E+02  0.51100000000E-03 0. -1.
        -11    1    4    4    0    0  0.50037311750E+01  0.18060011346E+02 -0.32221410745E+02  0.37274933214E+02  0.51100000000E-03 0.  1.
         12    1    4    4    0    0 -0.25994916181E+01  0.17572793853E+01  0.73562487949E+00  0.32228142165E+01  0.00000000000E+00 0. -1.
</event>
<event>
 8    1  0.2971508E-007  0.9118800E+02  0.7816164E-02  0.1184000E+00
        -11   -1    0    0    0    0  0.00000000000E+00  0.00000000000E+00  0.45593999997E+02  0.45594000000E+02  0.51100000000E-03 0. -1.
         11   -1    0    0    0    0 -0.00000000000E+00 -0.00000000000E+00 -0.45593999997E+02  0.45594000000E+02  0.51100000000E-03 0.  1.
         23    2    1    2    0    0  0.35527136788E-14  0.00000000000E+00  0.35527136788E-14  0.91188000000E+02  0.91188000000E+02 0.  0.
    9900012    2    3    3    0    0 -0.96126324607E+01  0.20286435673E+02 -0.29186263244E+02  0.54367080167E+02  0.39999990858E+02 0.  0.
         12    1    3    3    0    0  0.96126324607E+01 -0.20286435673E+02  0.29186263244E+02  0.36820919833E+02  0.00000000000E+00 0. -1.
         11    1    4    4    0    0 -0.15730489657E+02  0.89803313501E+01 -0.15406972369E+02  0.23779601633E+02  0.51100000000E-03 0. -1.
        -11    1    4    4    0    0 -0.35349701487E+01 -0.61023574944E+01 -0.15345993971E+01  0.72173247476E+01  0.51100000000E-03 0.  1.
         12    1    4    4    0    0  0.96528273449E+01  0.17408461818E+02 -0.12244691478E+02  0.23370153787E+02  0.00000000000E+00 0. -1.
</event>
<event>
 8    1  0.2971508E-007  0.9118800E+02  0.7816164E-02  0.1184000E+00
        -11   -1    0    0    0    0  0.00000000000E+00  0.00000000000E+00  0.45593999997E+02  0.45594000000E+02  0.51100000000E-03 0.  1.
         11   -1    0    0    0    0 -0.00000000000E+00 -0.00000000000E+00 -0.45593999997E+02  0.45594000000E+02  0.51100000000E-03 0. -1.
         23    2    1    2    0    0 -0.22204460493E-15  0.35527136788E-14  0.00000000000E+00  0.91188000000E+02  0.91188000000E+02 0.  0.
    9900012    2    3    3    0    0 -0.68850931653E+00  0.27698758046E+02  0.24250451121E+02  0.54367087166E+02  0.40000006813E+02 0.  0.
         12    1    3    3    0    0  0.68850931653E+00 -0.27698758046E+02 -0.24250451121E+02  0.36820912834E+02  0.00000000000E+00 0. -1.
         11    1    4    4    0    0  0.56747385023E+01  0.83872168812E+01 -0.53724385713E+01  0.11463470702E+02  0.51100000000E-03 0. -1.
        -11    1    4    4    0    0 -0.69734935202E+01  0.16807623971E+02  0.33572875650E+02  0.38187220573E+02  0.51100000000E-03 0.  1.
         12    1    4    4    0    0  0.61024570143E+00  0.25039171937E+01 -0.39499859581E+01  0.47163958907E+01  0.00000000000E+00 0. -1.
</event>
<event>
 8    1  0.2971508E-007  0.9118800E+02  0.7816164E-02  0.1184000E+00
        -11   -1    0    0    0    0  0.00000000000E+00  0.00000000000E+00  0.45593999997E+02  0.45594000000E+02  0.51100000000E-03 0.  1.
         11   -1    0    0    0    0 -0.00000000000E+00 -0.00000000000E+00 -0.45593999997E+02  0.45594000000E+02  0.51100000000E-03 0. -1.
         23    2    1    2    0    0  0.88817841970E-15  0.35527136788E-14  0.00000000000E+00  0.91188000000E+02  0.91188000000E+02 0.  0.
    9900012    2    3    3    0    0 -0.52901263177E+01 -0.20391515291E+02  0.30199023877E+02  0.54367076933E+02  0.39999983485E+02 0.  0.
         12    1    3    3    0    0  0.52901263177E+01  0.20391515291E+02 -0.30199023877E+02  0.36820923067E+02  0.00000000000E+00 0. -1.
         11    1    4    4    0    0 -0.20675280594E+02 -0.16364525199E+02  0.24918935090E+02  0.36279722145E+02  0.51100000000E-03 0.  1.
        -11    1    4    4    0    0  0.57948835622E+01 -0.24945204627E+00 -0.11851443186E+01  0.59200902983E+01  0.51100000000E-03 0. -1.
        -12    1    4    4    0    0  0.95902707142E+01 -0.37775380459E+01  0.64652331056E+01  0.12167264490E+02  0.00000000000E+00 0.  1.
</event>
<event>
 8    1  0.2971508E-007  0.9118800E+02  0.7816164E-02  0.1184000E+00
        -11   -1    0    0    0    0  0.00000000000E+00  0.00000000000E+00  0.45593999997E+02  0.45594000000E+02  0.51100000000E-03 0. -1.
         11   -1    0    0    0    0 -0.00000000000E+00 -0.00000000000E+00 -0.45593999997E+02  0.45594000000E+02  0.51100000000E-03 0.  1.
         23    2    1    2    0    0  0.00000000000E+00  0.17763568394E-14  0.00000000000E+00  0.91188000000E+02  0.91188000000E+02 0.  0.
    9900012    2    3    3    0    0 -0.10928278940E+02  0.88133292279E+01 -0.34039368693E+02  0.54367072884E+02  0.39999974254E+02 0.  0.
         12    1    3    3    0    0  0.10928278940E+02 -0.88133292279E+01  0.34039368693E+02  0.36820927116E+02  0.00000000000E+00 0. -1.
         11    1    4    4    0    0 -0.49944219597E+01 -0.17784095504E+01  0.47224281417E+01  0.70998816226E+01  0.51100000000E-03 0. -1.
        -11    1    4    4    0    0  0.92971269427E+01  0.38674347020E+01 -0.18301686617E+02  0.20888881106E+02  0.51100000000E-03 0.  1.
        -12    1    4    4    0    0 -0.15230983923E+02  0.67243040763E+01 -0.20460110217E+02  0.26378310155E+02  0.00000000000E+00 0.  1.
</event>
<event>
 8    1  0.2971508E-007  0.9118800E+02  0.7816164E-02  0.1184000E+00
        -11   -1    0    0    0    0  0.00000000000E+00  0.00000000000E+00  0.45593999997E+02  0.45594000000E+02  0.51100000000E-03 0.  1.
         11   -1    0    0    0    0 -0.00000000000E+00 -0.00000000000E+00 -0.45593999997E+02  0.45594000000E+02  0.51100000000E-03 0. -1.
         23    2    1    2    0    0  0.00000000000E+00  0.00000000000E+00  0.00000000000E+00  0.91188000000E+02  0.91188000000E+02 0.  0.
    9900012    2    3    3    0    0  0.19745233254E+02  0.27432537228E+02 -0.14606974963E+02  0.54367054159E+02  0.39999931567E+02 0.  0.
         12    1    3    3    0    0 -0.19745233254E+02 -0.27432537228E+02  0.14606974963E+02  0.36820945841E+02  0.00000000000E+00 0. -1.
         11    1    4    4    0    0  0.19335915801E+01 -0.30759195241E+01 -0.67760102636E+01  0.76885871701E+01  0.51100000000E-03 0. -1.
        -11    1    4    4    0    0  0.19761216388E+01  0.26755943792E+01  0.96417175874E+01  0.10199342151E+02  0.51100000000E-03 0.  1.
        -12    1    4    4    0    0  0.15835520035E+02  0.27832862373E+02 -0.17472682287E+02  0.36479124838E+02  0.00000000000E+00 0.  1.
</event>
<event>
 8    1  0.2971508E-007  0.9118800E+02  0.7816164E-02  0.1184000E+00
        -11   -1    0    0    0    0  0.00000000000E+00  0.00000000000E+00  0.45593999997E+02  0.45594000000E+02  0.51100000000E-03 0.  1.
         11   -1    0    0    0    0 -0.00000000000E+00 -0.00000000000E+00 -0.45593999997E+02  0.45594000000E+02  0.51100000000E-03 0. -1.
         23    2    1    2    0    0 -0.71054273576E-14  0.17763568394E-14 -0.88817841970E-15  0.91188000000E+02  0.91188000000E+02 0.  0.
    9900012    2    3    3    0    0  0.33192670511E+02 -0.15695778841E+02  0.27692243108E+01  0.54367089469E+02  0.40000012061E+02 0.  0.
         12    1    3    3    0    0 -0.33192670511E+02  0.15695778841E+02 -0.27692243108E+01  0.36820910531E+02  0.00000000000E+00 0. -1.
         11    1    4    4    0    0 -0.15856269853E+01 -0.16389266589E+02 -0.29112971993E+01  0.16721181893E+02  0.51100000000E-03 0. -1.
        -11    1    4    4    0    0  0.93108929652E+01  0.49062423247E+01 -0.20026049946E+01  0.10713280010E+02  0.51100000000E-03 0.  1.
        -12    1    4    4    0    0  0.25467404531E+02 -0.42127545772E+01  0.76831265047E+01  0.26932627565E+02  0.00000000000E+00 0.  1.
</event>
<event>
 8    1  0.2971508E-007  0.9118800E+02  0.7816164E-02  0.1184000E+00
        -11   -1    0    0    0    0  0.00000000000E+00  0.00000000000E+00  0.45593999997E+02  0.45594000000E+02  0.51100000000E-03 0.  1.
         11   -1    0    0    0    0 -0.00000000000E+00 -0.00000000000E+00 -0.45593999997E+02  0.45594000000E+02  0.51100000000E-03 0. -1.
         23    2    1    2    0    0  0.00000000000E+00  0.35527136788E-14  0.00000000000E+00  0.91188000000E+02  0.91188000000E+02 0.  0.
    9900012    2    3    3    0    0  0.10095438276E+02 -0.17532936818E+02  0.30764507867E+02  0.54367126956E+02  0.40000097521E+02 0.  0.
         12    1    3    3    0    0 -0.10095438276E+02  0.17532936818E+02 -0.30764507867E+02  0.36820873044E+02  0.00000000000E+00 0. -1.
         11    1    4    4    0    0  0.28679516190E+01  0.12068033371E+02  0.85046009650E+01  0.15039641411E+02  0.51100000000E-03 0. -1.
        -11    1    4    4    0    0 -0.28514309219E+01 -0.57404117060E+01  0.31686573208E+01  0.71500611420E+01  0.51100000000E-03 0.  1.
        -12    1    4    4    0    0  0.10078917578E+02 -0.23860558482E+02  0.19091249582E+02  0.32177424403E+02  0.00000000000E+00 0.  1.
</event>
<event>
 8    1  0.2971508E-007  0.9118800E+02  0.7816164E-02  0.1184000E+00
        -11   -1    0    0    0    0  0.00000000000E+00  0.00000000000E+00  0.45593999997E+02  0.45594000000E+02  0.51100000000E-03 0.  1.
         11   -1    0    0    0    0 -0.00000000000E+00 -0.00000000000E+00 -0.45593999997E+02  0.45594000000E+02  0.51100000000E-03 0. -1.
         23    2    1    2    0    0 -0.44408920985E-15 -0.71054273576E-14  0.00000000000E+00  0.91188000000E+02  0.91188000000E+02 0.  0.
    9900012    2    3    3    0    0 -0.36953006587E+01 -0.32003825238E+02  0.17829175949E+02  0.54367087574E+02  0.40000007743E+02 0.  0.
         12    1    3    3    0    0  0.36953006587E+01  0.32003825238E+02 -0.17829175949E+02  0.36820912426E+02  0.00000000000E+00 0. -1.
         11    1    4    4    0    0  0.20100799716E+00 -0.15387456085E+02  0.13500912163E+01  0.15447878674E+02  0.51100000000E-03 0. -1.
        -11    1    4    4    0    0 -0.74272665720E+01 -0.22677477901E+02  0.34351356870E+01  0.24108762933E+02  0.51100000000E-03 0.  1.
        -12    1    4    4    0    0  0.35309579162E+01  0.60611087477E+01  0.13043949045E+02  0.14810445968E+02  0.00000000000E+00 0.  1.
</event>
<event>
 8    1  0.2971508E-007  0.9118800E+02  0.7816164E-02  0.1184000E+00
        -11   -1    0    0    0    0  0.00000000000E+00  0.00000000000E+00  0.45593999997E+02  0.45594000000E+02  0.51100000000E-03 0.  1.
         11   -1    0    0    0    0 -0.00000000000E+00 -0.00000000000E+00 -0.45593999997E+02  0.45594000000E+02  0.51100000000E-03 0. -1.
         23    2    1    2    0    0  0.00000000000E+00  0.00000000000E+00  0.35527136788E-14  0.91188000000E+02  0.91188000000E+02 0.  0.
    9900012    2    3    3    0    0  0.15920003619E+02 -0.93411005177E+01 -0.31860270476E+02  0.54367088700E+02  0.40000010310E+02 0.  0.
        -12    1    3    3    0    0 -0.15920003619E+02  0.93411005177E+01  0.31860270476E+02  0.36820911300E+02  0.00000000000E+00 0.  1.
         11    1    4    4    0    0  0.11304118642E+01  0.55693248070E+01 -0.26537157749E+02  0.27138827378E+02  0.51100000000E-03 0. -1.
        -11    1    4    4    0    0  0.13231892414E+01 -0.11623831856E+02 -0.63815770628E+01  0.13326245640E+02  0.51100000000E-03 0.  1.
        -12    1    4    4    0    0  0.13466402514E+02 -0.32865934689E+01  0.10584643354E+01  0.13902015683E+02  0.00000000000E+00 0.  1.
</event>
<event>
 8    1  0.2971508E-007  0.9118800E+02  0.7816164E-02  0.1184000E+00
        -11   -1    0    0    0    0  0.00000000000E+00  0.00000000000E+00  0.45593999997E+02  0.45594000000E+02  0.51100000000E-03 0.  1.
         11   -1    0    0    0    0 -0.00000000000E+00 -0.00000000000E+00 -0.45593999997E+02  0.45594000000E+02  0.51100000000E-03 0. -1.
         23    2    1    2    0    0  0.00000000000E+00  0.17763568394E-14  0.17763568394E-14  0.91188000000E+02  0.91188000000E+02 0.  0.
    9900012    2    3    3    0    0  0.34271680179E+02  0.12521161952E+02  0.49448499882E+01  0.54367094249E+02  0.40000022961E+02 0.  0.
         12    1    3    3    0    0 -0.34271680179E+02 -0.12521161952E+02 -0.49448499882E+01  0.36820905751E+02  0.00000000000E+00 0. -1.
         11    1    4    4    0    0  0.67898552620E+01  0.10056679282E+02 -0.24428560604E+00  0.12136663808E+02  0.51100000000E-03 0. -1.
        -11    1    4    4    0    0  0.99977814700E+00  0.53697277096E+01 -0.10123022162E+02  0.11502569712E+02  0.51100000000E-03 0.  1.
        -12    1    4    4    0    0  0.26482046770E+02 -0.29052450402E+01  0.15312157757E+02  0.30727860730E+02  0.00000000000E+00 0.  1.
</event>
<event>
 8    1  0.2971508E-007  0.9118800E+02  0.7816164E-02  0.1184000E+00
        -11   -1    0    0    0    0  0.00000000000E+00  0.00000000000E+00  0.45593999997E+02  0.45594000000E+02  0.51100000000E-03 0.  1.
         11   -1    0    0    0    0 -0.00000000000E+00 -0.00000000000E+00 -0.45593999997E+02  0.45594000000E+02  0.51100000000E-03 0. -1.
         23    2    1    2    0    0  0.00000000000E+00  0.00000000000E+00 -0.35527136788E-14  0.91188000000E+02  0.91188000000E+02 0.  0.
    9900012    2    3    3    0    0  0.19301419956E+02  0.15011589298E+02 -0.27529768203E+02  0.54367071673E+02  0.39999971492E+02 0.  0.
        -12    1    3    3    0    0 -0.19301419956E+02 -0.15011589298E+02  0.27529768203E+02  0.36820928327E+02  0.00000000000E+00 0.  1.
         11    1    4    4    0    0 -0.18770618129E+01  0.17489449969E+02 -0.27796997085E+02  0.32894942901E+02  0.51100000000E-03 0. -1.
        -11    1    4    4    0    0  0.47492925804E+01 -0.69648307527E+00  0.11042288989E+01  0.49254634717E+01  0.51100000000E-03 0.  1.
         12    1    4    4    0    0  0.16429189189E+02 -0.17813775953E+01 -0.83700001742E+00  0.16546665300E+02  0.00000000000E+00 0. -1.
</event>
<event>
 8    1  0.2971508E-007  0.9118800E+02  0.7816164E-02  0.1184000E+00
        -11   -1    0    0    0    0  0.00000000000E+00  0.00000000000E+00  0.45593999997E+02  0.45594000000E+02  0.51100000000E-03 0. -1.
         11   -1    0    0    0    0 -0.00000000000E+00 -0.00000000000E+00 -0.45593999997E+02  0.45594000000E+02  0.51100000000E-03 0.  1.
         23    2    1    2    0    0  0.00000000000E+00 -0.17763568394E-14  0.00000000000E+00  0.91188000000E+02  0.91188000000E+02 0.  0.
    9900012    2    3    3    0    0  0.29899409583E+02  0.11493558664E+02  0.18157733808E+02  0.54367083645E+02  0.39999998787E+02 0.  0.
        -12    1    3    3    0    0 -0.29899409583E+02 -0.11493558664E+02 -0.18157733808E+02  0.36820916355E+02  0.00000000000E+00 0.  1.
         11    1    4    4    0    0 -0.49844737050E+01 -0.17659696907E+01  0.83253572483E-01  0.52887199286E+01  0.51100000000E-03 0. -1.
        -11    1    4    4    0    0 -0.13463181986E+01  0.78902402778E+01  0.74692132938E+01  0.10947950120E+02  0.51100000000E-03 0.  1.
         12    1    4    4    0    0  0.36230201486E+02  0.53692880767E+01  0.10605266941E+02  0.38130413597E+02  0.00000000000E+00 0. -1.
</event>
<event>
 8    1  0.2971508E-007  0.9118800E+02  0.7816164E-02  0.1184000E+00
        -11   -1    0    0    0    0  0.00000000000E+00  0.00000000000E+00  0.45593999997E+02  0.45594000000E+02  0.51100000000E-03 0.  1.
         11   -1    0    0    0    0 -0.00000000000E+00 -0.00000000000E+00 -0.45593999997E+02  0.45594000000E+02  0.51100000000E-03 0. -1.
         23    2    1    2    0    0  0.00000000000E+00 -0.35527136788E-14 -0.17763568394E-14  0.91188000000E+02  0.91188000000E+02 0.  0.
    9900012    2    3    3    0    0 -0.24717766914E+02  0.24526299440E+02 -0.11969611044E+02  0.54367096236E+02  0.40000027490E+02 0.  0.
        -12    1    3    3    0    0  0.24717766914E+02 -0.24526299440E+02  0.11969611044E+02  0.36820903764E+02  0.00000000000E+00 0.  1.
         11    1    4    4    0    0 -0.25453287971E+02  0.20077621817E+02 -0.10970811498E+02  0.34224837056E+02  0.51100000000E-03 0. -1.
        -11    1    4    4    0    0 -0.51580178471E+01 -0.61192809167E+01 -0.28932670188E-01  0.80032233761E+01  0.51100000000E-03 0.  1.
        -12    1    4    4    0    0  0.58935389033E+01  0.10567958539E+02 -0.96986687600E+00  0.12139035804E+02  0.00000000000E+00 0.  1.
</event>
<event>
 8    1  0.2971508E-007  0.9118800E+02  0.7816164E-02  0.1184000E+00
        -11   -1    0    0    0    0  0.00000000000E+00  0.00000000000E+00  0.45593999997E+02  0.45594000000E+02  0.51100000000E-03 0.  1.
         11   -1    0    0    0    0 -0.00000000000E+00 -0.00000000000E+00 -0.45593999997E+02  0.45594000000E+02  0.51100000000E-03 0. -1.
         23    2    1    2    0    0 -0.35527136788E-14  0.00000000000E+00  0.88817841970E-15  0.91188000000E+02  0.91188000000E+02 0.  0.
    9900012    2    3    3    0    0 -0.26162512634E+02  0.25567236835E+02 -0.41975037819E+01  0.54367086042E+02  0.40000004251E+02 0.  0.
        -12    1    3    3    0    0  0.26162512634E+02 -0.25567236835E+02  0.41975037819E+01  0.36820913958E+02  0.00000000000E+00 0.  1.
         11    1    4    4    0    0 -0.12644561188E+02  0.44075930704E+00 -0.11124324533E+02  0.16847248826E+02  0.51100000000E-03 0. -1.
        -11    1    4    4    0    0 -0.17094079583E+02  0.11913359751E+02 -0.23736628013E+01  0.20970693186E+02  0.51100000000E-03 0.  1.
        -12    1    4    4    0    0  0.35761281372E+01  0.13213117777E+02  0.93004835526E+01  0.16549144031E+02  0.00000000000E+00 0.  1.
</event>
<event>
 8    1  0.2971508E-007  0.9118800E+02  0.7816164E-02  0.1184000E+00
        -11   -1    0    0    0    0  0.00000000000E+00  0.00000000000E+00  0.45593999997E+02  0.45594000000E+02  0.51100000000E-03 0. -1.
         11   -1    0    0    0    0 -0.00000000000E+00 -0.00000000000E+00 -0.45593999997E+02  0.45594000000E+02  0.51100000000E-03 0.  1.
         23    2    1    2    0    0  0.35527136788E-14  0.00000000000E+00 -0.35527136788E-14  0.91188000000E+02  0.91188000000E+02 0.  0.
    9900012    2    3    3    0    0  0.30596728025E+02 -0.12557978160E+02 -0.16183840129E+02  0.54367092045E+02  0.40000017935E+02 0.  0.
         12    1    3    3    0    0 -0.30596728025E+02  0.12557978160E+02  0.16183840129E+02  0.36820907955E+02  0.00000000000E+00 0. -1.
         11    1    4    4    0    0  0.44359525490E+01  0.12751084042E+01  0.53356619957E+01  0.70549887068E+01  0.51100000000E-03 0. -1.
        -11    1    4    4    0    0  0.18002309854E+01 -0.65860980616E+01 -0.20793843699E+02  0.21886101876E+02  0.51100000000E-03 0.  1.
        -12    1    4    4    0    0  0.24360544490E+02 -0.72469885027E+01 -0.72565842606E+00  0.25426001463E+02  0.00000000000E+00 0.  1.
</event>
<event>
 8    1  0.2971508E-007  0.9118800E+02  0.7816164E-02  0.1184000E+00
        -11   -1    0    0    0    0  0.00000000000E+00  0.00000000000E+00  0.45593999997E+02  0.45594000000E+02  0.51100000000E-03 0. -1.
         11   -1    0    0    0    0 -0.00000000000E+00 -0.00000000000E+00 -0.45593999997E+02  0.45594000000E+02  0.51100000000E-03 0.  1.
         23    2    1    2    0    0  0.00000000000E+00 -0.35527136788E-14 -0.53290705182E-14  0.91188000000E+02  0.91188000000E+02 0.  0.
    9900012    2    3    3    0    0 -0.17446882112E+02 -0.31084237280E+02 -0.92280260297E+01  0.54367082479E+02  0.39999996127E+02 0.  0.
        -12    1    3    3    0    0  0.17446882112E+02  0.31084237280E+02  0.92280260297E+01  0.36820917521E+02  0.00000000000E+00 0.  1.
         11    1    4    4    0    0  0.32442753055E+00 -0.56866411383E+01  0.56953899601E+01  0.80548499500E+01  0.51100000000E-03 0. -1.
        -11    1    4    4    0    0 -0.17983765342E+02 -0.84918068678E+01 -0.20448859713E+02  0.28525119870E+02  0.51100000000E-03 0.  1.
        -12    1    4    4    0    0  0.21245569999E+00 -0.16905789274E+02  0.55254437232E+01  0.17787112659E+02  0.00000000000E+00 0.  1.
</event>
<event>
 8    1  0.2971508E-007  0.9118800E+02  0.7816164E-02  0.1184000E+00
        -11   -1    0    0    0    0  0.00000000000E+00  0.00000000000E+00  0.45593999997E+02  0.45594000000E+02  0.51100000000E-03 0.  1.
         11   -1    0    0    0    0 -0.00000000000E+00 -0.00000000000E+00 -0.45593999997E+02  0.45594000000E+02  0.51100000000E-03 0. -1.
         23    2    1    2    0    0  0.00000000000E+00  0.00000000000E+00  0.00000000000E+00  0.91188000000E+02  0.91188000000E+02 0.  0.
    9900012    2    3    3    0    0  0.38295371925E+01  0.27237414113E+02  0.24479384854E+02  0.54367049911E+02  0.39999921881E+02 0.  0.
         12    1    3    3    0    0 -0.38295371925E+01 -0.27237414113E+02 -0.24479384854E+02  0.36820950089E+02  0.00000000000E+00 0. -1.
         11    1    4    4    0    0  0.25929305075E+01  0.25901478355E+02  0.27506155776E+02  0.37870812975E+02  0.51100000000E-03 0. -1.
        -11    1    4    4    0    0 -0.32932917230E+01  0.72833750673E+01  0.91345765202E+00  0.80453544290E+01  0.51100000000E-03 0.  1.
         12    1    4    4    0    0  0.45298984080E+01 -0.59474393092E+01 -0.39402285742E+01  0.84508825066E+01  0.00000000000E+00 0. -1.
</event>
<event>
 8    1  0.2971508E-007  0.9118800E+02  0.7816164E-02  0.1184000E+00
        -11   -1    0    0    0    0  0.00000000000E+00  0.00000000000E+00  0.45593999997E+02  0.45594000000E+02  0.51100000000E-03 0. -1.
         11   -1    0    0    0    0 -0.00000000000E+00 -0.00000000000E+00 -0.45593999997E+02  0.45594000000E+02  0.51100000000E-03 0.  1.
         23    2    1    2    0    0  0.00000000000E+00 -0.35527136788E-14  0.00000000000E+00  0.91188000000E+02  0.91188000000E+02 0.  0.
    9900012    2    3    3    0    0  0.14416294359E+02  0.25081836169E+02  0.22778327527E+02  0.54367078589E+02  0.39999987259E+02 0.  0.
         12    1    3    3    0    0 -0.14416294359E+02 -0.25081836169E+02 -0.22778327527E+02  0.36820921411E+02  0.00000000000E+00 0. -1.
         11    1    4    4    0    0  0.70002531647E+01  0.35208026944E+01  0.16872184040E+02  0.18602961875E+02  0.51100000000E-03 0. -1.
        -11    1    4    4    0    0  0.75618089326E+01  0.16420913070E+01 -0.82620376956E+01  0.11319835924E+02  0.51100000000E-03 0.  1.
         12    1    4    4    0    0 -0.14576773847E+00  0.19918942168E+02  0.14168181183E+02  0.24444280790E+02  0.00000000000E+00 0. -1.
</event>
<event>
 8    1  0.2971508E-007  0.9118800E+02  0.7816164E-02  0.1184000E+00
        -11   -1    0    0    0    0  0.00000000000E+00  0.00000000000E+00  0.45593999997E+02  0.45594000000E+02  0.51100000000E-03 0. -1.
         11   -1    0    0    0    0 -0.00000000000E+00 -0.00000000000E+00 -0.45593999997E+02  0.45594000000E+02  0.51100000000E-03 0.  1.
         23    2    1    2    0    0 -0.71054273576E-14 -0.17763568394E-14  0.00000000000E+00  0.91188000000E+02  0.91188000000E+02 0.  0.
    9900012    2    3    3    0    0  0.32197425331E+02  0.13147396556E+02  0.12093444576E+02  0.54367086977E+02  0.40000006382E+02 0.  0.
        -12    1    3    3    0    0 -0.32197425331E+02 -0.13147396556E+02 -0.12093444576E+02  0.36820913023E+02  0.00000000000E+00 0.  1.
         11    1    4    4    0    0  0.14846752234E+02 -0.11866173965E+01  0.11396230053E+02  0.18753884196E+02  0.51100000000E-03 0. -1.
        -11    1    4    4    0    0  0.12077424936E+01 -0.54674090128E+01  0.73247744537E+01  0.92197355875E+01  0.51100000000E-03 0.  1.
        -12    1    4    4    0    0  0.16142930603E+02  0.19801422965E+02 -0.66275599308E+01  0.26393467194E+02  0.00000000000E+00 0.  1.
</event>
<event>
 8    1  0.2971508E-007  0.9118800E+02  0.7816164E-02  0.1184000E+00
        -11   -1    0    0    0    0  0.00000000000E+00  0.00000000000E+00  0.45593999997E+02  0.45594000000E+02  0.51100000000E-03 0.  1.
         11   -1    0    0    0    0 -0.00000000000E+00 -0.00000000000E+00 -0.45593999997E+02  0.45594000000E+02  0.51100000000E-03 0. -1.
         23    2    1    2    0    0  0.00000000000E+00  0.00000000000E+00  0.00000000000E+00  0.91188000000E+02  0.91188000000E+02 0.  0.
    9900012    2    3    3    0    0 -0.85060087849E+01 -0.31332623771E+02  0.17369580735E+02  0.54366975670E+02  0.39999752634E+02 0.  0.
         12    1    3    3    0    0  0.85060087849E+01  0.31332623771E+02 -0.17369580735E+02  0.36821024330E+02  0.00000000000E+00 0. -1.
         11    1    4    4    0    0  0.12819155339E+02 -0.14991539776E+02  0.11548842526E+02  0.22857225825E+02  0.51100000000E-03 0. -1.
        -11    1    4    4    0    0 -0.10734928870E+02 -0.11370412968E+02  0.10579775262E+02  0.18880059157E+02  0.51100000000E-03 0.  1.
         12    1    4    4    0    0 -0.10590235254E+02 -0.49706710261E+01 -0.47590370539E+01  0.12629690688E+02  0.00000000000E+00 0. -1.
</event>
<event>
 8    1  0.2971508E-007  0.9118800E+02  0.7816164E-02  0.1184000E+00
        -11   -1    0    0    0    0  0.00000000000E+00  0.00000000000E+00  0.45593999997E+02  0.45594000000E+02  0.51100000000E-03 0. -1.
         11   -1    0    0    0    0 -0.00000000000E+00 -0.00000000000E+00 -0.45593999997E+02  0.45594000000E+02  0.51100000000E-03 0.  1.
         23    2    1    2    0    0  0.35527136788E-14  0.44408920985E-15  0.00000000000E+00  0.91188000000E+02  0.91188000000E+02 0.  0.
    9900012    2    3    3    0    0 -0.26071220856E+02  0.22683012089E+01 -0.25902242098E+02  0.54367083485E+02  0.39999998421E+02 0.  0.
         12    1    3    3    0    0  0.26071220856E+02 -0.22683012089E+01  0.25902242098E+02  0.36820916515E+02  0.00000000000E+00 0. -1.
         11    1    4    4    0    0 -0.79297512784E+01  0.12526574694E+02 -0.28359380689E+02  0.32000789088E+02  0.51100000000E-03 0.  1.
        -11    1    4    4    0    0 -0.18052426171E+02 -0.93762512445E+01  0.64900010796E+00  0.20352527594E+02  0.51100000000E-03 0. -1.
        -12    1    4    4    0    0 -0.89043406286E-01 -0.88202224027E+00  0.18081384839E+01  0.20137668032E+01  0.00000000000E+00 0.  1.
</event>
<event>
 8    1  0.2971508E-007  0.9118800E+02  0.7816164E-02  0.1184000E+00
        -11   -1    0    0    0    0  0.00000000000E+00  0.00000000000E+00  0.45593999997E+02  0.45594000000E+02  0.51100000000E-03 0.  1.
         11   -1    0    0    0    0 -0.00000000000E+00 -0.00000000000E+00 -0.45593999997E+02  0.45594000000E+02  0.51100000000E-03 0. -1.
         23    2    1    2    0    0  0.00000000000E+00  0.00000000000E+00  0.00000000000E+00  0.91188000000E+02  0.91188000000E+02 0.  0.
    9900012    2    3    3    0    0 -0.16277772062E+02 -0.27956698431E+02 -0.17585131565E+02  0.54367086070E+02  0.40000004315E+02 0.  0.
        -12    1    3    3    0    0  0.16277772062E+02  0.27956698431E+02  0.17585131565E+02  0.36820913930E+02  0.00000000000E+00 0.  1.
         11    1    4    4    0    0  0.14133078559E+01 -0.56641410423E+01 -0.68589996887E+01  0.90069867233E+01  0.51100000000E-03 0. -1.
        -11    1    4    4    0    0 -0.49695725276E+01 -0.38237249286E+01  0.11932620778E+02  0.13479798305E+02  0.51100000000E-03 0.  1.
        -12    1    4    4    0    0 -0.12721507390E+02 -0.18468832460E+02 -0.22658752654E+02  0.31880301043E+02  0.00000000000E+00 0.  1.
</event>
<event>
 8    1  0.2971508E-007  0.9118800E+02  0.7816164E-02  0.1184000E+00
        -11   -1    0    0    0    0  0.00000000000E+00  0.00000000000E+00  0.45593999997E+02  0.45594000000E+02  0.51100000000E-03 0. -1.
         11   -1    0    0    0    0 -0.00000000000E+00 -0.00000000000E+00 -0.45593999997E+02  0.45594000000E+02  0.51100000000E-03 0.  1.
         23    2    1    2    0    0 -0.35527136788E-14  0.00000000000E+00 -0.35527136788E-14  0.91188000000E+02  0.91188000000E+02 0.  0.
    9900012    2    3    3    0    0  0.17796883354E+02 -0.20382200050E+02 -0.24972339886E+02  0.54367069873E+02  0.39999967389E+02 0.  0.
         12    1    3    3    0    0 -0.17796883354E+02  0.20382200050E+02  0.24972339886E+02  0.36820930127E+02  0.00000000000E+00 0. -1.
         11    1    4    4    0    0  0.21467566814E+02 -0.10138810697E+02  0.73184814444E+00  0.23752631627E+02  0.51100000000E-03 0. -1.
        -11    1    4    4    0    0 -0.20588301769E+01  0.21608223760E+01 -0.14355986883E+01  0.33119297838E+01  0.51100000000E-03 0.  1.
        -12    1    4    4    0    0 -0.16118532827E+01 -0.12404211729E+02 -0.24268589343E+02  0.27302508462E+02  0.00000000000E+00 0.  1.
</event>
<event>
 8    1  0.2971508E-007  0.9118800E+02  0.7816164E-02  0.1184000E+00
        -11   -1    0    0    0    0  0.00000000000E+00  0.00000000000E+00  0.45593999997E+02  0.45594000000E+02  0.51100000000E-03 0. -1.
         11   -1    0    0    0    0 -0.00000000000E+00 -0.00000000000E+00 -0.45593999997E+02  0.45594000000E+02  0.51100000000E-03 0.  1.
         23    2    1    2    0    0  0.00000000000E+00  0.11102230246E-15  0.00000000000E+00  0.91188000000E+02  0.91188000000E+02 0.  0.
    9900012    2    3    3    0    0 -0.22232461855E+02  0.75063022625E+00  0.29341683746E+02  0.54367079168E+02  0.39999988579E+02 0.  0.
        -12    1    3    3    0    0  0.22232461855E+02 -0.75063022625E+00 -0.29341683746E+02  0.36820920832E+02  0.00000000000E+00 0.  1.
         11    1    4    4    0    0 -0.14840590741E+02  0.10284784325E+01 -0.52293579720E+01  0.15768547380E+02  0.51100000000E-03 0. -1.
        -11    1    4    4    0    0  0.10271800583E+01  0.57168396828E+01  0.19329135027E+02  0.20182983328E+02  0.51100000000E-03 0.  1.
         12    1    4    4    0    0 -0.84190511730E+01 -0.59946878891E+01  0.15241906690E+02  0.18415548460E+02  0.00000000000E+00 0. -1.
</event>
<event>
 8    1  0.2971508E-007  0.9118800E+02  0.7816164E-02  0.1184000E+00
        -11   -1    0    0    0    0  0.00000000000E+00  0.00000000000E+00  0.45593999997E+02  0.45594000000E+02  0.51100000000E-03 0. -1.
         11   -1    0    0    0    0 -0.00000000000E+00 -0.00000000000E+00 -0.45593999997E+02  0.45594000000E+02  0.51100000000E-03 0.  1.
         23    2    1    2    0    0  0.00000000000E+00  0.00000000000E+00  0.00000000000E+00  0.91188000000E+02  0.91188000000E+02 0.  0.
    9900012    2    3    3    0    0 -0.28975597819E+02 -0.42416439375E+00 -0.22716027531E+02  0.54367040056E+02  0.39999899415E+02 0.  0.
         12    1    3    3    0    0  0.28975597819E+02  0.42416439375E+00  0.22716027531E+02  0.36820959944E+02  0.00000000000E+00 0. -1.
         11    1    4    4    0    0 -0.18318562696E+02  0.27095030816E-01 -0.27916775504E+02  0.33390370291E+02  0.51100000000E-03 0. -1.
        -11    1    4    4    0    0 -0.27252441966E+01 -0.19705207908E+00 -0.63784300668E+01  0.69390313324E+01  0.51100000000E-03 0.  1.
         12    1    4    4    0    0 -0.79317909266E+01 -0.25420734548E+00  0.11579178039E+02  0.14037638432E+02  0.00000000000E+00 0. -1.
</event>
<event>
 8    1  0.2971508E-007  0.9118800E+02  0.7816164E-02  0.1184000E+00
        -11   -1    0    0    0    0  0.00000000000E+00  0.00000000000E+00  0.45593999997E+02  0.45594000000E+02  0.51100000000E-03 0. -1.
         11   -1    0    0    0    0 -0.00000000000E+00 -0.00000000000E+00 -0.45593999997E+02  0.45594000000E+02  0.51100000000E-03 0.  1.
         23    2    1    2    0    0 -0.12212453271E-14  0.00000000000E+00  0.00000000000E+00  0.91188000000E+02  0.91188000000E+02 0.  0.
    9900012    2    3    3    0    0 -0.94132138014E+00  0.60574347691E+01 -0.36307050255E+02  0.54367075241E+02  0.39999979626E+02 0.  0.
         12    1    3    3    0    0  0.94132138014E+00 -0.60574347691E+01  0.36307050255E+02  0.36820924759E+02  0.00000000000E+00 0. -1.
         11    1    4    4    0    0 -0.10192254055E+02  0.10709133523E+02 -0.51841444759E+01  0.15666618580E+02  0.51100000000E-03 0.  1.
        -11    1    4    4    0    0  0.52336857171E+01 -0.96569087771E+01 -0.54962325792E+01  0.12282342046E+02  0.51100000000E-03 0. -1.
        -12    1    4    4    0    0  0.40172469576E+01  0.50052100232E+01 -0.25626673200E+02  0.26418114614E+02  0.00000000000E+00 0.  1.
</event>
<event>
 8    1  0.2971508E-007  0.9118800E+02  0.7816164E-02  0.1184000E+00
        -11   -1    0    0    0    0  0.00000000000E+00  0.00000000000E+00  0.45593999997E+02  0.45594000000E+02  0.51100000000E-03 0. -1.
         11   -1    0    0    0    0 -0.00000000000E+00 -0.00000000000E+00 -0.45593999997E+02  0.45594000000E+02  0.51100000000E-03 0.  1.
         23    2    1    2    0    0  0.00000000000E+00  0.44408920985E-15  0.00000000000E+00  0.91188000000E+02  0.91188000000E+02 0.  0.
    9900012    2    3    3    0    0 -0.35714333004E+02 -0.34222721353E+01 -0.82796764961E+01  0.54367101432E+02  0.40000039334E+02 0.  0.
         12    1    3    3    0    0  0.35714333004E+02  0.34222721353E+01  0.82796764961E+01  0.36820898568E+02  0.00000000000E+00 0. -1.
         11    1    4    4    0    0 -0.10396684832E+01  0.99518754553E+01  0.24742614349E+01  0.10307410225E+02  0.51100000000E-03 0. -1.
        -11    1    4    4    0    0 -0.24132008593E+02 -0.51669014031E+01 -0.16318893505E+02  0.29586432606E+02  0.51100000000E-03 0.  1.
        -12    1    4    4    0    0 -0.10542655928E+02 -0.82072461876E+01  0.55649555742E+01  0.14473258601E+02  0.00000000000E+00 0.  1.
</event>
<event>
 8    1  0.2971508E-007  0.9118800E+02  0.7816164E-02  0.1184000E+00
        -11   -1    0    0    0    0  0.00000000000E+00  0.00000000000E+00  0.45593999997E+02  0.45594000000E+02  0.51100000000E-03 0.  1.
         11   -1    0    0    0    0 -0.00000000000E+00 -0.00000000000E+00 -0.45593999997E+02  0.45594000000E+02  0.51100000000E-03 0. -1.
         23    2    1    2    0    0  0.00000000000E+00  0.19984014443E-14  0.00000000000E+00  0.91188000000E+02  0.91188000000E+02 0.  0.
    9900012    2    3    3    0    0  0.23806483053E+02 -0.11081232853E+01  0.28067817352E+02  0.54367096380E+02  0.40000027816E+02 0.  0.
         12    1    3    3    0    0 -0.23806483053E+02  0.11081232853E+01 -0.28067817352E+02  0.36820903620E+02  0.00000000000E+00 0. -1.
         11    1    4    4    0    0  0.22623487122E+01  0.72855032831E+01  0.67450028178E+01  0.10182919182E+02  0.51100000000E-03 0. -1.
        -11    1    4    4    0    0  0.13101820187E+02  0.10266085501E+02  0.34435251255E+01  0.16997295940E+02  0.51100000000E-03 0.  1.
        -12    1    4    4    0    0  0.84423141538E+01 -0.18659712070E+02  0.17879289408E+02  0.27186881258E+02  0.00000000000E+00 0.  1.
</event>
<event>
 8    1  0.2971508E-007  0.9118800E+02  0.7816164E-02  0.1184000E+00
        -11   -1    0    0    0    0  0.00000000000E+00  0.00000000000E+00  0.45593999997E+02  0.45594000000E+02  0.51100000000E-03 0. -1.
         11   -1    0    0    0    0 -0.00000000000E+00 -0.00000000000E+00 -0.45593999997E+02  0.45594000000E+02  0.51100000000E-03 0.  1.
         23    2    1    2    0    0 -0.35527136788E-14 -0.71054273576E-14  0.00000000000E+00  0.91188000000E+02  0.91188000000E+02 0.  0.
    9900012    2    3    3    0    0  0.12192667627E+02  0.30724982374E+02  0.16220185964E+02  0.54367080424E+02  0.39999991442E+02 0.  0.
         12    1    3    3    0    0 -0.12192667627E+02 -0.30724982374E+02 -0.16220185964E+02  0.36820919576E+02  0.00000000000E+00 0. -1.
         11    1    4    4    0    0 -0.18539821810E+00 -0.50532774570E+01  0.11928860516E+02  0.12956376771E+02  0.51100000000E-03 0. -1.
        -11    1    4    4    0    0  0.11984595752E+02  0.27807905154E+02 -0.32204774027E+01  0.30451298812E+02  0.51100000000E-03 0.  1.
         12    1    4    4    0    0  0.39347009265E+00  0.79703546769E+01  0.75118028505E+01  0.10959404840E+02  0.00000000000E+00 0. -1.
</event>
<event>
 8    1  0.2971508E-007  0.9118800E+02  0.7816164E-02  0.1184000E+00
        -11   -1    0    0    0    0  0.00000000000E+00  0.00000000000E+00  0.45593999997E+02  0.45594000000E+02  0.51100000000E-03 0.  1.
         11   -1    0    0    0    0 -0.00000000000E+00 -0.00000000000E+00 -0.45593999997E+02  0.45594000000E+02  0.51100000000E-03 0. -1.
         23    2    1    2    0    0  0.00000000000E+00 -0.17763568394E-14 -0.55511151231E-16  0.91188000000E+02  0.91188000000E+02 0.  0.
    9900012    2    3    3    0    0 -0.35287474483E+02  0.10513972898E+02 -0.17555315448E+00  0.54367077952E+02  0.39999985808E+02 0.  0.
        -12    1    3    3    0    0  0.35287474483E+02 -0.10513972898E+02  0.17555315448E+00  0.36820922048E+02  0.00000000000E+00 0.  1.
         11    1    4    4    0    0 -0.97908695407E+01  0.18608984724E+02  0.32462178759E-01  0.21027517516E+02  0.51100000000E-03 0. -1.
        -11    1    4    4    0    0 -0.22060991789E+02 -0.14216133543E+02 -0.10756957270E+01  0.26266764803E+02  0.51100000000E-03 0.  1.
        -12    1    4    4    0    0 -0.34356131533E+01  0.61211217165E+01  0.86768039373E+00  0.70727956335E+01  0.00000000000E+00 0.  1.
</event>
<event>
 8    1  0.2971508E-007  0.9118800E+02  0.7816164E-02  0.1184000E+00
        -11   -1    0    0    0    0  0.00000000000E+00  0.00000000000E+00  0.45593999997E+02  0.45594000000E+02  0.51100000000E-03 0.  1.
         11   -1    0    0    0    0 -0.00000000000E+00 -0.00000000000E+00 -0.45593999997E+02  0.45594000000E+02  0.51100000000E-03 0. -1.
         23    2    1    2    0    0 -0.88817841970E-15  0.00000000000E+00  0.00000000000E+00  0.91188000000E+02  0.91188000000E+02 0.  0.
    9900012    2    3    3    0    0 -0.55878163557E+01  0.31691322866E+02  0.17894544008E+02  0.54367104548E+02  0.40000046438E+02 0.  0.
         12    1    3    3    0    0  0.55878163557E+01 -0.31691322866E+02 -0.17894544008E+02  0.36820895452E+02  0.00000000000E+00 0. -1.
         11    1    4    4    0    0 -0.27486953538E+01  0.50478716482E+01  0.25694317315E+02  0.26329342508E+02  0.51100000000E-03 0.  1.
        -11    1    4    4    0    0 -0.23610908591E+01  0.10315692726E+02 -0.26287762966E+01  0.10904069494E+02  0.51100000000E-03 0. -1.
        -12    1    4    4    0    0 -0.47803014289E+00  0.16327758492E+02 -0.51709970105E+01  0.17133692546E+02  0.00000000000E+00 0.  1.
</event>
<event>
 8    1  0.2971508E-007  0.9118800E+02  0.7816164E-02  0.1184000E+00
        -11   -1    0    0    0    0  0.00000000000E+00  0.00000000000E+00  0.45593999997E+02  0.45594000000E+02  0.51100000000E-03 0.  1.
         11   -1    0    0    0    0 -0.00000000000E+00 -0.00000000000E+00 -0.45593999997E+02  0.45594000000E+02  0.51100000000E-03 0. -1.
         23    2    1    2    0    0  0.17763568394E-14  0.00000000000E+00  0.00000000000E+00  0.91188000000E+02  0.91188000000E+02 0.  0.
    9900012    2    3    3    0    0  0.13586212975E+02  0.30190833251E+02 -0.16115457752E+02  0.54367087817E+02  0.40000008297E+02 0.  0.
        -12    1    3    3    0    0 -0.13586212975E+02 -0.30190833251E+02  0.16115457752E+02  0.36820912183E+02  0.00000000000E+00 0.  1.
         11    1    4    4    0    0  0.14511535309E+02  0.53532982443E+01  0.31127535640E+00  0.15470596359E+02  0.51100000000E-03 0. -1.
        -11    1    4    4    0    0  0.35892000331E+01 -0.10383196036E+01  0.41098855986E+01  0.55544238559E+01  0.51100000000E-03 0.  1.
         12    1    4    4    0    0 -0.45145223669E+01  0.25875854611E+02 -0.20536618707E+02  0.33342067602E+02  0.00000000000E+00 0. -1.
</event>
<event>
 8    1  0.2971508E-007  0.9118800E+02  0.7816164E-02  0.1184000E+00
        -11   -1    0    0    0    0  0.00000000000E+00  0.00000000000E+00  0.45593999997E+02  0.45594000000E+02  0.51100000000E-03 0. -1.
         11   -1    0    0    0    0 -0.00000000000E+00 -0.00000000000E+00 -0.45593999997E+02  0.45594000000E+02  0.51100000000E-03 0.  1.
         23    2    1    2    0    0 -0.88817841970E-15  0.00000000000E+00 -0.35527136788E-14  0.91188000000E+02  0.91188000000E+02 0.  0.
    9900012    2    3    3    0    0  0.32479781171E+01  0.17952973109E+02 -0.31983109260E+02  0.54367110776E+02  0.40000060636E+02 0.  0.
         12    1    3    3    0    0 -0.32479781171E+01 -0.17952973109E+02  0.31983109260E+02  0.36820889224E+02  0.00000000000E+00 0. -1.
         11    1    4    4    0    0 -0.83530453890E+01  0.61633270667E+01  0.10586743429E+01  0.10434594359E+02  0.51100000000E-03 0. -1.
        -11    1    4    4    0    0  0.13905419926E+02 -0.25275415937E+01 -0.19563620011E+02  0.24134713548E+02  0.51100000000E-03 0.  1.
         12    1    4    4    0    0 -0.23043964200E+01  0.14317187636E+02 -0.13478163592E+02  0.19797802870E+02  0.00000000000E+00 0. -1.
</event>
<event>
 8    1  0.2971508E-007  0.9118800E+02  0.7816164E-02  0.1184000E+00
        -11   -1    0    0    0    0  0.00000000000E+00  0.00000000000E+00  0.45593999997E+02  0.45594000000E+02  0.51100000000E-03 0. -1.
         11   -1    0    0    0    0 -0.00000000000E+00 -0.00000000000E+00 -0.45593999997E+02  0.45594000000E+02  0.51100000000E-03 0.  1.
         23    2    1    2    0    0 -0.35527136788E-14 -0.35527136788E-14  0.88817841970E-15  0.91188000000E+02  0.91188000000E+02 0.  0.
    9900012    2    3    3    0    0 -0.30715099008E+02  0.19621643785E+02  0.52301409924E+01  0.54367074065E+02  0.39999976946E+02 0.  0.
         12    1    3    3    0    0  0.30715099008E+02 -0.19621643785E+02 -0.52301409924E+01  0.36820925935E+02  0.00000000000E+00 0. -1.
         11    1    4    4    0    0  0.41090412199E+01 -0.37498638778E+01 -0.36638570523E+01  0.66610470355E+01  0.51100000000E-03 0. -1.
        -11    1    4    4    0    0 -0.16253875937E+02 -0.88278111603E+00  0.40864409436E+01  0.16782931369E+02  0.51100000000E-03 0.  1.
         12    1    4    4    0    0 -0.18570264291E+02  0.24254288778E+02  0.48075571011E+01  0.30923095661E+02  0.00000000000E+00 0. -1.
</event>
<event>
 8    1  0.2971508E-007  0.9118800E+02  0.7816164E-02  0.1184000E+00
        -11   -1    0    0    0    0  0.00000000000E+00  0.00000000000E+00  0.45593999997E+02  0.45594000000E+02  0.51100000000E-03 0.  1.
         11   -1    0    0    0    0 -0.00000000000E+00 -0.00000000000E+00 -0.45593999997E+02  0.45594000000E+02  0.51100000000E-03 0. -1.
         23    2    1    2    0    0  0.00000000000E+00  0.88817841970E-15  0.00000000000E+00  0.91188000000E+02  0.91188000000E+02 0.  0.
    9900012    2    3    3    0    0 -0.36029034997E+02 -0.74829479815E+01 -0.13015041201E+01  0.54367084934E+02  0.40000001724E+02 0.  0.
        -12    1    3    3    0    0  0.36029034997E+02  0.74829479815E+01  0.13015041201E+01  0.36820915066E+02  0.00000000000E+00 0.  1.
         11    1    4    4    0    0 -0.12084887939E+02 -0.20251971872E+02 -0.75655426497E+01  0.24767404326E+02  0.51100000000E-03 0. -1.
        -11    1    4    4    0    0 -0.13353370443E+02  0.12437152325E+02  0.28638257813E+01  0.18471512080E+02  0.51100000000E-03 0.  1.
         12    1    4    4    0    0 -0.10590776615E+02  0.33187156488E+00  0.34002127484E+01  0.11128168528E+02  0.00000000000E+00 0. -1.
</event>
<event>
 8    1  0.2971508E-007  0.9118800E+02  0.7816164E-02  0.1184000E+00
        -11   -1    0    0    0    0  0.00000000000E+00  0.00000000000E+00  0.45593999997E+02  0.45594000000E+02  0.51100000000E-03 0.  1.
         11   -1    0    0    0    0 -0.00000000000E+00 -0.00000000000E+00 -0.45593999997E+02  0.45594000000E+02  0.51100000000E-03 0. -1.
         23    2    1    2    0    0  0.00000000000E+00 -0.71054273576E-14  0.00000000000E+00  0.91188000000E+02  0.91188000000E+02 0.  0.
    9900012    2    3    3    0    0 -0.12729731181E+01  0.32687527203E+02  0.16902191269E+02  0.54367096088E+02  0.40000027151E+02 0.  0.
         12    1    3    3    0    0  0.12729731181E+01 -0.32687527203E+02 -0.16902191269E+02  0.36820903912E+02  0.00000000000E+00 0. -1.
         11    1    4    4    0    0 -0.12125933762E+02  0.10843196118E+02 -0.15570407709E+01  0.16341283544E+02  0.51100000000E-03 0. -1.
        -11    1    4    4    0    0  0.74581585793E+01  0.87763867041E+01  0.21312946943E+02  0.24225829204E+02  0.51100000000E-03 0.  1.
         12    1    4    4    0    0  0.33948020645E+01  0.13067944382E+02 -0.28537149029E+01  0.13799983339E+02  0.00000000000E+00 0. -1.
</event>
<event>
 8    1  0.2971508E-007  0.9118800E+02  0.7816164E-02  0.1184000E+00
        -11   -1    0    0    0    0  0.00000000000E+00  0.00000000000E+00  0.45593999997E+02  0.45594000000E+02  0.51100000000E-03 0. -1.
         11   -1    0    0    0    0 -0.00000000000E+00 -0.00000000000E+00 -0.45593999997E+02  0.45594000000E+02  0.51100000000E-03 0.  1.
         23    2    1    2    0    0 -0.35527136788E-14  0.00000000000E+00  0.00000000000E+00  0.91188000000E+02  0.91188000000E+02 0.  0.
    9900012    2    3    3    0    0  0.27979329711E+02 -0.11835792057E+02 -0.20805076684E+02  0.54367080939E+02  0.39999992617E+02 0.  0.
         12    1    3    3    0    0 -0.27979329711E+02  0.11835792057E+02  0.20805076684E+02  0.36820919061E+02  0.00000000000E+00 0. -1.
         11    1    4    4    0    0 -0.47905135475E+01  0.25625248328E+01  0.38247933876E+01  0.66441401465E+01  0.51100000000E-03 0. -1.
        -11    1    4    4    0    0  0.44882575664E+01 -0.18219740852E+01  0.34379453100E+01  0.59399927412E+01  0.51100000000E-03 0.  1.
        -12    1    4    4    0    0  0.28281585692E+02 -0.12576342804E+02 -0.28067815382E+02  0.41782948051E+02  0.00000000000E+00 0.  1.
</event>
<event>
 8    1  0.2971508E-007  0.9118800E+02  0.7816164E-02  0.1184000E+00
        -11   -1    0    0    0    0  0.00000000000E+00  0.00000000000E+00  0.45593999997E+02  0.45594000000E+02  0.51100000000E-03 0.  1.
         11   -1    0    0    0    0 -0.00000000000E+00 -0.00000000000E+00 -0.45593999997E+02  0.45594000000E+02  0.51100000000E-03 0. -1.
         23    2    1    2    0    0 -0.44408920985E-15 -0.44408920985E-15  0.00000000000E+00  0.91188000000E+02  0.91188000000E+02 0.  0.
    9900012    2    3    3    0    0 -0.23027657386E+01  0.23056770856E+01 -0.36676374510E+02  0.54367145528E+02  0.40000139860E+02 0.  0.
        -12    1    3    3    0    0  0.23027657386E+01 -0.23056770856E+01  0.36676374510E+02  0.36820854472E+02  0.00000000000E+00 0.  1.
         11    1    4    4    0    0  0.58750787301E+01  0.14750905474E+02 -0.11047185005E+02  0.19342855507E+02  0.51100000000E-03 0.  1.
        -11    1    4    4    0    0  0.29972021044E+01  0.26779919420E+01 -0.92555281998E+01  0.10090573017E+02  0.51100000000E-03 0. -1.
         12    1    4    4    0    0 -0.11175046573E+02 -0.15123220331E+02 -0.16373661305E+02  0.24933717004E+02  0.00000000000E+00 0. -1.
</event>
<event>
 8    1  0.2971508E-007  0.9118800E+02  0.7816164E-02  0.1184000E+00
        -11   -1    0    0    0    0  0.00000000000E+00  0.00000000000E+00  0.45593999997E+02  0.45594000000E+02  0.51100000000E-03 0.  1.
         11   -1    0    0    0    0 -0.00000000000E+00 -0.00000000000E+00 -0.45593999997E+02  0.45594000000E+02  0.51100000000E-03 0. -1.
         23    2    1    2    0    0  0.00000000000E+00  0.00000000000E+00  0.00000000000E+00  0.91188000000E+02  0.91188000000E+02 0.  0.
    9900012    2    3    3    0    0  0.33137209521E+02  0.14348274444E+02  0.71993294059E+01  0.54367109486E+02  0.40000057696E+02 0.  0.
         12    1    3    3    0    0 -0.33137209521E+02 -0.14348274444E+02 -0.71993294059E+01  0.36820890514E+02  0.00000000000E+00 0. -1.
         11    1    4    4    0    0  0.27940449509E+00  0.77986173056E+01 -0.80936487780E+01  0.11242937763E+02  0.51100000000E-03 0. -1.
        -11    1    4    4    0    0  0.29262750925E+02 -0.30619177859E+01  0.78635987044E+01  0.30455214940E+02  0.51100000000E-03 0.  1.
         12    1    4    4    0    0  0.35950541007E+01  0.96115749242E+01  0.74293794794E+01  0.12668956783E+02  0.00000000000E+00 0. -1.
</event>
<event>
 8    1  0.2971508E-007  0.9118800E+02  0.7816164E-02  0.1184000E+00
        -11   -1    0    0    0    0  0.00000000000E+00  0.00000000000E+00  0.45593999997E+02  0.45594000000E+02  0.51100000000E-03 0. -1.
         11   -1    0    0    0    0 -0.00000000000E+00 -0.00000000000E+00 -0.45593999997E+02  0.45594000000E+02  0.51100000000E-03 0.  1.
         23    2    1    2    0    0 -0.88817841970E-15  0.00000000000E+00  0.00000000000E+00  0.91188000000E+02  0.91188000000E+02 0.  0.
    9900012    2    3    3    0    0 -0.73038982225E+01 -0.28318191562E+02 -0.22372138876E+02  0.54367088815E+02  0.40000010572E+02 0.  0.
         12    1    3    3    0    0  0.73038982225E+01  0.28318191562E+02  0.22372138876E+02  0.36820911185E+02  0.00000000000E+00 0. -1.
         11    1    4    4    0    0 -0.77625637039E+01  0.32189046717E+01  0.53002477324E+01  0.99353595218E+01  0.51100000000E-03 0. -1.
        -11    1    4    4    0    0  0.21862385768E+01 -0.18152993184E+02 -0.24496755084E+02  0.30567986694E+02  0.51100000000E-03 0.  1.
        -12    1    4    4    0    0 -0.17275730955E+01 -0.13384103051E+02 -0.31756315242E+01  0.13863742599E+02  0.00000000000E+00 0.  1.
</event>
<event>
 8    1  0.2971508E-007  0.9118800E+02  0.7816164E-02  0.1184000E+00
        -11   -1    0    0    0    0  0.00000000000E+00  0.00000000000E+00  0.45593999997E+02  0.45594000000E+02  0.51100000000E-03 0.  1.
         11   -1    0    0    0    0 -0.00000000000E+00 -0.00000000000E+00 -0.45593999997E+02  0.45594000000E+02  0.51100000000E-03 0. -1.
         23    2    1    2    0    0 -0.35527136788E-14  0.00000000000E+00  0.00000000000E+00  0.91188000000E+02  0.91188000000E+02 0.  0.
    9900012    2    3    3    0    0  0.17093393870E+02 -0.58132034618E+01  0.32090536797E+02  0.54367082027E+02  0.39999995097E+02 0.  0.
         12    1    3    3    0    0 -0.17093393870E+02  0.58132034618E+01 -0.32090536797E+02  0.36820917973E+02  0.00000000000E+00 0. -1.
         11    1    4    4    0    0  0.60012094355E+01 -0.32788529509E+00  0.13603048776E+02  0.14871615908E+02  0.51100000000E-03 0. -1.
        -11    1    4    4    0    0  0.21381198921E+02 -0.85473545039E+01  0.77075282383E+01  0.24282070095E+02  0.51100000000E-03 0.  1.
         12    1    4    4    0    0 -0.10289014487E+02  0.30620363372E+01  0.10779959782E+02  0.15213396023E+02  0.00000000000E+00 0. -1.
</event>
<event>
 8    1  0.2971508E-007  0.9118800E+02  0.7816164E-02  0.1184000E+00
        -11   -1    0    0    0    0  0.00000000000E+00  0.00000000000E+00  0.45593999997E+02  0.45594000000E+02  0.51100000000E-03 0.  1.
         11   -1    0    0    0    0 -0.00000000000E+00 -0.00000000000E+00 -0.45593999997E+02  0.45594000000E+02  0.51100000000E-03 0. -1.
         23    2    1    2    0    0 -0.71054273576E-14  0.35527136788E-14  0.00000000000E+00  0.91188000000E+02  0.91188000000E+02 0.  0.
    9900012    2    3    3    0    0  0.28153981084E+02  0.11844426057E+02 -0.20563143242E+02  0.54367082854E+02  0.39999996982E+02 0.  0.
        -12    1    3    3    0    0 -0.28153981084E+02 -0.11844426057E+02  0.20563143242E+02  0.36820917146E+02  0.00000000000E+00 0.  1.
         11    1    4    4    0    0 -0.15313299424E+01  0.15532121875E+01 -0.10596504753E+01  0.24249327584E+01  0.51100000000E-03 0. -1.
        -11    1    4    4    0    0  0.22548937939E+02  0.22285161942E+02 -0.55095652618E+01  0.32178227959E+02  0.51100000000E-03 0.  1.
         12    1    4    4    0    0  0.71363730874E+01 -0.11993948073E+02 -0.13993927505E+02  0.19763922137E+02  0.00000000000E+00 0. -1.
</event>
<event>
 8    1  0.2971508E-007  0.9118800E+02  0.7816164E-02  0.1184000E+00
        -11   -1    0    0    0    0  0.00000000000E+00  0.00000000000E+00  0.45593999997E+02  0.45594000000E+02  0.51100000000E-03 0.  1.
         11   -1    0    0    0    0 -0.00000000000E+00 -0.00000000000E+00 -0.45593999997E+02  0.45594000000E+02  0.51100000000E-03 0. -1.
         23    2    1    2    0    0  0.88817841970E-15  0.00000000000E+00  0.00000000000E+00  0.91188000000E+02  0.91188000000E+02 0.  0.
    9900012    2    3    3    0    0 -0.23763685472E+01  0.29579554421E+02 -0.21798683182E+02  0.54367085349E+02  0.40000002671E+02 0.  0.
         12    1    3    3    0    0  0.23763685472E+01 -0.29579554421E+02  0.21798683182E+02  0.36820914651E+02  0.00000000000E+00 0. -1.
         11    1    4    4    0    0  0.13251321149E+00 -0.57361009867E+01  0.55449371406E+01  0.79791442170E+01  0.51100000000E-03 0. -1.
        -11    1    4    4    0    0  0.39965469647E+01  0.24687292333E+02 -0.18490617551E+02  0.31102053438E+02  0.51100000000E-03 0.  1.
         12    1    4    4    0    0 -0.65054287234E+01  0.10628363075E+02 -0.88530027713E+01  0.15285887694E+02  0.00000000000E+00 0. -1.
</event>
<event>
 8    1  0.2971508E-007  0.9118800E+02  0.7816164E-02  0.1184000E+00
        -11   -1    0    0    0    0  0.00000000000E+00  0.00000000000E+00  0.45593999997E+02  0.45594000000E+02  0.51100000000E-03 0.  1.
         11   -1    0    0    0    0 -0.00000000000E+00 -0.00000000000E+00 -0.45593999997E+02  0.45594000000E+02  0.51100000000E-03 0. -1.
         23    2    1    2    0    0  0.00000000000E+00  0.44408920985E-15  0.35527136788E-14  0.91188000000E+02  0.91188000000E+02 0.  0.
    9900012    2    3    3    0    0  0.30374470111E+02 -0.37294129368E+01  0.20475934144E+02  0.54367070701E+02  0.39999969276E+02 0.  0.
         12    1    3    3    0    0 -0.30374470111E+02  0.37294129368E+01 -0.20475934144E+02  0.36820929299E+02  0.00000000000E+00 0. -1.
         11    1    4    4    0    0  0.22521219039E+02 -0.15025524458E+02  0.85076031204E+01  0.28378706866E+02  0.51100000000E-03 0. -1.
        -11    1    4    4    0    0  0.12539282314E+02  0.74667963366E+01  0.25826187396E+01  0.14820815373E+02  0.51100000000E-03 0.  1.
         12    1    4    4    0    0 -0.46860312421E+01  0.38293151845E+01  0.93857122840E+01  0.11167548462E+02  0.00000000000E+00 0. -1.
</event>
<event>
 8    1  0.2971508E-007  0.9118800E+02  0.7816164E-02  0.1184000E+00
        -11   -1    0    0    0    0  0.00000000000E+00  0.00000000000E+00  0.45593999997E+02  0.45594000000E+02  0.51100000000E-03 0.  1.
         11   -1    0    0    0    0 -0.00000000000E+00 -0.00000000000E+00 -0.45593999997E+02  0.45594000000E+02  0.51100000000E-03 0. -1.
         23    2    1    2    0    0  0.00000000000E+00  0.77715611724E-15 -0.17763568394E-14  0.91188000000E+02  0.91188000000E+02 0.  0.
    9900012    2    3    3    0    0 -0.36447802460E+02 -0.77805467450E+00  0.51698617800E+01  0.54367147972E+02  0.40000145432E+02 0.  0.
         12    1    3    3    0    0  0.36447802460E+02  0.77805467450E+00 -0.51698617800E+01  0.36820852028E+02  0.00000000000E+00 0. -1.
         11    1    4    4    0    0 -0.11532491671E+02  0.17527233047E+01 -0.28651473193E+01  0.12011639045E+02  0.51100000000E-03 0. -1.
        -11    1    4    4    0    0 -0.11057778403E+02 -0.12938718521E+02  0.15929223923E+02  0.23311479474E+02  0.51100000000E-03 0.  1.
         12    1    4    4    0    0 -0.13857532386E+02  0.10407940542E+02 -0.78942148239E+01  0.19044029454E+02  0.00000000000E+00 0. -1.
</event>
<event>
 8    1  0.2971508E-007  0.9118800E+02  0.7816164E-02  0.1184000E+00
        -11   -1    0    0    0    0  0.00000000000E+00  0.00000000000E+00  0.45593999997E+02  0.45594000000E+02  0.51100000000E-03 0.  1.
         11   -1    0    0    0    0 -0.00000000000E+00 -0.00000000000E+00 -0.45593999997E+02  0.45594000000E+02  0.51100000000E-03 0. -1.
         23    2    1    2    0    0  0.00000000000E+00  0.35527136788E-14  0.00000000000E+00  0.91188000000E+02  0.91188000000E+02 0.  0.
    9900012    2    3    3    0    0  0.12461227325E+02 -0.18809435312E+02 -0.29098161723E+02  0.54367081233E+02  0.39999993287E+02 0.  0.
        -12    1    3    3    0    0 -0.12461227325E+02  0.18809435312E+02  0.29098161723E+02  0.36820918767E+02  0.00000000000E+00 0.  1.
         11    1    4    4    0    0  0.16070323003E+02  0.44166119396E+01 -0.10859919699E+02  0.19892199440E+02  0.51100000000E-03 0. -1.
        -11    1    4    4    0    0  0.73860852541E+00 -0.19068883195E+02 -0.20537640527E+02  0.28035023230E+02  0.51100000000E-03 0.  1.
        -12    1    4    4    0    0 -0.43477042029E+01 -0.41571640566E+01  0.22993985032E+01  0.64398585625E+01  0.00000000000E+00 0.  1.
</event>
<event>
 8    1  0.2971508E-007  0.9118800E+02  0.7816164E-02  0.1184000E+00
        -11   -1    0    0    0    0  0.00000000000E+00  0.00000000000E+00  0.45593999997E+02  0.45594000000E+02  0.51100000000E-03 0.  1.
         11   -1    0    0    0    0 -0.00000000000E+00 -0.00000000000E+00 -0.45593999997E+02  0.45594000000E+02  0.51100000000E-03 0. -1.
         23    2    1    2    0    0  0.00000000000E+00  0.00000000000E+00  0.00000000000E+00  0.91188000000E+02  0.91188000000E+02 0.  0.
    9900012    2    3    3    0    0  0.27438318081E+02  0.58240219809E+01  0.23853723375E+02  0.54367073206E+02  0.39999974987E+02 0.  0.
         12    1    3    3    0    0 -0.27438318081E+02 -0.58240219809E+01 -0.23853723375E+02  0.36820926794E+02  0.00000000000E+00 0. -1.
         11    1    4    4    0    0  0.49384335237E+01 -0.58998927890E+01 -0.32539716737E+01  0.83537531987E+01  0.51100000000E-03 0. -1.
        -11    1    4    4    0    0 -0.58376063980E+01  0.36013354960E+01  0.16291359438E+01  0.70499184391E+01  0.51100000000E-03 0.  1.
        -12    1    4    4    0    0  0.28337490955E+02  0.81225792739E+01  0.25478559105E+02  0.38963401568E+02  0.00000000000E+00 0.  1.
</event>
<event>
 8    1  0.2971508E-007  0.9118800E+02  0.7816164E-02  0.1184000E+00
        -11   -1    0    0    0    0  0.00000000000E+00  0.00000000000E+00  0.45593999997E+02  0.45594000000E+02  0.51100000000E-03 0. -1.
         11   -1    0    0    0    0 -0.00000000000E+00 -0.00000000000E+00 -0.45593999997E+02  0.45594000000E+02  0.51100000000E-03 0.  1.
         23    2    1    2    0    0 -0.17763568394E-14  0.35527136788E-14  0.00000000000E+00  0.91188000000E+02  0.91188000000E+02 0.  0.
    9900012    2    3    3    0    0  0.12223980802E+02 -0.29614717217E+02  0.18147276332E+02  0.54367070887E+02  0.39999969701E+02 0.  0.
        -12    1    3    3    0    0 -0.12223980802E+02  0.29614717217E+02 -0.18147276332E+02  0.36820929113E+02  0.00000000000E+00 0.  1.
         11    1    4    4    0    0  0.97609283638E+01  0.36252854157E+01  0.15150216754E+02  0.18383348031E+02  0.51100000000E-03 0.  1.
        -11    1    4    4    0    0 -0.21307484424E+01 -0.15988390635E+02  0.71671414333E+01  0.17650400579E+02  0.51100000000E-03 0. -1.
        -12    1    4    4    0    0  0.45938008804E+01 -0.17251611998E+02 -0.41700818549E+01  0.18333322277E+02  0.00000000000E+00 0.  1.
</event>
<event>
 8    1  0.2971508E-007  0.9118800E+02  0.7816164E-02  0.1184000E+00
        -11   -1    0    0    0    0  0.00000000000E+00  0.00000000000E+00  0.45593999997E+02  0.45594000000E+02  0.51100000000E-03 0.  1.
         11   -1    0    0    0    0 -0.00000000000E+00 -0.00000000000E+00 -0.45593999997E+02  0.45594000000E+02  0.51100000000E-03 0. -1.
         23    2    1    2    0    0 -0.44408920985E-15 -0.71054273576E-14 -0.88817841970E-15  0.91188000000E+02  0.91188000000E+02 0.  0.
    9900012    2    3    3    0    0  0.25376300299E+01 -0.36579601815E+02 -0.33574491617E+01  0.54367091537E+02  0.40000016778E+02 0.  0.
         12    1    3    3    0    0 -0.25376300299E+01  0.36579601815E+02  0.33574491617E+01  0.36820908463E+02  0.00000000000E+00 0. -1.
         11    1    4    4    0    0 -0.61543971179E+01 -0.35860977071E+02  0.56002607454E-01  0.36385291217E+02  0.51100000000E-03 0. -1.
        -11    1    4    4    0    0  0.20115056583E+01 -0.70224702023E+01 -0.47302831115E+01  0.87026904651E+01  0.51100000000E-03 0.  1.
         12    1    4    4    0    0  0.66805214894E+01  0.63038454580E+01  0.13168313424E+01  0.92791098556E+01  0.00000000000E+00 0. -1.
</event>
<event>
 8    1  0.2971508E-007  0.9118800E+02  0.7816164E-02  0.1184000E+00
        -11   -1    0    0    0    0  0.00000000000E+00  0.00000000000E+00  0.45593999997E+02  0.45594000000E+02  0.51100000000E-03 0.  1.
         11   -1    0    0    0    0 -0.00000000000E+00 -0.00000000000E+00 -0.45593999997E+02  0.45594000000E+02  0.51100000000E-03 0. -1.
         23    2    1    2    0    0  0.17763568394E-14 -0.35527136788E-14  0.35527136788E-14  0.91188000000E+02  0.91188000000E+02 0.  0.
    9900012    2    3    3    0    0 -0.11639938621E+02  0.23993036852E+02 -0.25389503050E+02  0.54367070441E+02  0.39999968683E+02 0.  0.
        -12    1    3    3    0    0  0.11639938621E+02 -0.23993036852E+02  0.25389503050E+02  0.36820929559E+02  0.00000000000E+00 0.  1.
         11    1    4    4    0    0 -0.59680739839E+01 -0.10233242204E+02 -0.41987530446E+01  0.12568479640E+02  0.51100000000E-03 0. -1.
        -11    1    4    4    0    0 -0.13884867953E+01  0.19998683540E+02 -0.17198217839E+02  0.26413139458E+02  0.51100000000E-03 0.  1.
        -12    1    4    4    0    0 -0.42833778418E+01  0.14227595516E+02 -0.39925321660E+01  0.15385451342E+02  0.00000000000E+00 0.  1.
</event>
<event>
 8    1  0.2971508E-007  0.9118800E+02  0.7816164E-02  0.1184000E+00
        -11   -1    0    0    0    0  0.00000000000E+00  0.00000000000E+00  0.45593999997E+02  0.45594000000E+02  0.51100000000E-03 0.  1.
         11   -1    0    0    0    0 -0.00000000000E+00 -0.00000000000E+00 -0.45593999997E+02  0.45594000000E+02  0.51100000000E-03 0. -1.
         23    2    1    2    0    0  0.17763568394E-14  0.00000000000E+00  0.17763568394E-14  0.91188000000E+02  0.91188000000E+02 0.  0.
    9900012    2    3    3    0    0 -0.14940514157E+02  0.33094852059E+02 -0.61067101357E+01  0.54367080610E+02  0.39999991867E+02 0.  0.
        -12    1    3    3    0    0  0.14940514157E+02 -0.33094852059E+02  0.61067101357E+01  0.36820919390E+02  0.00000000000E+00 0.  1.
         11    1    4    4    0    0 -0.12136115384E+02  0.21547382368E+02 -0.76327241695E+01  0.25881141049E+02  0.51100000000E-03 0. -1.
        -11    1    4    4    0    0  0.63400284053E+01  0.25219859543E+01 -0.94032358881E+01  0.11617969649E+02  0.51100000000E-03 0.  1.
         12    1    4    4    0    0 -0.91444271776E+01  0.90254837368E+01  0.10929249922E+02  0.16867969912E+02  0.00000000000E+00 0. -1.
</event>
<event>
 8    1  0.2971508E-007  0.9118800E+02  0.7816164E-02  0.1184000E+00
        -11   -1    0    0    0    0  0.00000000000E+00  0.00000000000E+00  0.45593999997E+02  0.45594000000E+02  0.51100000000E-03 0. -1.
         11   -1    0    0    0    0 -0.00000000000E+00 -0.00000000000E+00 -0.45593999997E+02  0.45594000000E+02  0.51100000000E-03 0.  1.
         23    2    1    2    0    0  0.17763568394E-14  0.71054273576E-14  0.00000000000E+00  0.91188000000E+02  0.91188000000E+02 0.  0.
    9900012    2    3    3    0    0 -0.12413727637E+02  0.22756654588E+02 -0.26149844088E+02  0.54367077853E+02  0.39999985583E+02 0.  0.
         12    1    3    3    0    0  0.12413727637E+02 -0.22756654588E+02  0.26149844088E+02  0.36820922147E+02  0.00000000000E+00 0. -1.
         11    1    4    4    0    0 -0.95898219368E+01  0.20957198800E+02 -0.34758286009E+01  0.23307729427E+02  0.51100000000E-03 0. -1.
        -11    1    4    4    0    0  0.32053716967E+01  0.23873253255E+01  0.27967723502E+01  0.48780801310E+01  0.51100000000E-03 0.  1.
        -12    1    4    4    0    0 -0.60292773967E+01 -0.58786953678E+00 -0.25470787837E+02  0.26181268296E+02  0.00000000000E+00 0.  1.
</event>
<event>
 8    1  0.2971508E-007  0.9118800E+02  0.7816164E-02  0.1184000E+00
        -11   -1    0    0    0    0  0.00000000000E+00  0.00000000000E+00  0.45593999997E+02  0.45594000000E+02  0.51100000000E-03 0. -1.
         11   -1    0    0    0    0 -0.00000000000E+00 -0.00000000000E+00 -0.45593999997E+02  0.45594000000E+02  0.51100000000E-03 0.  1.
         23    2    1    2    0    0 -0.35527136788E-14 -0.35527136788E-14  0.00000000000E+00  0.91188000000E+02  0.91188000000E+02 0.  0.
    9900012    2    3    3    0    0 -0.24107089868E+02 -0.17315500678E+02 -0.21789939427E+02  0.54367084668E+02  0.40000001119E+02 0.  0.
         12    1    3    3    0    0  0.24107089868E+02  0.17315500678E+02  0.21789939427E+02  0.36820915332E+02  0.00000000000E+00 0. -1.
         11    1    4    4    0    0  0.27163530497E+01 -0.93657227616E+01  0.80710550738E+01  0.12658485968E+02  0.51100000000E-03 0. -1.
        -11    1    4    4    0    0 -0.14625646166E+02 -0.34154910282E+01 -0.21551287353E+02  0.26268480953E+02  0.51100000000E-03 0.  1.
        -12    1    4    4    0    0 -0.12197796751E+02 -0.45342868880E+01 -0.83097071479E+01  0.15440117747E+02  0.00000000000E+00 0.  1.
</event>
<event>
 8    1  0.2971508E-007  0.9118800E+02  0.7816164E-02  0.1184000E+00
        -11   -1    0    0    0    0  0.00000000000E+00  0.00000000000E+00  0.45593999997E+02  0.45594000000E+02  0.51100000000E-03 0. -1.
         11   -1    0    0    0    0 -0.00000000000E+00 -0.00000000000E+00 -0.45593999997E+02  0.45594000000E+02  0.51100000000E-03 0.  1.
         23    2    1    2    0    0  0.00000000000E+00  0.00000000000E+00  0.00000000000E+00  0.91188000000E+02  0.91188000000E+02 0.  0.
    9900012    2    3    3    0    0 -0.20336833252E+02 -0.18013562782E+02 -0.24853710368E+02  0.54367052839E+02  0.39999928557E+02 0.  0.
         12    1    3    3    0    0  0.20336833252E+02  0.18013562782E+02  0.24853710368E+02  0.36820947161E+02  0.00000000000E+00 0. -1.
         11    1    4    4    0    0 -0.47324044250E+01 -0.61307532375E+00 -0.13610208096E+02  0.14422526744E+02  0.51100000000E-03 0.  1.
        -11    1    4    4    0    0 -0.79879728671E+01  0.48134102726E+01  0.57511508031E+01  0.10956841005E+02  0.51100000000E-03 0. -1.
        -12    1    4    4    0    0 -0.76164559595E+01 -0.22213897731E+02 -0.16994653075E+02  0.28987685091E+02  0.00000000000E+00 0.  1.
</event>
<event>
 8    1  0.2971508E-007  0.9118800E+02  0.7816164E-02  0.1184000E+00
        -11   -1    0    0    0    0  0.00000000000E+00  0.00000000000E+00  0.45593999997E+02  0.45594000000E+02  0.51100000000E-03 0. -1.
         11   -1    0    0    0    0 -0.00000000000E+00 -0.00000000000E+00 -0.45593999997E+02  0.45594000000E+02  0.51100000000E-03 0.  1.
         23    2    1    2    0    0  0.17763568394E-14  0.00000000000E+00  0.71054273576E-14  0.91188000000E+02  0.91188000000E+02 0.  0.
    9900012    2    3    3    0    0 -0.11426547776E+02 -0.48732017531E+01 -0.34662172490E+02  0.54367078079E+02  0.39999986096E+02 0.  0.
         12    1    3    3    0    0  0.11426547776E+02  0.48732017531E+01  0.34662172490E+02  0.36820921921E+02  0.00000000000E+00 0. -1.
         11    1    4    4    0    0 -0.18347457510E+02  0.86456281161E+01 -0.22901060707E+02  0.30591414880E+02  0.51100000000E-03 0. -1.
        -11    1    4    4    0    0  0.69088971092E+00  0.22172425721E+01 -0.50699005955E+01  0.55765029835E+01  0.51100000000E-03 0.  1.
         12    1    4    4    0    0  0.62300200234E+01 -0.15736072441E+02 -0.66912111875E+01  0.18199160215E+02  0.00000000000E+00 0. -1.
</event>
<event>
 8    1  0.2971508E-007  0.9118800E+02  0.7816164E-02  0.1184000E+00
        -11   -1    0    0    0    0  0.00000000000E+00  0.00000000000E+00  0.45593999997E+02  0.45594000000E+02  0.51100000000E-03 0.  1.
         11   -1    0    0    0    0 -0.00000000000E+00 -0.00000000000E+00 -0.45593999997E+02  0.45594000000E+02  0.51100000000E-03 0. -1.
         23    2    1    2    0    0  0.00000000000E+00 -0.88817841970E-15  0.00000000000E+00  0.91188000000E+02  0.91188000000E+02 0.  0.
    9900012    2    3    3    0    0 -0.17590272384E+02  0.31808433822E+01 -0.32190685423E+02  0.54367140760E+02  0.40000128990E+02 0.  0.
        -12    1    3    3    0    0  0.17590272384E+02 -0.31808433822E+01  0.32190685423E+02  0.36820859240E+02  0.00000000000E+00 0.  1.
         11    1    4    4    0    0  0.15229805950E+01  0.94875102441E+01  0.36213099181E+01  0.10268700322E+02  0.51100000000E-03 0. -1.
        -11    1    4    4    0    0 -0.90087654118E+01 -0.95864065019E+01 -0.11146424879E+02  0.17242384746E+02  0.51100000000E-03 0.  1.
         12    1    4    4    0    0 -0.10104487567E+02  0.32797396400E+01 -0.24665570462E+02  0.26856055692E+02  0.00000000000E+00 0. -1.
</event>
<event>
 8    1  0.2971508E-007  0.9118800E+02  0.7816164E-02  0.1184000E+00
        -11   -1    0    0    0    0  0.00000000000E+00  0.00000000000E+00  0.45593999997E+02  0.45594000000E+02  0.51100000000E-03 0.  1.
         11   -1    0    0    0    0 -0.00000000000E+00 -0.00000000000E+00 -0.45593999997E+02  0.45594000000E+02  0.51100000000E-03 0. -1.
         23    2    1    2    0    0  0.35527136788E-14 -0.22204460493E-15  0.00000000000E+00  0.91188000000E+02  0.91188000000E+02 0.  0.
    9900012    2    3    3    0    0  0.25913306023E+02 -0.14166169247E+01 -0.26120381121E+02  0.54367074666E+02  0.39999978316E+02 0.  0.
        -12    1    3    3    0    0 -0.25913306023E+02  0.14166169247E+01  0.26120381121E+02  0.36820925334E+02  0.00000000000E+00 0.  1.
         11    1    4    4    0    0 -0.46673683896E+01  0.53845300053E+01  0.37666925135E+01  0.80601156204E+01  0.51100000000E-03 0. -1.
        -11    1    4    4    0    0  0.48602123541E+01  0.28655781456E+01  0.89352571364E-01  0.56427995160E+01  0.51100000000E-03 0.  1.
         12    1    4    4    0    0  0.25720462058E+02 -0.96667250755E+01 -0.29976426206E+02  0.40664159530E+02  0.00000000000E+00 0. -1.
</event>
<event>
 8    1  0.2971508E-007  0.9118800E+02  0.7816164E-02  0.1184000E+00
        -11   -1    0    0    0    0  0.00000000000E+00  0.00000000000E+00  0.45593999997E+02  0.45594000000E+02  0.51100000000E-03 0.  1.
         11   -1    0    0    0    0 -0.00000000000E+00 -0.00000000000E+00 -0.45593999997E+02  0.45594000000E+02  0.51100000000E-03 0. -1.
         23    2    1    2    0    0  0.00000000000E+00 -0.17763568394E-14  0.00000000000E+00  0.91188000000E+02  0.91188000000E+02 0.  0.
    9900012    2    3    3    0    0 -0.25780316952E+02  0.14002031939E+02 -0.22251106424E+02  0.54366900375E+02  0.39999580982E+02 0.  0.
        -12    1    3    3    0    0  0.25780316952E+02 -0.14002031939E+02  0.22251106424E+02  0.36821099625E+02  0.00000000000E+00 0.  1.
         11    1    4    4    0    0  0.70997033232E+00  0.83696548987E+01 -0.16692768994E+02  0.18686993283E+02  0.51100000000E-03 0. -1.
        -11    1    4    4    0    0 -0.22235871877E+02  0.51752235300E+01 -0.13597651785E+02  0.26572788168E+02  0.51100000000E-03 0.  1.
         12    1    4    4    0    0 -0.42544154070E+01  0.45715351029E+00  0.80393143551E+01  0.91071189235E+01  0.00000000000E+00 0. -1.
</event>
<event>
 8    1  0.2971508E-007  0.9118800E+02  0.7816164E-02  0.1184000E+00
        -11   -1    0    0    0    0  0.00000000000E+00  0.00000000000E+00  0.45593999997E+02  0.45594000000E+02  0.51100000000E-03 0.  1.
         11   -1    0    0    0    0 -0.00000000000E+00 -0.00000000000E+00 -0.45593999997E+02  0.45594000000E+02  0.51100000000E-03 0. -1.
         23    2    1    2    0    0  0.00000000000E+00 -0.35527136788E-14  0.00000000000E+00  0.91188000000E+02  0.91188000000E+02 0.  0.
    9900012    2    3    3    0    0 -0.69973608216E+01 -0.26847144407E+02 -0.24208423356E+02  0.54367082268E+02  0.39999995646E+02 0.  0.
        -12    1    3    3    0    0  0.69973608216E+01  0.26847144407E+02  0.24208423356E+02  0.36820917732E+02  0.00000000000E+00 0.  1.
         11    1    4    4    0    0 -0.59868130716E+00 -0.25879885567E+02  0.10283654360E+01  0.25907227409E+02  0.51100000000E-03 0. -1.
        -11    1    4    4    0    0 -0.72412407111E+00  0.29779577686E+01 -0.94962378811E+00  0.32084846489E+01  0.51100000000E-03 0.  1.
         12    1    4    4    0    0 -0.56745554434E+01 -0.39452166081E+01 -0.24287165004E+02  0.25251370210E+02  0.00000000000E+00 0. -1.
</event>
<event>
 8    1  0.2971508E-007  0.9118800E+02  0.7816164E-02  0.1184000E+00
        -11   -1    0    0    0    0  0.00000000000E+00  0.00000000000E+00  0.45593999997E+02  0.45594000000E+02  0.51100000000E-03 0.  1.
         11   -1    0    0    0    0 -0.00000000000E+00 -0.00000000000E+00 -0.45593999997E+02  0.45594000000E+02  0.51100000000E-03 0. -1.
         23    2    1    2    0    0 -0.12698175844E-14  0.71054273576E-14  0.35527136788E-14  0.91188000000E+02  0.91188000000E+02 0.  0.
    9900012    2    3    3    0    0  0.47757354332E-01  0.32438814326E+02 -0.17421257880E+02  0.54367093144E+02  0.40000020439E+02 0.  0.
        -12    1    3    3    0    0 -0.47757354332E-01 -0.32438814326E+02  0.17421257880E+02  0.36820906856E+02  0.00000000000E+00 0.  1.
         11    1    4    4    0    0  0.23805861235E+01  0.38491765633E+01  0.90610471893E+01  0.10128471105E+02  0.51100000000E-03 0.  1.
        -11    1    4    4    0    0 -0.81347208235E+01  0.28034786073E+02 -0.24411945470E+02  0.38053462325E+02  0.51100000000E-03 0. -1.
         12    1    4    4    0    0  0.58018920543E+01  0.55485168929E+00 -0.20703595989E+01  0.61851597131E+01  0.00000000000E+00 0. -1.
</event>
<event>
 8    1  0.2971508E-007  0.9118800E+02  0.7816164E-02  0.1184000E+00
        -11   -1    0    0    0    0  0.00000000000E+00  0.00000000000E+00  0.45593999997E+02  0.45594000000E+02  0.51100000000E-03 0. -1.
         11   -1    0    0    0    0 -0.00000000000E+00 -0.00000000000E+00 -0.45593999997E+02  0.45594000000E+02  0.51100000000E-03 0.  1.
         23    2    1    2    0    0  0.44408920985E-15 -0.88817841970E-15  0.71054273576E-14  0.91188000000E+02  0.91188000000E+02 0.  0.
    9900012    2    3    3    0    0  0.16838462626E+01  0.61498659616E+01  0.36264636356E+02  0.54367081494E+02  0.39999993882E+02 0.  0.
        -12    1    3    3    0    0 -0.16838462626E+01 -0.61498659616E+01 -0.36264636356E+02  0.36820918506E+02  0.00000000000E+00 0.  1.
         11    1    4    4    0    0  0.17058812292E+02  0.10146807966E+02  0.16023963360E+02  0.25509374565E+02  0.51100000000E-03 0. -1.
        -11    1    4    4    0    0 -0.84498147159E+01 -0.82235012220E+01  0.82907487759E+01  0.14413946601E+02  0.51100000000E-03 0.  1.
         12    1    4    4    0    0 -0.69251513133E+01  0.42265592178E+01  0.11949924220E+02  0.14443760328E+02  0.00000000000E+00 0. -1.
</event>
<event>
 8    1  0.2971508E-007  0.9118800E+02  0.7816164E-02  0.1184000E+00
        -11   -1    0    0    0    0  0.00000000000E+00  0.00000000000E+00  0.45593999997E+02  0.45594000000E+02  0.51100000000E-03 0.  1.
         11   -1    0    0    0    0 -0.00000000000E+00 -0.00000000000E+00 -0.45593999997E+02  0.45594000000E+02  0.51100000000E-03 0. -1.
         23    2    1    2    0    0  0.14988010832E-14  0.00000000000E+00 -0.22204460493E-15  0.91188000000E+02  0.91188000000E+02 0.  0.
    9900012    2    3    3    0    0  0.19773230076E+00  0.36766448958E+02  0.19914613188E+01  0.54367125686E+02  0.40000094627E+02 0.  0.
        -12    1    3    3    0    0 -0.19773230076E+00 -0.36766448958E+02 -0.19914613188E+01  0.36820874314E+02  0.00000000000E+00 0.  1.
         11    1    4    4    0    0 -0.15939708717E+02  0.20009527578E+02 -0.27189680531E+01  0.25726412408E+02  0.51100000000E-03 0. -1.
        -11    1    4    4    0    0 -0.11056985029E+01  0.23548163783E+01  0.55807347697E+01  0.61572989359E+01  0.51100000000E-03 0.  1.
         12    1    4    4    0    0  0.17243139520E+02  0.14402105002E+02 -0.87030539780E+00  0.22483414342E+02  0.00000000000E+00 0. -1.
</event>
<event>
 8    1  0.2971508E-007  0.9118800E+02  0.7816164E-02  0.1184000E+00
        -11   -1    0    0    0    0  0.00000000000E+00  0.00000000000E+00  0.45593999997E+02  0.45594000000E+02  0.51100000000E-03 0.  1.
         11   -1    0    0    0    0 -0.00000000000E+00 -0.00000000000E+00 -0.45593999997E+02  0.45594000000E+02  0.51100000000E-03 0. -1.
         23    2    1    2    0    0  0.88817841970E-15  0.00000000000E+00  0.00000000000E+00  0.91188000000E+02  0.91188000000E+02 0.  0.
    9900012    2    3    3    0    0  0.76947720241E+01 -0.19428719264E+02 -0.30316587785E+02  0.54367080081E+02  0.39999990661E+02 0.  0.
        -12    1    3    3    0    0 -0.76947720241E+01  0.19428719264E+02  0.30316587785E+02  0.36820919919E+02  0.00000000000E+00 0.  1.
         11    1    4    4    0    0  0.12961190835E+02 -0.18760789149E+00 -0.43155439226E+01  0.13662049048E+02  0.51100000000E-03 0. -1.
        -11    1    4    4    0    0 -0.44846217801E+01 -0.50272865005E+01  0.37596795324E+01  0.77149616017E+01  0.51100000000E-03 0.  1.
         12    1    4    4    0    0 -0.78179703065E+00 -0.14213824872E+02 -0.29760723395E+02  0.32990069431E+02  0.00000000000E+00 0. -1.
</event>
<event>
 8    1  0.2971508E-007  0.9118800E+02  0.7816164E-02  0.1184000E+00
        -11   -1    0    0    0    0  0.00000000000E+00  0.00000000000E+00  0.45593999997E+02  0.45594000000E+02  0.51100000000E-03 0. -1.
         11   -1    0    0    0    0 -0.00000000000E+00 -0.00000000000E+00 -0.45593999997E+02  0.45594000000E+02  0.51100000000E-03 0.  1.
         23    2    1    2    0    0  0.00000000000E+00  0.00000000000E+00  0.00000000000E+00  0.91188000000E+02  0.91188000000E+02 0.  0.
    9900012    2    3    3    0    0 -0.18034574786E+02  0.32025143865E+02 -0.22189939997E+01  0.54367086626E+02  0.40000005582E+02 0.  0.
         12    1    3    3    0    0  0.18034574786E+02 -0.32025143865E+02  0.22189939997E+01  0.36820913374E+02  0.00000000000E+00 0. -1.
         11    1    4    4    0    0 -0.73824776562E+01 -0.20282860917E+01 -0.65651286956E+01  0.10085426905E+02  0.51100000000E-03 0. -1.
        -11    1    4    4    0    0  0.25384086540E+00 -0.23367452357E+01  0.58066350521E+01  0.62643295229E+01  0.51100000000E-03 0.  1.
        -12    1    4    4    0    0 -0.10905937995E+02  0.36390175193E+02 -0.14605003562E+01  0.38017330198E+02  0.00000000000E+00 0.  1.
</event>
<event>
 8    1  0.2971508E-007  0.9118800E+02  0.7816164E-02  0.1184000E+00
        -11   -1    0    0    0    0  0.00000000000E+00  0.00000000000E+00  0.45593999997E+02  0.45594000000E+02  0.51100000000E-03 0. -1.
         11   -1    0    0    0    0 -0.00000000000E+00 -0.00000000000E+00 -0.45593999997E+02  0.45594000000E+02  0.51100000000E-03 0.  1.
         23    2    1    2    0    0  0.35527136788E-14 -0.35527136788E-14  0.00000000000E+00  0.91188000000E+02  0.91188000000E+02 0.  0.
    9900012    2    3    3    0    0  0.25985695000E+02  0.19263776758E+02 -0.17590566138E+02  0.54367116568E+02  0.40000073841E+02 0.  0.
         12    1    3    3    0    0 -0.25985695000E+02 -0.19263776758E+02  0.17590566138E+02  0.36820883432E+02  0.00000000000E+00 0. -1.
         11    1    4    4    0    0  0.11349410976E+02 -0.58821311253E+01 -0.91653369298E+01  0.15729335567E+02  0.51100000000E-03 0.  1.
        -11    1    4    4    0    0 -0.76494404503E-01  0.21049820631E+02  0.29347073340E+00  0.21052005257E+02  0.51100000000E-03 0. -1.
         12    1    4    4    0    0  0.14712778429E+02  0.40960872519E+01 -0.87186999414E+01  0.17585775744E+02  0.00000000000E+00 0. -1.
</event>
<event>
 8    1  0.2971508E-007  0.9118800E+02  0.7816164E-02  0.1184000E+00
        -11   -1    0    0    0    0  0.00000000000E+00  0.00000000000E+00  0.45593999997E+02  0.45594000000E+02  0.51100000000E-03 0.  1.
         11   -1    0    0    0    0 -0.00000000000E+00 -0.00000000000E+00 -0.45593999997E+02  0.45594000000E+02  0.51100000000E-03 0. -1.
         23    2    1    2    0    0  0.35527136788E-14  0.35527136788E-14  0.00000000000E+00  0.91188000000E+02  0.91188000000E+02 0.  0.
    9900012    2    3    3    0    0 -0.17680873058E+02 -0.31929260447E+02  0.48670647572E+01  0.54367092025E+02  0.40000017888E+02 0.  0.
        -12    1    3    3    0    0  0.17680873058E+02  0.31929260447E+02 -0.48670647572E+01  0.36820907975E+02  0.00000000000E+00 0.  1.
         11    1    4    4    0    0  0.17643640754E+01 -0.24205483646E+02  0.14752266595E+01  0.24314495945E+02  0.51100000000E-03 0. -1.
        -11    1    4    4    0    0 -0.20702373993E+02 -0.16096215522E+01 -0.31592808466E+01  0.21003814564E+02  0.51100000000E-03 0.  1.
        -12    1    4    4    0    0  0.12571368600E+01 -0.61141552491E+01  0.65511189442E+01  0.90487815156E+01  0.00000000000E+00 0.  1.
</event>
<event>
 8    1  0.2971508E-007  0.9118800E+02  0.7816164E-02  0.1184000E+00
        -11   -1    0    0    0    0  0.00000000000E+00  0.00000000000E+00  0.45593999997E+02  0.45594000000E+02  0.51100000000E-03 0.  1.
         11   -1    0    0    0    0 -0.00000000000E+00 -0.00000000000E+00 -0.45593999997E+02  0.45594000000E+02  0.51100000000E-03 0. -1.
         23    2    1    2    0    0 -0.88817841970E-15  0.00000000000E+00 -0.44408920985E-15  0.91188000000E+02  0.91188000000E+02 0.  0.
    9900012    2    3    3    0    0 -0.76829157891E+01  0.35809419196E+02 -0.37996061544E+01  0.54367099615E+02  0.40000035193E+02 0.  0.
        -12    1    3    3    0    0  0.76829157891E+01 -0.35809419196E+02  0.37996061544E+01  0.36820900385E+02  0.00000000000E+00 0.  1.
         11    1    4    4    0    0  0.37868654544E+01 -0.79508162000E+00  0.17805235009E+01  0.42594329377E+01  0.51100000000E-03 0.  1.
        -11    1    4    4    0    0 -0.10807456957E+02  0.41926355174E+02 -0.83143526739E+01  0.44087967119E+02  0.51100000000E-03 0. -1.
         12    1    4    4    0    0 -0.66232428636E+00 -0.53218543574E+01  0.27342230186E+01  0.60196995587E+01  0.00000000000E+00 0. -1.
</event>
<event>
 8    1  0.2971508E-007  0.9118800E+02  0.7816164E-02  0.1184000E+00
        -11   -1    0    0    0    0  0.00000000000E+00  0.00000000000E+00  0.45593999997E+02  0.45594000000E+02  0.51100000000E-03 0. -1.
         11   -1    0    0    0    0 -0.00000000000E+00 -0.00000000000E+00 -0.45593999997E+02  0.45594000000E+02  0.51100000000E-03 0.  1.
         23    2    1    2    0    0  0.71054273576E-14  0.00000000000E+00 -0.17763568394E-14  0.91188000000E+02  0.91188000000E+02 0.  0.
    9900012    2    3    3    0    0 -0.32314833151E+02  0.13988217152E+02  0.10764040987E+02  0.54367038049E+02  0.39999894839E+02 0.  0.
         12    1    3    3    0    0  0.32314833151E+02 -0.13988217152E+02 -0.10764040987E+02  0.36820961951E+02  0.00000000000E+00 0. -1.
         11    1    4    4    0    0 -0.48053562995E+01 -0.12291875249E+02  0.58084099163E+01  0.14419406101E+02  0.51100000000E-03 0. -1.
        -11    1    4    4    0    0 -0.24455948379E+02  0.19023543663E+02  0.71025002238E+01  0.31787326630E+02  0.51100000000E-03 0.  1.
        -12    1    4    4    0    0 -0.30535284721E+01  0.72565487378E+01 -0.21468691529E+01  0.81603053174E+01  0.00000000000E+00 0.  1.
</event>
<event>
 8    1  0.2971508E-007  0.9118800E+02  0.7816164E-02  0.1184000E+00
        -11   -1    0    0    0    0  0.00000000000E+00  0.00000000000E+00  0.45593999997E+02  0.45594000000E+02  0.51100000000E-03 0.  1.
         11   -1    0    0    0    0 -0.00000000000E+00 -0.00000000000E+00 -0.45593999997E+02  0.45594000000E+02  0.51100000000E-03 0. -1.
         23    2    1    2    0    0  0.88817841970E-15  0.35527136788E-14  0.00000000000E+00  0.91188000000E+02  0.91188000000E+02 0.  0.
    9900012    2    3    3    0    0  0.46668151064E+01  0.30919995042E+02 -0.19441020307E+02  0.54367102031E+02  0.40000040700E+02 0.  0.
        -12    1    3    3    0    0 -0.46668151064E+01 -0.30919995042E+02  0.19441020307E+02  0.36820897969E+02  0.00000000000E+00 0.  1.
         11    1    4    4    0    0  0.56830165320E+01  0.26827041598E+02 -0.25528820459E+02  0.37466084825E+02  0.51100000000E-03 0. -1.
        -11    1    4    4    0    0  0.31568704601E+01 -0.49094291905E+01  0.20098828758E+01  0.61731641412E+01  0.51100000000E-03 0.  1.
         12    1    4    4    0    0 -0.41730718856E+01  0.90023826351E+01  0.40779172762E+01  0.10727853065E+02  0.00000000000E+00 0. -1.
</event>
<event>
 8    1  0.2971508E-007  0.9118800E+02  0.7816164E-02  0.1184000E+00
        -11   -1    0    0    0    0  0.00000000000E+00  0.00000000000E+00  0.45593999997E+02  0.45594000000E+02  0.51100000000E-03 0.  1.
         11   -1    0    0    0    0 -0.00000000000E+00 -0.00000000000E+00 -0.45593999997E+02  0.45594000000E+02  0.51100000000E-03 0. -1.
         23    2    1    2    0    0  0.00000000000E+00 -0.17763568394E-14  0.00000000000E+00  0.91188000000E+02  0.91188000000E+02 0.  0.
    9900012    2    3    3    0    0  0.30942997012E+02  0.98126474317E+01 -0.17378814620E+02  0.54367077805E+02  0.39999985471E+02 0.  0.
        -12    1    3    3    0    0 -0.30942997012E+02 -0.98126474317E+01  0.17378814620E+02  0.36820922195E+02  0.00000000000E+00 0.  1.
         11    1    4    4    0    0  0.17924078598E+00  0.78065120591E+01 -0.27274495804E+01  0.82711993848E+01  0.51100000000E-03 0. -1.
        -11    1    4    4    0    0  0.10671759377E+02  0.15978535669E+02 -0.57859547919E+01  0.20066821458E+02  0.51100000000E-03 0.  1.
        -12    1    4    4    0    0  0.20091996850E+02 -0.13972400296E+02 -0.88654102479E+01  0.26029056962E+02  0.00000000000E+00 0.  1.
</event>
<event>
 8    1  0.2971508E-007  0.9118800E+02  0.7816164E-02  0.1184000E+00
        -11   -1    0    0    0    0  0.00000000000E+00  0.00000000000E+00  0.45593999997E+02  0.45594000000E+02  0.51100000000E-03 0. -1.
         11   -1    0    0    0    0 -0.00000000000E+00 -0.00000000000E+00 -0.45593999997E+02  0.45594000000E+02  0.51100000000E-03 0.  1.
         23    2    1    2    0    0 -0.88817841970E-15 -0.88817841970E-15  0.71054273576E-14  0.91188000000E+02  0.91188000000E+02 0.  0.
    9900012    2    3    3    0    0  0.46133242338E+01 -0.17417180129E+01 -0.36489228475E+02  0.54367080174E+02  0.39999990872E+02 0.  0.
         12    1    3    3    0    0 -0.46133242338E+01  0.17417180129E+01  0.36489228475E+02  0.36820919826E+02  0.00000000000E+00 0. -1.
         11    1    4    4    0    0  0.17842982996E+01 -0.12857473644E+02 -0.16364943792E+02  0.20888028497E+02  0.51100000000E-03 0.  1.
        -11    1    4    4    0    0  0.11170071519E+02  0.13635711598E+02 -0.10591799232E+02  0.20564273382E+02  0.51100000000E-03 0. -1.
        -12    1    4    4    0    0 -0.83410455843E+01 -0.25199559674E+01 -0.95324854508E+01  0.12914778294E+02  0.00000000000E+00 0.  1.
</event>
<event>
 8    1  0.2971508E-007  0.9118800E+02  0.7816164E-02  0.1184000E+00
        -11   -1    0    0    0    0  0.00000000000E+00  0.00000000000E+00  0.45593999997E+02  0.45594000000E+02  0.51100000000E-03 0. -1.
         11   -1    0    0    0    0 -0.00000000000E+00 -0.00000000000E+00 -0.45593999997E+02  0.45594000000E+02  0.51100000000E-03 0.  1.
         23    2    1    2    0    0 -0.35527136788E-14  0.00000000000E+00  0.00000000000E+00  0.91188000000E+02  0.91188000000E+02 0.  0.
    9900012    2    3    3    0    0  0.16399815788E+02 -0.10590880183E+02 -0.31219538851E+02  0.54367077864E+02  0.39999985606E+02 0.  0.
         12    1    3    3    0    0 -0.16399815788E+02  0.10590880183E+02  0.31219538851E+02  0.36820922136E+02  0.00000000000E+00 0. -1.
         11    1    4    4    0    0  0.70350167341E+01 -0.60181515760E+01 -0.13559308637E+02  0.16418418310E+02  0.51100000000E-03 0. -1.
        -11    1    4    4    0    0 -0.12416246990E+01 -0.16658234162E+02 -0.13118464876E+02  0.21239880373E+02  0.51100000000E-03 0.  1.
        -12    1    4    4    0    0  0.10606423753E+02  0.12085505555E+02 -0.45417653379E+01  0.16708779181E+02  0.00000000000E+00 0.  1.
</event>
<event>
 8    1  0.2971508E-007  0.9118800E+02  0.7816164E-02  0.1184000E+00
        -11   -1    0    0    0    0  0.00000000000E+00  0.00000000000E+00  0.45593999997E+02  0.45594000000E+02  0.51100000000E-03 0.  1.
         11   -1    0    0    0    0 -0.00000000000E+00 -0.00000000000E+00 -0.45593999997E+02  0.45594000000E+02  0.51100000000E-03 0. -1.
         23    2    1    2    0    0  0.17763568394E-14  0.00000000000E+00  0.35527136788E-14  0.91188000000E+02  0.91188000000E+02 0.  0.
    9900012    2    3    3    0    0 -0.99949927175E+01 -0.17054977823E+02  0.31064563781E+02  0.54367091933E+02  0.40000017679E+02 0.  0.
         12    1    3    3    0    0  0.99949927175E+01  0.17054977823E+02 -0.31064563781E+02  0.36820908067E+02  0.00000000000E+00 0. -1.
         11    1    4    4    0    0  0.15933098400E+01  0.34480688197E+01  0.15897732529E+01  0.41176685258E+01  0.51100000000E-03 0. -1.
        -11    1    4    4    0    0 -0.85197843268E+01 -0.14810681541E+02 -0.28165474798E+01  0.17316926767E+02  0.51100000000E-03 0.  1.
         12    1    4    4    0    0 -0.30685182307E+01 -0.56923651014E+01  0.32291338008E+02  0.32932496640E+02  0.00000000000E+00 0. -1.
</event>
<event>
 8    1  0.2971508E-007  0.9118800E+02  0.7816164E-02  0.1184000E+00
        -11   -1    0    0    0    0  0.00000000000E+00  0.00000000000E+00  0.45593999997E+02  0.45594000000E+02  0.51100000000E-03 0.  1.
         11   -1    0    0    0    0 -0.00000000000E+00 -0.00000000000E+00 -0.45593999997E+02  0.45594000000E+02  0.51100000000E-03 0. -1.
         23    2    1    2    0    0  0.00000000000E+00  0.00000000000E+00  0.17763568394E-14  0.91188000000E+02  0.91188000000E+02 0.  0.
    9900012    2    3    3    0    0 -0.32575006517E+02 -0.15901171293E+02 -0.64653447068E+01  0.54367095879E+02  0.40000026676E+02 0.  0.
        -12    1    3    3    0    0  0.32575006517E+02  0.15901171293E+02  0.64653447068E+01  0.36820904121E+02  0.00000000000E+00 0.  1.
         11    1    4    4    0    0 -0.32596448928E+02  0.20689012280E+01 -0.11749735283E+02  0.34711167000E+02  0.51100000000E-03 0. -1.
        -11    1    4    4    0    0  0.32734407801E+00 -0.83559274302E+01 -0.59316951617E+00  0.83833482392E+01  0.51100000000E-03 0.  1.
         12    1    4    4    0    0 -0.30590166729E+00 -0.96141450908E+01  0.58775600923E+01  0.11272580640E+02  0.00000000000E+00 0. -1.
</event>
<event>
 8    1  0.2971508E-007  0.9118800E+02  0.7816164E-02  0.1184000E+00
        -11   -1    0    0    0    0  0.00000000000E+00  0.00000000000E+00  0.45593999997E+02  0.45594000000E+02  0.51100000000E-03 0.  1.
         11   -1    0    0    0    0 -0.00000000000E+00 -0.00000000000E+00 -0.45593999997E+02  0.45594000000E+02  0.51100000000E-03 0. -1.
         23    2    1    2    0    0  0.00000000000E+00  0.35527136788E-14  0.35527136788E-14  0.91188000000E+02  0.91188000000E+02 0.  0.
    9900012    2    3    3    0    0 -0.18323382465E+02  0.26982923385E+02  0.17086703772E+02  0.54367082777E+02  0.39999996806E+02 0.  0.
         12    1    3    3    0    0  0.18323382465E+02 -0.26982923385E+02 -0.17086703772E+02  0.36820917223E+02  0.00000000000E+00 0. -1.
         11    1    4    4    0    0 -0.10201829786E+02  0.13732151119E+02  0.26030040502E+02  0.31148231316E+02  0.51100000000E-03 0.  1.
        -11    1    4    4    0    0 -0.41768781814E+01  0.15280350152E+02 -0.35470901598E+01  0.16233214745E+02  0.51100000000E-03 0. -1.
        -12    1    4    4    0    0 -0.39446744976E+01 -0.20295778851E+01 -0.53962465694E+01  0.69856367155E+01  0.00000000000E+00 0.  1.
</event>
<event>
 8    1  0.2971508E-007  0.9118800E+02  0.7816164E-02  0.1184000E+00
        -11   -1    0    0    0    0  0.00000000000E+00  0.00000000000E+00  0.45593999997E+02  0.45594000000E+02  0.51100000000E-03 0.  1.
         11   -1    0    0    0    0 -0.00000000000E+00 -0.00000000000E+00 -0.45593999997E+02  0.45594000000E+02  0.51100000000E-03 0. -1.
         23    2    1    2    0    0  0.00000000000E+00  0.00000000000E+00  0.35527136788E-14  0.91188000000E+02  0.91188000000E+02 0.  0.
    9900012    2    3    3    0    0  0.49201978016E+01  0.26142817114E+02  0.25458297987E+02  0.54367079731E+02  0.39999989862E+02 0.  0.
         12    1    3    3    0    0 -0.49201978016E+01 -0.26142817114E+02 -0.25458297987E+02  0.36820920269E+02  0.00000000000E+00 0. -1.
         11    1    4    4    0    0 -0.12400571746E+02  0.55486694802E+00  0.15769125887E+01  0.12512741927E+02  0.51100000000E-03 0. -1.
        -11    1    4    4    0    0  0.18841163257E+01  0.10281257915E+02  0.15197592537E+02  0.18445080044E+02  0.51100000000E-03 0.  1.
        -12    1    4    4    0    0  0.15436653222E+02  0.15306692251E+02  0.86837928615E+01  0.23409257759E+02  0.00000000000E+00 0.  1.
</event>
<event>
 8    1  0.2971508E-007  0.9118800E+02  0.7816164E-02  0.1184000E+00
        -11   -1    0    0    0    0  0.00000000000E+00  0.00000000000E+00  0.45593999997E+02  0.45594000000E+02  0.51100000000E-03 0.  1.
         11   -1    0    0    0    0 -0.00000000000E+00 -0.00000000000E+00 -0.45593999997E+02  0.45594000000E+02  0.51100000000E-03 0. -1.
         23    2    1    2    0    0  0.00000000000E+00  0.00000000000E+00  0.00000000000E+00  0.91188000000E+02  0.91188000000E+02 0.  0.
    9900012    2    3    3    0    0  0.21649814362E+02 -0.18705891802E+02 -0.23176606452E+02  0.54367082892E+02  0.39999997069E+02 0.  0.
        -12    1    3    3    0    0 -0.21649814362E+02  0.18705891802E+02  0.23176606452E+02  0.36820917108E+02  0.00000000000E+00 0.  1.
         11    1    4    4    0    0  0.22046701373E+01  0.95359014080E+01 -0.13989044339E+02  0.17073000552E+02  0.51100000000E-03 0. -1.
        -11    1    4    4    0    0 -0.12446134750E-01 -0.73984765569E+01 -0.36404639407E+01  0.82456405594E+01  0.51100000000E-03 0.  1.
         12    1    4    4    0    0  0.19457590360E+02 -0.20843316653E+02 -0.55470981725E+01  0.29048441780E+02  0.00000000000E+00 0. -1.
</event>
<event>
 8    1  0.2971508E-007  0.9118800E+02  0.7816164E-02  0.1184000E+00
        -11   -1    0    0    0    0  0.00000000000E+00  0.00000000000E+00  0.45593999997E+02  0.45594000000E+02  0.51100000000E-03 0.  1.
         11   -1    0    0    0    0 -0.00000000000E+00 -0.00000000000E+00 -0.45593999997E+02  0.45594000000E+02  0.51100000000E-03 0. -1.
         23    2    1    2    0    0  0.17763568394E-14  0.00000000000E+00  0.00000000000E+00  0.91188000000E+02  0.91188000000E+02 0.  0.
    9900012    2    3    3    0    0  0.12181256402E+02  0.21102188231E+02 -0.27606086027E+02  0.54367063817E+02  0.39999953584E+02 0.  0.
        -12    1    3    3    0    0 -0.12181256402E+02 -0.21102188231E+02  0.27606086027E+02  0.36820936183E+02  0.00000000000E+00 0.  1.
         11    1    4    4    0    0  0.15636685964E+02  0.12196165588E+02 -0.12447786967E+02  0.23413667027E+02  0.51100000000E-03 0. -1.
        -11    1    4    4    0    0 -0.13189517407E+02  0.46532392402E+01 -0.14744478139E+02  0.20322786244E+02  0.51100000000E-03 0.  1.
         12    1    4    4    0    0  0.97340878447E+01  0.42527834027E+01 -0.41382092119E+00  0.10630610547E+02  0.00000000000E+00 0. -1.
</event>
<event>
 8    1  0.2971508E-007  0.9118800E+02  0.7816164E-02  0.1184000E+00
        -11   -1    0    0    0    0  0.00000000000E+00  0.00000000000E+00  0.45593999997E+02  0.45594000000E+02  0.51100000000E-03 0.  1.
         11   -1    0    0    0    0 -0.00000000000E+00 -0.00000000000E+00 -0.45593999997E+02  0.45594000000E+02  0.51100000000E-03 0. -1.
         23    2    1    2    0    0  0.00000000000E+00  0.00000000000E+00  0.00000000000E+00  0.91188000000E+02  0.91188000000E+02 0.  0.
    9900012    2    3    3    0    0 -0.19615250671E+01  0.22609860704E+02  0.28995276637E+02  0.54367089516E+02  0.40000012170E+02 0.  0.
         12    1    3    3    0    0  0.19615250671E+01 -0.22609860704E+02 -0.28995276637E+02  0.36820910484E+02  0.00000000000E+00 0. -1.
         11    1    4    4    0    0  0.67242922531E+01 -0.92321998925E+01  0.11666324822E+02  0.16326443467E+02  0.51100000000E-03 0. -1.
        -11    1    4    4    0    0 -0.10103514595E+01  0.16613572564E+02  0.10445133815E+02  0.19650252519E+02  0.51100000000E-03 0.  1.
         12    1    4    4    0    0 -0.76754658607E+01  0.15228488032E+02  0.68838179999E+01  0.18390393530E+02  0.00000000000E+00 0. -1.
</event>
<event>
 8    1  0.2971508E-007  0.9118800E+02  0.7816164E-02  0.1184000E+00
        -11   -1    0    0    0    0  0.00000000000E+00  0.00000000000E+00  0.45593999997E+02  0.45594000000E+02  0.51100000000E-03 0.  1.
         11   -1    0    0    0    0 -0.00000000000E+00 -0.00000000000E+00 -0.45593999997E+02  0.45594000000E+02  0.51100000000E-03 0. -1.
         23    2    1    2    0    0 -0.11102230246E-14 -0.71054273576E-14  0.33306690739E-15  0.91188000000E+02  0.91188000000E+02 0.  0.
    9900012    2    3    3    0    0 -0.15030705048E+01  0.36783364531E+02 -0.71111107202E+00  0.54367071085E+02  0.39999970153E+02 0.  0.
        -12    1    3    3    0    0  0.15030705048E+01 -0.36783364531E+02  0.71111107202E+00  0.36820928915E+02  0.00000000000E+00 0.  1.
         11    1    4    4    0    0 -0.17272883096E+01  0.83291578152E+00 -0.59944402972E+01  0.62936943317E+01  0.51100000000E-03 0. -1.
        -11    1    4    4    0    0 -0.13622996264E+02  0.27998460168E+02  0.72925616755E+01  0.31979387971E+02  0.51100000000E-03 0.  1.
         12    1    4    4    0    0  0.13847214069E+02  0.79519885822E+01 -0.20092324503E+01  0.16093988782E+02  0.00000000000E+00 0. -1.
</event>
<event>
 8    1  0.2971508E-007  0.9118800E+02  0.7816164E-02  0.1184000E+00
        -11   -1    0    0    0    0  0.00000000000E+00  0.00000000000E+00  0.45593999997E+02  0.45594000000E+02  0.51100000000E-03 0.  1.
         11   -1    0    0    0    0 -0.00000000000E+00 -0.00000000000E+00 -0.45593999997E+02  0.45594000000E+02  0.51100000000E-03 0. -1.
         23    2    1    2    0    0  0.00000000000E+00  0.35527136788E-14  0.00000000000E+00  0.91188000000E+02  0.91188000000E+02 0.  0.
    9900012    2    3    3    0    0 -0.18814424134E+02  0.29681253151E+02  0.10991844436E+02  0.54367082192E+02  0.39999995474E+02 0.  0.
         12    1    3    3    0    0  0.18814424134E+02 -0.29681253151E+02 -0.10991844436E+02  0.36820917808E+02  0.00000000000E+00 0. -1.
         11    1    4    4    0    0 -0.66373512740E+01  0.25743899243E+01 -0.10268398494E+02  0.12494875882E+02  0.51100000000E-03 0. -1.
        -11    1    4    4    0    0 -0.13694124576E+02  0.16898797757E+02  0.45339849552E+01  0.22218358026E+02  0.51100000000E-03 0.  1.
         12    1    4    4    0    0  0.15170517163E+01  0.10208065469E+02  0.16726257975E+02  0.19653848284E+02  0.00000000000E+00 0. -1.
</event>
<event>
 8    1  0.2971508E-007  0.9118800E+02  0.7816164E-02  0.1184000E+00
        -11   -1    0    0    0    0  0.00000000000E+00  0.00000000000E+00  0.45593999997E+02  0.45594000000E+02  0.51100000000E-03 0. -1.
         11   -1    0    0    0    0 -0.00000000000E+00 -0.00000000000E+00 -0.45593999997E+02  0.45594000000E+02  0.51100000000E-03 0.  1.
         23    2    1    2    0    0  0.00000000000E+00 -0.17763568394E-14  0.44408920985E-15  0.91188000000E+02  0.91188000000E+02 0.  0.
    9900012    2    3    3    0    0  0.34107767814E+02 -0.13853349459E+02 -0.72401161332E+00  0.54367091411E+02  0.40000016490E+02 0.  0.
         12    1    3    3    0    0 -0.34107767814E+02  0.13853349459E+02  0.72401161332E+00  0.36820908589E+02  0.00000000000E+00 0. -1.
         11    1    4    4    0    0  0.24218362085E+02 -0.15300449559E+02  0.14855991214E+02  0.32269696218E+02  0.51100000000E-03 0.  1.
        -11    1    4    4    0    0  0.84604083179E+00  0.54891240655E+01 -0.73908909375E+01  0.92450817848E+01  0.51100000000E-03 0. -1.
        -12    1    4    4    0    0  0.90433648972E+01 -0.40420239654E+01 -0.81891118898E+01  0.12852313408E+02  0.00000000000E+00 0.  1.
</event>
<event>
 8    1  0.2971508E-007  0.9118800E+02  0.7816164E-02  0.1184000E+00
        -11   -1    0    0    0    0  0.00000000000E+00  0.00000000000E+00  0.45593999997E+02  0.45594000000E+02  0.51100000000E-03 0. -1.
         11   -1    0    0    0    0 -0.00000000000E+00 -0.00000000000E+00 -0.45593999997E+02  0.45594000000E+02  0.51100000000E-03 0.  1.
         23    2    1    2    0    0  0.00000000000E+00  0.00000000000E+00  0.00000000000E+00  0.91188000000E+02  0.91188000000E+02 0.  0.
    9900012    2    3    3    0    0 -0.12779157374E+02 -0.33450482616E+02 -0.85753933639E+01  0.54367095316E+02  0.40000025392E+02 0.  0.
         12    1    3    3    0    0  0.12779157374E+02  0.33450482616E+02  0.85753933639E+01  0.36820904684E+02  0.00000000000E+00 0. -1.
         11    1    4    4    0    0  0.15758056131E+01  0.29325863688E+01  0.50875168001E+00  0.33677967091E+01  0.51100000000E-03 0. -1.
        -11    1    4    4    0    0 -0.53293616494E+01 -0.37988305736E+02 -0.38606260349E+00  0.38362253751E+02  0.51100000000E-03 0.  1.
         12    1    4    4    0    0 -0.90256013378E+01  0.16052367516E+01 -0.86980824404E+01  0.12637044855E+02  0.00000000000E+00 0. -1.
</event>
<event>
 8    1  0.2971508E-007  0.9118800E+02  0.7816164E-02  0.1184000E+00
        -11   -1    0    0    0    0  0.00000000000E+00  0.00000000000E+00  0.45593999997E+02  0.45594000000E+02  0.51100000000E-03 0.  1.
         11   -1    0    0    0    0 -0.00000000000E+00 -0.00000000000E+00 -0.45593999997E+02  0.45594000000E+02  0.51100000000E-03 0. -1.
         23    2    1    2    0    0  0.35527136788E-14 -0.13322676296E-14  0.71054273576E-14  0.91188000000E+02  0.91188000000E+02 0.  0.
    9900012    2    3    3    0    0 -0.93155842200E+01  0.36678593808E+01  0.35433695654E+02  0.54367080817E+02  0.39999992338E+02 0.  0.
         12    1    3    3    0    0  0.93155842200E+01 -0.36678593808E+01 -0.35433695654E+02  0.36820919183E+02  0.00000000000E+00 0. -1.
         11    1    4    4    0    0 -0.80250102289E-01  0.21296196628E+00  0.12670439926E+02  0.12672483618E+02  0.51100000000E-03 0.  1.
        -11    1    4    4    0    0  0.10228350858E+02 -0.48457643660E+01  0.10347781189E+01  0.11365357873E+02  0.51100000000E-03 0. -1.
        -12    1    4    4    0    0 -0.19463684976E+02  0.83006617806E+01  0.21728477609E+02  0.30329239325E+02  0.00000000000E+00 0.  1.
</event>
<event>
 8    1  0.2971508E-007  0.9118800E+02  0.7816164E-02  0.1184000E+00
        -11   -1    0    0    0    0  0.00000000000E+00  0.00000000000E+00  0.45593999997E+02  0.45594000000E+02  0.51100000000E-03 0.  1.
         11   -1    0    0    0    0 -0.00000000000E+00 -0.00000000000E+00 -0.45593999997E+02  0.45594000000E+02  0.51100000000E-03 0. -1.
         23    2    1    2    0    0  0.00000000000E+00  0.00000000000E+00  0.00000000000E+00  0.91188000000E+02  0.91188000000E+02 0.  0.
    9900012    2    3    3    0    0  0.14683563425E+02  0.32036097427E+02  0.10670657674E+02  0.54367061549E+02  0.39999948413E+02 0.  0.
        -12    1    3    3    0    0 -0.14683563425E+02 -0.32036097427E+02 -0.10670657674E+02  0.36820938451E+02  0.00000000000E+00 0.  1.
         11    1    4    4    0    0 -0.25740689730E+01  0.34648633958E+02  0.10908287109E+02  0.36416265516E+02  0.51100000000E-03 0. -1.
        -11    1    4    4    0    0  0.12092425393E+02 -0.32578496658E+01  0.11133342046E+01  0.12572980937E+02  0.51100000000E-03 0.  1.
         12    1    4    4    0    0  0.51652070055E+01  0.64531313435E+00 -0.13509636388E+01  0.53778150958E+01  0.00000000000E+00 0. -1.
</event>
<event>
 8    1  0.2971508E-007  0.9118800E+02  0.7816164E-02  0.1184000E+00
        -11   -1    0    0    0    0  0.00000000000E+00  0.00000000000E+00  0.45593999997E+02  0.45594000000E+02  0.51100000000E-03 0.  1.
         11   -1    0    0    0    0 -0.00000000000E+00 -0.00000000000E+00 -0.45593999997E+02  0.45594000000E+02  0.51100000000E-03 0. -1.
         23    2    1    2    0    0  0.35527136788E-14  0.00000000000E+00  0.00000000000E+00  0.91188000000E+02  0.91188000000E+02 0.  0.
    9900012    2    3    3    0    0  0.22951262956E+02  0.19712530225E+02 -0.20986560865E+02  0.54367081270E+02  0.39999993372E+02 0.  0.
        -12    1    3    3    0    0 -0.22951262956E+02 -0.19712530225E+02  0.20986560865E+02  0.36820918730E+02  0.00000000000E+00 0.  1.
         11    1    4    4    0    0  0.31393517430E+00 -0.39502324233E+01 -0.65390675562E+01  0.76460641024E+01  0.51100000000E-03 0. -1.
        -11    1    4    4    0    0  0.26133649521E+02  0.11572815688E+02 -0.14340070723E+01  0.28617373688E+02  0.51100000000E-03 0.  1.
        -12    1    4    4    0    0 -0.34963217394E+01  0.12089946961E+02 -0.13013486237E+02  0.18103643480E+02  0.00000000000E+00 0.  1.
</event>
<event>
 8    1  0.2971508E-007  0.9118800E+02  0.7816164E-02  0.1184000E+00
        -11   -1    0    0    0    0  0.00000000000E+00  0.00000000000E+00  0.45593999997E+02  0.45594000000E+02  0.51100000000E-03 0.  1.
         11   -1    0    0    0    0 -0.00000000000E+00 -0.00000000000E+00 -0.45593999997E+02  0.45594000000E+02  0.51100000000E-03 0. -1.
         23    2    1    2    0    0  0.00000000000E+00 -0.88817841970E-15  0.17763568394E-14  0.91188000000E+02  0.91188000000E+02 0.  0.
    9900012    2    3    3    0    0  0.36134402657E+02  0.40025480125E+01  0.58365006051E+01  0.54367079516E+02  0.39999989373E+02 0.  0.
         12    1    3    3    0    0 -0.36134402657E+02 -0.40025480125E+01 -0.58365006051E+01  0.36820920484E+02  0.00000000000E+00 0. -1.
         11    1    4    4    0    0  0.15362280611E+02  0.34449901717E+01 -0.68902298971E+01  0.17185543086E+02  0.51100000000E-03 0. -1.
        -11    1    4    4    0    0  0.68926464669E+01  0.22468318538E+01 -0.88688547050E+01  0.11454842327E+02  0.51100000000E-03 0.  1.
        -12    1    4    4    0    0  0.13879475579E+02 -0.16892740130E+01  0.21595585207E+02  0.25726694103E+02  0.00000000000E+00 0.  1.
</event>
<event>
 8    1  0.2971508E-007  0.9118800E+02  0.7816164E-02  0.1184000E+00
        -11   -1    0    0    0    0  0.00000000000E+00  0.00000000000E+00  0.45593999997E+02  0.45594000000E+02  0.51100000000E-03 0.  1.
         11   -1    0    0    0    0 -0.00000000000E+00 -0.00000000000E+00 -0.45593999997E+02  0.45594000000E+02  0.51100000000E-03 0. -1.
         23    2    1    2    0    0 -0.53290705182E-14  0.88817841970E-15  0.00000000000E+00  0.91188000000E+02  0.91188000000E+02 0.  0.
    9900012    2    3    3    0    0  0.14841987767E+02  0.40487670694E+01 -0.33452989181E+02  0.54367087453E+02  0.40000007467E+02 0.  0.
        -12    1    3    3    0    0 -0.14841987767E+02 -0.40487670694E+01  0.33452989181E+02  0.36820912547E+02  0.00000000000E+00 0.  1.
         11    1    4    4    0    0  0.16469245025E+02 -0.22662977186E+01 -0.11775487956E+02  0.20372389499E+02  0.51100000000E-03 0. -1.
        -11    1    4    4    0    0  0.43126775725E+01 -0.20448364573E+01 -0.23147630602E+02  0.23634579470E+02  0.51100000000E-03 0.  1.
        -12    1    4    4    0    0 -0.59399348304E+01  0.83599012453E+01  0.14701293767E+01  0.10360118484E+02  0.00000000000E+00 0.  1.
</event>
<event>
 8    1  0.2971508E-007  0.9118800E+02  0.7816164E-02  0.1184000E+00
        -11   -1    0    0    0    0  0.00000000000E+00  0.00000000000E+00  0.45593999997E+02  0.45594000000E+02  0.51100000000E-03 0.  1.
         11   -1    0    0    0    0 -0.00000000000E+00 -0.00000000000E+00 -0.45593999997E+02  0.45594000000E+02  0.51100000000E-03 0. -1.
         23    2    1    2    0    0  0.35527136788E-14  0.17763568394E-14  0.00000000000E+00  0.91188000000E+02  0.91188000000E+02 0.  0.
    9900012    2    3    3    0    0 -0.18242592820E+02 -0.59820819091E+01  0.31419785587E+02  0.54367076287E+02  0.39999982011E+02 0.  0.
         12    1    3    3    0    0  0.18242592820E+02  0.59820819091E+01 -0.31419785587E+02  0.36820923713E+02  0.00000000000E+00 0. -1.
         11    1    4    4    0    0 -0.58910807125E+01 -0.72629254737E+01  0.24370884617E+02  0.26103542589E+02  0.51100000000E-03 0. -1.
        -11    1    4    4    0    0 -0.14549758924E+02 -0.76528003855E+01 -0.37158198611E+00  0.16443810749E+02  0.51100000000E-03 0.  1.
        -12    1    4    4    0    0  0.21982468170E+01  0.89336439501E+01  0.74204829561E+01  0.11819722949E+02  0.00000000000E+00 0.  1.
</event>
<event>
 8    1  0.2971508E-007  0.9118800E+02  0.7816164E-02  0.1184000E+00
        -11   -1    0    0    0    0  0.00000000000E+00  0.00000000000E+00  0.45593999997E+02  0.45594000000E+02  0.51100000000E-03 0.  1.
         11   -1    0    0    0    0 -0.00000000000E+00 -0.00000000000E+00 -0.45593999997E+02  0.45594000000E+02  0.51100000000E-03 0. -1.
         23    2    1    2    0    0 -0.66613381478E-15  0.00000000000E+00 -0.35527136788E-14  0.91188000000E+02  0.91188000000E+02 0.  0.
    9900012    2    3    3    0    0 -0.14844454069E+01 -0.25199734009E+02 -0.26805776264E+02  0.54367084566E+02  0.40000000885E+02 0.  0.
        -12    1    3    3    0    0  0.14844454069E+01  0.25199734009E+02  0.26805776264E+02  0.36820915434E+02  0.00000000000E+00 0.  1.
         11    1    4    4    0    0 -0.75278388899E+01 -0.23698606290E+02 -0.22736631139E+02  0.33693422121E+02  0.51100000000E-03 0. -1.
        -11    1    4    4    0    0  0.10493413383E+02  0.41351450629E+01 -0.65899064550E+01  0.13062848712E+02  0.51100000000E-03 0.  1.
         12    1    4    4    0    0 -0.44500199000E+01 -0.56362727826E+01  0.25207613309E+01  0.76108137329E+01  0.00000000000E+00 0. -1.
</event>
<event>
 8    1  0.2971508E-007  0.9118800E+02  0.7816164E-02  0.1184000E+00
        -11   -1    0    0    0    0  0.00000000000E+00  0.00000000000E+00  0.45593999997E+02  0.45594000000E+02  0.51100000000E-03 0.  1.
         11   -1    0    0    0    0 -0.00000000000E+00 -0.00000000000E+00 -0.45593999997E+02  0.45594000000E+02  0.51100000000E-03 0. -1.
         23    2    1    2    0    0  0.00000000000E+00  0.00000000000E+00  0.00000000000E+00  0.91188000000E+02  0.91188000000E+02 0.  0.
    9900012    2    3    3    0    0 -0.20698890390E+02 -0.23038534941E+02  0.19913778560E+02  0.54367126407E+02  0.40000096269E+02 0.  0.
         12    1    3    3    0    0  0.20698890390E+02  0.23038534941E+02 -0.19913778560E+02  0.36820873593E+02  0.00000000000E+00 0. -1.
         11    1    4    4    0    0 -0.51948445674E+01 -0.22428245780E+01  0.97865850921E+01  0.11304597303E+02  0.51100000000E-03 0.  1.
        -11    1    4    4    0    0 -0.33145060053E+00 -0.84158290011E+00 -0.10537066645E+02  0.10575816518E+02  0.51100000000E-03 0. -1.
         12    1    4    4    0    0 -0.15172595222E+02 -0.19954127463E+02  0.20664260113E+02  0.32486712586E+02  0.00000000000E+00 0. -1.
</event>
<event>
 8    1  0.2971508E-007  0.9118800E+02  0.7816164E-02  0.1184000E+00
        -11   -1    0    0    0    0  0.00000000000E+00  0.00000000000E+00  0.45593999997E+02  0.45594000000E+02  0.51100000000E-03 0. -1.
         11   -1    0    0    0    0 -0.00000000000E+00 -0.00000000000E+00 -0.45593999997E+02  0.45594000000E+02  0.51100000000E-03 0.  1.
         23    2    1    2    0    0  0.00000000000E+00 -0.17763568394E-14  0.44408920985E-15  0.91188000000E+02  0.91188000000E+02 0.  0.
    9900012    2    3    3    0    0 -0.36285871607E+02 -0.50690232656E+01 -0.36622975954E+01  0.54367192040E+02  0.40000245894E+02 0.  0.
        -12    1    3    3    0    0  0.36285871607E+02  0.50690232656E+01  0.36622975954E+01  0.36820807960E+02  0.00000000000E+00 0.  1.
         11    1    4    4    0    0 -0.15570097031E+02 -0.17804784465E+01  0.36250010909E+01  0.16085355397E+02  0.51100000000E-03 0. -1.
        -11    1    4    4    0    0 -0.11212699659E+02  0.13507342054E+02  0.26991780065E+00  0.17556929654E+02  0.51100000000E-03 0.  1.
         12    1    4    4    0    0 -0.95030749164E+01 -0.16795886873E+02 -0.75572164869E+01  0.20724906990E+02  0.00000000000E+00 0. -1.
</event>
<event>
 8    1  0.2971508E-007  0.9118800E+02  0.7816164E-02  0.1184000E+00
        -11   -1    0    0    0    0  0.00000000000E+00  0.00000000000E+00  0.45593999997E+02  0.45594000000E+02  0.51100000000E-03 0.  1.
         11   -1    0    0    0    0 -0.00000000000E+00 -0.00000000000E+00 -0.45593999997E+02  0.45594000000E+02  0.51100000000E-03 0. -1.
         23    2    1    2    0    0  0.00000000000E+00  0.00000000000E+00  0.00000000000E+00  0.91188000000E+02  0.91188000000E+02 0.  0.
    9900012    2    3    3    0    0  0.98198393555E+01 -0.25826326711E+02 -0.24338261378E+02  0.54367090679E+02  0.40000014820E+02 0.  0.
        -12    1    3    3    0    0 -0.98198393555E+01  0.25826326711E+02  0.24338261378E+02  0.36820909321E+02  0.00000000000E+00 0.  1.
         11    1    4    4    0    0  0.21667461765E+02 -0.22117034720E+02 -0.66210804227E+01  0.31661977676E+02  0.51100000000E-03 0. -1.
        -11    1    4    4    0    0 -0.16488974591E+01  0.13300554740E+01 -0.60490179014E+01  0.64092533284E+01  0.51100000000E-03 0.  1.
         12    1    4    4    0    0 -0.10198724950E+02 -0.50393474653E+01 -0.11668163054E+02  0.16295859674E+02  0.00000000000E+00 0. -1.
</event>
<event>
 8    1  0.2971508E-007  0.9118800E+02  0.7816164E-02  0.1184000E+00
        -11   -1    0    0    0    0  0.00000000000E+00  0.00000000000E+00  0.45593999997E+02  0.45594000000E+02  0.51100000000E-03 0.  1.
         11   -1    0    0    0    0 -0.00000000000E+00 -0.00000000000E+00 -0.45593999997E+02  0.45594000000E+02  0.51100000000E-03 0. -1.
         23    2    1    2    0    0  0.17763568394E-14 -0.17763568394E-14 -0.71054273576E-14  0.91188000000E+02  0.91188000000E+02 0.  0.
    9900012    2    3    3    0    0 -0.12423156121E+02 -0.89165942694E+01 -0.33495364508E+02  0.54367083323E+02  0.39999998052E+02 0.  0.
        -12    1    3    3    0    0  0.12423156121E+02  0.89165942694E+01  0.33495364508E+02  0.36820916677E+02  0.00000000000E+00 0.  1.
         11    1    4    4    0    0 -0.11026083254E+01  0.30074106777E+01 -0.18015245217E+01  0.36750176825E+01  0.51100000000E-03 0. -1.
        -11    1    4    4    0    0  0.71400152737E+01 -0.17040450117E+02 -0.23406543157E+02  0.29819842742E+02  0.51100000000E-03 0.  1.
         12    1    4    4    0    0 -0.18460563069E+02  0.51164451701E+01 -0.82872968291E+01  0.20872222899E+02  0.00000000000E+00 0. -1.
</event>
<event>
 8    1  0.2971508E-007  0.9118800E+02  0.7816164E-02  0.1184000E+00
        -11   -1    0    0    0    0  0.00000000000E+00  0.00000000000E+00  0.45593999997E+02  0.45594000000E+02  0.51100000000E-03 0.  1.
         11   -1    0    0    0    0 -0.00000000000E+00 -0.00000000000E+00 -0.45593999997E+02  0.45594000000E+02  0.51100000000E-03 0. -1.
         23    2    1    2    0    0  0.35527136788E-14 -0.88817841970E-15  0.00000000000E+00  0.91188000000E+02  0.91188000000E+02 0.  0.
    9900012    2    3    3    0    0  0.28957054808E+02  0.55770196147E+01 -0.22049179833E+02  0.54367075212E+02  0.39999979561E+02 0.  0.
         12    1    3    3    0    0 -0.28957054808E+02 -0.55770196147E+01  0.22049179833E+02  0.36820924788E+02  0.00000000000E+00 0. -1.
         11    1    4    4    0    0  0.18270397449E+02  0.13696853801E+02 -0.13979358162E+02  0.26773749866E+02  0.51100000000E-03 0. -1.
        -11    1    4    4    0    0 -0.21337202422E+01  0.33633803151E+01  0.47010263445E+01  0.61615532270E+01  0.51100000000E-03 0.  1.
         12    1    4    4    0    0  0.12820377601E+02 -0.11483214502E+02 -0.12770848016E+02  0.21431772119E+02  0.00000000000E+00 0. -1.
</event>
<event>
 8    1  0.2971508E-007  0.9118800E+02  0.7816164E-02  0.1184000E+00
        -11   -1    0    0    0    0  0.00000000000E+00  0.00000000000E+00  0.45593999997E+02  0.45594000000E+02  0.51100000000E-03 0. -1.
         11   -1    0    0    0    0 -0.00000000000E+00 -0.00000000000E+00 -0.45593999997E+02  0.45594000000E+02  0.51100000000E-03 0.  1.
         23    2    1    2    0    0 -0.35527136788E-14  0.00000000000E+00  0.00000000000E+00  0.91188000000E+02  0.91188000000E+02 0.  0.
    9900012    2    3    3    0    0 -0.17400708969E+02 -0.22283374822E+02 -0.23589106187E+02  0.54367090223E+02  0.40000013782E+02 0.  0.
         12    1    3    3    0    0  0.17400708969E+02  0.22283374822E+02  0.23589106187E+02  0.36820909777E+02  0.00000000000E+00 0. -1.
         11    1    4    4    0    0 -0.15934074753E+01  0.61941809879E+01  0.11856169799E+01  0.65048069438E+01  0.51100000000E-03 0. -1.
        -11    1    4    4    0    0 -0.75228993410E+01 -0.24458789478E+02 -0.50343556759E+01  0.26080090770E+02  0.51100000000E-03 0.  1.
        -12    1    4    4    0    0 -0.82844021531E+01 -0.40187663314E+01 -0.19740367491E+02  0.21782192510E+02  0.00000000000E+00 0.  1.
</event>
<event>
 8    1  0.2971508E-007  0.9118800E+02  0.7816164E-02  0.1184000E+00
        -11   -1    0    0    0    0  0.00000000000E+00  0.00000000000E+00  0.45593999997E+02  0.45594000000E+02  0.51100000000E-03 0. -1.
         11   -1    0    0    0    0 -0.00000000000E+00 -0.00000000000E+00 -0.45593999997E+02  0.45594000000E+02  0.51100000000E-03 0.  1.
         23    2    1    2    0    0  0.00000000000E+00 -0.35527136788E-14  0.00000000000E+00  0.91188000000E+02  0.91188000000E+02 0.  0.
    9900012    2    3    3    0    0  0.27833469105E+02  0.17886685290E+02  0.16159963902E+02  0.54367082760E+02  0.39999996768E+02 0.  0.
        -12    1    3    3    0    0 -0.27833469105E+02 -0.17886685290E+02 -0.16159963902E+02  0.36820917240E+02  0.00000000000E+00 0.  1.
         11    1    4    4    0    0  0.73913216756E+01 -0.78625070720E+01  0.12378534019E+02  0.16421898742E+02  0.51100000000E-03 0. -1.
        -11    1    4    4    0    0  0.92019152774E+01  0.23149572605E+02 -0.20922423070E+01  0.24999108678E+02  0.51100000000E-03 0.  1.
         12    1    4    4    0    0  0.11240232152E+02  0.25996197562E+01  0.58736721908E+01  0.12946075340E+02  0.00000000000E+00 0. -1.
</event>
<event>
 8    1  0.2971508E-007  0.9118800E+02  0.7816164E-02  0.1184000E+00
        -11   -1    0    0    0    0  0.00000000000E+00  0.00000000000E+00  0.45593999997E+02  0.45594000000E+02  0.51100000000E-03 0.  1.
         11   -1    0    0    0    0 -0.00000000000E+00 -0.00000000000E+00 -0.45593999997E+02  0.45594000000E+02  0.51100000000E-03 0. -1.
         23    2    1    2    0    0  0.00000000000E+00  0.17763568394E-14  0.17763568394E-14  0.91188000000E+02  0.91188000000E+02 0.  0.
    9900012    2    3    3    0    0 -0.34555034495E+02 -0.90855167669E+00 -0.12684824288E+02  0.54367073310E+02  0.39999975224E+02 0.  0.
         12    1    3    3    0    0  0.34555034495E+02  0.90855167669E+00  0.12684824288E+02  0.36820926690E+02  0.00000000000E+00 0. -1.
         11    1    4    4    0    0 -0.19637525396E+02 -0.11298681114E+02 -0.54554277295E+01  0.23303525282E+02  0.51100000000E-03 0. -1.
        -11    1    4    4    0    0 -0.15461339629E+02 -0.29482550096E+01 -0.80690492885E+01  0.17687701586E+02  0.51100000000E-03 0.  1.
        -12    1    4    4    0    0  0.54383052990E+00  0.13338384447E+02  0.83965273002E+00  0.13375846441E+02  0.00000000000E+00 0.  1.
</event>
<event>
 8    1  0.2971508E-007  0.9118800E+02  0.7816164E-02  0.1184000E+00
        -11   -1    0    0    0    0  0.00000000000E+00  0.00000000000E+00  0.45593999997E+02  0.45594000000E+02  0.51100000000E-03 0.  1.
         11   -1    0    0    0    0 -0.00000000000E+00 -0.00000000000E+00 -0.45593999997E+02  0.45594000000E+02  0.51100000000E-03 0. -1.
         23    2    1    2    0    0 -0.35527136788E-14  0.00000000000E+00  0.00000000000E+00  0.91188000000E+02  0.91188000000E+02 0.  0.
    9900012    2    3    3    0    0  0.24986901106E+02  0.12898553103E+02  0.23771031412E+02  0.54367084294E+02  0.40000000264E+02 0.  0.
         12    1    3    3    0    0 -0.24986901106E+02 -0.12898553103E+02 -0.23771031412E+02  0.36820915706E+02  0.00000000000E+00 0. -1.
         11    1    4    4    0    0  0.47799966340E+01 -0.99072844883E+01 -0.31742208097E+01  0.11448944570E+02  0.51100000000E-03 0. -1.
        -11    1    4    4    0    0  0.11636728505E+02  0.15504160286E+02  0.81930878826E+01  0.21045643867E+02  0.51100000000E-03 0.  1.
         12    1    4    4    0    0  0.85701759673E+01  0.73016773050E+01  0.18752164340E+02  0.21872495857E+02  0.00000000000E+00 0. -1.
</event>
<event>
 8    1  0.2971508E-007  0.9118800E+02  0.7816164E-02  0.1184000E+00
        -11   -1    0    0    0    0  0.00000000000E+00  0.00000000000E+00  0.45593999997E+02  0.45594000000E+02  0.51100000000E-03 0.  1.
         11   -1    0    0    0    0 -0.00000000000E+00 -0.00000000000E+00 -0.45593999997E+02  0.45594000000E+02  0.51100000000E-03 0. -1.
         23    2    1    2    0    0  0.88817841970E-15 -0.44408920985E-15 -0.71054273576E-14  0.91188000000E+02  0.91188000000E+02 0.  0.
    9900012    2    3    3    0    0 -0.36431128048E+01  0.35745188694E+01  0.36465467686E+02  0.54367084889E+02  0.40000001621E+02 0.  0.
         12    1    3    3    0    0  0.36431128048E+01 -0.35745188694E+01 -0.36465467686E+02  0.36820915111E+02  0.00000000000E+00 0. -1.
         11    1    4    4    0    0  0.79108932283E+01  0.10959635192E+01 -0.60673295832E+01  0.10029748563E+02  0.51100000000E-03 0. -1.
        -11    1    4    4    0    0 -0.86301628312E+01  0.26703702688E+01  0.25466954603E+02  0.27021775754E+02  0.51100000000E-03 0.  1.
         12    1    4    4    0    0 -0.29238432019E+01 -0.19181491854E+00  0.17065842666E+02  0.17315560572E+02  0.00000000000E+00 0. -1.
</event>
<event>
 8    1  0.2971508E-007  0.9118800E+02  0.7816164E-02  0.1184000E+00
        -11   -1    0    0    0    0  0.00000000000E+00  0.00000000000E+00  0.45593999997E+02  0.45594000000E+02  0.51100000000E-03 0.  1.
         11   -1    0    0    0    0 -0.00000000000E+00 -0.00000000000E+00 -0.45593999997E+02  0.45594000000E+02  0.51100000000E-03 0. -1.
         23    2    1    2    0    0 -0.88817841970E-15  0.00000000000E+00  0.35527136788E-14  0.91188000000E+02  0.91188000000E+02 0.  0.
    9900012    2    3    3    0    0 -0.68250480937E+01  0.25790407926E+02 -0.25378200823E+02  0.54367088829E+02  0.40000010604E+02 0.  0.
        -12    1    3    3    0    0  0.68250480937E+01 -0.25790407926E+02  0.25378200823E+02  0.36820911171E+02  0.00000000000E+00 0.  1.
         11    1    4    4    0    0 -0.95294900169E+01  0.12069309210E+02 -0.10701667260E+02  0.18735129762E+02  0.51100000000E-03 0. -1.
        -11    1    4    4    0    0 -0.12982714771E+02  0.98332760024E+01 -0.67267725303E+01  0.17620830534E+02  0.51100000000E-03 0.  1.
         12    1    4    4    0    0  0.15687156694E+02  0.38878227127E+01 -0.79497610326E+01  0.18011128534E+02  0.00000000000E+00 0. -1.
</event>
<event>
 8    1  0.2971508E-007  0.9118800E+02  0.7816164E-02  0.1184000E+00
        -11   -1    0    0    0    0  0.00000000000E+00  0.00000000000E+00  0.45593999997E+02  0.45594000000E+02  0.51100000000E-03 0. -1.
         11   -1    0    0    0    0 -0.00000000000E+00 -0.00000000000E+00 -0.45593999997E+02  0.45594000000E+02  0.51100000000E-03 0.  1.
         23    2    1    2    0    0 -0.61062266354E-15  0.00000000000E+00  0.00000000000E+00  0.91188000000E+02  0.91188000000E+02 0.  0.
    9900012    2    3    3    0    0  0.41938462682E+00  0.11343176518E+02  0.35027625831E+02  0.54367107719E+02  0.40000053667E+02 0.  0.
        -12    1    3    3    0    0 -0.41938462682E+00 -0.11343176518E+02 -0.35027625831E+02  0.36820892281E+02  0.00000000000E+00 0.  1.
         11    1    4    4    0    0 -0.70907452556E+01 -0.41064741598E+01  0.52055726811E+01  0.97077178320E+01  0.51100000000E-03 0. -1.
        -11    1    4    4    0    0  0.25220819405E+01 -0.41081001048E+01 -0.33212650363E+01  0.58539034403E+01  0.51100000000E-03 0.  1.
         12    1    4    4    0    0  0.49880479419E+01  0.19557750783E+02  0.33143318186E+02  0.38805486447E+02  0.00000000000E+00 0. -1.
</event>
<event>
 8    1  0.2971508E-007  0.9118800E+02  0.7816164E-02  0.1184000E+00
        -11   -1    0    0    0    0  0.00000000000E+00  0.00000000000E+00  0.45593999997E+02  0.45594000000E+02  0.51100000000E-03 0.  1.
         11   -1    0    0    0    0 -0.00000000000E+00 -0.00000000000E+00 -0.45593999997E+02  0.45594000000E+02  0.51100000000E-03 0. -1.
         23    2    1    2    0    0 -0.35527136788E-14  0.00000000000E+00  0.00000000000E+00  0.91188000000E+02  0.91188000000E+02 0.  0.
    9900012    2    3    3    0    0 -0.30269094212E+02  0.80268045695E+01  0.19368328864E+02  0.54367084490E+02  0.40000000711E+02 0.  0.
         12    1    3    3    0    0  0.30269094212E+02 -0.80268045695E+01 -0.19368328864E+02  0.36820915510E+02  0.00000000000E+00 0. -1.
         11    1    4    4    0    0 -0.91562974033E+01  0.19841795330E+02  0.10456282963E+01  0.21877567571E+02  0.51100000000E-03 0. -1.
        -11    1    4    4    0    0 -0.19699776113E+02 -0.57161910343E+01  0.13118543208E+02  0.24348556323E+02  0.51100000000E-03 0.  1.
         12    1    4    4    0    0 -0.14130206952E+01 -0.60987997259E+01  0.52041573606E+01  0.81409605954E+01  0.00000000000E+00 0. -1.
</event>
<event>
 8    1  0.2971508E-007  0.9118800E+02  0.7816164E-02  0.1184000E+00
        -11   -1    0    0    0    0  0.00000000000E+00  0.00000000000E+00  0.45593999997E+02  0.45594000000E+02  0.51100000000E-03 0. -1.
         11   -1    0    0    0    0 -0.00000000000E+00 -0.00000000000E+00 -0.45593999997E+02  0.45594000000E+02  0.51100000000E-03 0.  1.
         23    2    1    2    0    0  0.00000000000E+00  0.00000000000E+00  0.00000000000E+00  0.91188000000E+02  0.91188000000E+02 0.  0.
    9900012    2    3    3    0    0  0.14537638495E+02  0.22783762961E+01  0.33752694217E+02  0.54367105138E+02  0.40000047783E+02 0.  0.
        -12    1    3    3    0    0 -0.14537638495E+02 -0.22783762961E+01 -0.33752694217E+02  0.36820894862E+02  0.00000000000E+00 0.  1.
         11    1    4    4    0    0  0.19433300458E+02  0.65343407061E+01  0.52326809080E+01  0.21159672136E+02  0.51100000000E-03 0. -1.
        -11    1    4    4    0    0 -0.54927641051E+01 -0.96266381031E+01  0.22725691155E+02  0.25284375757E+02  0.51100000000E-03 0.  1.
         12    1    4    4    0    0  0.59710214142E+00  0.53706736931E+01  0.57943221536E+01  0.79230572449E+01  0.00000000000E+00 0. -1.
</event>
<event>
 8    1  0.2971508E-007  0.9118800E+02  0.7816164E-02  0.1184000E+00
        -11   -1    0    0    0    0  0.00000000000E+00  0.00000000000E+00  0.45593999997E+02  0.45594000000E+02  0.51100000000E-03 0. -1.
         11   -1    0    0    0    0 -0.00000000000E+00 -0.00000000000E+00 -0.45593999997E+02  0.45594000000E+02  0.51100000000E-03 0.  1.
         23    2    1    2    0    0  0.00000000000E+00 -0.42188474936E-14  0.00000000000E+00  0.91188000000E+02  0.91188000000E+02 0.  0.
    9900012    2    3    3    0    0 -0.32551563363E+02 -0.19492459844E+01  0.17099010021E+02  0.54367082290E+02  0.39999995697E+02 0.  0.
         12    1    3    3    0    0  0.32551563363E+02  0.19492459844E+01 -0.17099010021E+02  0.36820917710E+02  0.00000000000E+00 0. -1.
         11    1    4    4    0    0 -0.37523516572E+01  0.55449435468E+01  0.42284271734E+00  0.67086018007E+01  0.51100000000E-03 0. -1.
        -11    1    4    4    0    0 -0.11745869971E+02  0.13205194850E+02  0.85653424816E+01  0.19639443080E+02  0.51100000000E-03 0.  1.
         12    1    4    4    0    0 -0.17053341735E+02 -0.20699384381E+02  0.81108248224E+01  0.28019037410E+02  0.00000000000E+00 0. -1.
</event>
<event>
 8    1  0.2971508E-007  0.9118800E+02  0.7816164E-02  0.1184000E+00
        -11   -1    0    0    0    0  0.00000000000E+00  0.00000000000E+00  0.45593999997E+02  0.45594000000E+02  0.51100000000E-03 0.  1.
         11   -1    0    0    0    0 -0.00000000000E+00 -0.00000000000E+00 -0.45593999997E+02  0.45594000000E+02  0.51100000000E-03 0. -1.
         23    2    1    2    0    0  0.00000000000E+00  0.00000000000E+00  0.35527136788E-14  0.91188000000E+02  0.91188000000E+02 0.  0.
    9900012    2    3    3    0    0  0.26787596268E+02 -0.98187725625E+01 -0.23276509212E+02  0.54367088963E+02  0.40000010910E+02 0.  0.
        -12    1    3    3    0    0 -0.26787596268E+02  0.98187725625E+01  0.23276509212E+02  0.36820911037E+02  0.00000000000E+00 0.  1.
         11    1    4    4    0    0  0.25453829528E+02 -0.11693726833E+02 -0.20690285623E+02  0.34824253105E+02  0.51100000000E-03 0. -1.
        -11    1    4    4    0    0  0.36992878811E+00  0.81124960739E+01  0.51059298031E+01  0.95927034392E+01  0.51100000000E-03 0.  1.
        -12    1    4    4    0    0  0.96383795195E+00 -0.62375418038E+01 -0.76921533922E+01  0.99501324192E+01  0.00000000000E+00 0.  1.
</event>
<event>
 8    1  0.2971508E-007  0.9118800E+02  0.7816164E-02  0.1184000E+00
        -11   -1    0    0    0    0  0.00000000000E+00  0.00000000000E+00  0.45593999997E+02  0.45594000000E+02  0.51100000000E-03 0. -1.
         11   -1    0    0    0    0 -0.00000000000E+00 -0.00000000000E+00 -0.45593999997E+02  0.45594000000E+02  0.51100000000E-03 0.  1.
         23    2    1    2    0    0  0.00000000000E+00  0.00000000000E+00  0.00000000000E+00  0.91188000000E+02  0.91188000000E+02 0.  0.
    9900012    2    3    3    0    0 -0.63677931623E+01 -0.15947388329E+02  0.32571634266E+02  0.54367090953E+02  0.40000015446E+02 0.  0.
        -12    1    3    3    0    0  0.63677931623E+01  0.15947388329E+02 -0.32571634266E+02  0.36820909047E+02  0.00000000000E+00 0.  1.
         11    1    4    4    0    0 -0.44542228507E-01  0.57911841554E+01  0.56067568985E+01  0.80607394892E+01  0.51100000000E-03 0. -1.
        -11    1    4    4    0    0  0.11917964425E+01  0.49194007776E+01  0.15543416407E+02  0.16346824666E+02  0.51100000000E-03 0.  1.
        -12    1    4    4    0    0 -0.75150473764E+01 -0.26657973262E+02  0.11421460960E+02  0.29959526799E+02  0.00000000000E+00 0.  1.
</event>
<event>
 8    1  0.2971508E-007  0.9118800E+02  0.7816164E-02  0.1184000E+00
        -11   -1    0    0    0    0  0.00000000000E+00  0.00000000000E+00  0.45593999997E+02  0.45594000000E+02  0.51100000000E-03 0.  1.
         11   -1    0    0    0    0 -0.00000000000E+00 -0.00000000000E+00 -0.45593999997E+02  0.45594000000E+02  0.51100000000E-03 0. -1.
         23    2    1    2    0    0  0.00000000000E+00  0.00000000000E+00  0.44408920985E-15  0.91188000000E+02  0.91188000000E+02 0.  0.
    9900012    2    3    3    0    0 -0.21760493884E+02 -0.29702222314E+02 -0.19236195852E+00  0.54367107730E+02  0.40000053691E+02 0.  0.
        -12    1    3    3    0    0  0.21760493884E+02  0.29702222314E+02  0.19236195852E+00  0.36820892270E+02  0.00000000000E+00 0.  1.
         11    1    4    4    0    0 -0.20211524936E+02 -0.12957377499E+02 -0.15314493961E+02  0.28476887074E+02  0.51100000000E-03 0. -1.
        -11    1    4    4    0    0  0.41929815724E+00 -0.19275478132E+01  0.98417562460E+01  0.10037500574E+02  0.51100000000E-03 0.  1.
         12    1    4    4    0    0 -0.19682671056E+01 -0.14817297002E+02  0.52803757568E+01  0.15852720081E+02  0.00000000000E+00 0. -1.
</event>
<event>
 8    1  0.2971508E-007  0.9118800E+02  0.7816164E-02  0.1184000E+00
        -11   -1    0    0    0    0  0.00000000000E+00  0.00000000000E+00  0.45593999997E+02  0.45594000000E+02  0.51100000000E-03 0.  1.
         11   -1    0    0    0    0 -0.00000000000E+00 -0.00000000000E+00 -0.45593999997E+02  0.45594000000E+02  0.51100000000E-03 0. -1.
         23    2    1    2    0    0 -0.53290705182E-14  0.35527136788E-14  0.00000000000E+00  0.91188000000E+02  0.91188000000E+02 0.  0.
    9900012    2    3    3    0    0  0.10977566439E+02 -0.17630936162E+02  0.30404354947E+02  0.54367059292E+02  0.39999943268E+02 0.  0.
         12    1    3    3    0    0 -0.10977566439E+02  0.17630936162E+02 -0.30404354947E+02  0.36820940708E+02  0.00000000000E+00 0. -1.
         11    1    4    4    0    0  0.55888351084E+01  0.13076601823E+01  0.71102083123E+01  0.91378397626E+01  0.51100000000E-03 0. -1.
        -11    1    4    4    0    0  0.17926949583E+02 -0.28498053174E+01  0.13377410123E+02  0.22548880539E+02  0.51100000000E-03 0.  1.
        -12    1    4    4    0    0 -0.12538218253E+02 -0.16088791027E+02  0.99167365121E+01  0.22680338990E+02  0.00000000000E+00 0.  1.
</event>
<event>
 8    1  0.2971508E-007  0.9118800E+02  0.7816164E-02  0.1184000E+00
        -11   -1    0    0    0    0  0.00000000000E+00  0.00000000000E+00  0.45593999997E+02  0.45594000000E+02  0.51100000000E-03 0. -1.
         11   -1    0    0    0    0 -0.00000000000E+00 -0.00000000000E+00 -0.45593999997E+02  0.45594000000E+02  0.51100000000E-03 0.  1.
         23    2    1    2    0    0  0.53290705182E-14  0.10658141036E-13  0.35527136788E-14  0.91188000000E+02  0.91188000000E+02 0.  0.
    9900012    2    3    3    0    0 -0.15479752152E+02 -0.21901454957E+02 -0.25228627072E+02  0.54367080947E+02  0.39999992635E+02 0.  0.
         12    1    3    3    0    0  0.15479752152E+02  0.21901454957E+02  0.25228627072E+02  0.36820919053E+02  0.00000000000E+00 0. -1.
         11    1    4    4    0    0  0.38184038194E+01  0.81518185133E+01  0.13625326639E+01  0.91043312947E+01  0.51100000000E-03 0. -1.
        -11    1    4    4    0    0 -0.17120747893E+02 -0.28113975077E+02 -0.21257605060E+02  0.39184198041E+02  0.51100000000E-03 0.  1.
        -12    1    4    4    0    0 -0.21774080788E+01 -0.19392983940E+01 -0.53335546765E+01  0.60785516111E+01  0.00000000000E+00 0.  1.
</event>
<event>
 8    1  0.2971508E-007  0.9118800E+02  0.7816164E-02  0.1184000E+00
        -11   -1    0    0    0    0  0.00000000000E+00  0.00000000000E+00  0.45593999997E+02  0.45594000000E+02  0.51100000000E-03 0. -1.
         11   -1    0    0    0    0 -0.00000000000E+00 -0.00000000000E+00 -0.45593999997E+02  0.45594000000E+02  0.51100000000E-03 0.  1.
         23    2    1    2    0    0  0.35527136788E-14  0.35527136788E-14 -0.88817841970E-15  0.91188000000E+02  0.91188000000E+02 0.  0.
    9900012    2    3    3    0    0 -0.27448795663E+02 -0.24426108505E+02  0.23892636357E+01  0.54367085552E+02  0.40000003134E+02 0.  0.
         12    1    3    3    0    0  0.27448795663E+02  0.24426108505E+02 -0.23892636357E+01  0.36820914448E+02  0.00000000000E+00 0. -1.
         11    1    4    4    0    0 -0.34692060204E+02 -0.11376337820E+02  0.71486196013E+01  0.37202995388E+02  0.51100000000E-03 0. -1.
        -11    1    4    4    0    0  0.42551279985E+01 -0.12365020204E+02 -0.23986051525E+01  0.13294854112E+02  0.51100000000E-03 0.  1.
        -12    1    4    4    0    0  0.29881365433E+01 -0.68475048168E+00 -0.23607508130E+01  0.38692360518E+01  0.00000000000E+00 0.  1.
</event>
<event>
 8    1  0.2971508E-007  0.9118800E+02  0.7816164E-02  0.1184000E+00
        -11   -1    0    0    0    0  0.00000000000E+00  0.00000000000E+00  0.45593999997E+02  0.45594000000E+02  0.51100000000E-03 0. -1.
         11   -1    0    0    0    0 -0.00000000000E+00 -0.00000000000E+00 -0.45593999997E+02  0.45594000000E+02  0.51100000000E-03 0.  1.
         23    2    1    2    0    0  0.66613381478E-15  0.00000000000E+00  0.00000000000E+00  0.91188000000E+02  0.91188000000E+02 0.  0.
    9900012    2    3    3    0    0  0.15392080124E+01  0.35898620503E+02 -0.80436239593E+01  0.54367082008E+02  0.39999995055E+02 0.  0.
         12    1    3    3    0    0 -0.15392080124E+01 -0.35898620503E+02  0.80436239593E+01  0.36820917992E+02  0.00000000000E+00 0. -1.
         11    1    4    4    0    0 -0.42830067772E+01  0.17292928511E+02 -0.56108379639E+01  0.18678089475E+02  0.51100000000E-03 0. -1.
        -11    1    4    4    0    0 -0.25775247347E+01 -0.69318885732E+01 -0.46144376107E+01  0.87170951397E+01  0.51100000000E-03 0.  1.
         12    1    4    4    0    0  0.83997395243E+01  0.25537580566E+02  0.21816516154E+01  0.26971897393E+02  0.00000000000E+00 0. -1.
</event>
<event>
 8    1  0.2971508E-007  0.9118800E+02  0.7816164E-02  0.1184000E+00
        -11   -1    0    0    0    0  0.00000000000E+00  0.00000000000E+00  0.45593999997E+02  0.45594000000E+02  0.51100000000E-03 0. -1.
         11   -1    0    0    0    0 -0.00000000000E+00 -0.00000000000E+00 -0.45593999997E+02  0.45594000000E+02  0.51100000000E-03 0.  1.
         23    2    1    2    0    0  0.00000000000E+00  0.00000000000E+00  0.00000000000E+00  0.91188000000E+02  0.91188000000E+02 0.  0.
    9900012    2    3    3    0    0  0.22167110010E+02 -0.28009571382E+02 -0.89365246218E+01  0.54367104743E+02  0.40000046883E+02 0.  0.
        -12    1    3    3    0    0 -0.22167110010E+02  0.28009571382E+02  0.89365246218E+01  0.36820895257E+02  0.00000000000E+00 0.  1.
         11    1    4    4    0    0  0.89244727371E+01  0.15068307659E+01 -0.11078695712E+02  0.14305741908E+02  0.51100000000E-03 0. -1.
        -11    1    4    4    0    0 -0.67814570845E+01 -0.96299619854E+01  0.34973921410E+00  0.11783320661E+02  0.51100000000E-03 0.  1.
         12    1    4    4    0    0  0.20024094357E+02 -0.19886440162E+02  0.17924318760E+01  0.28278042174E+02  0.00000000000E+00 0. -1.
</event>
<event>
 8    1  0.2971508E-007  0.9118800E+02  0.7816164E-02  0.1184000E+00
        -11   -1    0    0    0    0  0.00000000000E+00  0.00000000000E+00  0.45593999997E+02  0.45594000000E+02  0.51100000000E-03 0. -1.
         11   -1    0    0    0    0 -0.00000000000E+00 -0.00000000000E+00 -0.45593999997E+02  0.45594000000E+02  0.51100000000E-03 0.  1.
         23    2    1    2    0    0 -0.71054273576E-14  0.35527136788E-14  0.00000000000E+00  0.91188000000E+02  0.91188000000E+02 0.  0.
    9900012    2    3    3    0    0 -0.29968687139E+02  0.18878381052E+02 -0.10063042150E+02  0.54367077995E+02  0.39999985906E+02 0.  0.
         12    1    3    3    0    0  0.29968687139E+02 -0.18878381052E+02  0.10063042150E+02  0.36820922005E+02  0.00000000000E+00 0. -1.
         11    1    4    4    0    0 -0.19905118311E+02 -0.28957199973E+01 -0.61268383006E+01  0.21027055835E+02  0.51100000000E-03 0. -1.
        -11    1    4    4    0    0 -0.16036822681E+02  0.21009591471E+02 -0.56098736922E+00  0.26436666253E+02  0.51100000000E-03 0.  1.
         12    1    4    4    0    0  0.59732538531E+01  0.76450957820E+00 -0.33752164797E+01  0.69033559067E+01  0.00000000000E+00 0. -1.
</event>
<event>
 8    1  0.2971508E-007  0.9118800E+02  0.7816164E-02  0.1184000E+00
        -11   -1    0    0    0    0  0.00000000000E+00  0.00000000000E+00  0.45593999997E+02  0.45594000000E+02  0.51100000000E-03 0.  1.
         11   -1    0    0    0    0 -0.00000000000E+00 -0.00000000000E+00 -0.45593999997E+02  0.45594000000E+02  0.51100000000E-03 0. -1.
         23    2    1    2    0    0  0.35527136788E-14 -0.35527136788E-14  0.00000000000E+00  0.91188000000E+02  0.91188000000E+02 0.  0.
    9900012    2    3    3    0    0  0.21120044708E+02 -0.27314563940E+02 -0.12792226769E+02  0.54367044589E+02  0.39999909749E+02 0.  0.
         12    1    3    3    0    0 -0.21120044708E+02  0.27314563940E+02  0.12792226769E+02  0.36820955411E+02  0.00000000000E+00 0. -1.
         11    1    4    4    0    0  0.80474884186E+01  0.16647849338E+01 -0.54422139279E+01  0.98565344530E+01  0.51100000000E-03 0. -1.
        -11    1    4    4    0    0  0.16170217203E+02 -0.28203588754E+02  0.39671625771E+01  0.32751438475E+02  0.51100000000E-03 0.  1.
         12    1    4    4    0    0 -0.30976609131E+01 -0.77576011953E+00 -0.11317175418E+02  0.11759071661E+02  0.00000000000E+00 0. -1.
</event>
<event>
 8    1  0.2971508E-007  0.9118800E+02  0.7816164E-02  0.1184000E+00
        -11   -1    0    0    0    0  0.00000000000E+00  0.00000000000E+00  0.45593999997E+02  0.45594000000E+02  0.51100000000E-03 0.  1.
         11   -1    0    0    0    0 -0.00000000000E+00 -0.00000000000E+00 -0.45593999997E+02  0.45594000000E+02  0.51100000000E-03 0. -1.
         23    2    1    2    0    0  0.00000000000E+00  0.35527136788E-14  0.00000000000E+00  0.91188000000E+02  0.91188000000E+02 0.  0.
    9900012    2    3    3    0    0 -0.35669514197E+01  0.31112244406E+02  0.19367198327E+02  0.54367037690E+02  0.39999894022E+02 0.  0.
         12    1    3    3    0    0  0.35669514197E+01 -0.31112244406E+02 -0.19367198327E+02  0.36820962310E+02  0.00000000000E+00 0. -1.
         11    1    4    4    0    0  0.52266899466E+01  0.11145232805E+02  0.87473329677E+01  0.15101335583E+02  0.51100000000E-03 0. -1.
        -11    1    4    4    0    0 -0.18777444719E+02  0.11065663314E+02  0.13425967798E+02  0.25598787986E+02  0.51100000000E-03 0.  1.
        -12    1    4    4    0    0  0.99838033530E+01  0.89013482863E+01 -0.28061024385E+01  0.13666914121E+02  0.00000000000E+00 0.  1.
</event>
<event>
 8    1  0.2971508E-007  0.9118800E+02  0.7816164E-02  0.1184000E+00
        -11   -1    0    0    0    0  0.00000000000E+00  0.00000000000E+00  0.45593999997E+02  0.45594000000E+02  0.51100000000E-03 0.  1.
         11   -1    0    0    0    0 -0.00000000000E+00 -0.00000000000E+00 -0.45593999997E+02  0.45594000000E+02  0.51100000000E-03 0. -1.
         23    2    1    2    0    0  0.88817841970E-15 -0.71054273576E-14 -0.83266726847E-15  0.91188000000E+02  0.91188000000E+02 0.  0.
    9900012    2    3    3    0    0 -0.77081396371E+01  0.36005044053E+02  0.35449107862E-01  0.54367083790E+02  0.39999999116E+02 0.  0.
        -12    1    3    3    0    0  0.77081396371E+01 -0.36005044053E+02 -0.35449107862E-01  0.36820916210E+02  0.00000000000E+00 0.  1.
         11    1    4    4    0    0  0.77596813051E+01  0.15535458338E+02 -0.21837839307E+01  0.17502343621E+02  0.51100000000E-03 0. -1.
        -11    1    4    4    0    0 -0.21989318557E+02  0.19382936618E+02  0.49206246090E+01  0.29722733881E+02  0.51100000000E-03 0.  1.
         12    1    4    4    0    0  0.65214976148E+01  0.10866490969E+01 -0.27013915704E+01  0.71420062879E+01  0.00000000000E+00 0. -1.
</event>
<event>
 8    1  0.2971508E-007  0.9118800E+02  0.7816164E-02  0.1184000E+00
        -11   -1    0    0    0    0  0.00000000000E+00  0.00000000000E+00  0.45593999997E+02  0.45594000000E+02  0.51100000000E-03 0. -1.
         11   -1    0    0    0    0 -0.00000000000E+00 -0.00000000000E+00 -0.45593999997E+02  0.45594000000E+02  0.51100000000E-03 0.  1.
         23    2    1    2    0    0  0.00000000000E+00  0.35527136788E-14  0.00000000000E+00  0.91188000000E+02  0.91188000000E+02 0.  0.
    9900012    2    3    3    0    0 -0.28482843805E+02  0.22373481781E+02 -0.66283509457E+01  0.54367080477E+02  0.39999991564E+02 0.  0.
         12    1    3    3    0    0  0.28482843805E+02 -0.22373481781E+02  0.66283509457E+01  0.36820919523E+02  0.00000000000E+00 0. -1.
         11    1    4    4    0    0  0.19862135211E+01  0.12365529957E+02 -0.83595591727E+01  0.15057675952E+02  0.51100000000E-03 0. -1.
        -11    1    4    4    0    0 -0.84104418029E+00  0.65653710610E+01 -0.55138527522E+01  0.86147562308E+01  0.51100000000E-03 0.  1.
         12    1    4    4    0    0 -0.29628013146E+02  0.34425807635E+01  0.72450609793E+01  0.30694648294E+02  0.00000000000E+00 0. -1.
</event>
<event>
 8    1  0.2971508E-007  0.9118800E+02  0.7816164E-02  0.1184000E+00
        -11   -1    0    0    0    0  0.00000000000E+00  0.00000000000E+00  0.45593999997E+02  0.45594000000E+02  0.51100000000E-03 0. -1.
         11   -1    0    0    0    0 -0.00000000000E+00 -0.00000000000E+00 -0.45593999997E+02  0.45594000000E+02  0.51100000000E-03 0.  1.
         23    2    1    2    0    0  0.17763568394E-14  0.00000000000E+00  0.00000000000E+00  0.91188000000E+02  0.91188000000E+02 0.  0.
    9900012    2    3    3    0    0  0.78885467479E+01 -0.15295793973E+02  0.32551337389E+02  0.54367081368E+02  0.39999993595E+02 0.  0.
        -12    1    3    3    0    0 -0.78885467479E+01  0.15295793973E+02 -0.32551337389E+02  0.36820918632E+02  0.00000000000E+00 0.  1.
         11    1    4    4    0    0 -0.14375806890E+02 -0.57231968297E+01  0.61686360399E+01  0.16657457085E+02  0.51100000000E-03 0. -1.
        -11    1    4    4    0    0  0.17220644736E+02 -0.59841872271E+01  0.25660984162E+02  0.31477725622E+02  0.51100000000E-03 0.  1.
        -12    1    4    4    0    0  0.50437089019E+01 -0.35884099164E+01  0.72171718705E+00  0.62318986604E+01  0.00000000000E+00 0.  1.
</event>
<event>
 8    1  0.2971508E-007  0.9118800E+02  0.7816164E-02  0.1184000E+00
        -11   -1    0    0    0    0  0.00000000000E+00  0.00000000000E+00  0.45593999997E+02  0.45594000000E+02  0.51100000000E-03 0.  1.
         11   -1    0    0    0    0 -0.00000000000E+00 -0.00000000000E+00 -0.45593999997E+02  0.45594000000E+02  0.51100000000E-03 0. -1.
         23    2    1    2    0    0 -0.17763568394E-14  0.00000000000E+00  0.00000000000E+00  0.91188000000E+02  0.91188000000E+02 0.  0.
    9900012    2    3    3    0    0  0.14505903690E+02 -0.28356730758E+02 -0.18473003588E+02  0.54367118931E+02  0.40000079226E+02 0.  0.
        -12    1    3    3    0    0 -0.14505903690E+02  0.28356730758E+02  0.18473003588E+02  0.36820881069E+02  0.00000000000E+00 0.  1.
         11    1    4    4    0    0  0.17869459657E+02 -0.16288129659E+02 -0.20345215455E+02  0.31599818803E+02  0.51100000000E-03 0. -1.
        -11    1    4    4    0    0 -0.43520280316E+01 -0.13462915274E+02 -0.55144370979E+01  0.15185494804E+02  0.51100000000E-03 0.  1.
        -12    1    4    4    0    0  0.98847206501E+00  0.13943141752E+01  0.73866489646E+01  0.75818053239E+01  0.00000000000E+00 0.  1.
</event>
<event>
 8    1  0.2971508E-007  0.9118800E+02  0.7816164E-02  0.1184000E+00
        -11   -1    0    0    0    0  0.00000000000E+00  0.00000000000E+00  0.45593999997E+02  0.45594000000E+02  0.51100000000E-03 0.  1.
         11   -1    0    0    0    0 -0.00000000000E+00 -0.00000000000E+00 -0.45593999997E+02  0.45594000000E+02  0.51100000000E-03 0. -1.
         23    2    1    2    0    0  0.00000000000E+00 -0.35527136788E-14  0.35527136788E-14  0.91188000000E+02  0.91188000000E+02 0.  0.
    9900012    2    3    3    0    0  0.13138506344E+02  0.20825535412E+02  0.27376230033E+02  0.54367065127E+02  0.39999956569E+02 0.  0.
         12    1    3    3    0    0 -0.13138506344E+02 -0.20825535412E+02 -0.27376230033E+02  0.36820934873E+02  0.00000000000E+00 0. -1.
         11    1    4    4    0    0  0.16395522290E+02 -0.20619730589E+01  0.14166295411E+02  0.21765771523E+02  0.51100000000E-03 0. -1.
        -11    1    4    4    0    0 -0.36280210513E+01  0.22334420993E+02  0.17283942582E+02  0.28473207921E+02  0.51100000000E-03 0.  1.
         12    1    4    4    0    0  0.37100510513E+00  0.55308747807E+00 -0.40740079603E+01  0.41280856831E+01  0.00000000000E+00 0. -1.
</event>
<event>
 8    1  0.2971508E-007  0.9118800E+02  0.7816164E-02  0.1184000E+00
        -11   -1    0    0    0    0  0.00000000000E+00  0.00000000000E+00  0.45593999997E+02  0.45594000000E+02  0.51100000000E-03 0.  1.
         11   -1    0    0    0    0 -0.00000000000E+00 -0.00000000000E+00 -0.45593999997E+02  0.45594000000E+02  0.51100000000E-03 0. -1.
         23    2    1    2    0    0  0.00000000000E+00 -0.35527136788E-14  0.17763568394E-14  0.91188000000E+02  0.91188000000E+02 0.  0.
    9900012    2    3    3    0    0  0.18540746943E+02  0.29328130089E+02 -0.12323994898E+02  0.54367090696E+02  0.40000014860E+02 0.  0.
         12    1    3    3    0    0 -0.18540746943E+02 -0.29328130089E+02  0.12323994898E+02  0.36820909304E+02  0.00000000000E+00 0. -1.
         11    1    4    4    0    0 -0.69762149330E+01  0.17462271113E+02 -0.14442932970E+02  0.23710689578E+02  0.51100000000E-03 0. -1.
        -11    1    4    4    0    0  0.10302711901E+02  0.75878066985E+01  0.63659003730E+01  0.14291443973E+02  0.51100000000E-03 0.  1.
         12    1    4    4    0    0  0.15214249975E+02  0.42780522776E+01 -0.42469623010E+01  0.16364957145E+02  0.00000000000E+00 0. -1.
</event>
<event>
 8    1  0.2971508E-007  0.9118800E+02  0.7816164E-02  0.1184000E+00
        -11   -1    0    0    0    0  0.00000000000E+00  0.00000000000E+00  0.45593999997E+02  0.45594000000E+02  0.51100000000E-03 0.  1.
         11   -1    0    0    0    0 -0.00000000000E+00 -0.00000000000E+00 -0.45593999997E+02  0.45594000000E+02  0.51100000000E-03 0. -1.
         23    2    1    2    0    0  0.00000000000E+00 -0.16653345369E-14  0.00000000000E+00  0.91188000000E+02  0.91188000000E+02 0.  0.
    9900012    2    3    3    0    0 -0.14018568890E+02 -0.16522289831E+00  0.34047425745E+02  0.54367153022E+02  0.40000156945E+02 0.  0.
        -12    1    3    3    0    0  0.14018568890E+02  0.16522289831E+00 -0.34047425745E+02  0.36820846978E+02  0.00000000000E+00 0.  1.
         11    1    4    4    0    0 -0.29834728455E+01 -0.32712755186E+00 -0.77580725002E+01  0.83184020000E+01  0.51100000000E-03 0. -1.
        -11    1    4    4    0    0 -0.84899267714E+01 -0.58269592991E+01  0.35591253251E+02  0.37050905785E+02  0.51100000000E-03 0.  1.
         12    1    4    4    0    0 -0.25451692727E+01  0.59888639526E+01  0.62142449942E+01  0.89978452375E+01  0.00000000000E+00 0. -1.
</event>
<event>
 8    1  0.2971508E-007  0.9118800E+02  0.7816164E-02  0.1184000E+00
        -11   -1    0    0    0    0  0.00000000000E+00  0.00000000000E+00  0.45593999997E+02  0.45594000000E+02  0.51100000000E-03 0. -1.
         11   -1    0    0    0    0 -0.00000000000E+00 -0.00000000000E+00 -0.45593999997E+02  0.45594000000E+02  0.51100000000E-03 0.  1.
         23    2    1    2    0    0  0.00000000000E+00  0.00000000000E+00  0.00000000000E+00  0.91188000000E+02  0.91188000000E+02 0.  0.
    9900012    2    3    3    0    0 -0.24512282927E+02 -0.39407521667E+01  0.27192062595E+02  0.54366948819E+02  0.39999691421E+02 0.  0.
        -12    1    3    3    0    0  0.24512282927E+02  0.39407521667E+01 -0.27192062595E+02  0.36821051181E+02  0.00000000000E+00 0.  1.
         11    1    4    4    0    0 -0.16769396485E+02  0.73954175007E+00  0.65846674171E+01  0.18031012886E+02  0.51100000000E-03 0. -1.
        -11    1    4    4    0    0 -0.18036647567E+02  0.97599015632E+00  0.10890023088E+02  0.21091842389E+02  0.51100000000E-03 0.  1.
         12    1    4    4    0    0  0.10293761125E+02 -0.56562840731E+01  0.97173720898E+01  0.15244093543E+02  0.00000000000E+00 0. -1.
</event>
<event>
 8    1  0.2971508E-007  0.9118800E+02  0.7816164E-02  0.1184000E+00
        -11   -1    0    0    0    0  0.00000000000E+00  0.00000000000E+00  0.45593999997E+02  0.45594000000E+02  0.51100000000E-03 0. -1.
         11   -1    0    0    0    0 -0.00000000000E+00 -0.00000000000E+00 -0.45593999997E+02  0.45594000000E+02  0.51100000000E-03 0.  1.
         23    2    1    2    0    0  0.00000000000E+00  0.88817841970E-15 -0.35527136788E-14  0.91188000000E+02  0.91188000000E+02 0.  0.
    9900012    2    3    3    0    0  0.19501603258E+02  0.56743321141E+01  0.30712673870E+02  0.54367096822E+02  0.40000028825E+02 0.  0.
        -12    1    3    3    0    0 -0.19501603258E+02 -0.56743321141E+01 -0.30712673870E+02  0.36820903178E+02  0.00000000000E+00 0.  1.
         11    1    4    4    0    0  0.14215108188E+02  0.92267328303E+00  0.16428330018E+02  0.21744209671E+02  0.51100000000E-03 0. -1.
        -11    1    4    4    0    0 -0.72720113812E+01 -0.45496647449E+01 -0.32153501937E+01  0.91607901378E+01  0.51100000000E-03 0.  1.
        -12    1    4    4    0    0  0.12558506452E+02  0.93013235760E+01  0.17499694046E+02  0.23462097013E+02  0.00000000000E+00 0.  1.
</event>
<event>
 8    1  0.2971508E-007  0.9118800E+02  0.7816164E-02  0.1184000E+00
        -11   -1    0    0    0    0  0.00000000000E+00  0.00000000000E+00  0.45593999997E+02  0.45594000000E+02  0.51100000000E-03 0. -1.
         11   -1    0    0    0    0 -0.00000000000E+00 -0.00000000000E+00 -0.45593999997E+02  0.45594000000E+02  0.51100000000E-03 0.  1.
         23    2    1    2    0    0  0.00000000000E+00  0.88817841970E-15  0.00000000000E+00  0.91188000000E+02  0.91188000000E+02 0.  0.
    9900012    2    3    3    0    0  0.14818601330E+02 -0.45163575816E+01 -0.33403452666E+02  0.54367094509E+02  0.40000023552E+02 0.  0.
         12    1    3    3    0    0 -0.14818601330E+02  0.45163575816E+01  0.33403452666E+02  0.36820905491E+02  0.00000000000E+00 0. -1.
         11    1    4    4    0    0  0.66131237561E+01  0.63676973656E+01 -0.99046407067E+01  0.13504920709E+02  0.51100000000E-03 0.  1.
        -11    1    4    4    0    0  0.57655924838E+01  0.68981457333E+01  0.24430077333E+01  0.93163704463E+01  0.51100000000E-03 0. -1.
        -12    1    4    4    0    0  0.24398850896E+01 -0.17782200680E+02 -0.25941819693E+02  0.31545803354E+02  0.00000000000E+00 0.  1.
</event>
<event>
 8    1  0.2971508E-007  0.9118800E+02  0.7816164E-02  0.1184000E+00
        -11   -1    0    0    0    0  0.00000000000E+00  0.00000000000E+00  0.45593999997E+02  0.45594000000E+02  0.51100000000E-03 0. -1.
         11   -1    0    0    0    0 -0.00000000000E+00 -0.00000000000E+00 -0.45593999997E+02  0.45594000000E+02  0.51100000000E-03 0.  1.
         23    2    1    2    0    0  0.00000000000E+00  0.00000000000E+00  0.00000000000E+00  0.91188000000E+02  0.91188000000E+02 0.  0.
    9900012    2    3    3    0    0 -0.72455901229E+01 -0.31962579305E+02  0.16783193315E+02  0.54367073479E+02  0.39999975610E+02 0.  0.
        -12    1    3    3    0    0  0.72455901229E+01  0.31962579305E+02 -0.16783193315E+02  0.36820926521E+02  0.00000000000E+00 0.  1.
         11    1    4    4    0    0 -0.16532821529E+02 -0.13213570952E+02  0.19529929996E+02  0.28798451537E+02  0.51100000000E-03 0. -1.
        -11    1    4    4    0    0  0.48957612026E+00  0.74331324427E-01  0.37626056936E+01  0.37950509601E+01  0.51100000000E-03 0.  1.
         12    1    4    4    0    0  0.87976552862E+01 -0.18823339678E+02 -0.65093423747E+01  0.21773570982E+02  0.00000000000E+00 0. -1.
</event>
<event>
 8    1  0.2971508E-007  0.9118800E+02  0.7816164E-02  0.1184000E+00
        -11   -1    0    0    0    0  0.00000000000E+00  0.00000000000E+00  0.45593999997E+02  0.45594000000E+02  0.51100000000E-03 0. -1.
         11   -1    0    0    0    0 -0.00000000000E+00 -0.00000000000E+00 -0.45593999997E+02  0.45594000000E+02  0.51100000000E-03 0.  1.
         23    2    1    2    0    0  0.00000000000E+00  0.00000000000E+00  0.00000000000E+00  0.91188000000E+02  0.91188000000E+02 0.  0.
    9900012    2    3    3    0    0  0.16435097276E+02 -0.19964204361E+02 -0.26212562655E+02  0.54367077698E+02  0.39999985229E+02 0.  0.
         12    1    3    3    0    0 -0.16435097276E+02  0.19964204361E+02  0.26212562655E+02  0.36820922302E+02  0.00000000000E+00 0. -1.
         11    1    4    4    0    0  0.10756798004E+02  0.57583915963E+01 -0.42551181930E-01  0.12201212561E+02  0.51100000000E-03 0.  1.
        -11    1    4    4    0    0 -0.55334545575E+01 -0.80895897529E+00 -0.30153033320E+01  0.63533918822E+01  0.51100000000E-03 0. -1.
        -12    1    4    4    0    0  0.11211753829E+02 -0.24913636982E+02 -0.23154708141E+02  0.35812473255E+02  0.00000000000E+00 0.  1.
</event>
<event>
 8    1  0.2971508E-007  0.9118800E+02  0.7816164E-02  0.1184000E+00
        -11   -1    0    0    0    0  0.00000000000E+00  0.00000000000E+00  0.45593999997E+02  0.45594000000E+02  0.51100000000E-03 0.  1.
         11   -1    0    0    0    0 -0.00000000000E+00 -0.00000000000E+00 -0.45593999997E+02  0.45594000000E+02  0.51100000000E-03 0. -1.
         23    2    1    2    0    0  0.00000000000E+00  0.00000000000E+00  0.71054273576E-14  0.91188000000E+02  0.91188000000E+02 0.  0.
    9900012    2    3    3    0    0  0.19013085708E+02 -0.13668224166E+02 -0.28415871979E+02  0.54367088003E+02  0.40000008720E+02 0.  0.
        -12    1    3    3    0    0 -0.19013085708E+02  0.13668224166E+02  0.28415871979E+02  0.36820911997E+02  0.00000000000E+00 0.  1.
         11    1    4    4    0    0 -0.20573977263E+01 -0.15023672078E+01 -0.80961932797E+00  0.26731023827E+01  0.51100000000E-03 0. -1.
        -11    1    4    4    0    0 -0.39582547247E+01 -0.47877570266E+01 -0.24664898639E+02  0.25435165086E+02  0.51100000000E-03 0.  1.
        -12    1    4    4    0    0  0.25028738159E+02 -0.73780999315E+01 -0.29413540114E+01  0.26258820534E+02  0.00000000000E+00 0.  1.
</event>
<event>
 8    1  0.2971508E-007  0.9118800E+02  0.7816164E-02  0.1184000E+00
        -11   -1    0    0    0    0  0.00000000000E+00  0.00000000000E+00  0.45593999997E+02  0.45594000000E+02  0.51100000000E-03 0. -1.
         11   -1    0    0    0    0 -0.00000000000E+00 -0.00000000000E+00 -0.45593999997E+02  0.45594000000E+02  0.51100000000E-03 0.  1.
         23    2    1    2    0    0 -0.44408920985E-15 -0.35527136788E-14  0.00000000000E+00  0.91188000000E+02  0.91188000000E+02 0.  0.
    9900012    2    3    3    0    0 -0.29312504256E+01 -0.22980845959E+02 -0.28619410943E+02  0.54367052256E+02  0.39999927228E+02 0.  0.
         12    1    3    3    0    0  0.29312504256E+01  0.22980845959E+02  0.28619410943E+02  0.36820947744E+02  0.00000000000E+00 0. -1.
         11    1    4    4    0    0  0.13691917864E+02 -0.10588680185E+01 -0.52812704878E-02  0.13732801769E+02  0.51100000000E-03 0. -1.
        -11    1    4    4    0    0 -0.15058313915E+02 -0.13580201997E+02 -0.18704263039E+02  0.27586666351E+02  0.51100000000E-03 0.  1.
         12    1    4    4    0    0 -0.15648543738E+01 -0.83417759430E+01 -0.99098666340E+01  0.13047584136E+02  0.00000000000E+00 0. -1.
</event>
<event>
 8    1  0.2971508E-007  0.9118800E+02  0.7816164E-02  0.1184000E+00
        -11   -1    0    0    0    0  0.00000000000E+00  0.00000000000E+00  0.45593999997E+02  0.45594000000E+02  0.51100000000E-03 0.  1.
         11   -1    0    0    0    0 -0.00000000000E+00 -0.00000000000E+00 -0.45593999997E+02  0.45594000000E+02  0.51100000000E-03 0. -1.
         23    2    1    2    0    0  0.00000000000E+00  0.00000000000E+00  0.00000000000E+00  0.91188000000E+02  0.91188000000E+02 0.  0.
    9900012    2    3    3    0    0  0.17377394863E+02  0.21383481278E+02 -0.24424409661E+02  0.54367096819E+02  0.40000028818E+02 0.  0.
        -12    1    3    3    0    0 -0.17377394863E+02 -0.21383481278E+02  0.24424409661E+02  0.36820903181E+02  0.00000000000E+00 0.  1.
         11    1    4    4    0    0  0.16613326297E+02  0.79186989713E+01 -0.25050281015E+02  0.31084159684E+02  0.51100000000E-03 0. -1.
        -11    1    4    4    0    0  0.54531191170E+01  0.24533773493E+01 -0.69113900328E+01  0.91390853464E+01  0.51100000000E-03 0.  1.
        -12    1    4    4    0    0 -0.46890505501E+01  0.11011404958E+02  0.75372613875E+01  0.14143851789E+02  0.00000000000E+00 0.  1.
</event>
<event>
 8    1  0.2971508E-007  0.9118800E+02  0.7816164E-02  0.1184000E+00
        -11   -1    0    0    0    0  0.00000000000E+00  0.00000000000E+00  0.45593999997E+02  0.45594000000E+02  0.51100000000E-03 0. -1.
         11   -1    0    0    0    0 -0.00000000000E+00 -0.00000000000E+00 -0.45593999997E+02  0.45594000000E+02  0.51100000000E-03 0.  1.
         23    2    1    2    0    0  0.00000000000E+00  0.00000000000E+00  0.00000000000E+00  0.91188000000E+02  0.91188000000E+02 0.  0.
    9900012    2    3    3    0    0 -0.13368620000E+02 -0.30093328882E+02  0.16475979914E+02  0.54366995695E+02  0.39999798285E+02 0.  0.
        -12    1    3    3    0    0  0.13368620000E+02  0.30093328882E+02 -0.16475979914E+02  0.36821004305E+02  0.00000000000E+00 0.  1.
         11    1    4    4    0    0 -0.55833987429E+00 -0.56636362492E+01 -0.10199970158E+01  0.57817742218E+01  0.51100000000E-03 0.  1.
        -11    1    4    4    0    0 -0.18070724900E+01 -0.31944280474E+02  0.12708178291E+02  0.34426739051E+02  0.51100000000E-03 0. -1.
        -12    1    4    4    0    0 -0.11003207636E+02  0.75145878408E+01  0.47877986382E+01  0.14158482422E+02  0.00000000000E+00 0.  1.
</event>
<event>
 8    1  0.2971508E-007  0.9118800E+02  0.7816164E-02  0.1184000E+00
        -11   -1    0    0    0    0  0.00000000000E+00  0.00000000000E+00  0.45593999997E+02  0.45594000000E+02  0.51100000000E-03 0.  1.
         11   -1    0    0    0    0 -0.00000000000E+00 -0.00000000000E+00 -0.45593999997E+02  0.45594000000E+02  0.51100000000E-03 0. -1.
         23    2    1    2    0    0 -0.35527136788E-14 -0.88817841970E-15 -0.35527136788E-14  0.91188000000E+02  0.91188000000E+02 0.  0.
    9900012    2    3    3    0    0 -0.19271681644E+02  0.29028168939E+01 -0.31240294865E+02  0.54367080911E+02  0.39999992553E+02 0.  0.
        -12    1    3    3    0    0  0.19271681644E+02 -0.29028168939E+01  0.31240294865E+02  0.36820919089E+02  0.00000000000E+00 0.  1.
         11    1    4    4    0    0 -0.13434346311E+02  0.18716848758E+02 -0.11593185481E+02  0.25791549742E+02  0.51100000000E-03 0. -1.
        -11    1    4    4    0    0 -0.17926624565E+01 -0.11914610394E+02 -0.19540161248E+02  0.22956251467E+02  0.51100000000E-03 0.  1.
        -12    1    4    4    0    0 -0.40446728758E+01 -0.38994214697E+01 -0.10694813562E+00  0.56192797025E+01  0.00000000000E+00 0.  1.
</event>
<event>
 8    1  0.2971508E-007  0.9118800E+02  0.7816164E-02  0.1184000E+00
        -11   -1    0    0    0    0  0.00000000000E+00  0.00000000000E+00  0.45593999997E+02  0.45594000000E+02  0.51100000000E-03 0.  1.
         11   -1    0    0    0    0 -0.00000000000E+00 -0.00000000000E+00 -0.45593999997E+02  0.45594000000E+02  0.51100000000E-03 0. -1.
         23    2    1    2    0    0  0.00000000000E+00  0.00000000000E+00  0.22204460493E-15  0.91188000000E+02  0.91188000000E+02 0.  0.
    9900012    2    3    3    0    0  0.74960841309E+01  0.36025276271E+02  0.13235030940E+01  0.54367306523E+02  0.40000506878E+02 0.  0.
        -12    1    3    3    0    0 -0.74960841309E+01 -0.36025276271E+02 -0.13235030940E+01  0.36820693477E+02  0.00000000000E+00 0.  1.
         11    1    4    4    0    0  0.14723837779E+01  0.34575156280E+02 -0.77631772684E+01  0.35466551388E+02  0.51100000000E-03 0. -1.
        -11    1    4    4    0    0  0.70020584745E+01  0.14129313214E+01  0.13018179143E+02  0.14849181333E+02  0.51100000000E-03 0.  1.
         12    1    4    4    0    0 -0.97835812159E+00  0.37188669313E-01 -0.39314987810E+01  0.40515738024E+01  0.00000000000E+00 0. -1.
</event>
<event>
 8    1  0.2971508E-007  0.9118800E+02  0.7816164E-02  0.1184000E+00
        -11   -1    0    0    0    0  0.00000000000E+00  0.00000000000E+00  0.45593999997E+02  0.45594000000E+02  0.51100000000E-03 0.  1.
         11   -1    0    0    0    0 -0.00000000000E+00 -0.00000000000E+00 -0.45593999997E+02  0.45594000000E+02  0.51100000000E-03 0. -1.
         23    2    1    2    0    0 -0.71054273576E-14  0.17763568394E-14 -0.44408920985E-15  0.91188000000E+02  0.91188000000E+02 0.  0.
    9900012    2    3    3    0    0  0.33634904650E+02 -0.14736219363E+02  0.27052264886E+01  0.54367065434E+02  0.39999957270E+02 0.  0.
        -12    1    3    3    0    0 -0.33634904650E+02  0.14736219363E+02 -0.27052264886E+01  0.36820934566E+02  0.00000000000E+00 0.  1.
         11    1    4    4    0    0  0.70214308524E+01 -0.14989167037E+01  0.51136639289E+01  0.88145789202E+01  0.51100000000E-03 0. -1.
        -11    1    4    4    0    0 -0.83276850914E+01 -0.39099264159E+01 -0.18469178657E+01  0.93834412357E+01  0.51100000000E-03 0.  1.
         12    1    4    4    0    0  0.34941158889E+02 -0.93273762438E+01 -0.56151957467E+00  0.36169045278E+02  0.00000000000E+00 0. -1.
</event>
<event>
 8    1  0.2971508E-007  0.9118800E+02  0.7816164E-02  0.1184000E+00
        -11   -1    0    0    0    0  0.00000000000E+00  0.00000000000E+00  0.45593999997E+02  0.45594000000E+02  0.51100000000E-03 0.  1.
         11   -1    0    0    0    0 -0.00000000000E+00 -0.00000000000E+00 -0.45593999997E+02  0.45594000000E+02  0.51100000000E-03 0. -1.
         23    2    1    2    0    0  0.00000000000E+00  0.35527136788E-14  0.35527136788E-14  0.91188000000E+02  0.91188000000E+02 0.  0.
    9900012    2    3    3    0    0 -0.17381603395E+02  0.22427228162E+02 -0.23466585970E+02  0.54367063609E+02  0.39999953109E+02 0.  0.
        -12    1    3    3    0    0  0.17381603395E+02 -0.22427228162E+02  0.23466585970E+02  0.36820936391E+02  0.00000000000E+00 0.  1.
         11    1    4    4    0    0 -0.32606054377E+01  0.10956032147E+02 -0.16180452660E+02  0.19810937302E+02  0.51100000000E-03 0. -1.
        -11    1    4    4    0    0 -0.48633584417E+01 -0.51389132679E+01  0.76170422609E+01  0.10396153999E+02  0.51100000000E-03 0.  1.
         12    1    4    4    0    0 -0.92576395156E+01  0.16610109283E+02 -0.14903175571E+02  0.24159972308E+02  0.00000000000E+00 0. -1.
</event>
<event>
 8    1  0.2971508E-007  0.9118800E+02  0.7816164E-02  0.1184000E+00
        -11   -1    0    0    0    0  0.00000000000E+00  0.00000000000E+00  0.45593999997E+02  0.45594000000E+02  0.51100000000E-03 0.  1.
         11   -1    0    0    0    0 -0.00000000000E+00 -0.00000000000E+00 -0.45593999997E+02  0.45594000000E+02  0.51100000000E-03 0. -1.
         23    2    1    2    0    0 -0.17763568394E-14  0.17763568394E-14  0.00000000000E+00  0.91188000000E+02  0.91188000000E+02 0.  0.
    9900012    2    3    3    0    0 -0.96248956455E+01  0.12304478427E+02  0.33342821273E+02  0.54367047595E+02  0.39999916602E+02 0.  0.
         12    1    3    3    0    0  0.96248956455E+01 -0.12304478427E+02 -0.33342821273E+02  0.36820952405E+02  0.00000000000E+00 0. -1.
         11    1    4    4    0    0  0.93944874932E+01  0.17751910874E+01  0.23110516044E+02  0.25010070986E+02  0.51100000000E-03 0. -1.
        -11    1    4    4    0    0 -0.25118330988E+01  0.67044357326E+01  0.10138794972E+02  0.12411846267E+02  0.51100000000E-03 0.  1.
        -12    1    4    4    0    0 -0.16507550040E+02  0.38248516074E+01  0.93510257707E-01  0.16945130342E+02  0.00000000000E+00 0.  1.
</event>
<event>
 8    1  0.2971508E-007  0.9118800E+02  0.7816164E-02  0.1184000E+00
        -11   -1    0    0    0    0  0.00000000000E+00  0.00000000000E+00  0.45593999997E+02  0.45594000000E+02  0.51100000000E-03 0.  1.
         11   -1    0    0    0    0 -0.00000000000E+00 -0.00000000000E+00 -0.45593999997E+02  0.45594000000E+02  0.51100000000E-03 0. -1.
         23    2    1    2    0    0  0.17763568394E-14 -0.16653345369E-15  0.00000000000E+00  0.91188000000E+02  0.91188000000E+02 0.  0.
    9900012    2    3    3    0    0 -0.11497677058E+02  0.75875059720E-01  0.34979530655E+02  0.54367219188E+02  0.40000307782E+02 0.  0.
         12    1    3    3    0    0  0.11497677058E+02 -0.75875059720E-01 -0.34979530655E+02  0.36820780812E+02  0.00000000000E+00 0. -1.
         11    1    4    4    0    0  0.20057806241E+01  0.54733557495E+01  0.26528005627E+02  0.27160925276E+02  0.51100000000E-03 0. -1.
        -11    1    4    4    0    0  0.39797910100E+01  0.37478325239E+01  0.45072345329E+01  0.70852063136E+01  0.51100000000E-03 0.  1.
         12    1    4    4    0    0 -0.17483248692E+02 -0.91453132137E+01  0.39442904952E+01  0.20121087598E+02  0.00000000000E+00 0. -1.
</event>
<event>
 8    1  0.2971508E-007  0.9118800E+02  0.7816164E-02  0.1184000E+00
        -11   -1    0    0    0    0  0.00000000000E+00  0.00000000000E+00  0.45593999997E+02  0.45594000000E+02  0.51100000000E-03 0.  1.
         11   -1    0    0    0    0 -0.00000000000E+00 -0.00000000000E+00 -0.45593999997E+02  0.45594000000E+02  0.51100000000E-03 0. -1.
         23    2    1    2    0    0  0.00000000000E+00  0.35527136788E-14  0.35527136788E-14  0.91188000000E+02  0.91188000000E+02 0.  0.
    9900012    2    3    3    0    0 -0.18257747517E+02  0.27694189954E+02 -0.15983546777E+02  0.54366983322E+02  0.39999770079E+02 0.  0.
         12    1    3    3    0    0  0.18257747517E+02 -0.27694189954E+02  0.15983546777E+02  0.36821016678E+02  0.00000000000E+00 0. -1.
         11    1    4    4    0    0 -0.24449721209E+01  0.25262764378E+02 -0.18347859179E+02  0.31318191030E+02  0.51100000000E-03 0. -1.
        -11    1    4    4    0    0 -0.34998178132E+01  0.35976684737E+00 -0.67352402466E+01  0.75987905847E+01  0.51100000000E-03 0.  1.
        -12    1    4    4    0    0 -0.12312957583E+02  0.20716587286E+01  0.90995526490E+01  0.15450001707E+02  0.00000000000E+00 0.  1.
</event>
<event>
 8    1  0.2971508E-007  0.9118800E+02  0.7816164E-02  0.1184000E+00
        -11   -1    0    0    0    0  0.00000000000E+00  0.00000000000E+00  0.45593999997E+02  0.45594000000E+02  0.51100000000E-03 0. -1.
         11   -1    0    0    0    0 -0.00000000000E+00 -0.00000000000E+00 -0.45593999997E+02  0.45594000000E+02  0.51100000000E-03 0.  1.
         23    2    1    2    0    0  0.00000000000E+00  0.00000000000E+00  0.71054273576E-14  0.91188000000E+02  0.91188000000E+02 0.  0.
    9900012    2    3    3    0    0 -0.15558685119E+02 -0.77540009488E+01  0.32458954642E+02  0.54367069134E+02  0.39999965705E+02 0.  0.
        -12    1    3    3    0    0  0.15558685119E+02  0.77540009488E+01 -0.32458954642E+02  0.36820930866E+02  0.00000000000E+00 0.  1.
         11    1    4    4    0    0 -0.48757029943E+01  0.71218768902E+01 -0.37729286555E+01  0.94195860328E+01  0.51100000000E-03 0. -1.
        -11    1    4    4    0    0 -0.68118773712E+01 -0.77548924677E+01  0.35312751524E+02  0.36790358125E+02  0.51100000000E-03 0.  1.
         12    1    4    4    0    0 -0.38711047536E+01 -0.71209853714E+01  0.91913177426E+00  0.81571249770E+01  0.00000000000E+00 0. -1.
</event>
<event>
 8    1  0.2971508E-007  0.9118800E+02  0.7816164E-02  0.1184000E+00
        -11   -1    0    0    0    0  0.00000000000E+00  0.00000000000E+00  0.45593999997E+02  0.45594000000E+02  0.51100000000E-03 0.  1.
         11   -1    0    0    0    0 -0.00000000000E+00 -0.00000000000E+00 -0.45593999997E+02  0.45594000000E+02  0.51100000000E-03 0. -1.
         23    2    1    2    0    0  0.88817841970E-15 -0.71054273576E-14 -0.35527136788E-14  0.91188000000E+02  0.91188000000E+02 0.  0.
    9900012    2    3    3    0    0 -0.58001737807E+01  0.33382082688E+02  0.14413869487E+02  0.54367284444E+02  0.40000456544E+02 0.  0.
        -12    1    3    3    0    0  0.58001737807E+01 -0.33382082688E+02 -0.14413869487E+02  0.36820715556E+02  0.00000000000E+00 0.  1.
         11    1    4    4    0    0 -0.98539483296E+01  0.27189802375E+02  0.19250582353E+02  0.34741482007E+02  0.51100000000E-03 0. -1.
        -11    1    4    4    0    0  0.42039851161E+01  0.88904096118E+01  0.38253008915E+01  0.10552051985E+02  0.51100000000E-03 0.  1.
        -12    1    4    4    0    0 -0.15021056717E+00 -0.26981292985E+01 -0.86620137576E+01  0.90737504519E+01  0.00000000000E+00 0.  1.
</event>
<event>
 8    1  0.2971508E-007  0.9118800E+02  0.7816164E-02  0.1184000E+00
        -11   -1    0    0    0    0  0.00000000000E+00  0.00000000000E+00  0.45593999997E+02  0.45594000000E+02  0.51100000000E-03 0. -1.
         11   -1    0    0    0    0 -0.00000000000E+00 -0.00000000000E+00 -0.45593999997E+02  0.45594000000E+02  0.51100000000E-03 0.  1.
         23    2    1    2    0    0 -0.35527136788E-14  0.00000000000E+00  0.35527136788E-14  0.91188000000E+02  0.91188000000E+02 0.  0.
    9900012    2    3    3    0    0 -0.20108243809E+02  0.16646296084E+02  0.25968004748E+02  0.54367110372E+02  0.40000059715E+02 0.  0.
        -12    1    3    3    0    0  0.20108243809E+02 -0.16646296084E+02 -0.25968004748E+02  0.36820889628E+02  0.00000000000E+00 0.  1.
         11    1    4    4    0    0  0.25889617001E+01  0.22477576357E+01 -0.21953354000E+01  0.40711957522E+01  0.51100000000E-03 0. -1.
        -11    1    4    4    0    0  0.83030575326E+00 -0.36217229309E+01 -0.47341465667E+01  0.60181748569E+01  0.51100000000E-03 0.  1.
         12    1    4    4    0    0 -0.23527511263E+02  0.18020261379E+02  0.32897486714E+02  0.44277739763E+02  0.00000000000E+00 0. -1.
</event>
<event>
 8    1  0.2971508E-007  0.9118800E+02  0.7816164E-02  0.1184000E+00
        -11   -1    0    0    0    0  0.00000000000E+00  0.00000000000E+00  0.45593999997E+02  0.45594000000E+02  0.51100000000E-03 0.  1.
         11   -1    0    0    0    0 -0.00000000000E+00 -0.00000000000E+00 -0.45593999997E+02  0.45594000000E+02  0.51100000000E-03 0. -1.
         23    2    1    2    0    0  0.26645352591E-14  0.00000000000E+00  0.00000000000E+00  0.91188000000E+02  0.91188000000E+02 0.  0.
    9900012    2    3    3    0    0  0.71782925811E+01  0.29717890485E+02  0.20520710093E+02  0.54367076030E+02  0.39999981425E+02 0.  0.
         12    1    3    3    0    0 -0.71782925811E+01 -0.29717890485E+02 -0.20520710093E+02  0.36820923970E+02  0.00000000000E+00 0. -1.
         11    1    4    4    0    0  0.11523682118E+02  0.41453688840E+01 -0.88400560030E+01  0.15103838026E+02  0.51100000000E-03 0. -1.
        -11    1    4    4    0    0  0.16690575707E+00  0.47083033896E+01  0.57404332274E+01  0.74262071235E+01  0.51100000000E-03 0.  1.
         12    1    4    4    0    0 -0.45122952935E+01  0.20864218212E+02  0.23620332869E+02  0.31837030880E+02  0.00000000000E+00 0. -1.
</event>
<event>
 8    1  0.2971508E-007  0.9118800E+02  0.7816164E-02  0.1184000E+00
        -11   -1    0    0    0    0  0.00000000000E+00  0.00000000000E+00  0.45593999997E+02  0.45594000000E+02  0.51100000000E-03 0. -1.
         11   -1    0    0    0    0 -0.00000000000E+00 -0.00000000000E+00 -0.45593999997E+02  0.45594000000E+02  0.51100000000E-03 0.  1.
         23    2    1    2    0    0  0.00000000000E+00  0.00000000000E+00 -0.17763568394E-14  0.91188000000E+02  0.91188000000E+02 0.  0.
    9900012    2    3    3    0    0  0.25386141864E+02  0.24074537840E+02 -0.11477766198E+02  0.54367099851E+02  0.40000035729E+02 0.  0.
         12    1    3    3    0    0 -0.25386141864E+02 -0.24074537840E+02  0.11477766198E+02  0.36820900149E+02  0.00000000000E+00 0. -1.
         11    1    4    4    0    0  0.51306662880E+01  0.19737317996E+01 -0.38185169513E+01  0.66933120161E+01  0.51100000000E-03 0.  1.
        -11    1    4    4    0    0 -0.46315903787E+01  0.12023811685E+02  0.93230167645E+01  0.15904160422E+02  0.51100000000E-03 0. -1.
         12    1    4    4    0    0  0.24887065954E+02  0.10076994355E+02 -0.16982266012E+02  0.31769627412E+02  0.00000000000E+00 0. -1.
</event>
<event>
 8    1  0.2971508E-007  0.9118800E+02  0.7816164E-02  0.1184000E+00
        -11   -1    0    0    0    0  0.00000000000E+00  0.00000000000E+00  0.45593999997E+02  0.45594000000E+02  0.51100000000E-03 0. -1.
         11   -1    0    0    0    0 -0.00000000000E+00 -0.00000000000E+00 -0.45593999997E+02  0.45594000000E+02  0.51100000000E-03 0.  1.
         23    2    1    2    0    0  0.00000000000E+00  0.44408920985E-15 -0.35527136788E-14  0.91188000000E+02  0.91188000000E+02 0.  0.
    9900012    2    3    3    0    0  0.24620042003E+02  0.13608439105E+01 -0.27345596168E+02  0.54367082111E+02  0.39999995289E+02 0.  0.
         12    1    3    3    0    0 -0.24620042003E+02 -0.13608439105E+01  0.27345596168E+02  0.36820917889E+02  0.00000000000E+00 0. -1.
         11    1    4    4    0    0 -0.39731184785E+01 -0.11287060251E+01  0.41747376495E+01  0.58726554844E+01  0.51100000000E-03 0. -1.
        -11    1    4    4    0    0  0.53736709514E+01  0.42594222988E+01 -0.22499830069E+02  0.23521508693E+02  0.51100000000E-03 0.  1.
         12    1    4    4    0    0  0.23219489530E+02 -0.17698723632E+01 -0.90205037488E+01  0.24972917933E+02  0.00000000000E+00 0. -1.
</event>
<event>
 8    1  0.2971508E-007  0.9118800E+02  0.7816164E-02  0.1184000E+00
        -11   -1    0    0    0    0  0.00000000000E+00  0.00000000000E+00  0.45593999997E+02  0.45594000000E+02  0.51100000000E-03 0. -1.
         11   -1    0    0    0    0 -0.00000000000E+00 -0.00000000000E+00 -0.45593999997E+02  0.45594000000E+02  0.51100000000E-03 0.  1.
         23    2    1    2    0    0 -0.35527136788E-14 -0.35527136788E-14  0.00000000000E+00  0.91188000000E+02  0.91188000000E+02 0.  0.
    9900012    2    3    3    0    0  0.28108435174E+02 -0.22112054342E+02  0.87608654623E+01  0.54367084221E+02  0.40000000099E+02 0.  0.
         12    1    3    3    0    0 -0.28108435174E+02  0.22112054342E+02 -0.87608654623E+01  0.36820915779E+02  0.00000000000E+00 0. -1.
         11    1    4    4    0    0  0.12639765019E+02  0.16357021530E+01 -0.44014165309E+01  0.13483755004E+02  0.51100000000E-03 0. -1.
        -11    1    4    4    0    0  0.15728213047E+02 -0.22933625254E+02  0.11592113952E+00  0.27809014561E+02  0.51100000000E-03 0.  1.
         12    1    4    4    0    0 -0.25954289186E+00 -0.81413124091E+00  0.13046360854E+02  0.13074314656E+02  0.00000000000E+00 0. -1.
</event>
<event>
 8    1  0.2971508E-007  0.9118800E+02  0.7816164E-02  0.1184000E+00
        -11   -1    0    0    0    0  0.00000000000E+00  0.00000000000E+00  0.45593999997E+02  0.45594000000E+02  0.51100000000E-03 0.  1.
         11   -1    0    0    0    0 -0.00000000000E+00 -0.00000000000E+00 -0.45593999997E+02  0.45594000000E+02  0.51100000000E-03 0. -1.
         23    2    1    2    0    0  0.00000000000E+00  0.35527136788E-14  0.00000000000E+00  0.91188000000E+02  0.91188000000E+02 0.  0.
    9900012    2    3    3    0    0 -0.85950630525E+01  0.30920007444E+02  0.18051508786E+02  0.54367096444E+02  0.40000027963E+02 0.  0.
         12    1    3    3    0    0  0.85950630525E+01 -0.30920007444E+02 -0.18051508786E+02  0.36820903556E+02  0.00000000000E+00 0. -1.
         11    1    4    4    0    0 -0.35422271340E+01  0.69704134582E+01  0.46078421625E+01  0.90755851879E+01  0.51100000000E-03 0.  1.
        -11    1    4    4    0    0 -0.52894983431E+01  0.22380777975E+02 -0.75752070896E+01  0.24212843249E+02  0.51100000000E-03 0. -1.
        -12    1    4    4    0    0  0.23666242467E+00  0.15688160108E+01  0.21018873713E+02  0.21078668007E+02  0.00000000000E+00 0.  1.
</event>
<event>
 8    1  0.2971508E-007  0.9118800E+02  0.7816164E-02  0.1184000E+00
        -11   -1    0    0    0    0  0.00000000000E+00  0.00000000000E+00  0.45593999997E+02  0.45594000000E+02  0.51100000000E-03 0.  1.
         11   -1    0    0    0    0 -0.00000000000E+00 -0.00000000000E+00 -0.45593999997E+02  0.45594000000E+02  0.51100000000E-03 0. -1.
         23    2    1    2    0    0 -0.35527136788E-14  0.35527136788E-14  0.00000000000E+00  0.91188000000E+02  0.91188000000E+02 0.  0.
    9900012    2    3    3    0    0  0.16183039134E+02 -0.30848146434E+02  0.11928152691E+02  0.54367085826E+02  0.40000003757E+02 0.  0.
         12    1    3    3    0    0 -0.16183039134E+02  0.30848146434E+02 -0.11928152691E+02  0.36820914174E+02  0.00000000000E+00 0. -1.
         11    1    4    4    0    0  0.22072783172E+02 -0.17763336399E+02  0.77320356895E+01  0.29368831321E+02  0.51100000000E-03 0.  1.
        -11    1    4    4    0    0  0.24135268485E+01 -0.12218069236E+02 -0.42143328160E+01  0.13147886867E+02  0.51100000000E-03 0. -1.
         12    1    4    4    0    0 -0.83032708866E+01 -0.86674079870E+00  0.84104498176E+01  0.11850367638E+02  0.00000000000E+00 0. -1.
</event>
<event>
 8    1  0.2971508E-007  0.9118800E+02  0.7816164E-02  0.1184000E+00
        -11   -1    0    0    0    0  0.00000000000E+00  0.00000000000E+00  0.45593999997E+02  0.45594000000E+02  0.51100000000E-03 0.  1.
         11   -1    0    0    0    0 -0.00000000000E+00 -0.00000000000E+00 -0.45593999997E+02  0.45594000000E+02  0.51100000000E-03 0. -1.
         23    2    1    2    0    0  0.17763568394E-14 -0.35527136788E-14  0.00000000000E+00  0.91188000000E+02  0.91188000000E+02 0.  0.
    9900012    2    3    3    0    0 -0.11531935893E+02 -0.27720959233E+02 -0.21315328828E+02  0.54367077017E+02  0.39999983676E+02 0.  0.
        -12    1    3    3    0    0  0.11531935893E+02  0.27720959233E+02  0.21315328828E+02  0.36820922983E+02  0.00000000000E+00 0.  1.
         11    1    4    4    0    0 -0.77989095602E+01 -0.24497796564E+02 -0.13289817713E+02  0.28941048390E+02  0.51100000000E-03 0. -1.
        -11    1    4    4    0    0 -0.56601028356E+01 -0.10354562290E+02  0.29801074416E+01  0.12171062606E+02  0.51100000000E-03 0.  1.
        -12    1    4    4    0    0  0.19270765026E+01  0.71313996213E+01 -0.11005618557E+02  0.13254966021E+02  0.00000000000E+00 0.  1.
</event>
<event>
 8    1  0.2971508E-007  0.9118800E+02  0.7816164E-02  0.1184000E+00
        -11   -1    0    0    0    0  0.00000000000E+00  0.00000000000E+00  0.45593999997E+02  0.45594000000E+02  0.51100000000E-03 0.  1.
         11   -1    0    0    0    0 -0.00000000000E+00 -0.00000000000E+00 -0.45593999997E+02  0.45594000000E+02  0.51100000000E-03 0. -1.
         23    2    1    2    0    0  0.00000000000E+00  0.17763568394E-14  0.00000000000E+00  0.91188000000E+02  0.91188000000E+02 0.  0.
    9900012    2    3    3    0    0  0.26506688862E+02  0.89684124654E+01 -0.23932053885E+02  0.54367079591E+02  0.39999989545E+02 0.  0.
        -12    1    3    3    0    0 -0.26506688862E+02 -0.89684124654E+01  0.23932053885E+02  0.36820920409E+02  0.00000000000E+00 0.  1.
         11    1    4    4    0    0  0.85593310376E+01 -0.88936568554E+01 -0.12150793827E+02  0.17320538992E+02  0.51100000000E-03 0. -1.
        -11    1    4    4    0    0  0.70855711211E+01 -0.52918723482E+01  0.10517148699E+00  0.88442236723E+01  0.51100000000E-03 0.  1.
        -12    1    4    4    0    0  0.10861786703E+02  0.23153941669E+02 -0.11886431545E+02  0.28202316927E+02  0.00000000000E+00 0.  1.
</event>
<event>
 8    1  0.2971508E-007  0.9118800E+02  0.7816164E-02  0.1184000E+00
        -11   -1    0    0    0    0  0.00000000000E+00  0.00000000000E+00  0.45593999997E+02  0.45594000000E+02  0.51100000000E-03 0.  1.
         11   -1    0    0    0    0 -0.00000000000E+00 -0.00000000000E+00 -0.45593999997E+02  0.45594000000E+02  0.51100000000E-03 0. -1.
         23    2    1    2    0    0 -0.35527136788E-14  0.17763568394E-14  0.17763568394E-14  0.91188000000E+02  0.91188000000E+02 0.  0.
    9900012    2    3    3    0    0  0.31555052813E+02 -0.13011265922E+02 -0.13811752864E+02  0.54367096750E+02  0.40000028662E+02 0.  0.
        -12    1    3    3    0    0 -0.31555052813E+02  0.13011265922E+02  0.13811752864E+02  0.36820903250E+02  0.00000000000E+00 0.  1.
         11    1    4    4    0    0  0.63204732099E+01 -0.13455030059E+02  0.62374141233E+01  0.16121152276E+02  0.51100000000E-03 0. -1.
        -11    1    4    4    0    0 -0.33192005118E+01 -0.90735974238E+00 -0.46243714305E+01  0.57641309083E+01  0.51100000000E-03 0.  1.
         12    1    4    4    0    0  0.28553780115E+02  0.13511238790E+01 -0.15424795557E+02  0.32481813566E+02  0.00000000000E+00 0. -1.
</event>
<event>
 8    1  0.2971508E-007  0.9118800E+02  0.7816164E-02  0.1184000E+00
        -11   -1    0    0    0    0  0.00000000000E+00  0.00000000000E+00  0.45593999997E+02  0.45594000000E+02  0.51100000000E-03 0. -1.
         11   -1    0    0    0    0 -0.00000000000E+00 -0.00000000000E+00 -0.45593999997E+02  0.45594000000E+02  0.51100000000E-03 0.  1.
         23    2    1    2    0    0 -0.17763568394E-14  0.71054273576E-14 -0.88817841970E-15  0.91188000000E+02  0.91188000000E+02 0.  0.
    9900012    2    3    3    0    0  0.13887411192E+02  0.33980788110E+02  0.28681071139E+01  0.54367079471E+02  0.39999989270E+02 0.  0.
        -12    1    3    3    0    0 -0.13887411192E+02 -0.33980788110E+02 -0.28681071139E+01  0.36820920529E+02  0.00000000000E+00 0.  1.
         11    1    4    4    0    0  0.26855436845E+01  0.18214886993E+02  0.16681084124E+02  0.24844573268E+02  0.51100000000E-03 0. -1.
        -11    1    4    4    0    0  0.83107620397E+01  0.43263719802E+01  0.22073813062E+01  0.96259437295E+01  0.51100000000E-03 0.  1.
        -12    1    4    4    0    0  0.28911054674E+01  0.11439529137E+02 -0.16020358316E+02  0.19896562474E+02  0.00000000000E+00 0.  1.
</event>
<event>
 8    1  0.2971508E-007  0.9118800E+02  0.7816164E-02  0.1184000E+00
        -11   -1    0    0    0    0  0.00000000000E+00  0.00000000000E+00  0.45593999997E+02  0.45594000000E+02  0.51100000000E-03 0. -1.
         11   -1    0    0    0    0 -0.00000000000E+00 -0.00000000000E+00 -0.45593999997E+02  0.45594000000E+02  0.51100000000E-03 0.  1.
         23    2    1    2    0    0  0.00000000000E+00  0.00000000000E+00  0.00000000000E+00  0.91188000000E+02  0.91188000000E+02 0.  0.
    9900012    2    3    3    0    0  0.13142642721E+02  0.33788769185E+02 -0.64320151856E+01  0.54367071168E+02  0.39999970341E+02 0.  0.
         12    1    3    3    0    0 -0.13142642721E+02 -0.33788769185E+02  0.64320151856E+01  0.36820928832E+02  0.00000000000E+00 0. -1.
         11    1    4    4    0    0  0.12788474895E+02 -0.19848165134E+00  0.93012077773E+01  0.15814453879E+02  0.51100000000E-03 0. -1.
        -11    1    4    4    0    0  0.15375577042E+01  0.20118980926E+02 -0.13926830211E+02  0.24517220013E+02  0.51100000000E-03 0.  1.
         12    1    4    4    0    0 -0.11833898781E+01  0.13868269911E+02 -0.18063927519E+01  0.14035397276E+02  0.00000000000E+00 0. -1.
</event>
<event>
 8    1  0.2971508E-007  0.9118800E+02  0.7816164E-02  0.1184000E+00
        -11   -1    0    0    0    0  0.00000000000E+00  0.00000000000E+00  0.45593999997E+02  0.45594000000E+02  0.51100000000E-03 0.  1.
         11   -1    0    0    0    0 -0.00000000000E+00 -0.00000000000E+00 -0.45593999997E+02  0.45594000000E+02  0.51100000000E-03 0. -1.
         23    2    1    2    0    0  0.71054273576E-14  0.00000000000E+00  0.00000000000E+00  0.91188000000E+02  0.91188000000E+02 0.  0.
    9900012    2    3    3    0    0  0.14003627362E+02  0.28851425277E+02  0.18090694116E+02  0.54367088368E+02  0.40000009553E+02 0.  0.
         12    1    3    3    0    0 -0.14003627362E+02 -0.28851425277E+02 -0.18090694116E+02  0.36820911632E+02  0.00000000000E+00 0. -1.
         11    1    4    4    0    0 -0.12441891126E+01 -0.13925086065E+01  0.48226100691E+01  0.51715234609E+01  0.51100000000E-03 0. -1.
        -11    1    4    4    0    0  0.25745420498E+02  0.22222403479E+02  0.77723074421E+01  0.34886539757E+02  0.51100000000E-03 0.  1.
        -12    1    4    4    0    0 -0.10497604023E+02  0.80215304041E+01  0.54957766050E+01  0.14309025150E+02  0.00000000000E+00 0.  1.
</event>
<event>
 8    1  0.2971508E-007  0.9118800E+02  0.7816164E-02  0.1184000E+00
        -11   -1    0    0    0    0  0.00000000000E+00  0.00000000000E+00  0.45593999997E+02  0.45594000000E+02  0.51100000000E-03 0. -1.
         11   -1    0    0    0    0 -0.00000000000E+00 -0.00000000000E+00 -0.45593999997E+02  0.45594000000E+02  0.51100000000E-03 0.  1.
         23    2    1    2    0    0 -0.88817841970E-15  0.00000000000E+00  0.00000000000E+00  0.91188000000E+02  0.91188000000E+02 0.  0.
    9900012    2    3    3    0    0 -0.46085589722E+01  0.16562016450E+02  0.32561339994E+02  0.54367081124E+02  0.39999993038E+02 0.  0.
        -12    1    3    3    0    0  0.46085589722E+01 -0.16562016450E+02 -0.32561339994E+02  0.36820918876E+02  0.00000000000E+00 0.  1.
         11    1    4    4    0    0  0.38250719156E+01 -0.77956623025E+00  0.14772408577E+02  0.15279494563E+02  0.51100000000E-03 0. -1.
        -11    1    4    4    0    0  0.60176347886E+01 -0.57194382692E+00  0.14663310640E+02  0.15860382321E+02  0.51100000000E-03 0.  1.
         12    1    4    4    0    0 -0.14451265676E+02  0.17913526507E+02  0.31256207769E+01  0.23227204240E+02  0.00000000000E+00 0. -1.
</event>
<event>
 8    1  0.2971508E-007  0.9118800E+02  0.7816164E-02  0.1184000E+00
        -11   -1    0    0    0    0  0.00000000000E+00  0.00000000000E+00  0.45593999997E+02  0.45594000000E+02  0.51100000000E-03 0.  1.
         11   -1    0    0    0    0 -0.00000000000E+00 -0.00000000000E+00 -0.45593999997E+02  0.45594000000E+02  0.51100000000E-03 0. -1.
         23    2    1    2    0    0  0.00000000000E+00 -0.71054273576E-14  0.00000000000E+00  0.91188000000E+02  0.91188000000E+02 0.  0.
    9900012    2    3    3    0    0 -0.59947601730E+01  0.36196223458E+02  0.31107471711E+01  0.54367075377E+02  0.39999979937E+02 0.  0.
        -12    1    3    3    0    0  0.59947601730E+01 -0.36196223458E+02 -0.31107471711E+01  0.36820924623E+02  0.00000000000E+00 0.  1.
         11    1    4    4    0    0 -0.50343181597E+01 -0.33982163232E+01 -0.85035653294E+01  0.10450017085E+02  0.51100000000E-03 0. -1.
        -11    1    4    4    0    0  0.39065635429E+01  0.21812249493E+02  0.60023272729E-01  0.22159401384E+02  0.51100000000E-03 0.  1.
        -12    1    4    4    0    0 -0.48670055562E+01  0.17782190288E+02  0.11554289228E+02  0.21757656907E+02  0.00000000000E+00 0.  1.
</event>
<event>
 8    1  0.2971508E-007  0.9118800E+02  0.7816164E-02  0.1184000E+00
        -11   -1    0    0    0    0  0.00000000000E+00  0.00000000000E+00  0.45593999997E+02  0.45594000000E+02  0.51100000000E-03 0.  1.
         11   -1    0    0    0    0 -0.00000000000E+00 -0.00000000000E+00 -0.45593999997E+02  0.45594000000E+02  0.51100000000E-03 0. -1.
         23    2    1    2    0    0  0.00000000000E+00  0.71054273576E-14  0.26645352591E-14  0.91188000000E+02  0.91188000000E+02 0.  0.
    9900012    2    3    3    0    0  0.55603365874E+01  0.35563566379E+02  0.77520654210E+01  0.54367094051E+02  0.40000022509E+02 0.  0.
         12    1    3    3    0    0 -0.55603365874E+01 -0.35563566379E+02 -0.77520654210E+01  0.36820905949E+02  0.00000000000E+00 0. -1.
         11    1    4    4    0    0  0.41941439280E+01  0.10990580339E+02 -0.16686981812E+01  0.11881424719E+02  0.51100000000E-03 0. -1.
        -11    1    4    4    0    0  0.70850969539E+01  0.31199466835E+02  0.10485120889E+02  0.33668131667E+02  0.51100000000E-03 0.  1.
         12    1    4    4    0    0 -0.57189042945E+01 -0.66264807943E+01 -0.10643572865E+01  0.88175376653E+01  0.00000000000E+00 0. -1.
</event>
<event>
 8    1  0.2971508E-007  0.9118800E+02  0.7816164E-02  0.1184000E+00
        -11   -1    0    0    0    0  0.00000000000E+00  0.00000000000E+00  0.45593999997E+02  0.45594000000E+02  0.51100000000E-03 0. -1.
         11   -1    0    0    0    0 -0.00000000000E+00 -0.00000000000E+00 -0.45593999997E+02  0.45594000000E+02  0.51100000000E-03 0.  1.
         23    2    1    2    0    0  0.00000000000E+00 -0.88817841970E-15 -0.71054273576E-14  0.91188000000E+02  0.91188000000E+02 0.  0.
    9900012    2    3    3    0    0 -0.27032036124E+01  0.51138124727E+01 -0.36363732566E+02  0.54367089719E+02  0.40000012633E+02 0.  0.
         12    1    3    3    0    0  0.27032036124E+01 -0.51138124727E+01  0.36363732566E+02  0.36820910281E+02  0.00000000000E+00 0. -1.
         11    1    4    4    0    0  0.18201125747E+01  0.15625078583E+02 -0.76854772779E+01  0.17507782606E+02  0.51100000000E-03 0.  1.
        -11    1    4    4    0    0 -0.82635552556E+01 -0.12231195486E+02 -0.10235247486E+02  0.17962426891E+02  0.51100000000E-03 0. -1.
         12    1    4    4    0    0  0.37402390685E+01  0.17199293750E+01 -0.18443007802E+02  0.18896880222E+02  0.00000000000E+00 0. -1.
</event>
<event>
 8    1  0.2971508E-007  0.9118800E+02  0.7816164E-02  0.1184000E+00
        -11   -1    0    0    0    0  0.00000000000E+00  0.00000000000E+00  0.45593999997E+02  0.45594000000E+02  0.51100000000E-03 0. -1.
         11   -1    0    0    0    0 -0.00000000000E+00 -0.00000000000E+00 -0.45593999997E+02  0.45594000000E+02  0.51100000000E-03 0.  1.
         23    2    1    2    0    0  0.00000000000E+00  0.00000000000E+00  0.00000000000E+00  0.91188000000E+02  0.91188000000E+02 0.  0.
    9900012    2    3    3    0    0 -0.17540793697E+02 -0.15618028646E+02 -0.28358037054E+02  0.54367074864E+02  0.39999978768E+02 0.  0.
         12    1    3    3    0    0  0.17540793697E+02  0.15618028646E+02  0.28358037054E+02  0.36820925136E+02  0.00000000000E+00 0. -1.
         11    1    4    4    0    0 -0.18002930966E+02 -0.52612436706E+00  0.15268438447E+01  0.18075220126E+02  0.51100000000E-03 0. -1.
        -11    1    4    4    0    0 -0.57354205761E+01 -0.27231859515E+01 -0.62716938537E+01  0.89244010985E+01  0.51100000000E-03 0.  1.
         12    1    4    4    0    0  0.61975578449E+01 -0.12368718327E+02 -0.23613187045E+02  0.27367453640E+02  0.00000000000E+00 0. -1.
</event>
<event>
 8    1  0.2971508E-007  0.9118800E+02  0.7816164E-02  0.1184000E+00
        -11   -1    0    0    0    0  0.00000000000E+00  0.00000000000E+00  0.45593999997E+02  0.45594000000E+02  0.51100000000E-03 0.  1.
         11   -1    0    0    0    0 -0.00000000000E+00 -0.00000000000E+00 -0.45593999997E+02  0.45594000000E+02  0.51100000000E-03 0. -1.
         23    2    1    2    0    0  0.00000000000E+00  0.00000000000E+00  0.00000000000E+00  0.91188000000E+02  0.91188000000E+02 0.  0.
    9900012    2    3    3    0    0 -0.26087044572E+02  0.23745493455E+02  0.10554372631E+02  0.54367120929E+02  0.40000083781E+02 0.  0.
        -12    1    3    3    0    0  0.26087044572E+02 -0.23745493455E+02 -0.10554372631E+02  0.36820879071E+02  0.00000000000E+00 0.  1.
         11    1    4    4    0    0 -0.76509939203E+01 -0.41363518168E+01  0.44622820484E+00  0.87089743479E+01  0.51100000000E-03 0.  1.
        -11    1    4    4    0    0  0.46660760264E+00  0.25253801538E+02  0.37065358491E+01  0.25528623602E+02  0.51100000000E-03 0. -1.
         12    1    4    4    0    0 -0.18902658255E+02  0.26280437343E+01  0.64016085774E+01  0.20129522978E+02  0.00000000000E+00 0. -1.
</event>
<event>
 8    1  0.2971508E-007  0.9118800E+02  0.7816164E-02  0.1184000E+00
        -11   -1    0    0    0    0  0.00000000000E+00  0.00000000000E+00  0.45593999997E+02  0.45594000000E+02  0.51100000000E-03 0.  1.
         11   -1    0    0    0    0 -0.00000000000E+00 -0.00000000000E+00 -0.45593999997E+02  0.45594000000E+02  0.51100000000E-03 0. -1.
         23    2    1    2    0    0  0.44408920985E-15  0.00000000000E+00  0.00000000000E+00  0.91188000000E+02  0.91188000000E+02 0.  0.
    9900012    2    3    3    0    0 -0.27105088912E+01  0.17236981043E+02 -0.32424057613E+02  0.54367083580E+02  0.39999998637E+02 0.  0.
        -12    1    3    3    0    0  0.27105088912E+01 -0.17236981043E+02  0.32424057613E+02  0.36820916420E+02  0.00000000000E+00 0.  1.
         11    1    4    4    0    0 -0.24635271460E+01  0.12065743630E+02 -0.31614046149E+01  0.12713992872E+02  0.51100000000E-03 0. -1.
        -11    1    4    4    0    0 -0.57017992826E+01  0.11965796625E+02 -0.30110340125E+02  0.32898683661E+02  0.51100000000E-03 0.  1.
        -12    1    4    4    0    0  0.54548175374E+01 -0.67945592131E+01  0.84768712675E+00  0.87544070462E+01  0.00000000000E+00 0.  1.
</event>
<event>
 8    1  0.2971508E-007  0.9118800E+02  0.7816164E-02  0.1184000E+00
        -11   -1    0    0    0    0  0.00000000000E+00  0.00000000000E+00  0.45593999997E+02  0.45594000000E+02  0.51100000000E-03 0.  1.
         11   -1    0    0    0    0 -0.00000000000E+00 -0.00000000000E+00 -0.45593999997E+02  0.45594000000E+02  0.51100000000E-03 0. -1.
         23    2    1    2    0    0  0.35527136788E-14  0.35527136788E-14  0.88817841970E-15  0.91188000000E+02  0.91188000000E+02 0.  0.
    9900012    2    3    3    0    0 -0.31219576401E+02 -0.17976767963E+02 -0.76127328720E+01  0.54367084220E+02  0.40000000097E+02 0.  0.
         12    1    3    3    0    0  0.31219576401E+02  0.17976767963E+02  0.76127328720E+01  0.36820915780E+02  0.00000000000E+00 0. -1.
         11    1    4    4    0    0 -0.56673225341E+01 -0.14153646329E+02 -0.51169222910E+00  0.15254706760E+02  0.51100000000E-03 0. -1.
        -11    1    4    4    0    0 -0.12037524536E+02  0.11727925499E+02  0.13133573494E+01  0.16857376464E+02  0.51100000000E-03 0.  1.
         12    1    4    4    0    0 -0.13514729331E+02 -0.15551047132E+02 -0.84143979923E+01  0.22255000997E+02  0.00000000000E+00 0. -1.
</event>
<event>
 8    1  0.2971508E-007  0.9118800E+02  0.7816164E-02  0.1184000E+00
        -11   -1    0    0    0    0  0.00000000000E+00  0.00000000000E+00  0.45593999997E+02  0.45594000000E+02  0.51100000000E-03 0. -1.
         11   -1    0    0    0    0 -0.00000000000E+00 -0.00000000000E+00 -0.45593999997E+02  0.45594000000E+02  0.51100000000E-03 0.  1.
         23    2    1    2    0    0  0.00000000000E+00  0.00000000000E+00  0.71054273576E-14  0.91188000000E+02  0.91188000000E+02 0.  0.
    9900012    2    3    3    0    0  0.17746486922E+01 -0.88857723044E+01  0.35688583965E+02  0.54367063661E+02  0.39999953229E+02 0.  0.
        -12    1    3    3    0    0 -0.17746486922E+01  0.88857723044E+01 -0.35688583965E+02  0.36820936339E+02  0.00000000000E+00 0.  1.
         11    1    4    4    0    0 -0.39289388618E+01 -0.12238952206E+02 -0.16589674209E+01  0.12960736277E+02  0.51100000000E-03 0. -1.
        -11    1    4    4    0    0  0.10180954337E+01  0.95816070945E+01  0.15962669095E+02  0.18645388645E+02  0.51100000000E-03 0.  1.
        -12    1    4    4    0    0  0.46854921202E+01 -0.62284271930E+01  0.21384882291E+02  0.22760938739E+02  0.00000000000E+00 0.  1.
</event>
<event>
 8    1  0.2971508E-007  0.9118800E+02  0.7816164E-02  0.1184000E+00
        -11   -1    0    0    0    0  0.00000000000E+00  0.00000000000E+00  0.45593999997E+02  0.45594000000E+02  0.51100000000E-03 0. -1.
         11   -1    0    0    0    0 -0.00000000000E+00 -0.00000000000E+00 -0.45593999997E+02  0.45594000000E+02  0.51100000000E-03 0.  1.
         23    2    1    2    0    0 -0.71054273576E-14 -0.35527136788E-14  0.00000000000E+00  0.91188000000E+02  0.91188000000E+02 0.  0.
    9900012    2    3    3    0    0  0.34758355474E+02  0.84389904957E+01 -0.87418206101E+01  0.54367092034E+02  0.40000017910E+02 0.  0.
        -12    1    3    3    0    0 -0.34758355474E+02 -0.84389904957E+01  0.87418206101E+01  0.36820907966E+02  0.00000000000E+00 0.  1.
         11    1    4    4    0    0  0.92290344493E+01 -0.31931827474E+01  0.38611341701E+01  0.10501421345E+02  0.51100000000E-03 0. -1.
        -11    1    4    4    0    0  0.17644772014E+02 -0.89404451927E+01 -0.38103379890E+01  0.20144185650E+02  0.51100000000E-03 0.  1.
        -12    1    4    4    0    0  0.78845490113E+01  0.20572618436E+02 -0.87926167911E+01  0.23721485039E+02  0.00000000000E+00 0.  1.
</event>
<event>
 8    1  0.2971508E-007  0.9118800E+02  0.7816164E-02  0.1184000E+00
        -11   -1    0    0    0    0  0.00000000000E+00  0.00000000000E+00  0.45593999997E+02  0.45594000000E+02  0.51100000000E-03 0. -1.
         11   -1    0    0    0    0 -0.00000000000E+00 -0.00000000000E+00 -0.45593999997E+02  0.45594000000E+02  0.51100000000E-03 0.  1.
         23    2    1    2    0    0  0.44408920985E-15  0.00000000000E+00  0.00000000000E+00  0.91188000000E+02  0.91188000000E+02 0.  0.
    9900012    2    3    3    0    0  0.22077938268E+01  0.36698976745E+02  0.20222939606E+01  0.54367096690E+02  0.40000028525E+02 0.  0.
         12    1    3    3    0    0 -0.22077938268E+01 -0.36698976745E+02 -0.20222939606E+01  0.36820903310E+02  0.00000000000E+00 0. -1.
         11    1    4    4    0    0 -0.65854433693E+01 -0.29534646680E+01 -0.51794803569E+01  0.88835823261E+01  0.51100000000E-03 0. -1.
        -11    1    4    4    0    0  0.31562089185E-01  0.31528043766E+02 -0.80732477146E-02  0.31528060602E+02  0.51100000000E-03 0.  1.
        -12    1    4    4    0    0  0.87616751069E+01  0.81243976465E+01  0.72098475652E+01  0.13955453762E+02  0.00000000000E+00 0.  1.
</event>
<event>
 8    1  0.2971508E-007  0.9118800E+02  0.7816164E-02  0.1184000E+00
        -11   -1    0    0    0    0  0.00000000000E+00  0.00000000000E+00  0.45593999997E+02  0.45594000000E+02  0.51100000000E-03 0. -1.
         11   -1    0    0    0    0 -0.00000000000E+00 -0.00000000000E+00 -0.45593999997E+02  0.45594000000E+02  0.51100000000E-03 0.  1.
         23    2    1    2    0    0 -0.17763568394E-14 -0.35527136788E-14 -0.35527136788E-14  0.91188000000E+02  0.91188000000E+02 0.  0.
    9900012    2    3    3    0    0  0.12094552900E+02  0.20768129702E+02  0.27895806652E+02  0.54367225294E+02  0.40000321701E+02 0.  0.
        -12    1    3    3    0    0 -0.12094552900E+02 -0.20768129702E+02 -0.27895806652E+02  0.36820774706E+02  0.00000000000E+00 0.  1.
         11    1    4    4    0    0 -0.69959893784E+01 -0.11055468440E+01 -0.24015911182E+01  0.74788863722E+01  0.51100000000E-03 0.  1.
        -11    1    4    4    0    0  0.20758156237E+02  0.24838792120E+02  0.27772654930E+02  0.42651928520E+02  0.51100000000E-03 0. -1.
         12    1    4    4    0    0 -0.16676139581E+01 -0.29651155745E+01  0.25247428409E+01  0.42364104022E+01  0.00000000000E+00 0. -1.
</event>
<event>
 8    1  0.2971508E-007  0.9118800E+02  0.7816164E-02  0.1184000E+00
        -11   -1    0    0    0    0  0.00000000000E+00  0.00000000000E+00  0.45593999997E+02  0.45594000000E+02  0.51100000000E-03 0. -1.
         11   -1    0    0    0    0 -0.00000000000E+00 -0.00000000000E+00 -0.45593999997E+02  0.45594000000E+02  0.51100000000E-03 0.  1.
         23    2    1    2    0    0  0.26645352591E-14 -0.17763568394E-14  0.71054273576E-14  0.91188000000E+02  0.91188000000E+02 0.  0.
    9900012    2    3    3    0    0 -0.56116986641E+01  0.47874302898E+01 -0.36074498865E+02  0.54367080416E+02  0.39999991424E+02 0.  0.
         12    1    3    3    0    0  0.56116986641E+01 -0.47874302898E+01  0.36074498865E+02  0.36820919584E+02  0.00000000000E+00 0. -1.
         11    1    4    4    0    0 -0.95570867495E+00 -0.62738153567E+01 -0.21296941538E+01  0.66940074433E+01  0.51100000000E-03 0. -1.
        -11    1    4    4    0    0 -0.11461537363E+02  0.12912828929E+02 -0.36332987506E+02  0.40226781764E+02  0.51100000000E-03 0.  1.
        -12    1    4    4    0    0  0.68055473735E+01 -0.18515832823E+01  0.23881827951E+01  0.74462912089E+01  0.00000000000E+00 0.  1.
</event>
<event>
 8    1  0.2971508E-007  0.9118800E+02  0.7816164E-02  0.1184000E+00
        -11   -1    0    0    0    0  0.00000000000E+00  0.00000000000E+00  0.45593999997E+02  0.45594000000E+02  0.51100000000E-03 0.  1.
         11   -1    0    0    0    0 -0.00000000000E+00 -0.00000000000E+00 -0.45593999997E+02  0.45594000000E+02  0.51100000000E-03 0. -1.
         23    2    1    2    0    0 -0.71054273576E-14  0.00000000000E+00  0.00000000000E+00  0.91188000000E+02  0.91188000000E+02 0.  0.
    9900012    2    3    3    0    0  0.26575406372E+02 -0.20290360709E+02  0.15421706094E+02  0.54367082299E+02  0.39999995716E+02 0.  0.
         12    1    3    3    0    0 -0.26575406372E+02  0.20290360709E+02 -0.15421706094E+02  0.36820917701E+02  0.00000000000E+00 0. -1.
         11    1    4    4    0    0  0.31183948696E+02 -0.17821205946E+02  0.17195306701E+02  0.39821007150E+02  0.51100000000E-03 0. -1.
        -11    1    4    4    0    0 -0.19796590631E+01 -0.27990015896E+01  0.56806292091E+01  0.66349836758E+01  0.51100000000E-03 0.  1.
         12    1    4    4    0    0 -0.26288832610E+01  0.32984682690E+00 -0.74542298164E+01  0.79110914725E+01  0.00000000000E+00 0. -1.
</event>
<event>
 8    1  0.2971508E-007  0.9118800E+02  0.7816164E-02  0.1184000E+00
        -11   -1    0    0    0    0  0.00000000000E+00  0.00000000000E+00  0.45593999997E+02  0.45594000000E+02  0.51100000000E-03 0. -1.
         11   -1    0    0    0    0 -0.00000000000E+00 -0.00000000000E+00 -0.45593999997E+02  0.45594000000E+02  0.51100000000E-03 0.  1.
         23    2    1    2    0    0  0.00000000000E+00 -0.88817841970E-15  0.00000000000E+00  0.91188000000E+02  0.91188000000E+02 0.  0.
    9900012    2    3    3    0    0 -0.20246288868E+02 -0.51311009184E+01 -0.30323904706E+02  0.54367087380E+02  0.40000007300E+02 0.  0.
         12    1    3    3    0    0  0.20246288868E+02  0.51311009184E+01  0.30323904706E+02  0.36820912620E+02  0.00000000000E+00 0. -1.
         11    1    4    4    0    0 -0.14637201339E+02  0.11925032868E+02 -0.50040036043E+01  0.19531874571E+02  0.51100000000E-03 0. -1.
        -11    1    4    4    0    0 -0.30944494548E+01  0.66520172818E+00 -0.12302918047E+02  0.12703539015E+02  0.51100000000E-03 0.  1.
         12    1    4    4    0    0 -0.25146380735E+01 -0.17721335514E+02 -0.13016983055E+02  0.22131673793E+02  0.00000000000E+00 0. -1.
</event>
<event>
 8    1  0.2971508E-007  0.9118800E+02  0.7816164E-02  0.1184000E+00
        -11   -1    0    0    0    0  0.00000000000E+00  0.00000000000E+00  0.45593999997E+02  0.45594000000E+02  0.51100000000E-03 0. -1.
         11   -1    0    0    0    0 -0.00000000000E+00 -0.00000000000E+00 -0.45593999997E+02  0.45594000000E+02  0.51100000000E-03 0.  1.
         23    2    1    2    0    0  0.35527136788E-14  0.00000000000E+00  0.17763568394E-14  0.91188000000E+02  0.91188000000E+02 0.  0.
    9900012    2    3    3    0    0 -0.26730857269E+02  0.21651256541E+02 -0.13132530852E+02  0.54367095520E+02  0.40000025857E+02 0.  0.
         12    1    3    3    0    0  0.26730857269E+02 -0.21651256541E+02  0.13132530852E+02  0.36820904480E+02  0.00000000000E+00 0. -1.
         11    1    4    4    0    0 -0.88377665587E+01  0.45560686247E+01 -0.67874637788E+01  0.12038834822E+02  0.51100000000E-03 0. -1.
        -11    1    4    4    0    0 -0.86683920956E+01  0.20522391003E+02 -0.16851033395E+02  0.27933257611E+02  0.51100000000E-03 0.  1.
         12    1    4    4    0    0 -0.92246986149E+01 -0.34272030868E+01  0.10505966322E+02  0.14395003088E+02  0.00000000000E+00 0. -1.
</event>
<event>
 8    1  0.2971508E-007  0.9118800E+02  0.7816164E-02  0.1184000E+00
        -11   -1    0    0    0    0  0.00000000000E+00  0.00000000000E+00  0.45593999997E+02  0.45594000000E+02  0.51100000000E-03 0. -1.
         11   -1    0    0    0    0 -0.00000000000E+00 -0.00000000000E+00 -0.45593999997E+02  0.45594000000E+02  0.51100000000E-03 0.  1.
         23    2    1    2    0    0  0.00000000000E+00 -0.88817841970E-15 -0.35527136788E-14  0.91188000000E+02  0.91188000000E+02 0.  0.
    9900012    2    3    3    0    0  0.21944521624E+02 -0.43134765248E+01 -0.29250868855E+02  0.54367062508E+02  0.39999950599E+02 0.  0.
         12    1    3    3    0    0 -0.21944521624E+02  0.43134765248E+01  0.29250868855E+02  0.36820937492E+02  0.00000000000E+00 0. -1.
         11    1    4    4    0    0  0.97227168637E+01  0.72851609527E+01 -0.16272185516E+02  0.20307358643E+02  0.51100000000E-03 0. -1.
        -11    1    4    4    0    0 -0.34402262207E+00  0.24952084853E+00 -0.16440020583E+02  0.16445512739E+02  0.51100000000E-03 0.  1.
        -12    1    4    4    0    0  0.12565827382E+02 -0.11848158326E+02  0.34613372440E+01  0.17614191126E+02  0.00000000000E+00 0.  1.
</event>
<event>
 8    1  0.2971508E-007  0.9118800E+02  0.7816164E-02  0.1184000E+00
        -11   -1    0    0    0    0  0.00000000000E+00  0.00000000000E+00  0.45593999997E+02  0.45594000000E+02  0.51100000000E-03 0.  1.
         11   -1    0    0    0    0 -0.00000000000E+00 -0.00000000000E+00 -0.45593999997E+02  0.45594000000E+02  0.51100000000E-03 0. -1.
         23    2    1    2    0    0 -0.13322676296E-14  0.00000000000E+00  0.00000000000E+00  0.91188000000E+02  0.91188000000E+02 0.  0.
    9900012    2    3    3    0    0  0.33235575471E+01 -0.28183555111E+02  0.23461111545E+02  0.54367047156E+02  0.39999915601E+02 0.  0.
         12    1    3    3    0    0 -0.33235575471E+01  0.28183555111E+02 -0.23461111545E+02  0.36820952844E+02  0.00000000000E+00 0. -1.
         11    1    4    4    0    0  0.70555034876E+01 -0.53364015116E+01  0.11140343859E+02  0.14225490224E+02  0.51100000000E-03 0. -1.
        -11    1    4    4    0    0  0.10873693317E+01 -0.11679798471E+02  0.21776893656E+02  0.24735261510E+02  0.51100000000E-03 0.  1.
         12    1    4    4    0    0 -0.48193152722E+01 -0.11167355128E+02 -0.94561259706E+01  0.15406295421E+02  0.00000000000E+00 0. -1.
</event>
<event>
 8    1  0.2971508E-007  0.9118800E+02  0.7816164E-02  0.1184000E+00
        -11   -1    0    0    0    0  0.00000000000E+00  0.00000000000E+00  0.45593999997E+02  0.45594000000E+02  0.51100000000E-03 0.  1.
         11   -1    0    0    0    0 -0.00000000000E+00 -0.00000000000E+00 -0.45593999997E+02  0.45594000000E+02  0.51100000000E-03 0. -1.
         23    2    1    2    0    0  0.22204460493E-15  0.00000000000E+00 -0.35527136788E-14  0.91188000000E+02  0.91188000000E+02 0.  0.
    9900012    2    3    3    0    0  0.11292110522E+01  0.26146325565E+02  0.25901289644E+02  0.54367051298E+02  0.39999925043E+02 0.  0.
        -12    1    3    3    0    0 -0.11292110522E+01 -0.26146325565E+02 -0.25901289644E+02  0.36820948702E+02  0.00000000000E+00 0.  1.
         11    1    4    4    0    0  0.59407990282E+01  0.13450450939E+01  0.37177020091E+01  0.71360737025E+01  0.51100000000E-03 0. -1.
        -11    1    4    4    0    0  0.39429097006E+01  0.30278494714E+02  0.12242869572E+02  0.32897137180E+02  0.51100000000E-03 0.  1.
        -12    1    4    4    0    0 -0.87544976766E+01 -0.54772142429E+01  0.99407180630E+01  0.14333840415E+02  0.00000000000E+00 0.  1.
</event>
<event>
 8    1  0.2971508E-007  0.9118800E+02  0.7816164E-02  0.1184000E+00
        -11   -1    0    0    0    0  0.00000000000E+00  0.00000000000E+00  0.45593999997E+02  0.45594000000E+02  0.51100000000E-03 0. -1.
         11   -1    0    0    0    0 -0.00000000000E+00 -0.00000000000E+00 -0.45593999997E+02  0.45594000000E+02  0.51100000000E-03 0.  1.
         23    2    1    2    0    0  0.71054273576E-14  0.17763568394E-14 -0.35527136788E-14  0.91188000000E+02  0.91188000000E+02 0.  0.
    9900012    2    3    3    0    0 -0.19649553855E+02 -0.84321575410E+01  0.29976220926E+02  0.54367081102E+02  0.39999992988E+02 0.  0.
        -12    1    3    3    0    0  0.19649553855E+02  0.84321575410E+01 -0.29976220926E+02  0.36820918898E+02  0.00000000000E+00 0.  1.
         11    1    4    4    0    0 -0.27676174682E+02 -0.99142159595E+01  0.28149467211E+02  0.40702024859E+02  0.51100000000E-03 0. -1.
        -11    1    4    4    0    0  0.29769147759E+01 -0.35656124350E+01 -0.25415685010E+01  0.52948261847E+01  0.51100000000E-03 0.  1.
        -12    1    4    4    0    0  0.50497060507E+01  0.50476708535E+01  0.43683222164E+01  0.83702300584E+01  0.00000000000E+00 0.  1.
</event>
<event>
 8    1  0.2971508E-007  0.9118800E+02  0.7816164E-02  0.1184000E+00
        -11   -1    0    0    0    0  0.00000000000E+00  0.00000000000E+00  0.45593999997E+02  0.45594000000E+02  0.51100000000E-03 0.  1.
         11   -1    0    0    0    0 -0.00000000000E+00 -0.00000000000E+00 -0.45593999997E+02  0.45594000000E+02  0.51100000000E-03 0. -1.
         23    2    1    2    0    0 -0.71054273576E-14  0.35527136788E-14  0.00000000000E+00  0.91188000000E+02  0.91188000000E+02 0.  0.
    9900012    2    3    3    0    0  0.19460780199E+02 -0.17421091064E+02  0.25953109693E+02  0.54367078195E+02  0.39999986362E+02 0.  0.
         12    1    3    3    0    0 -0.19460780199E+02  0.17421091064E+02 -0.25953109693E+02  0.36820921805E+02  0.00000000000E+00 0. -1.
         11    1    4    4    0    0  0.88394341135E+01 -0.14076730081E+01  0.83416253067E+00  0.89896032245E+01  0.51100000000E-03 0. -1.
        -11    1    4    4    0    0  0.20246582758E+02 -0.12379167558E+02  0.25815089700E+02  0.35065463910E+02  0.51100000000E-03 0.  1.
         12    1    4    4    0    0 -0.96252366722E+01 -0.36342504981E+01 -0.69614253767E+00  0.10312011060E+02  0.00000000000E+00 0. -1.
</event>
<event>
 8    1  0.2971508E-007  0.9118800E+02  0.7816164E-02  0.1184000E+00
        -11   -1    0    0    0    0  0.00000000000E+00  0.00000000000E+00  0.45593999997E+02  0.45594000000E+02  0.51100000000E-03 0.  1.
         11   -1    0    0    0    0 -0.00000000000E+00 -0.00000000000E+00 -0.45593999997E+02  0.45594000000E+02  0.51100000000E-03 0. -1.
         23    2    1    2    0    0  0.35527136788E-14  0.00000000000E+00 -0.35527136788E-14  0.91188000000E+02  0.91188000000E+02 0.  0.
    9900012    2    3    3    0    0 -0.23928839400E+02  0.10582981796E+02 -0.25907355913E+02  0.54367082723E+02  0.39999996684E+02 0.  0.
        -12    1    3    3    0    0  0.23928839400E+02 -0.10582981796E+02  0.25907355913E+02  0.36820917277E+02  0.00000000000E+00 0.  1.
         11    1    4    4    0    0 -0.22682359883E+01  0.12972957188E+01 -0.19246378301E+01  0.32453199718E+01  0.51100000000E-03 0. -1.
        -11    1    4    4    0    0 -0.21284599849E+02  0.84992702227E+00 -0.32673669976E+02  0.39004169990E+02  0.51100000000E-03 0.  1.
        -12    1    4    4    0    0 -0.37600356239E+00  0.84357590548E+01  0.86909518933E+01  0.12117592761E+02  0.00000000000E+00 0.  1.
</event>
<event>
 8    1  0.2971508E-007  0.9118800E+02  0.7816164E-02  0.1184000E+00
        -11   -1    0    0    0    0  0.00000000000E+00  0.00000000000E+00  0.45593999997E+02  0.45594000000E+02  0.51100000000E-03 0. -1.
         11   -1    0    0    0    0 -0.00000000000E+00 -0.00000000000E+00 -0.45593999997E+02  0.45594000000E+02  0.51100000000E-03 0.  1.
         23    2    1    2    0    0  0.00000000000E+00  0.17763568394E-14  0.00000000000E+00  0.91188000000E+02  0.91188000000E+02 0.  0.
    9900012    2    3    3    0    0 -0.26086217692E+02 -0.12439944562E+02 -0.22815274435E+02  0.54367085811E+02  0.40000003722E+02 0.  0.
         12    1    3    3    0    0  0.26086217692E+02  0.12439944562E+02  0.22815274435E+02  0.36820914189E+02  0.00000000000E+00 0. -1.
         11    1    4    4    0    0 -0.20891164635E+02 -0.11757898187E+02 -0.22311596282E+01  0.24076274694E+02  0.51100000000E-03 0. -1.
        -11    1    4    4    0    0  0.79147149365E+01  0.32147508281E+01 -0.81522836474E+01  0.11808347232E+02  0.51100000000E-03 0.  1.
         12    1    4    4    0    0 -0.13109767993E+02 -0.38967972031E+01 -0.12431831160E+02  0.18482463885E+02  0.00000000000E+00 0. -1.
</event>
<event>
 8    1  0.2971508E-007  0.9118800E+02  0.7816164E-02  0.1184000E+00
        -11   -1    0    0    0    0  0.00000000000E+00  0.00000000000E+00  0.45593999997E+02  0.45594000000E+02  0.51100000000E-03 0.  1.
         11   -1    0    0    0    0 -0.00000000000E+00 -0.00000000000E+00 -0.45593999997E+02  0.45594000000E+02  0.51100000000E-03 0. -1.
         23    2    1    2    0    0 -0.17763568394E-14  0.00000000000E+00 -0.35527136788E-14  0.91188000000E+02  0.91188000000E+02 0.  0.
    9900012    2    3    3    0    0 -0.12670320946E+02  0.27826073050E+02 -0.20517159237E+02  0.54367065773E+02  0.39999958042E+02 0.  0.
        -12    1    3    3    0    0  0.12670320946E+02 -0.27826073050E+02  0.20517159237E+02  0.36820934227E+02  0.00000000000E+00 0.  1.
         11    1    4    4    0    0  0.15735197611E+01 -0.41669068892E+01 -0.23449126266E+01  0.50336560221E+01  0.51100000000E-03 0. -1.
        -11    1    4    4    0    0 -0.13097754953E+02  0.13134133218E+02 -0.23275702617E+02  0.29762643915E+02  0.51100000000E-03 0.  1.
        -12    1    4    4    0    0 -0.11460857544E+01  0.18858846720E+02  0.51034560072E+01  0.19570765836E+02  0.00000000000E+00 0.  1.
</event>
<event>
 8    1  0.2971508E-007  0.9118800E+02  0.7816164E-02  0.1184000E+00
        -11   -1    0    0    0    0  0.00000000000E+00  0.00000000000E+00  0.45593999997E+02  0.45594000000E+02  0.51100000000E-03 0. -1.
         11   -1    0    0    0    0 -0.00000000000E+00 -0.00000000000E+00 -0.45593999997E+02  0.45594000000E+02  0.51100000000E-03 0.  1.
         23    2    1    2    0    0 -0.88817841970E-15  0.00000000000E+00  0.00000000000E+00  0.91188000000E+02  0.91188000000E+02 0.  0.
    9900012    2    3    3    0    0  0.22679716958E+01 -0.32627174475E+02 -0.16914570863E+02  0.54367096734E+02  0.40000028625E+02 0.  0.
         12    1    3    3    0    0 -0.22679716958E+01  0.32627174475E+02  0.16914570863E+02  0.36820903266E+02  0.00000000000E+00 0. -1.
         11    1    4    4    0    0  0.12201384203E+02 -0.88876817318E+01  0.37139410544E+01  0.15545353694E+02  0.51100000000E-03 0. -1.
        -11    1    4    4    0    0  0.50238199229E+01 -0.12428128406E+02 -0.46622012301E+01  0.14192718657E+02  0.51100000000E-03 0.  1.
        -12    1    4    4    0    0 -0.14957232430E+02 -0.11311364337E+02 -0.15966310687E+02  0.24629024384E+02  0.00000000000E+00 0.  1.
</event>
<event>
 8    1  0.2971508E-007  0.9118800E+02  0.7816164E-02  0.1184000E+00
        -11   -1    0    0    0    0  0.00000000000E+00  0.00000000000E+00  0.45593999997E+02  0.45594000000E+02  0.51100000000E-03 0. -1.
         11   -1    0    0    0    0 -0.00000000000E+00 -0.00000000000E+00 -0.45593999997E+02  0.45594000000E+02  0.51100000000E-03 0.  1.
         23    2    1    2    0    0  0.00000000000E+00  0.00000000000E+00  0.17763568394E-14  0.91188000000E+02  0.91188000000E+02 0.  0.
    9900012    2    3    3    0    0  0.35144743266E+02  0.66339015109E+01 -0.87531905536E+01  0.54367082394E+02  0.39999995934E+02 0.  0.
         12    1    3    3    0    0 -0.35144743266E+02 -0.66339015109E+01  0.87531905536E+01  0.36820917606E+02  0.00000000000E+00 0. -1.
         11    1    4    4    0    0  0.15773142102E+02  0.11466395628E+02 -0.83508229357E+01  0.21213356275E+02  0.51100000000E-03 0. -1.
        -11    1    4    4    0    0  0.87294748064E+01 -0.48923679360E+01 -0.13164780527E+02  0.16536336988E+02  0.51100000000E-03 0.  1.
         12    1    4    4    0    0  0.10642126357E+02  0.59873819117E-01  0.12762412909E+02  0.16617389131E+02  0.00000000000E+00 0. -1.
</event>
<event>
 8    1  0.2971508E-007  0.9118800E+02  0.7816164E-02  0.1184000E+00
        -11   -1    0    0    0    0  0.00000000000E+00  0.00000000000E+00  0.45593999997E+02  0.45594000000E+02  0.51100000000E-03 0. -1.
         11   -1    0    0    0    0 -0.00000000000E+00 -0.00000000000E+00 -0.45593999997E+02  0.45594000000E+02  0.51100000000E-03 0.  1.
         23    2    1    2    0    0  0.00000000000E+00  0.00000000000E+00  0.00000000000E+00  0.91188000000E+02  0.91188000000E+02 0.  0.
    9900012    2    3    3    0    0  0.27976592937E+02 -0.12753692853E+02  0.20259190645E+02  0.54367065203E+02  0.39999956743E+02 0.  0.
         12    1    3    3    0    0 -0.27976592937E+02  0.12753692853E+02 -0.20259190645E+02  0.36820934797E+02  0.00000000000E+00 0. -1.
         11    1    4    4    0    0 -0.46434750074E+01  0.19862087648E+01 -0.20249642494E-01  0.50504748006E+01  0.51100000000E-03 0. -1.
        -11    1    4    4    0    0  0.15154712911E+02 -0.46718335648E+01 -0.53247685202E+01  0.16728553802E+02  0.51100000000E-03 0.  1.
         12    1    4    4    0    0  0.17465355034E+02 -0.10068068052E+02  0.25604208807E+02  0.32588036600E+02  0.00000000000E+00 0. -1.
</event>
<event>
 8    1  0.2971508E-007  0.9118800E+02  0.7816164E-02  0.1184000E+00
        -11   -1    0    0    0    0  0.00000000000E+00  0.00000000000E+00  0.45593999997E+02  0.45594000000E+02  0.51100000000E-03 0.  1.
         11   -1    0    0    0    0 -0.00000000000E+00 -0.00000000000E+00 -0.45593999997E+02  0.45594000000E+02  0.51100000000E-03 0. -1.
         23    2    1    2    0    0  0.10658141036E-13  0.00000000000E+00  0.88817841970E-15  0.91188000000E+02  0.91188000000E+02 0.  0.
    9900012    2    3    3    0    0 -0.30713350718E+02  0.19381354976E+02 -0.60690284845E+01  0.54367082850E+02  0.39999996973E+02 0.  0.
        -12    1    3    3    0    0  0.30713350718E+02 -0.19381354976E+02  0.60690284845E+01  0.36820917150E+02  0.00000000000E+00 0.  1.
         11    1    4    4    0    0 -0.19370311297E+02  0.23535197829E+02  0.52580791958E+01  0.30931567915E+02  0.51100000000E-03 0. -1.
        -11    1    4    4    0    0 -0.12271449231E+02  0.23806581712E+00 -0.11684512142E+01  0.12329250588E+02  0.51100000000E-03 0.  1.
        -12    1    4    4    0    0  0.92840980980E+00 -0.43919086703E+01 -0.10158656466E+02  0.11106264347E+02  0.00000000000E+00 0.  1.
</event>
<event>
 8    1  0.2971508E-007  0.9118800E+02  0.7816164E-02  0.1184000E+00
        -11   -1    0    0    0    0  0.00000000000E+00  0.00000000000E+00  0.45593999997E+02  0.45594000000E+02  0.51100000000E-03 0.  1.
         11   -1    0    0    0    0 -0.00000000000E+00 -0.00000000000E+00 -0.45593999997E+02  0.45594000000E+02  0.51100000000E-03 0. -1.
         23    2    1    2    0    0  0.71054273576E-14  0.17763568394E-14  0.00000000000E+00  0.91188000000E+02  0.91188000000E+02 0.  0.
    9900012    2    3    3    0    0 -0.32711071334E+02  0.10680152951E+02  0.13103493787E+02  0.54367062963E+02  0.39999951637E+02 0.  0.
         12    1    3    3    0    0  0.32711071334E+02 -0.10680152951E+02 -0.13103493787E+02  0.36820937037E+02  0.00000000000E+00 0. -1.
         11    1    4    4    0    0  0.40362389145E+01  0.51311689560E+01  0.13216238210E+01  0.66608414795E+01  0.51100000000E-03 0. -1.
        -11    1    4    4    0    0 -0.25405102512E+02  0.10295450114E+01  0.20535409501E+02  0.32683057388E+02  0.51100000000E-03 0.  1.
        -12    1    4    4    0    0 -0.11342207736E+02  0.45194389834E+01 -0.87535395348E+01  0.15023164096E+02  0.00000000000E+00 0.  1.
</event>
<event>
 8    1  0.2971508E-007  0.9118800E+02  0.7816164E-02  0.1184000E+00
        -11   -1    0    0    0    0  0.00000000000E+00  0.00000000000E+00  0.45593999997E+02  0.45594000000E+02  0.51100000000E-03 0. -1.
         11   -1    0    0    0    0 -0.00000000000E+00 -0.00000000000E+00 -0.45593999997E+02  0.45594000000E+02  0.51100000000E-03 0.  1.
         23    2    1    2    0    0  0.00000000000E+00 -0.17763568394E-14  0.71054273576E-14  0.91188000000E+02  0.91188000000E+02 0.  0.
    9900012    2    3    3    0    0 -0.20398869437E+02  0.10460450471E+02 -0.28813971365E+02  0.54367084148E+02  0.39999999931E+02 0.  0.
         12    1    3    3    0    0  0.20398869437E+02 -0.10460450471E+02  0.28813971365E+02  0.36820915852E+02  0.00000000000E+00 0. -1.
         11    1    4    4    0    0 -0.19299298018E+02  0.65611088216E+00 -0.99323715807E+01  0.21715095924E+02  0.51100000000E-03 0. -1.
        -11    1    4    4    0    0 -0.55734525431E+01  0.16401768703E+01 -0.22061959371E+02  0.22814109778E+02  0.51100000000E-03 0.  1.
        -12    1    4    4    0    0  0.44738811244E+01  0.81641627187E+01  0.31803595868E+01  0.98378784458E+01  0.00000000000E+00 0.  1.
</event>
<event>
 8    1  0.2971508E-007  0.9118800E+02  0.7816164E-02  0.1184000E+00
        -11   -1    0    0    0    0  0.00000000000E+00  0.00000000000E+00  0.45593999997E+02  0.45594000000E+02  0.51100000000E-03 0.  1.
         11   -1    0    0    0    0 -0.00000000000E+00 -0.00000000000E+00 -0.45593999997E+02  0.45594000000E+02  0.51100000000E-03 0. -1.
         23    2    1    2    0    0 -0.35527136788E-14 -0.35527136788E-14  0.00000000000E+00  0.91188000000E+02  0.91188000000E+02 0.  0.
    9900012    2    3    3    0    0  0.21980753009E+02 -0.17754814579E+02  0.23609167019E+02  0.54367085958E+02  0.40000004058E+02 0.  0.
         12    1    3    3    0    0 -0.21980753009E+02  0.17754814579E+02 -0.23609167019E+02  0.36820914042E+02  0.00000000000E+00 0. -1.
         11    1    4    4    0    0  0.57895589277E+01 -0.21280276663E+02  0.97833758071E+01  0.24126408972E+02  0.51100000000E-03 0. -1.
        -11    1    4    4    0    0 -0.15880065570E+01  0.81860923664E+01  0.27446631551E+01  0.87787840361E+01  0.51100000000E-03 0.  1.
        -12    1    4    4    0    0  0.17779200638E+02 -0.46606302820E+01  0.11081128057E+02  0.21461892950E+02  0.00000000000E+00 0.  1.
</event>
<event>
 8    1  0.2971508E-007  0.9118800E+02  0.7816164E-02  0.1184000E+00
        -11   -1    0    0    0    0  0.00000000000E+00  0.00000000000E+00  0.45593999997E+02  0.45594000000E+02  0.51100000000E-03 0. -1.
         11   -1    0    0    0    0 -0.00000000000E+00 -0.00000000000E+00 -0.45593999997E+02  0.45594000000E+02  0.51100000000E-03 0.  1.
         23    2    1    2    0    0  0.00000000000E+00 -0.88817841970E-15 -0.17763568394E-14  0.91188000000E+02  0.91188000000E+02 0.  0.
    9900012    2    3    3    0    0 -0.34838594562E+02  0.22245348290E+01  0.11709161645E+02  0.54367072626E+02  0.39999973665E+02 0.  0.
         12    1    3    3    0    0  0.34838594562E+02 -0.22245348290E+01 -0.11709161645E+02  0.36820927374E+02  0.00000000000E+00 0. -1.
         11    1    4    4    0    0  0.32504456281E+01  0.54461755623E+01  0.11164955057E+02  0.12840656008E+02  0.51100000000E-03 0. -1.
        -11    1    4    4    0    0 -0.22051547483E+02  0.17637434220E+01 -0.68757008219E+01  0.23165854167E+02  0.51100000000E-03 0.  1.
         12    1    4    4    0    0 -0.16037492707E+02 -0.49853841553E+01  0.74199074101E+01  0.18360562450E+02  0.00000000000E+00 0. -1.
</event>
<event>
 8    1  0.2971508E-007  0.9118800E+02  0.7816164E-02  0.1184000E+00
        -11   -1    0    0    0    0  0.00000000000E+00  0.00000000000E+00  0.45593999997E+02  0.45594000000E+02  0.51100000000E-03 0. -1.
         11   -1    0    0    0    0 -0.00000000000E+00 -0.00000000000E+00 -0.45593999997E+02  0.45594000000E+02  0.51100000000E-03 0.  1.
         23    2    1    2    0    0  0.13322676296E-14  0.17763568394E-14  0.00000000000E+00  0.91188000000E+02  0.91188000000E+02 0.  0.
    9900012    2    3    3    0    0  0.39921239260E+01  0.82865064560E+01  0.35653563709E+02  0.54367084098E+02  0.39999999818E+02 0.  0.
        -12    1    3    3    0    0 -0.39921239260E+01 -0.82865064560E+01 -0.35653563709E+02  0.36820915902E+02  0.00000000000E+00 0.  1.
         11    1    4    4    0    0  0.14820034674E+00 -0.76843601391E+01 -0.15873390763E+01  0.78479933546E+01  0.51100000000E-03 0. -1.
        -11    1    4    4    0    0  0.85332933059E+01 -0.21387106013E+01  0.15635172474E+02  0.17940172692E+02  0.51100000000E-03 0.  1.
         12    1    4    4    0    0 -0.46893697266E+01  0.18109577196E+02  0.21605730312E+02  0.28578918051E+02  0.00000000000E+00 0. -1.
</event>
<event>
 8    1  0.2971508E-007  0.9118800E+02  0.7816164E-02  0.1184000E+00
        -11   -1    0    0    0    0  0.00000000000E+00  0.00000000000E+00  0.45593999997E+02  0.45594000000E+02  0.51100000000E-03 0. -1.
         11   -1    0    0    0    0 -0.00000000000E+00 -0.00000000000E+00 -0.45593999997E+02  0.45594000000E+02  0.51100000000E-03 0.  1.
         23    2    1    2    0    0 -0.17763568394E-14 -0.17763568394E-14 -0.35527136788E-14  0.91188000000E+02  0.91188000000E+02 0.  0.
    9900012    2    3    3    0    0  0.10361652466E+02 -0.15098897209E+02 -0.31944324473E+02  0.54367076535E+02  0.39999982578E+02 0.  0.
         12    1    3    3    0    0 -0.10361652466E+02  0.15098897209E+02  0.31944324473E+02  0.36820923465E+02  0.00000000000E+00 0. -1.
         11    1    4    4    0    0 -0.26960362742E+01  0.19481466416E+01 -0.29330638112E+02  0.29518641893E+02  0.51100000000E-03 0. -1.
        -11    1    4    4    0    0  0.43716551833E+01 -0.14053655000E+02  0.14764215396E+01  0.14791768276E+02  0.51100000000E-03 0.  1.
        -12    1    4    4    0    0  0.86860335566E+01 -0.29933888506E+01 -0.40901079007E+01  0.10056666366E+02  0.00000000000E+00 0.  1.
</event>
<event>
 8    1  0.2971508E-007  0.9118800E+02  0.7816164E-02  0.1184000E+00
        -11   -1    0    0    0    0  0.00000000000E+00  0.00000000000E+00  0.45593999997E+02  0.45594000000E+02  0.51100000000E-03 0.  1.
         11   -1    0    0    0    0 -0.00000000000E+00 -0.00000000000E+00 -0.45593999997E+02  0.45594000000E+02  0.51100000000E-03 0. -1.
         23    2    1    2    0    0  0.00000000000E+00  0.00000000000E+00  0.71054273576E-14  0.91188000000E+02  0.91188000000E+02 0.  0.
    9900012    2    3    3    0    0  0.15830611460E+02 -0.58519307578E+01  0.32724987427E+02  0.54367107087E+02  0.40000052227E+02 0.  0.
         12    1    3    3    0    0 -0.15830611460E+02  0.58519307578E+01 -0.32724987427E+02  0.36820892913E+02  0.00000000000E+00 0. -1.
         11    1    4    4    0    0  0.69477374080E+01  0.36145709219E+00 -0.47768710073E+01  0.84392063135E+01  0.51100000000E-03 0. -1.
        -11    1    4    4    0    0  0.14136242862E+02 -0.25925189245E+01  0.95465362492E+01  0.17253720505E+02  0.51100000000E-03 0.  1.
        -12    1    4    4    0    0 -0.52533688103E+01 -0.36208689255E+01  0.27955322185E+02  0.28674180269E+02  0.00000000000E+00 0.  1.
</event>
<event>
 8    1  0.2971508E-007  0.9118800E+02  0.7816164E-02  0.1184000E+00
        -11   -1    0    0    0    0  0.00000000000E+00  0.00000000000E+00  0.45593999997E+02  0.45594000000E+02  0.51100000000E-03 0.  1.
         11   -1    0    0    0    0 -0.00000000000E+00 -0.00000000000E+00 -0.45593999997E+02  0.45594000000E+02  0.51100000000E-03 0. -1.
         23    2    1    2    0    0 -0.22204460493E-14  0.00000000000E+00  0.35527136788E-14  0.91188000000E+02  0.91188000000E+02 0.  0.
    9900012    2    3    3    0    0 -0.25692960029E+01  0.22620710937E+02  0.28939290325E+02  0.54367077011E+02  0.39999983661E+02 0.  0.
         12    1    3    3    0    0  0.25692960029E+01 -0.22620710937E+02 -0.28939290325E+02  0.36820922989E+02  0.00000000000E+00 0. -1.
         11    1    4    4    0    0 -0.20556042640E+01  0.28466418617E+01  0.14694706931E+02  0.15108384786E+02  0.51100000000E-03 0.  1.
        -11    1    4    4    0    0 -0.95641461302E+01 -0.40511025919E+01  0.73359427605E+00  0.10412611787E+02  0.51100000000E-03 0. -1.
         12    1    4    4    0    0  0.90504543913E+01  0.23825171667E+02  0.13510989118E+02  0.28846080437E+02  0.00000000000E+00 0. -1.
</event>
<event>
 8    1  0.2971508E-007  0.9118800E+02  0.7816164E-02  0.1184000E+00
        -11   -1    0    0    0    0  0.00000000000E+00  0.00000000000E+00  0.45593999997E+02  0.45594000000E+02  0.51100000000E-03 0.  1.
         11   -1    0    0    0    0 -0.00000000000E+00 -0.00000000000E+00 -0.45593999997E+02  0.45594000000E+02  0.51100000000E-03 0. -1.
         23    2    1    2    0    0 -0.12212453271E-14  0.00000000000E+00  0.00000000000E+00  0.91188000000E+02  0.91188000000E+02 0.  0.
    9900012    2    3    3    0    0 -0.81307801173E+00  0.11209726494E+02 -0.35063683123E+02  0.54367069293E+02  0.39999966068E+02 0.  0.
        -12    1    3    3    0    0  0.81307801173E+00 -0.11209726494E+02  0.35063683123E+02  0.36820930707E+02  0.00000000000E+00 0.  1.
         11    1    4    4    0    0  0.33890928611E+01  0.60138756127E+00  0.58307427809E+01  0.67709068121E+01  0.51100000000E-03 0.  1.
        -11    1    4    4    0    0  0.54086508862E+01 -0.35177879588E+01 -0.63255935743E+01  0.90355669916E+01  0.51100000000E-03 0. -1.
        -12    1    4    4    0    0 -0.96108217590E+01  0.14126126892E+02 -0.34568832330E+02  0.38560595490E+02  0.00000000000E+00 0.  1.
</event>
<event>
 8    1  0.2971508E-007  0.9118800E+02  0.7816164E-02  0.1184000E+00
        -11   -1    0    0    0    0  0.00000000000E+00  0.00000000000E+00  0.45593999997E+02  0.45594000000E+02  0.51100000000E-03 0.  1.
         11   -1    0    0    0    0 -0.00000000000E+00 -0.00000000000E+00 -0.45593999997E+02  0.45594000000E+02  0.51100000000E-03 0. -1.
         23    2    1    2    0    0 -0.35527136788E-14  0.00000000000E+00  0.17763568394E-14  0.91188000000E+02  0.91188000000E+02 0.  0.
    9900012    2    3    3    0    0 -0.53539084175E+01 -0.35012069714E+02 -0.10063344222E+02  0.54367078530E+02  0.39999987124E+02 0.  0.
        -12    1    3    3    0    0  0.53539084175E+01  0.35012069714E+02  0.10063344222E+02  0.36820921470E+02  0.00000000000E+00 0.  1.
         11    1    4    4    0    0 -0.10496701401E+02 -0.13505696165E+02 -0.18834905889E+02  0.25442842791E+02  0.51100000000E-03 0. -1.
        -11    1    4    4    0    0 -0.28808438454E+01 -0.16042543403E+02  0.72455682967E+00  0.16315251851E+02  0.51100000000E-03 0.  1.
        -12    1    4    4    0    0  0.80236368290E+01 -0.54638301459E+01  0.80470048370E+01  0.12608983887E+02  0.00000000000E+00 0.  1.
</event>
<event>
 8    1  0.2971508E-007  0.9118800E+02  0.7816164E-02  0.1184000E+00
        -11   -1    0    0    0    0  0.00000000000E+00  0.00000000000E+00  0.45593999997E+02  0.45594000000E+02  0.51100000000E-03 0.  1.
         11   -1    0    0    0    0 -0.00000000000E+00 -0.00000000000E+00 -0.45593999997E+02  0.45594000000E+02  0.51100000000E-03 0. -1.
         23    2    1    2    0    0  0.00000000000E+00  0.00000000000E+00  0.35527136788E-14  0.91188000000E+02  0.91188000000E+02 0.  0.
    9900012    2    3    3    0    0 -0.20466998498E+02 -0.11937380974E+02 -0.28184755269E+02  0.54367088528E+02  0.40000009918E+02 0.  0.
        -12    1    3    3    0    0  0.20466998498E+02  0.11937380974E+02  0.28184755269E+02  0.36820911472E+02  0.00000000000E+00 0.  1.
         11    1    4    4    0    0  0.60090181375E+01 -0.73237696511E+01 -0.71596847670E+01  0.11874636293E+02  0.51100000000E-03 0. -1.
        -11    1    4    4    0    0 -0.22942848537E+02  0.10841740070E+01 -0.28798626336E+01  0.23148290246E+02  0.51100000000E-03 0.  1.
         12    1    4    4    0    0 -0.35331680984E+01 -0.56977853298E+01 -0.18145207868E+02  0.19344161989E+02  0.00000000000E+00 0. -1.
</event>
<event>
 8    1  0.2971508E-007  0.9118800E+02  0.7816164E-02  0.1184000E+00
        -11   -1    0    0    0    0  0.00000000000E+00  0.00000000000E+00  0.45593999997E+02  0.45594000000E+02  0.51100000000E-03 0.  1.
         11   -1    0    0    0    0 -0.00000000000E+00 -0.00000000000E+00 -0.45593999997E+02  0.45594000000E+02  0.51100000000E-03 0. -1.
         23    2    1    2    0    0  0.17763568394E-14  0.35527136788E-14  0.00000000000E+00  0.91188000000E+02  0.91188000000E+02 0.  0.
    9900012    2    3    3    0    0 -0.78120820030E+01 -0.29589688730E+02  0.20474011019E+02  0.54367307019E+02  0.40000508009E+02 0.  0.
         12    1    3    3    0    0  0.78120820030E+01  0.29589688730E+02 -0.20474011019E+02  0.36820692981E+02  0.00000000000E+00 0. -1.
         11    1    4    4    0    0  0.40826212004E+01 -0.17344759384E+02 -0.79717401286E+00  0.17836590499E+02  0.51100000000E-03 0. -1.
        -11    1    4    4    0    0  0.68021930246E+01 -0.64426782324E+01  0.32336969584E+01  0.99113434523E+01  0.51100000000E-03 0.  1.
        -12    1    4    4    0    0 -0.18696896228E+02 -0.58022511141E+01  0.18037488073E+02  0.26619373068E+02  0.00000000000E+00 0.  1.
</event>
<event>
 8    1  0.2971508E-007  0.9118800E+02  0.7816164E-02  0.1184000E+00
        -11   -1    0    0    0    0  0.00000000000E+00  0.00000000000E+00  0.45593999997E+02  0.45594000000E+02  0.51100000000E-03 0.  1.
         11   -1    0    0    0    0 -0.00000000000E+00 -0.00000000000E+00 -0.45593999997E+02  0.45594000000E+02  0.51100000000E-03 0. -1.
         23    2    1    2    0    0  0.00000000000E+00  0.00000000000E+00  0.00000000000E+00  0.91188000000E+02  0.91188000000E+02 0.  0.
    9900012    2    3    3    0    0  0.32530646590E+02  0.89064821480E+01  0.14771956136E+02  0.54367094526E+02  0.40000023590E+02 0.  0.
         12    1    3    3    0    0 -0.32530646590E+02 -0.89064821480E+01 -0.14771956136E+02  0.36820905474E+02  0.00000000000E+00 0. -1.
         11    1    4    4    0    0  0.62751860005E+01 -0.12866159165E+00 -0.68788396021E+01  0.93119787198E+01  0.51100000000E-03 0. -1.
        -11    1    4    4    0    0  0.28122714882E+02 -0.17374733852E+01  0.12615631793E+02  0.30871671026E+02  0.51100000000E-03 0.  1.
         12    1    4    4    0    0 -0.18672542925E+01  0.10772617125E+02  0.90351639453E+01  0.14183444780E+02  0.00000000000E+00 0. -1.
</event>
<event>
 8    1  0.2971508E-007  0.9118800E+02  0.7816164E-02  0.1184000E+00
        -11   -1    0    0    0    0  0.00000000000E+00  0.00000000000E+00  0.45593999997E+02  0.45594000000E+02  0.51100000000E-03 0. -1.
         11   -1    0    0    0    0 -0.00000000000E+00 -0.00000000000E+00 -0.45593999997E+02  0.45594000000E+02  0.51100000000E-03 0.  1.
         23    2    1    2    0    0  0.00000000000E+00 -0.44408920985E-15  0.00000000000E+00  0.91188000000E+02  0.91188000000E+02 0.  0.
    9900012    2    3    3    0    0  0.36274355520E+02 -0.16029636090E+01  0.61139699516E+01  0.54367095757E+02  0.40000026396E+02 0.  0.
         12    1    3    3    0    0 -0.36274355520E+02  0.16029636090E+01 -0.61139699516E+01  0.36820904243E+02  0.00000000000E+00 0. -1.
         11    1    4    4    0    0 -0.47850849022E+01  0.34670986122E+01  0.35622979226E+01  0.68998389154E+01  0.51100000000E-03 0. -1.
        -11    1    4    4    0    0  0.43302249752E+02 -0.16812811914E+01  0.23340865494E+01  0.43397690034E+02  0.51100000000E-03 0.  1.
        -12    1    4    4    0    0 -0.22428093295E+01 -0.33887810298E+01  0.21758547952E+00  0.40695668071E+01  0.00000000000E+00 0.  1.
</event>
<event>
 8    1  0.2971508E-007  0.9118800E+02  0.7816164E-02  0.1184000E+00
        -11   -1    0    0    0    0  0.00000000000E+00  0.00000000000E+00  0.45593999997E+02  0.45594000000E+02  0.51100000000E-03 0. -1.
         11   -1    0    0    0    0 -0.00000000000E+00 -0.00000000000E+00 -0.45593999997E+02  0.45594000000E+02  0.51100000000E-03 0.  1.
         23    2    1    2    0    0  0.35527136788E-14 -0.35527136788E-14  0.00000000000E+00  0.91188000000E+02  0.91188000000E+02 0.  0.
    9900012    2    3    3    0    0  0.27545208294E+02 -0.22768724507E+02  0.88678917052E+01  0.54366907961E+02  0.39999598277E+02 0.  0.
         12    1    3    3    0    0 -0.27545208294E+02  0.22768724507E+02 -0.88678917052E+01  0.36821092039E+02  0.00000000000E+00 0. -1.
         11    1    4    4    0    0 -0.40119394959E+01 -0.56537939704E+01  0.17374218536E+01  0.71470049488E+01  0.51100000000E-03 0. -1.
        -11    1    4    4    0    0  0.30901008538E+02 -0.10839263326E+02 -0.54011432882E+01  0.33189370394E+02  0.51100000000E-03 0.  1.
         12    1    4    4    0    0  0.65613925206E+00 -0.62756672114E+01  0.12531613140E+02  0.14030532618E+02  0.00000000000E+00 0. -1.
</event>
<event>
 8    1  0.2971508E-007  0.9118800E+02  0.7816164E-02  0.1184000E+00
        -11   -1    0    0    0    0  0.00000000000E+00  0.00000000000E+00  0.45593999997E+02  0.45594000000E+02  0.51100000000E-03 0.  1.
         11   -1    0    0    0    0 -0.00000000000E+00 -0.00000000000E+00 -0.45593999997E+02  0.45594000000E+02  0.51100000000E-03 0. -1.
         23    2    1    2    0    0 -0.88817841970E-15  0.00000000000E+00  0.00000000000E+00  0.91188000000E+02  0.91188000000E+02 0.  0.
    9900012    2    3    3    0    0 -0.55887444082E+01 -0.27686896024E+02 -0.23621843276E+02  0.54366949563E+02  0.39999693117E+02 0.  0.
        -12    1    3    3    0    0  0.55887444082E+01  0.27686896024E+02  0.23621843276E+02  0.36821050437E+02  0.00000000000E+00 0.  1.
         11    1    4    4    0    0  0.17586828094E+01  0.36939075184E+01 -0.59239089668E+01  0.71993482821E+01  0.51100000000E-03 0. -1.
        -11    1    4    4    0    0  0.97349539176E+01 -0.12889458349E+02 -0.14655373257E+02  0.21810259738E+02  0.51100000000E-03 0.  1.
         12    1    4    4    0    0 -0.17082381135E+02 -0.18491345194E+02 -0.30425610530E+01  0.25357341542E+02  0.00000000000E+00 0. -1.
</event>
<event>
 8    1  0.2971508E-007  0.9118800E+02  0.7816164E-02  0.1184000E+00
        -11   -1    0    0    0    0  0.00000000000E+00  0.00000000000E+00  0.45593999997E+02  0.45594000000E+02  0.51100000000E-03 0. -1.
         11   -1    0    0    0    0 -0.00000000000E+00 -0.00000000000E+00 -0.45593999997E+02  0.45594000000E+02  0.51100000000E-03 0.  1.
         23    2    1    2    0    0  0.35527136788E-14  0.00000000000E+00  0.00000000000E+00  0.91188000000E+02  0.91188000000E+02 0.  0.
    9900012    2    3    3    0    0  0.22700575130E+02  0.27361910178E+02  0.95807090472E+01  0.54367078968E+02  0.39999988123E+02 0.  0.
        -12    1    3    3    0    0 -0.22700575130E+02 -0.27361910178E+02 -0.95807090472E+01  0.36820921032E+02  0.00000000000E+00 0.  1.
         11    1    4    4    0    0  0.17371025093E+02  0.36202958673E+02  0.59475987728E+01  0.40592864655E+02  0.51100000000E-03 0. -1.
        -11    1    4    4    0    0 -0.35055089839E+00  0.14305620169E+01 -0.45953612975E-01  0.14736029358E+01  0.51100000000E-03 0.  1.
        -12    1    4    4    0    0  0.56801009349E+01 -0.10271610512E+02  0.36790638874E+01  0.12300611377E+02  0.00000000000E+00 0.  1.
</event>
<event>
 8    1  0.2971508E-007  0.9118800E+02  0.7816164E-02  0.1184000E+00
        -11   -1    0    0    0    0  0.00000000000E+00  0.00000000000E+00  0.45593999997E+02  0.45594000000E+02  0.51100000000E-03 0.  1.
         11   -1    0    0    0    0 -0.00000000000E+00 -0.00000000000E+00 -0.45593999997E+02  0.45594000000E+02  0.51100000000E-03 0. -1.
         23    2    1    2    0    0 -0.17763568394E-14  0.44408920985E-15 -0.71054273576E-14  0.91188000000E+02  0.91188000000E+02 0.  0.
    9900012    2    3    3    0    0 -0.94876934757E+01 -0.30367873286E+01  0.35447714440E+02  0.54367097461E+02  0.40000030281E+02 0.  0.
         12    1    3    3    0    0  0.94876934757E+01  0.30367873286E+01 -0.35447714440E+02  0.36820902539E+02  0.00000000000E+00 0. -1.
         11    1    4    4    0    0 -0.16736766147E+02 -0.64125771950E+01  0.32950708891E+02  0.37509861424E+02  0.51100000000E-03 0.  1.
        -11    1    4    4    0    0  0.53808243678E+01 -0.54409873669E+01  0.13800950260E+01  0.77757492852E+01  0.51100000000E-03 0. -1.
        -12    1    4    4    0    0  0.18682483039E+01  0.88167772333E+01  0.11169105237E+01  0.90814867518E+01  0.00000000000E+00 0.  1.
</event>
<event>
 8    1  0.2971508E-007  0.9118800E+02  0.7816164E-02  0.1184000E+00
        -11   -1    0    0    0    0  0.00000000000E+00  0.00000000000E+00  0.45593999997E+02  0.45594000000E+02  0.51100000000E-03 0.  1.
         11   -1    0    0    0    0 -0.00000000000E+00 -0.00000000000E+00 -0.45593999997E+02  0.45594000000E+02  0.51100000000E-03 0. -1.
         23    2    1    2    0    0  0.00000000000E+00 -0.17763568394E-14  0.00000000000E+00  0.91188000000E+02  0.91188000000E+02 0.  0.
    9900012    2    3    3    0    0  0.25783750398E+02  0.88054747523E+01 -0.24767746260E+02  0.54367089840E+02  0.40000012908E+02 0.  0.
        -12    1    3    3    0    0 -0.25783750398E+02 -0.88054747523E+01  0.24767746260E+02  0.36820910160E+02  0.00000000000E+00 0.  1.
         11    1    4    4    0    0 -0.45694727974E+01 -0.63258687839E+00 -0.22945694150E+01  0.51522128126E+01  0.51100000000E-03 0. -1.
        -11    1    4    4    0    0 -0.16283379498E+01  0.10779335277E+02 -0.16439695993E+01  0.11024889560E+02  0.51100000000E-03 0.  1.
         12    1    4    4    0    0  0.31981561145E+02 -0.13412736467E+01 -0.20829207246E+02  0.38189987468E+02  0.00000000000E+00 0. -1.
</event>
<event>
 8    1  0.2971508E-007  0.9118800E+02  0.7816164E-02  0.1184000E+00
        -11   -1    0    0    0    0  0.00000000000E+00  0.00000000000E+00  0.45593999997E+02  0.45594000000E+02  0.51100000000E-03 0.  1.
         11   -1    0    0    0    0 -0.00000000000E+00 -0.00000000000E+00 -0.45593999997E+02  0.45594000000E+02  0.51100000000E-03 0. -1.
         23    2    1    2    0    0  0.00000000000E+00  0.00000000000E+00  0.00000000000E+00  0.91188000000E+02  0.91188000000E+02 0.  0.
    9900012    2    3    3    0    0  0.23835557528E+02  0.17188204785E+02 -0.22185895807E+02  0.54367052712E+02  0.39999928268E+02 0.  0.
        -12    1    3    3    0    0 -0.23835557528E+02 -0.17188204785E+02  0.22185895807E+02  0.36820947288E+02  0.00000000000E+00 0.  1.
         11    1    4    4    0    0  0.15538829667E+02  0.16845981360E-02 -0.25103498670E+02  0.29523564757E+02  0.51100000000E-03 0. -1.
        -11    1    4    4    0    0 -0.28082514716E+01  0.64179467582E+01  0.58165625684E+01  0.91054224115E+01  0.51100000000E-03 0.  1.
         12    1    4    4    0    0  0.11104979333E+02  0.10768573429E+02 -0.28989597052E+01  0.15738065543E+02  0.00000000000E+00 0. -1.
</event>
<event>
 8    1  0.2971508E-007  0.9118800E+02  0.7816164E-02  0.1184000E+00
        -11   -1    0    0    0    0  0.00000000000E+00  0.00000000000E+00  0.45593999997E+02  0.45594000000E+02  0.51100000000E-03 0. -1.
         11   -1    0    0    0    0 -0.00000000000E+00 -0.00000000000E+00 -0.45593999997E+02  0.45594000000E+02  0.51100000000E-03 0.  1.
         23    2    1    2    0    0  0.00000000000E+00  0.00000000000E+00  0.00000000000E+00  0.91188000000E+02  0.91188000000E+02 0.  0.
    9900012    2    3    3    0    0 -0.32580977950E+02  0.40118501376E+01  0.16678232066E+02  0.54367102530E+02  0.40000041837E+02 0.  0.
        -12    1    3    3    0    0  0.32580977950E+02 -0.40118501376E+01 -0.16678232066E+02  0.36820897470E+02  0.00000000000E+00 0.  1.
         11    1    4    4    0    0 -0.19838181484E+01  0.15193209049E+02  0.29078194803E+01  0.15595658051E+02  0.51100000000E-03 0. -1.
        -11    1    4    4    0    0 -0.30037226218E+02 -0.12741855899E+02  0.91860602752E+01  0.33896512420E+02  0.51100000000E-03 0.  1.
        -12    1    4    4    0    0 -0.55993358319E+00  0.15604969875E+01  0.45843523107E+01  0.48749320584E+01  0.00000000000E+00 0.  1.
</event>
<event>
 8    1  0.2971508E-007  0.9118800E+02  0.7816164E-02  0.1184000E+00
        -11   -1    0    0    0    0  0.00000000000E+00  0.00000000000E+00  0.45593999997E+02  0.45594000000E+02  0.51100000000E-03 0. -1.
         11   -1    0    0    0    0 -0.00000000000E+00 -0.00000000000E+00 -0.45593999997E+02  0.45594000000E+02  0.51100000000E-03 0.  1.
         23    2    1    2    0    0  0.71054273576E-14  0.00000000000E+00  0.22204460493E-15  0.91188000000E+02  0.91188000000E+02 0.  0.
    9900012    2    3    3    0    0 -0.36774957671E+02 -0.16608055241E+01  0.79070821131E+00  0.54367068369E+02  0.39999963960E+02 0.  0.
         12    1    3    3    0    0  0.36774957671E+02  0.16608055241E+01 -0.79070821131E+00  0.36820931631E+02  0.00000000000E+00 0. -1.
         11    1    4    4    0    0  0.62549991235E+01 -0.43603991185E+01 -0.57683234766E+00  0.76466221514E+01  0.51100000000E-03 0. -1.
        -11    1    4    4    0    0 -0.22121256840E+02 -0.54962030477E+01 -0.50851970530E+01  0.23354174819E+02  0.51100000000E-03 0.  1.
         12    1    4    4    0    0 -0.20908699955E+02  0.81957966420E+01  0.64527376120E+01  0.23366271399E+02  0.00000000000E+00 0. -1.
</event>
<event>
 8    1  0.2971508E-007  0.9118800E+02  0.7816164E-02  0.1184000E+00
        -11   -1    0    0    0    0  0.00000000000E+00  0.00000000000E+00  0.45593999997E+02  0.45594000000E+02  0.51100000000E-03 0.  1.
         11   -1    0    0    0    0 -0.00000000000E+00 -0.00000000000E+00 -0.45593999997E+02  0.45594000000E+02  0.51100000000E-03 0. -1.
         23    2    1    2    0    0  0.35527136788E-14 -0.17763568394E-14  0.00000000000E+00  0.91188000000E+02  0.91188000000E+02 0.  0.
    9900012    2    3    3    0    0  0.19854421530E+02 -0.94819383794E+01 -0.29524390355E+02  0.54366880577E+02  0.39999535848E+02 0.  0.
        -12    1    3    3    0    0 -0.19854421530E+02  0.94819383794E+01  0.29524390355E+02  0.36821119423E+02  0.00000000000E+00 0.  1.
         11    1    4    4    0    0 -0.30182509370E+01  0.90099262642E+01 -0.15587299457E+02  0.18255205138E+02  0.51100000000E-03 0. -1.
        -11    1    4    4    0    0  0.17731724978E+02 -0.44356441209E+01 -0.88143808823E+01  0.20292420261E+02  0.51100000000E-03 0.  1.
        -12    1    4    4    0    0  0.51409474892E+01 -0.14056220523E+02 -0.51227100158E+01  0.15819255178E+02  0.00000000000E+00 0.  1.
</event>
<event>
 8    1  0.2971508E-007  0.9118800E+02  0.7816164E-02  0.1184000E+00
        -11   -1    0    0    0    0  0.00000000000E+00  0.00000000000E+00  0.45593999997E+02  0.45594000000E+02  0.51100000000E-03 0.  1.
         11   -1    0    0    0    0 -0.00000000000E+00 -0.00000000000E+00 -0.45593999997E+02  0.45594000000E+02  0.51100000000E-03 0. -1.
         23    2    1    2    0    0  0.00000000000E+00  0.35527136788E-14  0.00000000000E+00  0.91188000000E+02  0.91188000000E+02 0.  0.
    9900012    2    3    3    0    0 -0.17494762436E+02 -0.30776752077E+02  0.10124470931E+02  0.54367080773E+02  0.39999992238E+02 0.  0.
         12    1    3    3    0    0  0.17494762436E+02  0.30776752077E+02 -0.10124470931E+02  0.36820919227E+02  0.00000000000E+00 0. -1.
         11    1    4    4    0    0  0.38244708832E+01  0.67625706230E+01  0.52621094861E+01  0.93834287695E+01  0.51100000000E-03 0. -1.
        -11    1    4    4    0    0 -0.40961260367E+01 -0.16767313174E+02 -0.12869026674E+01  0.17308297383E+02  0.51100000000E-03 0.  1.
         12    1    4    4    0    0 -0.17223107283E+02 -0.20772009526E+02  0.61492641123E+01  0.27675354620E+02  0.00000000000E+00 0. -1.
</event>
<event>
 8    1  0.2971508E-007  0.9118800E+02  0.7816164E-02  0.1184000E+00
        -11   -1    0    0    0    0  0.00000000000E+00  0.00000000000E+00  0.45593999997E+02  0.45594000000E+02  0.51100000000E-03 0. -1.
         11   -1    0    0    0    0 -0.00000000000E+00 -0.00000000000E+00 -0.45593999997E+02  0.45594000000E+02  0.51100000000E-03 0.  1.
         23    2    1    2    0    0 -0.88817841970E-15 -0.88817841970E-15  0.00000000000E+00  0.91188000000E+02  0.91188000000E+02 0.  0.
    9900012    2    3    3    0    0  0.76674312884E+01  0.29428577089E+01  0.35893325965E+02  0.54367071672E+02  0.39999971491E+02 0.  0.
        -12    1    3    3    0    0 -0.76674312884E+01 -0.29428577089E+01 -0.35893325965E+02  0.36820928328E+02  0.00000000000E+00 0.  1.
         11    1    4    4    0    0 -0.11404852875E+02 -0.49676872254E+01  0.49728880251E+01  0.13396947452E+02  0.51100000000E-03 0. -1.
        -11    1    4    4    0    0  0.12202685338E+02 -0.14909836887E+01  0.25108153158E+02  0.27956178513E+02  0.51100000000E-03 0.  1.
        -12    1    4    4    0    0  0.68695988255E+01  0.94015286230E+01  0.58122847826E+01  0.13013945707E+02  0.00000000000E+00 0.  1.
</event>
<event>
 8    1  0.2971508E-007  0.9118800E+02  0.7816164E-02  0.1184000E+00
        -11   -1    0    0    0    0  0.00000000000E+00  0.00000000000E+00  0.45593999997E+02  0.45594000000E+02  0.51100000000E-03 0.  1.
         11   -1    0    0    0    0 -0.00000000000E+00 -0.00000000000E+00 -0.45593999997E+02  0.45594000000E+02  0.51100000000E-03 0. -1.
         23    2    1    2    0    0  0.00000000000E+00  0.00000000000E+00 -0.17763568394E-14  0.91188000000E+02  0.91188000000E+02 0.  0.
    9900012    2    3    3    0    0  0.34748846817E+02  0.73654860363E+01  0.96978754854E+01  0.54367061275E+02  0.39999947789E+02 0.  0.
        -12    1    3    3    0    0 -0.34748846817E+02 -0.73654860363E+01 -0.96978754854E+01  0.36820938725E+02  0.00000000000E+00 0.  1.
         11    1    4    4    0    0  0.17844089131E+02 -0.83555203622E+01  0.79058429754E+01  0.21230369541E+02  0.51100000000E-03 0.  1.
        -11    1    4    4    0    0  0.14591128593E+02  0.20156374865E+02 -0.43018795455E+01  0.25252458280E+02  0.51100000000E-03 0. -1.
         12    1    4    4    0    0  0.23136290934E+01 -0.44353684665E+01  0.60939120554E+01  0.78842334539E+01  0.00000000000E+00 0. -1.
</event>
<event>
 8    1  0.2971508E-007  0.9118800E+02  0.7816164E-02  0.1184000E+00
        -11   -1    0    0    0    0  0.00000000000E+00  0.00000000000E+00  0.45593999997E+02  0.45594000000E+02  0.51100000000E-03 0.  1.
         11   -1    0    0    0    0 -0.00000000000E+00 -0.00000000000E+00 -0.45593999997E+02  0.45594000000E+02  0.51100000000E-03 0. -1.
         23    2    1    2    0    0 -0.17763568394E-14 -0.88817841970E-15  0.00000000000E+00  0.91188000000E+02  0.91188000000E+02 0.  0.
    9900012    2    3    3    0    0  0.14392482712E+02 -0.33743417815E+01 -0.33723131119E+02  0.54367091354E+02  0.40000016359E+02 0.  0.
        -12    1    3    3    0    0 -0.14392482712E+02  0.33743417815E+01  0.33723131119E+02  0.36820908646E+02  0.00000000000E+00 0.  1.
         11    1    4    4    0    0  0.89683037899E+01 -0.19548094210E+02 -0.11503419984E+02  0.24390308151E+02  0.51100000000E-03 0. -1.
        -11    1    4    4    0    0  0.56290858620E+01  0.22370856557E+01 -0.83295168472E+01  0.10299126713E+02  0.51100000000E-03 0.  1.
        -12    1    4    4    0    0 -0.20490694046E+00  0.13936666773E+02 -0.13890194288E+02  0.19677656490E+02  0.00000000000E+00 0.  1.
</event>
<event>
 8    1  0.2971508E-007  0.9118800E+02  0.7816164E-02  0.1184000E+00
        -11   -1    0    0    0    0  0.00000000000E+00  0.00000000000E+00  0.45593999997E+02  0.45594000000E+02  0.51100000000E-03 0. -1.
         11   -1    0    0    0    0 -0.00000000000E+00 -0.00000000000E+00 -0.45593999997E+02  0.45594000000E+02  0.51100000000E-03 0.  1.
         23    2    1    2    0    0  0.00000000000E+00  0.00000000000E+00  0.35527136788E-14  0.91188000000E+02  0.91188000000E+02 0.  0.
    9900012    2    3    3    0    0 -0.25987117419E+02  0.11996772063E+02 -0.23163052706E+02  0.54367084444E+02  0.40000000607E+02 0.  0.
         12    1    3    3    0    0  0.25987117419E+02 -0.11996772063E+02  0.23163052706E+02  0.36820915556E+02  0.00000000000E+00 0. -1.
         11    1    4    4    0    0 -0.11524811874E+02  0.72660286370E+00 -0.95874028195E+01  0.15008915135E+02  0.51100000000E-03 0.  1.
        -11    1    4    4    0    0  0.81887403810E+01  0.66071435621E+01 -0.12314979435E+02  0.16197794104E+02  0.51100000000E-03 0. -1.
         12    1    4    4    0    0 -0.22651045926E+02  0.46630256374E+01 -0.12606704516E+01  0.23160375205E+02  0.00000000000E+00 0. -1.
</event>
<event>
 8    1  0.2971508E-007  0.9118800E+02  0.7816164E-02  0.1184000E+00
        -11   -1    0    0    0    0  0.00000000000E+00  0.00000000000E+00  0.45593999997E+02  0.45594000000E+02  0.51100000000E-03 0. -1.
         11   -1    0    0    0    0 -0.00000000000E+00 -0.00000000000E+00 -0.45593999997E+02  0.45594000000E+02  0.51100000000E-03 0.  1.
         23    2    1    2    0    0  0.00000000000E+00  0.00000000000E+00  0.35527136788E-14  0.91188000000E+02  0.91188000000E+02 0.  0.
    9900012    2    3    3    0    0 -0.13150068636E+02  0.27014050480E+02 -0.21286070390E+02  0.54367081745E+02  0.39999994454E+02 0.  0.
        -12    1    3    3    0    0  0.13150068636E+02 -0.27014050480E+02  0.21286070390E+02  0.36820918255E+02  0.00000000000E+00 0.  1.
         11    1    4    4    0    0 -0.41245401396E+01  0.24690271521E+02  0.42314192282E+01  0.25387521504E+02  0.51100000000E-03 0. -1.
        -11    1    4    4    0    0 -0.82515676422E+01  0.21163595269E+01 -0.88173907609E+01  0.12260249846E+02  0.51100000000E-03 0.  1.
        -12    1    4    4    0    0 -0.77396085463E+00  0.20741943195E+00 -0.16700098858E+02  0.16719310395E+02  0.00000000000E+00 0.  1.
</event>
<event>
 8    1  0.2971508E-007  0.9118800E+02  0.7816164E-02  0.1184000E+00
        -11   -1    0    0    0    0  0.00000000000E+00  0.00000000000E+00  0.45593999997E+02  0.45594000000E+02  0.51100000000E-03 0. -1.
         11   -1    0    0    0    0 -0.00000000000E+00 -0.00000000000E+00 -0.45593999997E+02  0.45594000000E+02  0.51100000000E-03 0.  1.
         23    2    1    2    0    0 -0.44408920985E-15  0.00000000000E+00  0.71054273576E-14  0.91188000000E+02  0.91188000000E+02 0.  0.
    9900012    2    3    3    0    0 -0.46950958079E+00  0.13583799204E+02 -0.34220404974E+02  0.54367134222E+02  0.40000114086E+02 0.  0.
         12    1    3    3    0    0  0.46950958079E+00 -0.13583799204E+02  0.34220404974E+02  0.36820865778E+02  0.00000000000E+00 0. -1.
         11    1    4    4    0    0 -0.13074999664E+02  0.14510531818E+02 -0.24708155454E+01  0.19687967888E+02  0.51100000000E-03 0. -1.
        -11    1    4    4    0    0  0.72080681232E+01 -0.33217375814E+01 -0.20305507502E+02  0.21801463754E+02  0.51100000000E-03 0.  1.
        -12    1    4    4    0    0  0.53974219599E+01  0.23950049680E+01 -0.11444081926E+02  0.12877702580E+02  0.00000000000E+00 0.  1.
</event>
<event>
 8    1  0.2971508E-007  0.9118800E+02  0.7816164E-02  0.1184000E+00
        -11   -1    0    0    0    0  0.00000000000E+00  0.00000000000E+00  0.45593999997E+02  0.45594000000E+02  0.51100000000E-03 0.  1.
         11   -1    0    0    0    0 -0.00000000000E+00 -0.00000000000E+00 -0.45593999997E+02  0.45594000000E+02  0.51100000000E-03 0. -1.
         23    2    1    2    0    0 -0.34694469520E-15  0.00000000000E+00 -0.71054273576E-14  0.91188000000E+02  0.91188000000E+02 0.  0.
    9900012    2    3    3    0    0 -0.96428041227E-01 -0.11622148247E+02 -0.34938462466E+02  0.54367084914E+02  0.40000001679E+02 0.  0.
        -12    1    3    3    0    0  0.96428041227E-01  0.11622148247E+02  0.34938462466E+02  0.36820915086E+02  0.00000000000E+00 0.  1.
         11    1    4    4    0    0  0.14017459461E+02  0.20805901874E+01 -0.10672441879E+02  0.17740322466E+02  0.51100000000E-03 0. -1.
        -11    1    4    4    0    0 -0.74224578039E+01 -0.98395924898E+01 -0.25941574609E+02  0.28720650300E+02  0.51100000000E-03 0.  1.
        -12    1    4    4    0    0 -0.66914296988E+01 -0.38631459451E+01  0.16755540221E+01  0.79061121475E+01  0.00000000000E+00 0.  1.
</event>
<event>
 8    1  0.2971508E-007  0.9118800E+02  0.7816164E-02  0.1184000E+00
        -11   -1    0    0    0    0  0.00000000000E+00  0.00000000000E+00  0.45593999997E+02  0.45594000000E+02  0.51100000000E-03 0.  1.
         11   -1    0    0    0    0 -0.00000000000E+00 -0.00000000000E+00 -0.45593999997E+02  0.45594000000E+02  0.51100000000E-03 0. -1.
         23    2    1    2    0    0  0.00000000000E+00  0.00000000000E+00  0.17763568394E-14  0.91188000000E+02  0.91188000000E+02 0.  0.
    9900012    2    3    3    0    0 -0.32934622494E+02  0.83291547664E+01 -0.14202646132E+02  0.54367091061E+02  0.40000015691E+02 0.  0.
        -12    1    3    3    0    0  0.32934622494E+02 -0.83291547664E+01  0.14202646132E+02  0.36820908939E+02  0.00000000000E+00 0.  1.
         11    1    4    4    0    0 -0.76655211147E+01 -0.12106915814E+02 -0.10183669145E+02  0.17579668427E+02  0.51100000000E-03 0. -1.
        -11    1    4    4    0    0 -0.51733255283E+01  0.12068144977E+02 -0.68939107487E+01  0.14830017730E+02  0.51100000000E-03 0.  1.
        -12    1    4    4    0    0 -0.20095775851E+02  0.83679256029E+01  0.28749337617E+01  0.21957404903E+02  0.00000000000E+00 0.  1.
</event>
<event>
 8    1  0.2971508E-007  0.9118800E+02  0.7816164E-02  0.1184000E+00
        -11   -1    0    0    0    0  0.00000000000E+00  0.00000000000E+00  0.45593999997E+02  0.45594000000E+02  0.51100000000E-03 0.  1.
         11   -1    0    0    0    0 -0.00000000000E+00 -0.00000000000E+00 -0.45593999997E+02  0.45594000000E+02  0.51100000000E-03 0. -1.
         23    2    1    2    0    0 -0.35527136788E-14  0.17763568394E-14  0.00000000000E+00  0.91188000000E+02  0.91188000000E+02 0.  0.
    9900012    2    3    3    0    0 -0.28645479088E+02  0.73005032641E+01  0.21952654205E+02  0.54367084113E+02  0.39999999853E+02 0.  0.
         12    1    3    3    0    0  0.28645479088E+02 -0.73005032641E+01 -0.21952654205E+02  0.36820915887E+02  0.00000000000E+00 0. -1.
         11    1    4    4    0    0 -0.25313531971E+02  0.48675747115E+01  0.53406854267E+01  0.26324724225E+02  0.51100000000E-03 0.  1.
        -11    1    4    4    0    0  0.75794779565E+01  0.63156463487E+01  0.12101197607E+02  0.15613291090E+02  0.51100000000E-03 0. -1.
         12    1    4    4    0    0 -0.10911425074E+02 -0.38827177960E+01  0.45107711713E+01  0.12429068798E+02  0.00000000000E+00 0. -1.
</event>
<event>
 8    1  0.2971508E-007  0.9118800E+02  0.7816164E-02  0.1184000E+00
        -11   -1    0    0    0    0  0.00000000000E+00  0.00000000000E+00  0.45593999997E+02  0.45594000000E+02  0.51100000000E-03 0.  1.
         11   -1    0    0    0    0 -0.00000000000E+00 -0.00000000000E+00 -0.45593999997E+02  0.45594000000E+02  0.51100000000E-03 0. -1.
         23    2    1    2    0    0  0.00000000000E+00 -0.88817841970E-15  0.00000000000E+00  0.91188000000E+02  0.91188000000E+02 0.  0.
    9900012    2    3    3    0    0 -0.20341280127E+02 -0.29717580042E+01  0.30548007727E+02  0.54367084763E+02  0.40000001334E+02 0.  0.
         12    1    3    3    0    0  0.20341280127E+02  0.29717580042E+01 -0.30548007727E+02  0.36820915237E+02  0.00000000000E+00 0. -1.
         11    1    4    4    0    0 -0.19994506978E+02  0.43951198639E+01  0.29047780166E+02  0.35536895204E+02  0.51100000000E-03 0.  1.
        -11    1    4    4    0    0  0.11593622523E+01  0.46990042303E+01 -0.31909109512E+01  0.57971264043E+01  0.51100000000E-03 0. -1.
        -12    1    4    4    0    0 -0.15061354014E+01 -0.12065882098E+02  0.46911385123E+01  0.13033063155E+02  0.00000000000E+00 0.  1.
</event>
<event>
 8    1  0.2971508E-007  0.9118800E+02  0.7816164E-02  0.1184000E+00
        -11   -1    0    0    0    0  0.00000000000E+00  0.00000000000E+00  0.45593999997E+02  0.45594000000E+02  0.51100000000E-03 0.  1.
         11   -1    0    0    0    0 -0.00000000000E+00 -0.00000000000E+00 -0.45593999997E+02  0.45594000000E+02  0.51100000000E-03 0. -1.
         23    2    1    2    0    0  0.00000000000E+00  0.66613381478E-15 -0.17763568394E-14  0.91188000000E+02  0.91188000000E+02 0.  0.
    9900012    2    3    3    0    0  0.33457834603E+02 -0.38551953205E+00  0.15368932437E+02  0.54367090100E+02  0.40000013500E+02 0.  0.
         12    1    3    3    0    0 -0.33457834603E+02  0.38551953205E+00 -0.15368932437E+02  0.36820909900E+02  0.00000000000E+00 0. -1.
         11    1    4    4    0    0  0.13604225190E+02 -0.42705557633E+01 -0.11737562094E+02  0.18468431274E+02  0.51100000000E-03 0. -1.
        -11    1    4    4    0    0  0.80388928411E+01  0.71547741685E+01  0.16439055130E+02  0.19648336453E+02  0.51100000000E-03 0.  1.
         12    1    4    4    0    0  0.11814716572E+02 -0.32697379373E+01  0.10667439401E+02  0.16250322373E+02  0.00000000000E+00 0. -1.
</event>
<event>
 8    1  0.2971508E-007  0.9118800E+02  0.7816164E-02  0.1184000E+00
        -11   -1    0    0    0    0  0.00000000000E+00  0.00000000000E+00  0.45593999997E+02  0.45594000000E+02  0.51100000000E-03 0.  1.
         11   -1    0    0    0    0 -0.00000000000E+00 -0.00000000000E+00 -0.45593999997E+02  0.45594000000E+02  0.51100000000E-03 0. -1.
         23    2    1    2    0    0 -0.71054273576E-14  0.00000000000E+00  0.00000000000E+00  0.91188000000E+02  0.91188000000E+02 0.  0.
    9900012    2    3    3    0    0  0.32130008576E+02 -0.67150715528E+01  0.16683879887E+02  0.54367061865E+02  0.39999949134E+02 0.  0.
         12    1    3    3    0    0 -0.32130008576E+02  0.67150715528E+01 -0.16683879887E+02  0.36820938135E+02  0.00000000000E+00 0. -1.
         11    1    4    4    0    0  0.21381077208E+02 -0.74943595790E+01 -0.18854036094E+01  0.22734789093E+02  0.51100000000E-03 0. -1.
        -11    1    4    4    0    0  0.10682290593E+02  0.24342565314E+01  0.23770386808E+02  0.26173808024E+02  0.51100000000E-03 0.  1.
         12    1    4    4    0    0  0.66640774988E-01 -0.16549685053E+01 -0.52011033124E+01  0.54584647486E+01  0.00000000000E+00 0. -1.
</event>
<event>
 8    1  0.2971508E-007  0.9118800E+02  0.7816164E-02  0.1184000E+00
        -11   -1    0    0    0    0  0.00000000000E+00  0.00000000000E+00  0.45593999997E+02  0.45594000000E+02  0.51100000000E-03 0. -1.
         11   -1    0    0    0    0 -0.00000000000E+00 -0.00000000000E+00 -0.45593999997E+02  0.45594000000E+02  0.51100000000E-03 0.  1.
         23    2    1    2    0    0  0.35527136788E-14 -0.35527136788E-14 -0.88817841970E-15  0.91188000000E+02  0.91188000000E+02 0.  0.
    9900012    2    3    3    0    0  0.22957168443E+02 -0.28366645031E+02 -0.49073196494E+01  0.54367083127E+02  0.39999997605E+02 0.  0.
        -12    1    3    3    0    0 -0.22957168443E+02  0.28366645031E+02  0.49073196494E+01  0.36820916873E+02  0.00000000000E+00 0.  1.
         11    1    4    4    0    0 -0.61031742361E+01 -0.28768564514E+01 -0.89387004512E+01  0.11199348410E+02  0.51100000000E-03 0. -1.
        -11    1    4    4    0    0  0.19732552876E+02 -0.51765315411E+01 -0.28506344890E+00  0.20402239662E+02  0.51100000000E-03 0.  1.
         12    1    4    4    0    0  0.93277898028E+01 -0.20313257038E+02  0.43164442508E+01  0.22765495055E+02  0.00000000000E+00 0. -1.
</event>
<event>
 8    1  0.2971508E-007  0.9118800E+02  0.7816164E-02  0.1184000E+00
        -11   -1    0    0    0    0  0.00000000000E+00  0.00000000000E+00  0.45593999997E+02  0.45594000000E+02  0.51100000000E-03 0.  1.
         11   -1    0    0    0    0 -0.00000000000E+00 -0.00000000000E+00 -0.45593999997E+02  0.45594000000E+02  0.51100000000E-03 0. -1.
         23    2    1    2    0    0  0.35527136788E-14  0.17763568394E-14  0.00000000000E+00  0.91188000000E+02  0.91188000000E+02 0.  0.
    9900012    2    3    3    0    0  0.23588690471E+02  0.67170063113E+01  0.27463340963E+02  0.54367087616E+02  0.40000007839E+02 0.  0.
         12    1    3    3    0    0 -0.23588690471E+02 -0.67170063113E+01 -0.27463340963E+02  0.36820912384E+02  0.00000000000E+00 0. -1.
         11    1    4    4    0    0 -0.84481737461E+01 -0.19447310512E+01 -0.13958574308E+00  0.86702423811E+01  0.51100000000E-03 0. -1.
        -11    1    4    4    0    0  0.12485848543E+02  0.82116523820E+01  0.48878326613E+01  0.15723185335E+02  0.51100000000E-03 0.  1.
        -12    1    4    4    0    0  0.19551015674E+02  0.45008498055E+00  0.22715094045E+02  0.29973659900E+02  0.00000000000E+00 0.  1.
</event>
<event>
 8    1  0.2971508E-007  0.9118800E+02  0.7816164E-02  0.1184000E+00
        -11   -1    0    0    0    0  0.00000000000E+00  0.00000000000E+00  0.45593999997E+02  0.45594000000E+02  0.51100000000E-03 0. -1.
         11   -1    0    0    0    0 -0.00000000000E+00 -0.00000000000E+00 -0.45593999997E+02  0.45594000000E+02  0.51100000000E-03 0.  1.
         23    2    1    2    0    0  0.00000000000E+00 -0.17763568394E-14  0.00000000000E+00  0.91188000000E+02  0.91188000000E+02 0.  0.
    9900012    2    3    3    0    0  0.10270868240E+02 -0.14291820489E+02  0.32342457974E+02  0.54367062273E+02  0.39999950064E+02 0.  0.
        -12    1    3    3    0    0 -0.10270868240E+02  0.14291820489E+02 -0.32342457974E+02  0.36820937727E+02  0.00000000000E+00 0.  1.
         11    1    4    4    0    0 -0.34105860403E+00 -0.16438690362E+02  0.17934617189E+02  0.24330995783E+02  0.51100000000E-03 0. -1.
        -11    1    4    4    0    0 -0.13321618617E+01  0.10813362695E+02  0.95842185924E+01  0.14510710330E+02  0.51100000000E-03 0.  1.
        -12    1    4    4    0    0  0.11944088706E+02 -0.86664928216E+01  0.48236221925E+01  0.15525356160E+02  0.00000000000E+00 0.  1.
</event>
<event>
 8    1  0.2971508E-007  0.9118800E+02  0.7816164E-02  0.1184000E+00
        -11   -1    0    0    0    0  0.00000000000E+00  0.00000000000E+00  0.45593999997E+02  0.45594000000E+02  0.51100000000E-03 0.  1.
         11   -1    0    0    0    0 -0.00000000000E+00 -0.00000000000E+00 -0.45593999997E+02  0.45594000000E+02  0.51100000000E-03 0. -1.
         23    2    1    2    0    0  0.35527136788E-14 -0.35527136788E-14  0.17763568394E-14  0.91188000000E+02  0.91188000000E+02 0.  0.
    9900012    2    3    3    0    0 -0.26005922734E+02 -0.24081064228E+02 -0.99788619027E+01  0.54367036454E+02  0.39999891205E+02 0.  0.
         12    1    3    3    0    0  0.26005922734E+02  0.24081064228E+02  0.99788619027E+01  0.36820963546E+02  0.00000000000E+00 0. -1.
         11    1    4    4    0    0 -0.25563259385E+02 -0.30419306655E+01 -0.16867796300E+02  0.30777526295E+02  0.51100000000E-03 0. -1.
        -11    1    4    4    0    0 -0.33944845130E+01 -0.15446813925E+02  0.28060057588E+01  0.16062386315E+02  0.51100000000E-03 0.  1.
         12    1    4    4    0    0  0.29518211643E+01 -0.55923196371E+01  0.40829286382E+01  0.75271238448E+01  0.00000000000E+00 0. -1.
</event>
<event>
 8    1  0.2971508E-007  0.9118800E+02  0.7816164E-02  0.1184000E+00
        -11   -1    0    0    0    0  0.00000000000E+00  0.00000000000E+00  0.45593999997E+02  0.45594000000E+02  0.51100000000E-03 0. -1.
         11   -1    0    0    0    0 -0.00000000000E+00 -0.00000000000E+00 -0.45593999997E+02  0.45594000000E+02  0.51100000000E-03 0.  1.
         23    2    1    2    0    0  0.00000000000E+00 -0.88817841970E-15 -0.71054273576E-14  0.91188000000E+02  0.91188000000E+02 0.  0.
    9900012    2    3    3    0    0 -0.16112521979E+02  0.77624098341E+01 -0.32185584810E+02  0.54367078766E+02  0.39999987663E+02 0.  0.
         12    1    3    3    0    0  0.16112521979E+02 -0.77624098341E+01  0.32185584810E+02  0.36820921234E+02  0.00000000000E+00 0. -1.
         11    1    4    4    0    0 -0.51295845226E+00  0.39471646122E+01 -0.10631352427E+02  0.11352043408E+02  0.51100000000E-03 0. -1.
        -11    1    4    4    0    0  0.26859792912E+00  0.15408063598E+02 -0.16797971499E+02  0.22795885933E+02  0.51100000000E-03 0.  1.
         12    1    4    4    0    0 -0.15868161456E+02 -0.11592818376E+02 -0.47562608830E+01  0.20219149425E+02  0.00000000000E+00 0. -1.
</event>
<event>
 8    1  0.2971508E-007  0.9118800E+02  0.7816164E-02  0.1184000E+00
        -11   -1    0    0    0    0  0.00000000000E+00  0.00000000000E+00  0.45593999997E+02  0.45594000000E+02  0.51100000000E-03 0. -1.
         11   -1    0    0    0    0 -0.00000000000E+00 -0.00000000000E+00 -0.45593999997E+02  0.45594000000E+02  0.51100000000E-03 0.  1.
         23    2    1    2    0    0 -0.17763568394E-14  0.35527136788E-14  0.35527136788E-14  0.91188000000E+02  0.91188000000E+02 0.  0.
    9900012    2    3    3    0    0  0.71735260156E+01 -0.27042663008E+02 -0.23937718973E+02  0.54367088989E+02  0.40000010968E+02 0.  0.
         12    1    3    3    0    0 -0.71735260156E+01  0.27042663008E+02  0.23937718973E+02  0.36820911011E+02  0.00000000000E+00 0. -1.
         11    1    4    4    0    0 -0.11925383628E+01 -0.26571628022E+01 -0.82402885953E+01  0.87398523042E+01  0.51100000000E-03 0. -1.
        -11    1    4    4    0    0 -0.89198346841E+01 -0.20643416027E+02 -0.16548090505E+02  0.27920483085E+02  0.51100000000E-03 0.  1.
         12    1    4    4    0    0  0.17285899062E+02 -0.37420841781E+01  0.85066012722E+00  0.17706753600E+02  0.00000000000E+00 0. -1.
</event>
<event>
 8    1  0.2971508E-007  0.9118800E+02  0.7816164E-02  0.1184000E+00
        -11   -1    0    0    0    0  0.00000000000E+00  0.00000000000E+00  0.45593999997E+02  0.45594000000E+02  0.51100000000E-03 0. -1.
         11   -1    0    0    0    0 -0.00000000000E+00 -0.00000000000E+00 -0.45593999997E+02  0.45594000000E+02  0.51100000000E-03 0.  1.
         23    2    1    2    0    0  0.00000000000E+00  0.00000000000E+00 -0.22204460493E-15  0.91188000000E+02  0.91188000000E+02 0.  0.
    9900012    2    3    3    0    0 -0.25024215440E+02 -0.26991459688E+02  0.10145422330E+01  0.54367088137E+02  0.40000009026E+02 0.  0.
        -12    1    3    3    0    0  0.25024215440E+02  0.26991459688E+02 -0.10145422330E+01  0.36820911863E+02  0.00000000000E+00 0.  1.
         11    1    4    4    0    0  0.57876514016E+00 -0.67666948181E+01  0.13184266048E+02  0.14830643928E+02  0.51100000000E-03 0. -1.
        -11    1    4    4    0    0 -0.65448908774E+01 -0.84134268233E+01 -0.13350692979E+02  0.17083979361E+02  0.51100000000E-03 0.  1.
         12    1    4    4    0    0 -0.19058089703E+02 -0.11811338047E+02  0.11809691644E+01  0.22452464848E+02  0.00000000000E+00 0. -1.
</event>
<event>
 8    1  0.2971508E-007  0.9118800E+02  0.7816164E-02  0.1184000E+00
        -11   -1    0    0    0    0  0.00000000000E+00  0.00000000000E+00  0.45593999997E+02  0.45594000000E+02  0.51100000000E-03 0.  1.
         11   -1    0    0    0    0 -0.00000000000E+00 -0.00000000000E+00 -0.45593999997E+02  0.45594000000E+02  0.51100000000E-03 0. -1.
         23    2    1    2    0    0  0.35527136788E-14 -0.88817841970E-15  0.00000000000E+00  0.91188000000E+02  0.91188000000E+02 0.  0.
    9900012    2    3    3    0    0 -0.15290005900E+02 -0.50495094862E+01 -0.33113420806E+02  0.54367075732E+02  0.39999980747E+02 0.  0.
        -12    1    3    3    0    0  0.15290005900E+02  0.50495094862E+01  0.33113420806E+02  0.36820924268E+02  0.00000000000E+00 0.  1.
         11    1    4    4    0    0  0.15414670184E+01 -0.11905360342E+02 -0.12112570551E+01  0.12065689759E+02  0.51100000000E-03 0. -1.
        -11    1    4    4    0    0 -0.10061760851E+02  0.14368521944E+02 -0.22126652079E+02  0.28236185768E+02  0.51100000000E-03 0.  1.
        -12    1    4    4    0    0 -0.67697120675E+01 -0.75126710878E+01 -0.97755116719E+01  0.14065200205E+02  0.00000000000E+00 0.  1.
</event>
<event>
 8    1  0.2971508E-007  0.9118800E+02  0.7816164E-02  0.1184000E+00
        -11   -1    0    0    0    0  0.00000000000E+00  0.00000000000E+00  0.45593999997E+02  0.45594000000E+02  0.51100000000E-03 0. -1.
         11   -1    0    0    0    0 -0.00000000000E+00 -0.00000000000E+00 -0.45593999997E+02  0.45594000000E+02  0.51100000000E-03 0.  1.
         23    2    1    2    0    0 -0.13877787808E-15  0.17763568394E-14  0.71054273576E-14  0.91188000000E+02  0.91188000000E+02 0.  0.
    9900012    2    3    3    0    0 -0.16982459904E+00  0.15237087516E+02 -0.33519812993E+02  0.54367142603E+02  0.40000133192E+02 0.  0.
         12    1    3    3    0    0  0.16982459904E+00 -0.15237087516E+02  0.33519812993E+02  0.36820857397E+02  0.00000000000E+00 0. -1.
         11    1    4    4    0    0 -0.16064902361E+02  0.15274481195E+02 -0.29766557725E+02  0.37113862945E+02  0.51100000000E-03 0. -1.
        -11    1    4    4    0    0  0.78399177470E+01 -0.68180998900E+00 -0.46209761303E+01  0.91259298594E+01  0.51100000000E-03 0.  1.
         12    1    4    4    0    0  0.80551600154E+01  0.64441631037E+00  0.86772086263E+00  0.81273497987E+01  0.00000000000E+00 0. -1.
</event>
<event>
 8    1  0.2971508E-007  0.9118800E+02  0.7816164E-02  0.1184000E+00
        -11   -1    0    0    0    0  0.00000000000E+00  0.00000000000E+00  0.45593999997E+02  0.45594000000E+02  0.51100000000E-03 0. -1.
         11   -1    0    0    0    0 -0.00000000000E+00 -0.00000000000E+00 -0.45593999997E+02  0.45594000000E+02  0.51100000000E-03 0.  1.
         23    2    1    2    0    0  0.00000000000E+00  0.00000000000E+00 -0.58286708793E-15  0.91188000000E+02  0.91188000000E+02 0.  0.
    9900012    2    3    3    0    0 -0.18305750994E+02  0.31947403932E+02 -0.20561555158E+00  0.54367089973E+02  0.40000013212E+02 0.  0.
        -12    1    3    3    0    0  0.18305750994E+02 -0.31947403932E+02  0.20561555158E+00  0.36820910027E+02  0.00000000000E+00 0.  1.
         11    1    4    4    0    0 -0.26937274643E+02  0.20761658868E+02  0.97579102659E+01  0.35381917092E+02  0.51100000000E-03 0. -1.
        -11    1    4    4    0    0  0.72917882394E+01  0.83513566618E+01 -0.32141678588E+01  0.11543232178E+02  0.51100000000E-03 0.  1.
         12    1    4    4    0    0  0.13397354091E+01  0.28343884022E+01 -0.67493579587E+01  0.74419407036E+01  0.00000000000E+00 0. -1.
</event>
<event>
 8    1  0.2971508E-007  0.9118800E+02  0.7816164E-02  0.1184000E+00
        -11   -1    0    0    0    0  0.00000000000E+00  0.00000000000E+00  0.45593999997E+02  0.45594000000E+02  0.51100000000E-03 0.  1.
         11   -1    0    0    0    0 -0.00000000000E+00 -0.00000000000E+00 -0.45593999997E+02  0.45594000000E+02  0.51100000000E-03 0. -1.
         23    2    1    2    0    0  0.17763568394E-14  0.00000000000E+00  0.00000000000E+00  0.91188000000E+02  0.91188000000E+02 0.  0.
    9900012    2    3    3    0    0 -0.91700146972E+01  0.27545178713E+02  0.22648465528E+02  0.54367095195E+02  0.40000025116E+02 0.  0.
         12    1    3    3    0    0  0.91700146972E+01 -0.27545178713E+02 -0.22648465528E+02  0.36820904805E+02  0.00000000000E+00 0. -1.
         11    1    4    4    0    0  0.42759546475E+01 -0.36281818930E+01 -0.58720384120E+01  0.81196260609E+01  0.51100000000E-03 0. -1.
        -11    1    4    4    0    0  0.14008338633E+01  0.12274467284E+02  0.10391785655E+02  0.16143546450E+02  0.51100000000E-03 0.  1.
         12    1    4    4    0    0 -0.14846803208E+02  0.18898893322E+02  0.18128718286E+02  0.30103922684E+02  0.00000000000E+00 0. -1.
</event>
<event>
 8    1  0.2971508E-007  0.9118800E+02  0.7816164E-02  0.1184000E+00
        -11   -1    0    0    0    0  0.00000000000E+00  0.00000000000E+00  0.45593999997E+02  0.45594000000E+02  0.51100000000E-03 0. -1.
         11   -1    0    0    0    0 -0.00000000000E+00 -0.00000000000E+00 -0.45593999997E+02  0.45594000000E+02  0.51100000000E-03 0.  1.
         23    2    1    2    0    0  0.00000000000E+00  0.00000000000E+00  0.00000000000E+00  0.91188000000E+02  0.91188000000E+02 0.  0.
    9900012    2    3    3    0    0 -0.22332876067E+02  0.19234699900E+02 -0.22069175578E+02  0.54367088219E+02  0.40000009213E+02 0.  0.
         12    1    3    3    0    0  0.22332876067E+02 -0.19234699900E+02  0.22069175578E+02  0.36820911781E+02  0.00000000000E+00 0. -1.
         11    1    4    4    0    0  0.69380249157E+00  0.10456800481E+02 -0.28276025456E+01  0.10854555477E+02  0.51100000000E-03 0. -1.
        -11    1    4    4    0    0 -0.80252025455E+01 -0.11251241688E+02 -0.48576827054E+01  0.14648938424E+02  0.51100000000E-03 0.  1.
        -12    1    4    4    0    0 -0.15001476013E+02  0.20029141107E+02 -0.14383890327E+02  0.28863594318E+02  0.00000000000E+00 0.  1.
</event>
<event>
 8    1  0.2971508E-007  0.9118800E+02  0.7816164E-02  0.1184000E+00
        -11   -1    0    0    0    0  0.00000000000E+00  0.00000000000E+00  0.45593999997E+02  0.45594000000E+02  0.51100000000E-03 0.  1.
         11   -1    0    0    0    0 -0.00000000000E+00 -0.00000000000E+00 -0.45593999997E+02  0.45594000000E+02  0.51100000000E-03 0. -1.
         23    2    1    2    0    0  0.00000000000E+00  0.00000000000E+00  0.17763568394E-14  0.91188000000E+02  0.91188000000E+02 0.  0.
    9900012    2    3    3    0    0  0.55140032030E+01 -0.35156376071E+02 -0.94554024494E+01  0.54367086850E+02  0.40000006091E+02 0.  0.
        -12    1    3    3    0    0 -0.55140032030E+01  0.35156376071E+02  0.94554024494E+01  0.36820913150E+02  0.00000000000E+00 0.  1.
         11    1    4    4    0    0 -0.12513596388E+02 -0.17092158285E+02 -0.72543956239E+01  0.22391030024E+02  0.51100000000E-03 0. -1.
        -11    1    4    4    0    0  0.19442922751E+02 -0.18986672138E+02  0.21973284279E+01  0.27264431343E+02  0.51100000000E-03 0.  1.
        -12    1    4    4    0    0 -0.14153231600E+01  0.92245435305E+00 -0.43983352535E+01  0.47116254820E+01  0.00000000000E+00 0.  1.
</event>
<event>
 8    1  0.2971508E-007  0.9118800E+02  0.7816164E-02  0.1184000E+00
        -11   -1    0    0    0    0  0.00000000000E+00  0.00000000000E+00  0.45593999997E+02  0.45594000000E+02  0.51100000000E-03 0. -1.
         11   -1    0    0    0    0 -0.00000000000E+00 -0.00000000000E+00 -0.45593999997E+02  0.45594000000E+02  0.51100000000E-03 0.  1.
         23    2    1    2    0    0  0.00000000000E+00 -0.35527136788E-14  0.71054273576E-14  0.91188000000E+02  0.91188000000E+02 0.  0.
    9900012    2    3    3    0    0 -0.29476963771E+01  0.17270364118E+02 -0.32385583120E+02  0.54367076807E+02  0.39999983198E+02 0.  0.
         12    1    3    3    0    0  0.29476963771E+01 -0.17270364118E+02  0.32385583120E+02  0.36820923193E+02  0.00000000000E+00 0. -1.
         11    1    4    4    0    0 -0.26157222969E+01  0.22930493030E+02 -0.89416205253E+01  0.24750799817E+02  0.51100000000E-03 0. -1.
        -11    1    4    4    0    0 -0.21012973942E+00  0.35146809492E+00 -0.23597921891E+02  0.23601474576E+02  0.51100000000E-03 0.  1.
        -12    1    4    4    0    0 -0.12184434080E+00 -0.60115970068E+01  0.15395929564E+00  0.60148024140E+01  0.00000000000E+00 0.  1.
</event>
<event>
 8    1  0.2971508E-007  0.9118800E+02  0.7816164E-02  0.1184000E+00
        -11   -1    0    0    0    0  0.00000000000E+00  0.00000000000E+00  0.45593999997E+02  0.45594000000E+02  0.51100000000E-03 0. -1.
         11   -1    0    0    0    0 -0.00000000000E+00 -0.00000000000E+00 -0.45593999997E+02  0.45594000000E+02  0.51100000000E-03 0.  1.
         23    2    1    2    0    0  0.00000000000E+00  0.00000000000E+00  0.00000000000E+00  0.91188000000E+02  0.91188000000E+02 0.  0.
    9900012    2    3    3    0    0 -0.33418143269E+02  0.14080953322E+02  0.63823478221E+01  0.54367083258E+02  0.39999997902E+02 0.  0.
        -12    1    3    3    0    0  0.33418143269E+02 -0.14080953322E+02 -0.63823478221E+01  0.36820916742E+02  0.00000000000E+00 0.  1.
         11    1    4    4    0    0  0.63885062764E+01  0.61306988921E+01  0.64799078844E+01  0.10972132327E+02  0.51100000000E-03 0. -1.
        -11    1    4    4    0    0 -0.66440203991E+01  0.28187690561E+01  0.58801634832E+01  0.93093925100E+01  0.51100000000E-03 0.  1.
        -12    1    4    4    0    0 -0.33162629147E+02  0.51314853742E+01 -0.59777235454E+01  0.34085558421E+02  0.00000000000E+00 0.  1.
</event>
<event>
 8    1  0.2971508E-007  0.9118800E+02  0.7816164E-02  0.1184000E+00
        -11   -1    0    0    0    0  0.00000000000E+00  0.00000000000E+00  0.45593999997E+02  0.45594000000E+02  0.51100000000E-03 0.  1.
         11   -1    0    0    0    0 -0.00000000000E+00 -0.00000000000E+00 -0.45593999997E+02  0.45594000000E+02  0.51100000000E-03 0. -1.
         23    2    1    2    0    0  0.00000000000E+00 -0.17763568394E-14  0.00000000000E+00  0.91188000000E+02  0.91188000000E+02 0.  0.
    9900012    2    3    3    0    0  0.32557344543E+02 -0.10594227451E+02  0.13548462044E+02  0.54367093402E+02  0.40000021028E+02 0.  0.
        -12    1    3    3    0    0 -0.32557344543E+02  0.10594227451E+02 -0.13548462044E+02  0.36820906598E+02  0.00000000000E+00 0.  1.
         11    1    4    4    0    0 -0.27317940772E+01 -0.54955450502E+01  0.34458852343E-01  0.61371737757E+01  0.51100000000E-03 0. -1.
        -11    1    4    4    0    0  0.24219515542E+02 -0.37382036336E+01  0.22984661042E+02  0.33598418757E+02  0.51100000000E-03 0.  1.
         12    1    4    4    0    0  0.11069623078E+02 -0.13604787670E+01 -0.94706578504E+01  0.14631500869E+02  0.00000000000E+00 0. -1.
</event>
<event>
 8    1  0.2971508E-007  0.9118800E+02  0.7816164E-02  0.1184000E+00
        -11   -1    0    0    0    0  0.00000000000E+00  0.00000000000E+00  0.45593999997E+02  0.45594000000E+02  0.51100000000E-03 0. -1.
         11   -1    0    0    0    0 -0.00000000000E+00 -0.00000000000E+00 -0.45593999997E+02  0.45594000000E+02  0.51100000000E-03 0.  1.
         23    2    1    2    0    0 -0.35527136788E-14  0.00000000000E+00 -0.17763568394E-14  0.91188000000E+02  0.91188000000E+02 0.  0.
    9900012    2    3    3    0    0  0.26190013817E+02 -0.22949484435E+02 -0.11965860173E+02  0.54367116398E+02  0.40000073452E+02 0.  0.
         12    1    3    3    0    0 -0.26190013817E+02  0.22949484435E+02  0.11965860173E+02  0.36820883602E+02  0.00000000000E+00 0. -1.
         11    1    4    4    0    0 -0.39481102750E+01  0.39422782058E+01  0.37371702396E+01  0.67153238087E+01  0.51100000000E-03 0. -1.
        -11    1    4    4    0    0  0.30224389907E+02 -0.28694225200E+02 -0.17411575391E+02  0.45166749528E+02  0.51100000000E-03 0.  1.
        -12    1    4    4    0    0 -0.86265814839E-01  0.18024625601E+01  0.17085449778E+01  0.24850430605E+01  0.00000000000E+00 0.  1.
</event>
<event>
 8    1  0.2971508E-007  0.9118800E+02  0.7816164E-02  0.1184000E+00
        -11   -1    0    0    0    0  0.00000000000E+00  0.00000000000E+00  0.45593999997E+02  0.45594000000E+02  0.51100000000E-03 0.  1.
         11   -1    0    0    0    0 -0.00000000000E+00 -0.00000000000E+00 -0.45593999997E+02  0.45594000000E+02  0.51100000000E-03 0. -1.
         23    2    1    2    0    0  0.00000000000E+00 -0.17763568394E-14  0.00000000000E+00  0.91188000000E+02  0.91188000000E+02 0.  0.
    9900012    2    3    3    0    0 -0.16666144452E+02  0.15174833044E+02 -0.29116019832E+02  0.54367101862E+02  0.40000040315E+02 0.  0.
        -12    1    3    3    0    0  0.16666144452E+02 -0.15174833044E+02  0.29116019832E+02  0.36820898138E+02  0.00000000000E+00 0.  1.
         11    1    4    4    0    0  0.57036143126E+01  0.50991416961E+01 -0.17108433921E+02  0.18741157215E+02  0.51100000000E-03 0. -1.
        -11    1    4    4    0    0  0.25663503883E+01  0.75714665306E+01 -0.55921489887E+01  0.97563000319E+01  0.51100000000E-03 0.  1.
        -12    1    4    4    0    0 -0.24936109153E+02  0.25042248171E+01 -0.64154369226E+01  0.25869644616E+02  0.00000000000E+00 0.  1.
</event>
<event>
 8    1  0.2971508E-007  0.9118800E+02  0.7816164E-02  0.1184000E+00
        -11   -1    0    0    0    0  0.00000000000E+00  0.00000000000E+00  0.45593999997E+02  0.45594000000E+02  0.51100000000E-03 0.  1.
         11   -1    0    0    0    0 -0.00000000000E+00 -0.00000000000E+00 -0.45593999997E+02  0.45594000000E+02  0.51100000000E-03 0. -1.
         23    2    1    2    0    0  0.17763568394E-14 -0.35527136788E-14  0.00000000000E+00  0.91188000000E+02  0.91188000000E+02 0.  0.
    9900012    2    3    3    0    0 -0.10296617276E+02  0.24910926253E+02  0.25083960992E+02  0.54367086471E+02  0.40000005227E+02 0.  0.
         12    1    3    3    0    0  0.10296617276E+02 -0.24910926253E+02 -0.25083960992E+02  0.36820913529E+02  0.00000000000E+00 0. -1.
         11    1    4    4    0    0  0.64292634475E+01 -0.39233840114E+01  0.95253385086E+01  0.12143329220E+02  0.51100000000E-03 0. -1.
        -11    1    4    4    0    0 -0.79096080065E+01  0.29264661692E+02  0.13354860157E+02  0.33126041309E+02  0.51100000000E-03 0.  1.
        -12    1    4    4    0    0 -0.88162727165E+01 -0.43035142725E+00  0.22037623259E+01  0.90977159415E+01  0.00000000000E+00 0.  1.
</event>
<event>
 8    1  0.2971508E-007  0.9118800E+02  0.7816164E-02  0.1184000E+00
        -11   -1    0    0    0    0  0.00000000000E+00  0.00000000000E+00  0.45593999997E+02  0.45594000000E+02  0.51100000000E-03 0.  1.
         11   -1    0    0    0    0 -0.00000000000E+00 -0.00000000000E+00 -0.45593999997E+02  0.45594000000E+02  0.51100000000E-03 0. -1.
         23    2    1    2    0    0  0.00000000000E+00  0.00000000000E+00  0.35527136788E-14  0.91188000000E+02  0.91188000000E+02 0.  0.
    9900012    2    3    3    0    0 -0.10187483488E+01  0.26828113518E+02  0.25199015327E+02  0.54367137753E+02  0.40000122136E+02 0.  0.
         12    1    3    3    0    0  0.10187483488E+01 -0.26828113518E+02 -0.25199015327E+02  0.36820862247E+02  0.00000000000E+00 0. -1.
         11    1    4    4    0    0 -0.11262535879E+02  0.24437027389E+02  0.16371457838E+02  0.31496629249E+02  0.51100000000E-03 0. -1.
        -11    1    4    4    0    0  0.41305360691E+01 -0.67238669562E+01  0.89006587662E+01  0.11895101588E+02  0.51100000000E-03 0.  1.
         12    1    4    4    0    0  0.61132514610E+01  0.91149530857E+01 -0.73101277628E-01  0.10975406916E+02  0.00000000000E+00 0. -1.
</event>
<event>
 8    1  0.2971508E-007  0.9118800E+02  0.7816164E-02  0.1184000E+00
        -11   -1    0    0    0    0  0.00000000000E+00  0.00000000000E+00  0.45593999997E+02  0.45594000000E+02  0.51100000000E-03 0. -1.
         11   -1    0    0    0    0 -0.00000000000E+00 -0.00000000000E+00 -0.45593999997E+02  0.45594000000E+02  0.51100000000E-03 0.  1.
         23    2    1    2    0    0  0.00000000000E+00 -0.35527136788E-14  0.00000000000E+00  0.91188000000E+02  0.91188000000E+02 0.  0.
    9900012    2    3    3    0    0 -0.20445774603E+02 -0.93945749998E+01 -0.29146031525E+02  0.54367097075E+02  0.40000029401E+02 0.  0.
         12    1    3    3    0    0  0.20445774603E+02  0.93945749998E+01  0.29146031525E+02  0.36820902925E+02  0.00000000000E+00 0. -1.
         11    1    4    4    0    0 -0.18459341362E+01 -0.19365736050E+02 -0.63445287567E+01  0.20461970849E+02  0.51100000000E-03 0. -1.
        -11    1    4    4    0    0 -0.19505110993E+01 -0.21412142051E+01  0.35615603435E+00  0.29182424852E+01  0.51100000000E-03 0.  1.
        -12    1    4    4    0    0 -0.16649329368E+02  0.12112375256E+02 -0.23157658803E+02  0.30986883741E+02  0.00000000000E+00 0.  1.
</event>
<event>
 8    1  0.2971508E-007  0.9118800E+02  0.7816164E-02  0.1184000E+00
        -11   -1    0    0    0    0  0.00000000000E+00  0.00000000000E+00  0.45593999997E+02  0.45594000000E+02  0.51100000000E-03 0.  1.
         11   -1    0    0    0    0 -0.00000000000E+00 -0.00000000000E+00 -0.45593999997E+02  0.45594000000E+02  0.51100000000E-03 0. -1.
         23    2    1    2    0    0 -0.17763568394E-14 -0.17763568394E-14  0.00000000000E+00  0.91188000000E+02  0.91188000000E+02 0.  0.
    9900012    2    3    3    0    0 -0.10406735242E+02 -0.99927036454E+01 -0.33876619196E+02  0.54367087563E+02  0.40000007717E+02 0.  0.
        -12    1    3    3    0    0  0.10406735242E+02  0.99927036454E+01  0.33876619196E+02  0.36820912437E+02  0.00000000000E+00 0.  1.
         11    1    4    4    0    0  0.67279200826E+01 -0.56740316606E+01 -0.92352281646E+01  0.12757310980E+02  0.51100000000E-03 0. -1.
        -11    1    4    4    0    0  0.74223234427E+01  0.17932316663E+00 -0.15122505541E+01  0.75769350060E+01  0.51100000000E-03 0.  1.
        -12    1    4    4    0    0 -0.24556978768E+02 -0.44979951514E+01 -0.23129140478E+02  0.34032841577E+02  0.00000000000E+00 0.  1.
</event>
<event>
 8    1  0.2971508E-007  0.9118800E+02  0.7816164E-02  0.1184000E+00
        -11   -1    0    0    0    0  0.00000000000E+00  0.00000000000E+00  0.45593999997E+02  0.45594000000E+02  0.51100000000E-03 0. -1.
         11   -1    0    0    0    0 -0.00000000000E+00 -0.00000000000E+00 -0.45593999997E+02  0.45594000000E+02  0.51100000000E-03 0.  1.
         23    2    1    2    0    0 -0.71054273576E-14  0.35527136788E-14  0.17763568394E-14  0.91188000000E+02  0.91188000000E+02 0.  0.
    9900012    2    3    3    0    0 -0.30909448532E+02  0.19183845679E+02  0.56891449591E+01  0.54367077769E+02  0.39999985390E+02 0.  0.
        -12    1    3    3    0    0  0.30909448532E+02 -0.19183845679E+02 -0.56891449591E+01  0.36820922231E+02  0.00000000000E+00 0.  1.
         11    1    4    4    0    0 -0.35468037179E+02  0.22021650323E+02  0.45653104970E+01  0.41997342827E+02  0.51100000000E-03 0. -1.
        -11    1    4    4    0    0  0.69717919261E+01 -0.30397828945E+00 -0.24232713167E+01  0.73871868527E+01  0.51100000000E-03 0.  1.
        -12    1    4    4    0    0 -0.24132032785E+01 -0.25338263548E+01  0.35471057788E+01  0.49825480897E+01  0.00000000000E+00 0.  1.
</event>
<event>
 8    1  0.2971508E-007  0.9118800E+02  0.7816164E-02  0.1184000E+00
        -11   -1    0    0    0    0  0.00000000000E+00  0.00000000000E+00  0.45593999997E+02  0.45594000000E+02  0.51100000000E-03 0. -1.
         11   -1    0    0    0    0 -0.00000000000E+00 -0.00000000000E+00 -0.45593999997E+02  0.45594000000E+02  0.51100000000E-03 0.  1.
         23    2    1    2    0    0  0.17763568394E-14  0.00000000000E+00 -0.35527136788E-14  0.91188000000E+02  0.91188000000E+02 0.  0.
    9900012    2    3    3    0    0  0.39773032491E+01  0.26794010833E+02 -0.24940769000E+02  0.54367083173E+02  0.39999997710E+02 0.  0.
         12    1    3    3    0    0 -0.39773032491E+01 -0.26794010833E+02  0.24940769000E+02  0.36820916827E+02  0.00000000000E+00 0. -1.
         11    1    4    4    0    0  0.11778066301E+02  0.17705577706E+02 -0.19832446407E+02  0.29078106170E+02  0.51100000000E-03 0.  1.
        -11    1    4    4    0    0  0.42736269429E+01 -0.32092572445E+01  0.31227593797E+01  0.61898986836E+01  0.51100000000E-03 0. -1.
         12    1    4    4    0    0 -0.12074389995E+02  0.12297690371E+02 -0.82310819726E+01  0.19099078319E+02  0.00000000000E+00 0. -1.
</event>
<event>
 8    1  0.2971508E-007  0.9118800E+02  0.7816164E-02  0.1184000E+00
        -11   -1    0    0    0    0  0.00000000000E+00  0.00000000000E+00  0.45593999997E+02  0.45594000000E+02  0.51100000000E-03 0.  1.
         11   -1    0    0    0    0 -0.00000000000E+00 -0.00000000000E+00 -0.45593999997E+02  0.45594000000E+02  0.51100000000E-03 0. -1.
         23    2    1    2    0    0 -0.17763568394E-14  0.00000000000E+00 -0.14210854715E-13  0.91188000000E+02  0.91188000000E+02 0.  0.
    9900012    2    3    3    0    0 -0.10126032730E+02 -0.28667520806E+01 -0.35284898778E+02  0.54367097130E+02  0.40000029528E+02 0.  0.
        -12    1    3    3    0    0  0.10126032730E+02  0.28667520806E+01  0.35284898778E+02  0.36820902870E+02  0.00000000000E+00 0.  1.
         11    1    4    4    0    0  0.80744299108E+01  0.70335558809E+01  0.21501242581E+01  0.10922012695E+02  0.51100000000E-03 0.  1.
        -11    1    4    4    0    0 -0.13277899575E+02 -0.74912818254E+01 -0.33152513073E+02  0.36489875909E+02  0.51100000000E-03 0. -1.
         12    1    4    4    0    0 -0.49225630662E+01 -0.24090261361E+01 -0.42825099634E+01  0.69552085269E+01  0.00000000000E+00 0. -1.
</event>
<event>
 8    1  0.2971508E-007  0.9118800E+02  0.7816164E-02  0.1184000E+00
        -11   -1    0    0    0    0  0.00000000000E+00  0.00000000000E+00  0.45593999997E+02  0.45594000000E+02  0.51100000000E-03 0. -1.
         11   -1    0    0    0    0 -0.00000000000E+00 -0.00000000000E+00 -0.45593999997E+02  0.45594000000E+02  0.51100000000E-03 0.  1.
         23    2    1    2    0    0  0.28865798640E-14 -0.35527136788E-14  0.00000000000E+00  0.91188000000E+02  0.91188000000E+02 0.  0.
    9900012    2    3    3    0    0  0.17978230368E+01  0.31926512129E+02 -0.18254945230E+02  0.54367117749E+02  0.40000076532E+02 0.  0.
         12    1    3    3    0    0 -0.17978230368E+01 -0.31926512129E+02  0.18254945230E+02  0.36820882251E+02  0.00000000000E+00 0. -1.
         11    1    4    4    0    0 -0.94299925161E+00  0.94806753539E+01 -0.36863796882E+01  0.10215764691E+02  0.51100000000E-03 0. -1.
        -11    1    4    4    0    0 -0.16030484701E+02  0.93243549508E+01 -0.42200960363E+01  0.19019180997E+02  0.51100000000E-03 0.  1.
         12    1    4    4    0    0  0.18771306989E+02  0.13121481824E+02 -0.10348469506E+02  0.25132172060E+02  0.00000000000E+00 0. -1.
</event>
<event>
 8    1  0.2971508E-007  0.9118800E+02  0.7816164E-02  0.1184000E+00
        -11   -1    0    0    0    0  0.00000000000E+00  0.00000000000E+00  0.45593999997E+02  0.45594000000E+02  0.51100000000E-03 0. -1.
         11   -1    0    0    0    0 -0.00000000000E+00 -0.00000000000E+00 -0.45593999997E+02  0.45594000000E+02  0.51100000000E-03 0.  1.
         23    2    1    2    0    0 -0.11102230246E-14  0.35527136788E-14  0.00000000000E+00  0.91188000000E+02  0.91188000000E+02 0.  0.
    9900012    2    3    3    0    0  0.87433544132E+00 -0.27886323457E+02 -0.24028526494E+02  0.54367060524E+02  0.39999946076E+02 0.  0.
         12    1    3    3    0    0 -0.87433544132E+00  0.27886323457E+02  0.24028526494E+02  0.36820939476E+02  0.00000000000E+00 0. -1.
         11    1    4    4    0    0 -0.13707332301E+02 -0.20603115771E+01 -0.27348396194E+01  0.14128524007E+02  0.51100000000E-03 0. -1.
        -11    1    4    4    0    0  0.10017140897E+02 -0.63434949767E+01 -0.12603684964E+01  0.11923572002E+02  0.51100000000E-03 0.  1.
         12    1    4    4    0    0  0.45645268454E+01 -0.19482516904E+02 -0.20033318378E+02  0.28314964515E+02  0.00000000000E+00 0. -1.
</event>
<event>
 8    1  0.2971508E-007  0.9118800E+02  0.7816164E-02  0.1184000E+00
        -11   -1    0    0    0    0  0.00000000000E+00  0.00000000000E+00  0.45593999997E+02  0.45594000000E+02  0.51100000000E-03 0. -1.
         11   -1    0    0    0    0 -0.00000000000E+00 -0.00000000000E+00 -0.45593999997E+02  0.45594000000E+02  0.51100000000E-03 0.  1.
         23    2    1    2    0    0 -0.88817841970E-15  0.00000000000E+00 -0.35527136788E-14  0.91188000000E+02  0.91188000000E+02 0.  0.
    9900012    2    3    3    0    0  0.27347327383E+01  0.23546817243E+02 -0.28175346818E+02  0.54367061205E+02  0.39999947628E+02 0.  0.
         12    1    3    3    0    0 -0.27347327383E+01 -0.23546817243E+02  0.28175346818E+02  0.36820938795E+02  0.00000000000E+00 0. -1.
         11    1    4    4    0    0 -0.43249177308E+01  0.97242278081E+00 -0.36458039263E+01  0.57395475408E+01  0.51100000000E-03 0. -1.
        -11    1    4    4    0    0  0.17510971400E+02  0.93247477649E+01 -0.24788658882E+02  0.31750002357E+02  0.51100000000E-03 0.  1.
         12    1    4    4    0    0 -0.10451320930E+02  0.13249646698E+02  0.25911599046E+00  0.16877511307E+02  0.00000000000E+00 0. -1.
</event>
<event>
 8    1  0.2971508E-007  0.9118800E+02  0.7816164E-02  0.1184000E+00
        -11   -1    0    0    0    0  0.00000000000E+00  0.00000000000E+00  0.45593999997E+02  0.45594000000E+02  0.51100000000E-03 0. -1.
         11   -1    0    0    0    0 -0.00000000000E+00 -0.00000000000E+00 -0.45593999997E+02  0.45594000000E+02  0.51100000000E-03 0.  1.
         23    2    1    2    0    0 -0.44408920985E-15 -0.71054273576E-14  0.00000000000E+00  0.91188000000E+02  0.91188000000E+02 0.  0.
    9900012    2    3    3    0    0 -0.10218086759E+01 -0.36327557685E+02 -0.59197386240E+01  0.54367097707E+02  0.40000030842E+02 0.  0.
         12    1    3    3    0    0  0.10218086759E+01  0.36327557685E+02  0.59197386240E+01  0.36820902293E+02  0.00000000000E+00 0. -1.
         11    1    4    4    0    0 -0.31734545682E+01 -0.19621023958E+02  0.44149448257E+01  0.20360430574E+02  0.51100000000E-03 0. -1.
        -11    1    4    4    0    0  0.71569231988E+01 -0.21766722786E+02 -0.13073480709E+02  0.26380441024E+02  0.51100000000E-03 0.  1.
        -12    1    4    4    0    0 -0.50052773066E+01  0.50601890594E+01  0.27387972596E+01  0.76262261087E+01  0.00000000000E+00 0.  1.
</event>
<event>
 8    1  0.2971508E-007  0.9118800E+02  0.7816164E-02  0.1184000E+00
        -11   -1    0    0    0    0  0.00000000000E+00  0.00000000000E+00  0.45593999997E+02  0.45594000000E+02  0.51100000000E-03 0. -1.
         11   -1    0    0    0    0 -0.00000000000E+00 -0.00000000000E+00 -0.45593999997E+02  0.45594000000E+02  0.51100000000E-03 0.  1.
         23    2    1    2    0    0  0.00000000000E+00 -0.17763568394E-14  0.35527136788E-14  0.91188000000E+02  0.91188000000E+02 0.  0.
    9900012    2    3    3    0    0  0.14825950601E+02 -0.14446296166E+02 -0.30451179739E+02  0.54367100614E+02  0.40000037469E+02 0.  0.
         12    1    3    3    0    0 -0.14825950601E+02  0.14446296166E+02  0.30451179739E+02  0.36820899386E+02  0.00000000000E+00 0. -1.
         11    1    4    4    0    0  0.11554164961E+02 -0.16356220469E+02 -0.21892742632E+01  0.20144914942E+02  0.51100000000E-03 0. -1.
        -11    1    4    4    0    0  0.16505909415E+01 -0.69483191342E+01 -0.22316130976E+02  0.23431032655E+02  0.51100000000E-03 0.  1.
         12    1    4    4    0    0  0.16211946985E+01  0.88582434371E+01 -0.59457744991E+01  0.10791153017E+02  0.00000000000E+00 0. -1.
</event>
<event>
 8    1  0.2971508E-007  0.9118800E+02  0.7816164E-02  0.1184000E+00
        -11   -1    0    0    0    0  0.00000000000E+00  0.00000000000E+00  0.45593999997E+02  0.45594000000E+02  0.51100000000E-03 0. -1.
         11   -1    0    0    0    0 -0.00000000000E+00 -0.00000000000E+00 -0.45593999997E+02  0.45594000000E+02  0.51100000000E-03 0.  1.
         23    2    1    2    0    0  0.00000000000E+00  0.00000000000E+00 -0.88817841970E-15  0.91188000000E+02  0.91188000000E+02 0.  0.
    9900012    2    3    3    0    0  0.34809917961E+02 -0.91530328474E+01 -0.77635060211E+01  0.54367076268E+02  0.39999981968E+02 0.  0.
         12    1    3    3    0    0 -0.34809917961E+02  0.91530328474E+01  0.77635060211E+01  0.36820923732E+02  0.00000000000E+00 0. -1.
         11    1    4    4    0    0  0.13585735585E+01  0.49157201935E+01  0.89900566941E+01  0.10335915381E+02  0.51100000000E-03 0. -1.
        -11    1    4    4    0    0  0.71455484436E+01 -0.63251455937E+01 -0.13333858687E+02  0.16396893520E+02  0.51100000000E-03 0.  1.
        -12    1    4    4    0    0  0.26305795959E+02 -0.77436074472E+01 -0.34197040278E+01  0.27634267368E+02  0.00000000000E+00 0.  1.
</event>
<event>
 8    1  0.2971508E-007  0.9118800E+02  0.7816164E-02  0.1184000E+00
        -11   -1    0    0    0    0  0.00000000000E+00  0.00000000000E+00  0.45593999997E+02  0.45594000000E+02  0.51100000000E-03 0. -1.
         11   -1    0    0    0    0 -0.00000000000E+00 -0.00000000000E+00 -0.45593999997E+02  0.45594000000E+02  0.51100000000E-03 0.  1.
         23    2    1    2    0    0 -0.44408920985E-15 -0.88817841970E-15  0.71054273576E-14  0.91188000000E+02  0.91188000000E+02 0.  0.
    9900012    2    3    3    0    0  0.31208626527E+01  0.52913095443E+01 -0.36304846448E+02  0.54367087246E+02  0.40000006996E+02 0.  0.
         12    1    3    3    0    0 -0.31208626527E+01 -0.52913095443E+01  0.36304846448E+02  0.36820912754E+02  0.00000000000E+00 0. -1.
         11    1    4    4    0    0 -0.59661453531E+01 -0.42750391728E+01  0.44785354162E+00  0.73533273665E+01  0.51100000000E-03 0. -1.
        -11    1    4    4    0    0  0.99916563707E+01  0.15567801929E+02 -0.13286623007E+02  0.22775513279E+02  0.51100000000E-03 0.  1.
        -12    1    4    4    0    0 -0.90464836498E+00 -0.60014532123E+01 -0.23466076982E+02  0.24238246601E+02  0.00000000000E+00 0.  1.
</event>
<event>
 8    1  0.2971508E-007  0.9118800E+02  0.7816164E-02  0.1184000E+00
        -11   -1    0    0    0    0  0.00000000000E+00  0.00000000000E+00  0.45593999997E+02  0.45594000000E+02  0.51100000000E-03 0.  1.
         11   -1    0    0    0    0 -0.00000000000E+00 -0.00000000000E+00 -0.45593999997E+02  0.45594000000E+02  0.51100000000E-03 0. -1.
         23    2    1    2    0    0  0.13322676296E-14  0.00000000000E+00 -0.17763568394E-14  0.91188000000E+02  0.91188000000E+02 0.  0.
    9900012    2    3    3    0    0  0.13950267600E+01 -0.35383152054E+02 -0.10092894861E+02  0.54367081005E+02  0.39999992767E+02 0.  0.
         12    1    3    3    0    0 -0.13950267600E+01  0.35383152054E+02  0.10092894861E+02  0.36820918995E+02  0.00000000000E+00 0. -1.
         11    1    4    4    0    0  0.94806388252E+01 -0.12303744338E+01 -0.14248928906E+02  0.17158913398E+02  0.51100000000E-03 0. -1.
        -11    1    4    4    0    0 -0.99151944169E+01 -0.22741499827E+02  0.59505415086E+01  0.25512660371E+02  0.51100000000E-03 0.  1.
        -12    1    4    4    0    0  0.18295823517E+01 -0.11411277794E+02 -0.17945074635E+01  0.11695507236E+02  0.00000000000E+00 0.  1.
</event>
<event>
 8    1  0.2971508E-007  0.9118800E+02  0.7816164E-02  0.1184000E+00
        -11   -1    0    0    0    0  0.00000000000E+00  0.00000000000E+00  0.45593999997E+02  0.45594000000E+02  0.51100000000E-03 0. -1.
         11   -1    0    0    0    0 -0.00000000000E+00 -0.00000000000E+00 -0.45593999997E+02  0.45594000000E+02  0.51100000000E-03 0.  1.
         23    2    1    2    0    0  0.00000000000E+00  0.00000000000E+00  0.35527136788E-14  0.91188000000E+02  0.91188000000E+02 0.  0.
    9900012    2    3    3    0    0  0.12427737644E+02 -0.13843016889E+02 -0.31775794321E+02  0.54367097182E+02  0.40000029647E+02 0.  0.
         12    1    3    3    0    0 -0.12427737644E+02  0.13843016889E+02  0.31775794321E+02  0.36820902818E+02  0.00000000000E+00 0. -1.
         11    1    4    4    0    0 -0.61463189216E+01 -0.67725662282E+01 -0.21386183852E+02  0.23259702268E+02  0.51100000000E-03 0. -1.
        -11    1    4    4    0    0  0.20089444568E+02 -0.52689073895E-01 -0.12454426610E+02  0.23636863193E+02  0.51100000000E-03 0.  1.
         12    1    4    4    0    0 -0.15153880018E+01 -0.70177615873E+01  0.20648161411E+01  0.74705317206E+01  0.00000000000E+00 0. -1.
</event>
<event>
 8    1  0.2971508E-007  0.9118800E+02  0.7816164E-02  0.1184000E+00
        -11   -1    0    0    0    0  0.00000000000E+00  0.00000000000E+00  0.45593999997E+02  0.45594000000E+02  0.51100000000E-03 0. -1.
         11   -1    0    0    0    0 -0.00000000000E+00 -0.00000000000E+00 -0.45593999997E+02  0.45594000000E+02  0.51100000000E-03 0.  1.
         23    2    1    2    0    0  0.00000000000E+00  0.00000000000E+00 -0.17763568394E-14  0.91188000000E+02  0.91188000000E+02 0.  0.
    9900012    2    3    3    0    0  0.34443072502E+02 -0.73520134780E+01  0.10742604553E+02  0.54367069836E+02  0.39999967306E+02 0.  0.
        -12    1    3    3    0    0 -0.34443072502E+02  0.73520134780E+01 -0.10742604553E+02  0.36820930164E+02  0.00000000000E+00 0.  1.
         11    1    4    4    0    0  0.83191321872E+01  0.43511387727E+01 -0.20162315046E+01  0.96023725562E+01  0.51100000000E-03 0.  1.
        -11    1    4    4    0    0  0.28420555702E+02 -0.19129019051E+02  0.13777861483E+02  0.36925287048E+02  0.51100000000E-03 0. -1.
         12    1    4    4    0    0 -0.22966153879E+01  0.74258668000E+01 -0.10190254253E+01  0.78394102322E+01  0.00000000000E+00 0. -1.
</event>
<event>
 8    1  0.2971508E-007  0.9118800E+02  0.7816164E-02  0.1184000E+00
        -11   -1    0    0    0    0  0.00000000000E+00  0.00000000000E+00  0.45593999997E+02  0.45594000000E+02  0.51100000000E-03 0. -1.
         11   -1    0    0    0    0 -0.00000000000E+00 -0.00000000000E+00 -0.45593999997E+02  0.45594000000E+02  0.51100000000E-03 0.  1.
         23    2    1    2    0    0 -0.71054273576E-14 -0.88817841970E-15 -0.35527136788E-14  0.91188000000E+02  0.91188000000E+02 0.  0.
    9900012    2    3    3    0    0  0.32116450287E+02  0.41031290749E+01  0.17535023850E+02  0.54367094136E+02  0.40000022703E+02 0.  0.
         12    1    3    3    0    0 -0.32116450287E+02 -0.41031290749E+01 -0.17535023850E+02  0.36820905864E+02  0.00000000000E+00 0. -1.
         11    1    4    4    0    0  0.10398477936E+02 -0.87691730663E+01  0.21635436558E+02  0.25556190150E+02  0.51100000000E-03 0. -1.
        -11    1    4    4    0    0 -0.18009117034E+01  0.26418109741E+00 -0.46954181879E+00  0.18797724320E+01  0.51100000000E-03 0.  1.
        -12    1    4    4    0    0  0.23518884054E+02  0.12608121044E+02 -0.36308708895E+01  0.26931131555E+02  0.00000000000E+00 0.  1.
</event>
<event>
 8    1  0.2971508E-007  0.9118800E+02  0.7816164E-02  0.1184000E+00
        -11   -1    0    0    0    0  0.00000000000E+00  0.00000000000E+00  0.45593999997E+02  0.45594000000E+02  0.51100000000E-03 0. -1.
         11   -1    0    0    0    0 -0.00000000000E+00 -0.00000000000E+00 -0.45593999997E+02  0.45594000000E+02  0.51100000000E-03 0.  1.
         23    2    1    2    0    0  0.00000000000E+00  0.11102230246E-14  0.00000000000E+00  0.91188000000E+02  0.91188000000E+02 0.  0.
    9900012    2    3    3    0    0  0.26524517444E+02 -0.17155439903E+01  0.25481088055E+02  0.54367096083E+02  0.40000027139E+02 0.  0.
        -12    1    3    3    0    0 -0.26524517444E+02  0.17155439903E+01 -0.25481088055E+02  0.36820903917E+02  0.00000000000E+00 0.  1.
         11    1    4    4    0    0  0.10544726153E+01 -0.69523209737E+01 -0.19879606526E+01  0.73074391708E+01  0.51100000000E-03 0. -1.
        -11    1    4    4    0    0  0.21991946869E+02 -0.86002056673E+01  0.20055177389E+02  0.30980952293E+02  0.51100000000E-03 0.  1.
         12    1    4    4    0    0  0.34780979602E+01  0.13836982651E+02  0.74138713183E+01  0.16078704619E+02  0.00000000000E+00 0. -1.
</event>
<event>
 8    1  0.2971508E-007  0.9118800E+02  0.7816164E-02  0.1184000E+00
        -11   -1    0    0    0    0  0.00000000000E+00  0.00000000000E+00  0.45593999997E+02  0.45594000000E+02  0.51100000000E-03 0.  1.
         11   -1    0    0    0    0 -0.00000000000E+00 -0.00000000000E+00 -0.45593999997E+02  0.45594000000E+02  0.51100000000E-03 0. -1.
         23    2    1    2    0    0  0.00000000000E+00  0.88817841970E-15 -0.71054273576E-14  0.91188000000E+02  0.91188000000E+02 0.  0.
    9900012    2    3    3    0    0 -0.23963965610E+02  0.51675256671E+01 -0.27473702895E+02  0.54367091265E+02  0.40000016158E+02 0.  0.
        -12    1    3    3    0    0  0.23963965610E+02 -0.51675256671E+01  0.27473702895E+02  0.36820908735E+02  0.00000000000E+00 0.  1.
         11    1    4    4    0    0 -0.53831234094E+01  0.98932211088E+00 -0.56499072566E+01  0.78662715532E+01  0.51100000000E-03 0. -1.
        -11    1    4    4    0    0  0.30415417637E+00 -0.68324491657E+01 -0.23597455859E+02  0.24568573313E+02  0.51100000000E-03 0.  1.
        -12    1    4    4    0    0 -0.18884996377E+02  0.11010652722E+02  0.17736602207E+01  0.21932246399E+02  0.00000000000E+00 0.  1.
</event>
<event>
 8    1  0.2971508E-007  0.9118800E+02  0.7816164E-02  0.1184000E+00
        -11   -1    0    0    0    0  0.00000000000E+00  0.00000000000E+00  0.45593999997E+02  0.45594000000E+02  0.51100000000E-03 0.  1.
         11   -1    0    0    0    0 -0.00000000000E+00 -0.00000000000E+00 -0.45593999997E+02  0.45594000000E+02  0.51100000000E-03 0. -1.
         23    2    1    2    0    0  0.35527136788E-14  0.00000000000E+00  0.35527136788E-14  0.91188000000E+02  0.91188000000E+02 0.  0.
    9900012    2    3    3    0    0  0.19898111252E+02 -0.24719245748E+02  0.18676287829E+02  0.54367086529E+02  0.40000005360E+02 0.  0.
         12    1    3    3    0    0 -0.19898111252E+02  0.24719245748E+02 -0.18676287829E+02  0.36820913471E+02  0.00000000000E+00 0. -1.
         11    1    4    4    0    0 -0.55114044041E+01 -0.90011443401E+01 -0.59889257573E+01  0.12135213633E+02  0.51100000000E-03 0. -1.
        -11    1    4    4    0    0  0.14538215078E+02 -0.17170624789E+02  0.20690087658E+02  0.30565827011E+02  0.51100000000E-03 0.  1.
         12    1    4    4    0    0  0.10871300579E+02  0.14525233807E+01  0.39751259286E+01  0.11666045885E+02  0.00000000000E+00 0. -1.
</event>
<event>
 8    1  0.2971508E-007  0.9118800E+02  0.7816164E-02  0.1184000E+00
        -11   -1    0    0    0    0  0.00000000000E+00  0.00000000000E+00  0.45593999997E+02  0.45594000000E+02  0.51100000000E-03 0.  1.
         11   -1    0    0    0    0 -0.00000000000E+00 -0.00000000000E+00 -0.45593999997E+02  0.45594000000E+02  0.51100000000E-03 0. -1.
         23    2    1    2    0    0  0.00000000000E+00  0.00000000000E+00  0.88817841970E-15  0.91188000000E+02  0.91188000000E+02 0.  0.
    9900012    2    3    3    0    0  0.34334861542E+02 -0.11026045835E+02 -0.74379587057E+01  0.54367087008E+02  0.40000006453E+02 0.  0.
        -12    1    3    3    0    0 -0.34334861542E+02  0.11026045835E+02  0.74379587057E+01  0.36820912992E+02  0.00000000000E+00 0.  1.
         11    1    4    4    0    0  0.18999006153E+02  0.89722828455E+01  0.60996261154E+01  0.21878517620E+02  0.51100000000E-03 0. -1.
        -11    1    4    4    0    0  0.32075409442E+01  0.22175558584E+01 -0.35663848046E+01  0.52844085506E+01  0.51100000000E-03 0.  1.
        -12    1    4    4    0    0  0.12128314445E+02 -0.22215884538E+02 -0.99712000164E+01  0.27204160837E+02  0.00000000000E+00 0.  1.
</event>
<event>
 8    1  0.2971508E-007  0.9118800E+02  0.7816164E-02  0.1184000E+00
        -11   -1    0    0    0    0  0.00000000000E+00  0.00000000000E+00  0.45593999997E+02  0.45594000000E+02  0.51100000000E-03 0.  1.
         11   -1    0    0    0    0 -0.00000000000E+00 -0.00000000000E+00 -0.45593999997E+02  0.45594000000E+02  0.51100000000E-03 0. -1.
         23    2    1    2    0    0 -0.35527136788E-14  0.00000000000E+00 -0.88817841970E-15  0.91188000000E+02  0.91188000000E+02 0.  0.
    9900012    2    3    3    0    0  0.21606663215E+02 -0.28738298626E+02  0.79398528385E+01  0.54367096069E+02  0.40000027107E+02 0.  0.
         12    1    3    3    0    0 -0.21606663215E+02  0.28738298626E+02 -0.79398528385E+01  0.36820903931E+02  0.00000000000E+00 0. -1.
         11    1    4    4    0    0  0.33527650276E+01 -0.28519949867E+02  0.59978688118E+01  0.29336035934E+02  0.51100000000E-03 0. -1.
        -11    1    4    4    0    0  0.87016893380E+01  0.76167581989E+01  0.45096742373E+01  0.12412556738E+02  0.51100000000E-03 0.  1.
        -12    1    4    4    0    0  0.95522088496E+01 -0.78351069582E+01 -0.25676902105E+01  0.12618503397E+02  0.00000000000E+00 0.  1.
</event>
<event>
 8    1  0.2971508E-007  0.9118800E+02  0.7816164E-02  0.1184000E+00
        -11   -1    0    0    0    0  0.00000000000E+00  0.00000000000E+00  0.45593999997E+02  0.45594000000E+02  0.51100000000E-03 0.  1.
         11   -1    0    0    0    0 -0.00000000000E+00 -0.00000000000E+00 -0.45593999997E+02  0.45594000000E+02  0.51100000000E-03 0. -1.
         23    2    1    2    0    0 -0.35527136788E-14  0.00000000000E+00  0.00000000000E+00  0.91188000000E+02  0.91188000000E+02 0.  0.
    9900012    2    3    3    0    0  0.31974893616E+02 -0.17942708131E+02 -0.33829592670E+01  0.54367095473E+02  0.40000025749E+02 0.  0.
        -12    1    3    3    0    0 -0.31974893616E+02  0.17942708131E+02  0.33829592670E+01  0.36820904527E+02  0.00000000000E+00 0.  1.
         11    1    4    4    0    0  0.47637209203E+01  0.45897397162E+01 -0.18156170276E+01  0.68596802492E+01  0.51100000000E-03 0. -1.
        -11    1    4    4    0    0  0.22244578953E+02 -0.29781956730E+02  0.35447293652E+01  0.37341014260E+02  0.51100000000E-03 0.  1.
        -12    1    4    4    0    0  0.49665937428E+01  0.72495088831E+01 -0.51120716046E+01  0.10166400963E+02  0.00000000000E+00 0.  1.
</event>
<event>
 8    1  0.2971508E-007  0.9118800E+02  0.7816164E-02  0.1184000E+00
        -11   -1    0    0    0    0  0.00000000000E+00  0.00000000000E+00  0.45593999997E+02  0.45594000000E+02  0.51100000000E-03 0.  1.
         11   -1    0    0    0    0 -0.00000000000E+00 -0.00000000000E+00 -0.45593999997E+02  0.45594000000E+02  0.51100000000E-03 0. -1.
         23    2    1    2    0    0  0.88817841970E-15  0.71054273576E-14  0.35527136788E-14  0.91188000000E+02  0.91188000000E+02 0.  0.
    9900012    2    3    3    0    0 -0.13281268108E+01 -0.32226011881E+02 -0.17762394455E+02  0.54367049179E+02  0.39999920213E+02 0.  0.
        -12    1    3    3    0    0  0.13281268108E+01  0.32226011881E+02  0.17762394455E+02  0.36820950821E+02  0.00000000000E+00 0.  1.
         11    1    4    4    0    0  0.58829874943E+01  0.82846114736E+01 -0.27020257078E+01  0.10514051185E+02  0.51100000000E-03 0.  1.
        -11    1    4    4    0    0 -0.14598578668E+01 -0.11754536178E+02 -0.48779377700E+01  0.12809940784E+02  0.51100000000E-03 0. -1.
        -12    1    4    4    0    0 -0.57512564383E+01 -0.28756087177E+02 -0.10182430977E+02  0.31043057210E+02  0.00000000000E+00 0.  1.
</event>
<event>
 8    1  0.2971508E-007  0.9118800E+02  0.7816164E-02  0.1184000E+00
        -11   -1    0    0    0    0  0.00000000000E+00  0.00000000000E+00  0.45593999997E+02  0.45594000000E+02  0.51100000000E-03 0.  1.
         11   -1    0    0    0    0 -0.00000000000E+00 -0.00000000000E+00 -0.45593999997E+02  0.45594000000E+02  0.51100000000E-03 0. -1.
         23    2    1    2    0    0  0.00000000000E+00  0.00000000000E+00  0.00000000000E+00  0.91188000000E+02  0.91188000000E+02 0.  0.
    9900012    2    3    3    0    0  0.16121763653E+02 -0.31407125370E+02  0.10462352417E+02  0.54367087391E+02  0.40000007325E+02 0.  0.
         12    1    3    3    0    0 -0.16121763653E+02  0.31407125370E+02 -0.10462352417E+02  0.36820912609E+02  0.00000000000E+00 0. -1.
         11    1    4    4    0    0  0.17902063480E+02 -0.51058336441E+01 -0.17949524886E+01  0.18702279774E+02  0.51100000000E-03 0. -1.
        -11    1    4    4    0    0 -0.71451165426E-01 -0.16577622374E+01  0.10791853610E+02  0.10918671416E+02  0.51100000000E-03 0.  1.
        -12    1    4    4    0    0 -0.17088486614E+01 -0.24643529488E+02  0.14654512962E+01  0.24746136201E+02  0.00000000000E+00 0.  1.
</event>
<event>
 8    1  0.2971508E-007  0.9118800E+02  0.7816164E-02  0.1184000E+00
        -11   -1    0    0    0    0  0.00000000000E+00  0.00000000000E+00  0.45593999997E+02  0.45594000000E+02  0.51100000000E-03 0. -1.
         11   -1    0    0    0    0 -0.00000000000E+00 -0.00000000000E+00 -0.45593999997E+02  0.45594000000E+02  0.51100000000E-03 0.  1.
         23    2    1    2    0    0  0.88817841970E-15 -0.17763568394E-14  0.00000000000E+00  0.91188000000E+02  0.91188000000E+02 0.  0.
    9900012    2    3    3    0    0  0.45173660875E+01  0.15142765844E+02 -0.33257608374E+02  0.54367102828E+02  0.40000042518E+02 0.  0.
         12    1    3    3    0    0 -0.45173660875E+01 -0.15142765844E+02  0.33257608374E+02  0.36820897172E+02  0.00000000000E+00 0. -1.
         11    1    4    4    0    0  0.89163017705E+01 -0.26624348463E+01 -0.19207778960E+02  0.21343096529E+02  0.51100000000E-03 0.  1.
        -11    1    4    4    0    0  0.48148756976E+01  0.66198476403E+01  0.46125724337E+01  0.93958094639E+01  0.51100000000E-03 0. -1.
        -12    1    4    4    0    0 -0.92138113806E+01  0.11185353050E+02 -0.18662401847E+02  0.23628196836E+02  0.00000000000E+00 0.  1.
</event>
<event>
 8    1  0.2971508E-007  0.9118800E+02  0.7816164E-02  0.1184000E+00
        -11   -1    0    0    0    0  0.00000000000E+00  0.00000000000E+00  0.45593999997E+02  0.45594000000E+02  0.51100000000E-03 0.  1.
         11   -1    0    0    0    0 -0.00000000000E+00 -0.00000000000E+00 -0.45593999997E+02  0.45594000000E+02  0.51100000000E-03 0. -1.
         23    2    1    2    0    0  0.00000000000E+00  0.44408920985E-15 -0.17763568394E-14  0.91188000000E+02  0.91188000000E+02 0.  0.
    9900012    2    3    3    0    0  0.33532786607E+02  0.26952718118E+01  0.14968856631E+02  0.54367096472E+02  0.40000028027E+02 0.  0.
         12    1    3    3    0    0 -0.33532786607E+02 -0.26952718118E+01 -0.14968856631E+02  0.36820903528E+02  0.00000000000E+00 0. -1.
         11    1    4    4    0    0  0.33315670557E+02  0.65438021961E+01  0.17125468181E+02  0.38026792036E+02  0.51100000000E-03 0.  1.
        -11    1    4    4    0    0 -0.69902840301E+01 -0.47463555481E+01 -0.31336967816E+01  0.90117710573E+01  0.51100000000E-03 0. -1.
         12    1    4    4    0    0  0.72074000799E+01  0.89782516373E+00  0.97708523231E+00  0.73285333791E+01  0.00000000000E+00 0. -1.
</event>
<event>
 8    1  0.2971508E-007  0.9118800E+02  0.7816164E-02  0.1184000E+00
        -11   -1    0    0    0    0  0.00000000000E+00  0.00000000000E+00  0.45593999997E+02  0.45594000000E+02  0.51100000000E-03 0. -1.
         11   -1    0    0    0    0 -0.00000000000E+00 -0.00000000000E+00 -0.45593999997E+02  0.45594000000E+02  0.51100000000E-03 0.  1.
         23    2    1    2    0    0  0.13322676296E-14  0.88817841970E-15  0.00000000000E+00  0.91188000000E+02  0.91188000000E+02 0.  0.
    9900012    2    3    3    0    0  0.20044060821E+01  0.74460529856E+01 -0.36004414036E+02  0.54367093182E+02  0.40000020528E+02 0.  0.
         12    1    3    3    0    0 -0.20044060821E+01 -0.74460529856E+01  0.36004414036E+02  0.36820906818E+02  0.00000000000E+00 0. -1.
         11    1    4    4    0    0  0.91301326145E+01  0.11511286836E+02 -0.12175353859E+02  0.19081621734E+02  0.51100000000E-03 0. -1.
        -11    1    4    4    0    0  0.33392040574E-01 -0.50349800940E+00 -0.26763197467E+02  0.26767954053E+02  0.51100000000E-03 0.  1.
         12    1    4    4    0    0 -0.71591185730E+01 -0.35617358406E+01  0.29341372898E+01  0.85175173951E+01  0.00000000000E+00 0. -1.
</event>
<event>
 8    1  0.2971508E-007  0.9118800E+02  0.7816164E-02  0.1184000E+00
        -11   -1    0    0    0    0  0.00000000000E+00  0.00000000000E+00  0.45593999997E+02  0.45594000000E+02  0.51100000000E-03 0. -1.
         11   -1    0    0    0    0 -0.00000000000E+00 -0.00000000000E+00 -0.45593999997E+02  0.45594000000E+02  0.51100000000E-03 0.  1.
         23    2    1    2    0    0  0.00000000000E+00  0.00000000000E+00 -0.35527136788E-14  0.91188000000E+02  0.91188000000E+02 0.  0.
    9900012    2    3    3    0    0  0.14905035994E+02 -0.17777568956E+02 -0.28593328143E+02  0.54367075646E+02  0.39999980550E+02 0.  0.
         12    1    3    3    0    0 -0.14905035994E+02  0.17777568956E+02  0.28593328143E+02  0.36820924354E+02  0.00000000000E+00 0. -1.
         11    1    4    4    0    0  0.59155161624E+00  0.26732988978E+01  0.54143501096E+00  0.27909877184E+01  0.51100000000E-03 0. -1.
        -11    1    4    4    0    0  0.15403262410E+02 -0.35533120051E+01  0.21987907722E+01  0.15959987474E+02  0.51100000000E-03 0.  1.
        -12    1    4    4    0    0 -0.10897780313E+01 -0.16897555849E+02 -0.31333553926E+02  0.35616100453E+02  0.00000000000E+00 0.  1.
</event>
<event>
 8    1  0.2971508E-007  0.9118800E+02  0.7816164E-02  0.1184000E+00
        -11   -1    0    0    0    0  0.00000000000E+00  0.00000000000E+00  0.45593999997E+02  0.45594000000E+02  0.51100000000E-03 0.  1.
         11   -1    0    0    0    0 -0.00000000000E+00 -0.00000000000E+00 -0.45593999997E+02  0.45594000000E+02  0.51100000000E-03 0. -1.
         23    2    1    2    0    0 -0.88817841970E-15 -0.35527136788E-14  0.00000000000E+00  0.91188000000E+02  0.91188000000E+02 0.  0.
    9900012    2    3    3    0    0 -0.69214933093E+01  0.25769181147E+02  0.25373793372E+02  0.54366984850E+02  0.39999773561E+02 0.  0.
         12    1    3    3    0    0  0.69214933093E+01 -0.25769181147E+02 -0.25373793372E+02  0.36821015150E+02  0.00000000000E+00 0. -1.
         11    1    4    4    0    0 -0.92773396002E+01  0.18114535822E+02  0.18448496424E+02  0.27469118273E+02  0.51100000000E-03 0. -1.
        -11    1    4    4    0    0 -0.10617856033E+02 -0.39232578966E+00  0.16909677190E+01  0.10758817702E+02  0.51100000000E-03 0.  1.
        -12    1    4    4    0    0  0.12973702324E+02  0.80469711149E+01  0.52343292286E+01  0.16139048875E+02  0.00000000000E+00 0.  1.
</event>
<event>
 8    1  0.2971508E-007  0.9118800E+02  0.7816164E-02  0.1184000E+00
        -11   -1    0    0    0    0  0.00000000000E+00  0.00000000000E+00  0.45593999997E+02  0.45594000000E+02  0.51100000000E-03 0.  1.
         11   -1    0    0    0    0 -0.00000000000E+00 -0.00000000000E+00 -0.45593999997E+02  0.45594000000E+02  0.51100000000E-03 0. -1.
         23    2    1    2    0    0  0.00000000000E+00  0.00000000000E+00 -0.17763568394E-14  0.91188000000E+02  0.91188000000E+02 0.  0.
    9900012    2    3    3    0    0  0.30672810347E+02  0.13820580864E+02  0.14964985745E+02  0.54367074586E+02  0.39999978134E+02 0.  0.
         12    1    3    3    0    0 -0.30672810347E+02 -0.13820580864E+02 -0.14964985745E+02  0.36820925414E+02  0.00000000000E+00 0. -1.
         11    1    4    4    0    0  0.48707649471E+01 -0.83643537382E+01  0.20792358706E+01  0.98999993280E+01  0.51100000000E-03 0. -1.
        -11    1    4    4    0    0  0.67290353562E+01  0.94449558187E+01  0.17574764775E+02  0.21056102783E+02  0.51100000000E-03 0.  1.
         12    1    4    4    0    0  0.19073010043E+02  0.12739978783E+02 -0.46890149005E+01  0.23410972475E+02  0.00000000000E+00 0. -1.
</event>
<event>
 8    1  0.2971508E-007  0.9118800E+02  0.7816164E-02  0.1184000E+00
        -11   -1    0    0    0    0  0.00000000000E+00  0.00000000000E+00  0.45593999997E+02  0.45594000000E+02  0.51100000000E-03 0.  1.
         11   -1    0    0    0    0 -0.00000000000E+00 -0.00000000000E+00 -0.45593999997E+02  0.45594000000E+02  0.51100000000E-03 0. -1.
         23    2    1    2    0    0 -0.13322676296E-14  0.00000000000E+00  0.00000000000E+00  0.91188000000E+02  0.91188000000E+02 0.  0.
    9900012    2    3    3    0    0  0.28957601725E+01  0.57036351791E+01 -0.36261068952E+02  0.54367054836E+02  0.39999933109E+02 0.  0.
        -12    1    3    3    0    0 -0.28957601725E+01 -0.57036351791E+01  0.36261068952E+02  0.36820945164E+02  0.00000000000E+00 0.  1.
         11    1    4    4    0    0 -0.24785247098E+01 -0.12283483335E+01 -0.17010776978E+02  0.17234223453E+02  0.51100000000E-03 0. -1.
        -11    1    4    4    0    0  0.17986450507E+02  0.61732347238E+01 -0.10096558662E+02  0.21530483642E+02  0.51100000000E-03 0.  1.
        -12    1    4    4    0    0 -0.12612165625E+02  0.75874878880E+00 -0.91537333121E+01  0.15602347740E+02  0.00000000000E+00 0.  1.
</event>
<event>
 8    1  0.2971508E-007  0.9118800E+02  0.7816164E-02  0.1184000E+00
        -11   -1    0    0    0    0  0.00000000000E+00  0.00000000000E+00  0.45593999997E+02  0.45594000000E+02  0.51100000000E-03 0.  1.
         11   -1    0    0    0    0 -0.00000000000E+00 -0.00000000000E+00 -0.45593999997E+02  0.45594000000E+02  0.51100000000E-03 0. -1.
         23    2    1    2    0    0 -0.71054273576E-14 -0.17763568394E-14  0.17763568394E-14  0.91188000000E+02  0.91188000000E+02 0.  0.
    9900012    2    3    3    0    0 -0.32851747928E+02 -0.91043326802E+01  0.13915964450E+02  0.54367078202E+02  0.39999986377E+02 0.  0.
         12    1    3    3    0    0  0.32851747928E+02  0.91043326802E+01 -0.13915964450E+02  0.36820921798E+02  0.00000000000E+00 0. -1.
         11    1    4    4    0    0 -0.24863008251E+02 -0.56526938689E+01  0.12943946493E+01  0.25530326771E+02  0.51100000000E-03 0. -1.
        -11    1    4    4    0    0 -0.14423102922E+01  0.84968018987E+01 -0.20042883099E+01  0.88483373226E+01  0.51100000000E-03 0.  1.
        -12    1    4    4    0    0 -0.65464293843E+01 -0.11948440710E+02  0.14625858111E+02  0.19988414108E+02  0.00000000000E+00 0.  1.
</event>
<event>
 8    1  0.2971508E-007  0.9118800E+02  0.7816164E-02  0.1184000E+00
        -11   -1    0    0    0    0  0.00000000000E+00  0.00000000000E+00  0.45593999997E+02  0.45594000000E+02  0.51100000000E-03 0.  1.
         11   -1    0    0    0    0 -0.00000000000E+00 -0.00000000000E+00 -0.45593999997E+02  0.45594000000E+02  0.51100000000E-03 0. -1.
         23    2    1    2    0    0  0.00000000000E+00  0.00000000000E+00  0.00000000000E+00  0.91188000000E+02  0.91188000000E+02 0.  0.
    9900012    2    3    3    0    0  0.10622617323E+02  0.24119512284E+02  0.25713601198E+02  0.54367079884E+02  0.39999990211E+02 0.  0.
        -12    1    3    3    0    0 -0.10622617323E+02 -0.24119512284E+02 -0.25713601198E+02  0.36820920116E+02  0.00000000000E+00 0.  1.
         11    1    4    4    0    0  0.10037123465E+02 -0.13661305040E+01 -0.28073978950E+01  0.10511500522E+02  0.51100000000E-03 0.  1.
        -11    1    4    4    0    0  0.93930028676E+01  0.13449972166E+02  0.22327887419E+02  0.27706764715E+02  0.51100000000E-03 0. -1.
         12    1    4    4    0    0 -0.88075090097E+01  0.12035670622E+02  0.61931116744E+01  0.16148814647E+02  0.00000000000E+00 0. -1.
</event>
<event>
 8    1  0.2971508E-007  0.9118800E+02  0.7816164E-02  0.1184000E+00
        -11   -1    0    0    0    0  0.00000000000E+00  0.00000000000E+00  0.45593999997E+02  0.45594000000E+02  0.51100000000E-03 0.  1.
         11   -1    0    0    0    0 -0.00000000000E+00 -0.00000000000E+00 -0.45593999997E+02  0.45594000000E+02  0.51100000000E-03 0. -1.
         23    2    1    2    0    0 -0.22204460493E-14  0.88817841970E-15  0.71054273576E-14  0.91188000000E+02  0.91188000000E+02 0.  0.
    9900012    2    3    3    0    0  0.24752066995E+01 -0.63212196773E+01 -0.36189714273E+02  0.54367083586E+02  0.39999998651E+02 0.  0.
        -12    1    3    3    0    0 -0.24752066995E+01  0.63212196773E+01  0.36189714273E+02  0.36820916414E+02  0.00000000000E+00 0.  1.
         11    1    4    4    0    0  0.77799312084E+01 -0.15618693198E+02 -0.23459830214E+02  0.29237553605E+02  0.51100000000E-03 0.  1.
        -11    1    4    4    0    0  0.25305356701E+01  0.76144302338E+01 -0.14815323356E+02  0.16848648758E+02  0.51100000000E-03 0. -1.
        -12    1    4    4    0    0 -0.78352601789E+01  0.16830432873E+01  0.20854392974E+01  0.82808812237E+01  0.00000000000E+00 0.  1.
</event>
<event>
 8    1  0.2971508E-007  0.9118800E+02  0.7816164E-02  0.1184000E+00
        -11   -1    0    0    0    0  0.00000000000E+00  0.00000000000E+00  0.45593999997E+02  0.45594000000E+02  0.51100000000E-03 0.  1.
         11   -1    0    0    0    0 -0.00000000000E+00 -0.00000000000E+00 -0.45593999997E+02  0.45594000000E+02  0.51100000000E-03 0. -1.
         23    2    1    2    0    0  0.00000000000E+00 -0.53290705182E-14 -0.22204460493E-15  0.91188000000E+02  0.91188000000E+02 0.  0.
    9900012    2    3    3    0    0 -0.36162732689E+02  0.68223120077E+01  0.12215719255E+01  0.54367089981E+02  0.40000013229E+02 0.  0.
        -12    1    3    3    0    0  0.36162732689E+02 -0.68223120077E+01 -0.12215719255E+01  0.36820910019E+02  0.00000000000E+00 0.  1.
         11    1    4    4    0    0 -0.14670484441E+02  0.10368638251E+01 -0.69197025965E+01  0.16253629890E+02  0.51100000000E-03 0. -1.
        -11    1    4    4    0    0 -0.13425249868E+02  0.15837017048E+02  0.12821475173E+02  0.24401612014E+02  0.51100000000E-03 0.  1.
        -12    1    4    4    0    0 -0.80669983799E+01 -0.10051568866E+02 -0.46802006510E+01  0.13711848076E+02  0.00000000000E+00 0.  1.
</event>
<event>
 8    1  0.2971508E-007  0.9118800E+02  0.7816164E-02  0.1184000E+00
        -11   -1    0    0    0    0  0.00000000000E+00  0.00000000000E+00  0.45593999997E+02  0.45594000000E+02  0.51100000000E-03 0.  1.
         11   -1    0    0    0    0 -0.00000000000E+00 -0.00000000000E+00 -0.45593999997E+02  0.45594000000E+02  0.51100000000E-03 0. -1.
         23    2    1    2    0    0  0.44408920985E-15  0.35527136788E-14  0.00000000000E+00  0.91188000000E+02  0.91188000000E+02 0.  0.
    9900012    2    3    3    0    0  0.28004293052E+01 -0.26757230198E+02  0.25139386749E+02  0.54367074723E+02  0.39999978445E+02 0.  0.
         12    1    3    3    0    0 -0.28004293052E+01  0.26757230198E+02 -0.25139386749E+02  0.36820925277E+02  0.00000000000E+00 0. -1.
         11    1    4    4    0    0 -0.41132195725E+01 -0.69743705241E+01  0.22771483432E+02  0.24168179026E+02  0.51100000000E-03 0.  1.
        -11    1    4    4    0    0  0.31023919819E+01  0.10773436267E+01  0.76674647694E+01  0.83411942521E+01  0.51100000000E-03 0. -1.
         12    1    4    4    0    0  0.38112568959E+01 -0.20860203301E+02 -0.52995614524E+01  0.21857701445E+02  0.00000000000E+00 0. -1.
</event>
<event>
 8    1  0.2971508E-007  0.9118800E+02  0.7816164E-02  0.1184000E+00
        -11   -1    0    0    0    0  0.00000000000E+00  0.00000000000E+00  0.45593999997E+02  0.45594000000E+02  0.51100000000E-03 0. -1.
         11   -1    0    0    0    0 -0.00000000000E+00 -0.00000000000E+00 -0.45593999997E+02  0.45594000000E+02  0.51100000000E-03 0.  1.
         23    2    1    2    0    0  0.00000000000E+00  0.17763568394E-14  0.00000000000E+00  0.91188000000E+02  0.91188000000E+02 0.  0.
    9900012    2    3    3    0    0  0.35190659276E+01 -0.41641922243E+01  0.36415038186E+02  0.54367091158E+02  0.40000015913E+02 0.  0.
        -12    1    3    3    0    0 -0.35190659276E+01  0.41641922243E+01 -0.36415038186E+02  0.36820908842E+02  0.00000000000E+00 0.  1.
         11    1    4    4    0    0  0.42920759139E+01  0.96280363839E+01  0.83274326738E+00  0.10574235758E+02  0.51100000000E-03 0. -1.
        -11    1    4    4    0    0 -0.46831394285E+01 -0.58632766942E+01  0.39762955548E+00  0.75145138249E+01  0.51100000000E-03 0.  1.
         12    1    4    4    0    0  0.39101294422E+01 -0.79289519140E+01  0.35184665363E+02  0.36278341575E+02  0.00000000000E+00 0. -1.
</event>
<event>
 8    1  0.2971508E-007  0.9118800E+02  0.7816164E-02  0.1184000E+00
        -11   -1    0    0    0    0  0.00000000000E+00  0.00000000000E+00  0.45593999997E+02  0.45594000000E+02  0.51100000000E-03 0. -1.
         11   -1    0    0    0    0 -0.00000000000E+00 -0.00000000000E+00 -0.45593999997E+02  0.45594000000E+02  0.51100000000E-03 0.  1.
         23    2    1    2    0    0 -0.71054273576E-14  0.35527136788E-14 -0.17763568394E-14  0.91188000000E+02  0.91188000000E+02 0.  0.
    9900012    2    3    3    0    0 -0.27589226479E+02  0.23646334730E+02 -0.59553197852E+01  0.54367076632E+02  0.39999982799E+02 0.  0.
         12    1    3    3    0    0  0.27589226479E+02 -0.23646334730E+02  0.59553197852E+01  0.36820923368E+02  0.00000000000E+00 0. -1.
         11    1    4    4    0    0 -0.23654432226E+02  0.24151335209E+02 -0.64433125184E+00  0.33811748244E+02  0.51100000000E-03 0. -1.
        -11    1    4    4    0    0 -0.91610641826E+01  0.62104778865E+01 -0.46986481449E+01  0.12023827477E+02  0.51100000000E-03 0.  1.
        -12    1    4    4    0    0  0.52262699295E+01 -0.67154783654E+01 -0.61234038846E+00  0.85315009115E+01  0.00000000000E+00 0.  1.
</event>
<event>
 8    1  0.2971508E-007  0.9118800E+02  0.7816164E-02  0.1184000E+00
        -11   -1    0    0    0    0  0.00000000000E+00  0.00000000000E+00  0.45593999997E+02  0.45594000000E+02  0.51100000000E-03 0. -1.
         11   -1    0    0    0    0 -0.00000000000E+00 -0.00000000000E+00 -0.45593999997E+02  0.45594000000E+02  0.51100000000E-03 0.  1.
         23    2    1    2    0    0  0.35527136788E-14 -0.35527136788E-14  0.00000000000E+00  0.91188000000E+02  0.91188000000E+02 0.  0.
    9900012    2    3    3    0    0 -0.19768395751E+02  0.28590300384E+02 -0.12148449589E+02  0.54367087817E+02  0.40000008296E+02 0.  0.
        -12    1    3    3    0    0  0.19768395751E+02 -0.28590300384E+02  0.12148449589E+02  0.36820912183E+02  0.00000000000E+00 0.  1.
         11    1    4    4    0    0 -0.18898468434E+02  0.18979457161E+02 -0.32321557260E+01  0.26978115838E+02  0.51100000000E-03 0. -1.
        -11    1    4    4    0    0 -0.10631496477E+02 -0.13046063339E+01 -0.10401763630E+01  0.10761630088E+02  0.51100000000E-03 0.  1.
        -12    1    4    4    0    0  0.97615691601E+01  0.10915449557E+02 -0.78761174997E+01  0.16627341891E+02  0.00000000000E+00 0.  1.
</event>
<event>
 8    1  0.2971508E-007  0.9118800E+02  0.7816164E-02  0.1184000E+00
        -11   -1    0    0    0    0  0.00000000000E+00  0.00000000000E+00  0.45593999997E+02  0.45594000000E+02  0.51100000000E-03 0.  1.
         11   -1    0    0    0    0 -0.00000000000E+00 -0.00000000000E+00 -0.45593999997E+02  0.45594000000E+02  0.51100000000E-03 0. -1.
         23    2    1    2    0    0  0.00000000000E+00  0.00000000000E+00  0.00000000000E+00  0.91188000000E+02  0.91188000000E+02 0.  0.
    9900012    2    3    3    0    0 -0.28502419338E+02 -0.59315660480E+01  0.22543523511E+02  0.54367057098E+02  0.39999938266E+02 0.  0.
        -12    1    3    3    0    0  0.28502419338E+02  0.59315660480E+01 -0.22543523511E+02  0.36820942902E+02  0.00000000000E+00 0.  1.
         11    1    4    4    0    0 -0.11154291548E+01  0.82867411684E+01  0.21388067831E+01  0.86306868851E+01  0.51100000000E-03 0. -1.
        -11    1    4    4    0    0 -0.60583665136E+00 -0.27356093446E+01  0.16027317293E+02  0.16270387101E+02  0.51100000000E-03 0.  1.
         12    1    4    4    0    0 -0.26781153532E+02 -0.11482697872E+02  0.43773994347E+01  0.29465983112E+02  0.00000000000E+00 0. -1.
</event>
<event>
 8    1  0.2971508E-007  0.9118800E+02  0.7816164E-02  0.1184000E+00
        -11   -1    0    0    0    0  0.00000000000E+00  0.00000000000E+00  0.45593999997E+02  0.45594000000E+02  0.51100000000E-03 0.  1.
         11   -1    0    0    0    0 -0.00000000000E+00 -0.00000000000E+00 -0.45593999997E+02  0.45594000000E+02  0.51100000000E-03 0. -1.
         23    2    1    2    0    0  0.00000000000E+00  0.00000000000E+00  0.00000000000E+00  0.91188000000E+02  0.91188000000E+02 0.  0.
    9900012    2    3    3    0    0  0.17133858897E+02  0.26978353165E+02 -0.18285933994E+02  0.54367135776E+02  0.40000117628E+02 0.  0.
        -12    1    3    3    0    0 -0.17133858897E+02 -0.26978353165E+02  0.18285933994E+02  0.36820864224E+02  0.00000000000E+00 0.  1.
         11    1    4    4    0    0  0.43644635269E+00  0.58283276194E+01 -0.17862998715E+01  0.61115264664E+01  0.51100000000E-03 0. -1.
        -11    1    4    4    0    0 -0.63011402832E+01  0.18070341473E+02  0.10443782698E+01  0.19165915998E+02  0.51100000000E-03 0.  1.
         12    1    4    4    0    0  0.22998552827E+02  0.30796840729E+01 -0.17544012392E+02  0.29089693311E+02  0.00000000000E+00 0. -1.
</event>
<event>
 8    1  0.2971508E-007  0.9118800E+02  0.7816164E-02  0.1184000E+00
        -11   -1    0    0    0    0  0.00000000000E+00  0.00000000000E+00  0.45593999997E+02  0.45594000000E+02  0.51100000000E-03 0.  1.
         11   -1    0    0    0    0 -0.00000000000E+00 -0.00000000000E+00 -0.45593999997E+02  0.45594000000E+02  0.51100000000E-03 0. -1.
         23    2    1    2    0    0 -0.71054273576E-14  0.00000000000E+00 -0.26645352591E-14  0.91188000000E+02  0.91188000000E+02 0.  0.
    9900012    2    3    3    0    0  0.32553788951E+02  0.17082497668E+02 -0.20538905437E+01  0.54367090614E+02  0.40000014674E+02 0.  0.
        -12    1    3    3    0    0 -0.32553788951E+02 -0.17082497668E+02  0.20538905437E+01  0.36820909386E+02  0.00000000000E+00 0.  1.
         11    1    4    4    0    0  0.17798941162E+02  0.18148439196E+02 -0.18699289197E+02  0.31556799084E+02  0.51100000000E-03 0. -1.
        -11    1    4    4    0    0  0.11740481560E+02  0.11656636324E+01  0.11842923498E+02  0.16716833319E+02  0.51100000000E-03 0.  1.
         12    1    4    4    0    0  0.30143662288E+01 -0.22316051609E+01  0.48024751554E+01  0.60934582114E+01  0.00000000000E+00 0. -1.
</event>
<event>
 8    1  0.2971508E-007  0.9118800E+02  0.7816164E-02  0.1184000E+00
        -11   -1    0    0    0    0  0.00000000000E+00  0.00000000000E+00  0.45593999997E+02  0.45594000000E+02  0.51100000000E-03 0. -1.
         11   -1    0    0    0    0 -0.00000000000E+00 -0.00000000000E+00 -0.45593999997E+02  0.45594000000E+02  0.51100000000E-03 0.  1.
         23    2    1    2    0    0  0.35527136788E-14  0.88817841970E-15  0.35527136788E-14  0.91188000000E+02  0.91188000000E+02 0.  0.
    9900012    2    3    3    0    0  0.28769645275E+02  0.50627177832E+01  0.22415534153E+02  0.54367085129E+02  0.40000002169E+02 0.  0.
        -12    1    3    3    0    0 -0.28769645275E+02 -0.50627177832E+01 -0.22415534153E+02  0.36820914871E+02  0.00000000000E+00 0.  1.
         11    1    4    4    0    0  0.15271691262E+02  0.14425379462E+02  0.33000532969E+01  0.21265147040E+02  0.51100000000E-03 0. -1.
        -11    1    4    4    0    0  0.66555390768E+01  0.18860845254E+01  0.18689551776E+02  0.19928694415E+02  0.51100000000E-03 0.  1.
         12    1    4    4    0    0  0.68424149362E+01 -0.11248746204E+02  0.42592908000E+00  0.13173243674E+02  0.00000000000E+00 0. -1.
</event>
<event>
 8    1  0.2971508E-007  0.9118800E+02  0.7816164E-02  0.1184000E+00
        -11   -1    0    0    0    0  0.00000000000E+00  0.00000000000E+00  0.45593999997E+02  0.45594000000E+02  0.51100000000E-03 0. -1.
         11   -1    0    0    0    0 -0.00000000000E+00 -0.00000000000E+00 -0.45593999997E+02  0.45594000000E+02  0.51100000000E-03 0.  1.
         23    2    1    2    0    0  0.00000000000E+00  0.00000000000E+00 -0.35527136788E-14  0.91188000000E+02  0.91188000000E+02 0.  0.
    9900012    2    3    3    0    0 -0.18757387907E+02 -0.17281045140E+02 -0.26557588662E+02  0.54367086951E+02  0.40000006323E+02 0.  0.
         12    1    3    3    0    0  0.18757387907E+02  0.17281045140E+02  0.26557588662E+02  0.36820913049E+02  0.00000000000E+00 0. -1.
         11    1    4    4    0    0 -0.11976279041E+02 -0.27310606802E+02 -0.21699391383E+02  0.36880402523E+02  0.51100000000E-03 0. -1.
        -11    1    4    4    0    0 -0.74634949541E+01  0.59341660230E+01 -0.78651062339E+01  0.12360338978E+02  0.51100000000E-03 0.  1.
         12    1    4    4    0    0  0.68238608853E+00  0.40953956391E+01  0.30069089551E+01  0.51263454506E+01  0.00000000000E+00 0. -1.
</event>
<event>
 8    1  0.2971508E-007  0.9118800E+02  0.7816164E-02  0.1184000E+00
        -11   -1    0    0    0    0  0.00000000000E+00  0.00000000000E+00  0.45593999997E+02  0.45594000000E+02  0.51100000000E-03 0. -1.
         11   -1    0    0    0    0 -0.00000000000E+00 -0.00000000000E+00 -0.45593999997E+02  0.45594000000E+02  0.51100000000E-03 0.  1.
         23    2    1    2    0    0  0.17763568394E-14  0.00000000000E+00  0.35527136788E-14  0.91188000000E+02  0.91188000000E+02 0.  0.
    9900012    2    3    3    0    0 -0.14372176720E+02 -0.22404862674E+02 -0.25440971711E+02  0.54367076917E+02  0.39999983447E+02 0.  0.
         12    1    3    3    0    0  0.14372176720E+02  0.22404862674E+02  0.25440971711E+02  0.36820923083E+02  0.00000000000E+00 0. -1.
         11    1    4    4    0    0 -0.14611608141E+02  0.69014805915E+01 -0.10478495582E+02  0.19259501467E+02  0.51100000000E-03 0.  1.
        -11    1    4    4    0    0 -0.21813790412E+01 -0.29081042356E+02 -0.12778899631E+02  0.31839687735E+02  0.51100000000E-03 0. -1.
        -12    1    4    4    0    0  0.24208104622E+01 -0.22530090915E+00 -0.21835764977E+01  0.32678877146E+01  0.00000000000E+00 0.  1.
</event>
<event>
 8    1  0.2971508E-007  0.9118800E+02  0.7816164E-02  0.1184000E+00
        -11   -1    0    0    0    0  0.00000000000E+00  0.00000000000E+00  0.45593999997E+02  0.45594000000E+02  0.51100000000E-03 0. -1.
         11   -1    0    0    0    0 -0.00000000000E+00 -0.00000000000E+00 -0.45593999997E+02  0.45594000000E+02  0.51100000000E-03 0.  1.
         23    2    1    2    0    0 -0.17763568394E-14  0.00000000000E+00  0.00000000000E+00  0.91188000000E+02  0.91188000000E+02 0.  0.
    9900012    2    3    3    0    0 -0.13549901770E+02 -0.82011944126E+01 -0.33240342425E+02  0.54367084852E+02  0.40000001537E+02 0.  0.
         12    1    3    3    0    0  0.13549901770E+02  0.82011944126E+01  0.33240342425E+02  0.36820915148E+02  0.00000000000E+00 0. -1.
         11    1    4    4    0    0 -0.47904181162E+01 -0.37010836171E+00 -0.24537405133E+02  0.25003386508E+02  0.51100000000E-03 0.  1.
        -11    1    4    4    0    0  0.63205447718E+01 -0.59368619780E+01  0.40056394934E+01  0.95520031601E+01  0.51100000000E-03 0. -1.
         12    1    4    4    0    0 -0.15080028426E+02 -0.18942240729E+01 -0.12708576786E+02  0.19811695184E+02  0.00000000000E+00 0. -1.
</event>
<event>
 8    1  0.2971508E-007  0.9118800E+02  0.7816164E-02  0.1184000E+00
        -11   -1    0    0    0    0  0.00000000000E+00  0.00000000000E+00  0.45593999997E+02  0.45594000000E+02  0.51100000000E-03 0.  1.
         11   -1    0    0    0    0 -0.00000000000E+00 -0.00000000000E+00 -0.45593999997E+02  0.45594000000E+02  0.51100000000E-03 0. -1.
         23    2    1    2    0    0 -0.17763568394E-14  0.00000000000E+00  0.00000000000E+00  0.91188000000E+02  0.91188000000E+02 0.  0.
    9900012    2    3    3    0    0 -0.83601629920E+01  0.12585714286E+02 -0.33578113226E+02  0.54367051925E+02  0.39999926473E+02 0.  0.
        -12    1    3    3    0    0  0.83601629920E+01 -0.12585714286E+02  0.33578113226E+02  0.36820948075E+02  0.00000000000E+00 0.  1.
         11    1    4    4    0    0  0.32171679024E+01 -0.27455822250E+01 -0.18453327173E+01  0.46145036749E+01  0.51100000000E-03 0. -1.
        -11    1    4    4    0    0  0.93692531366E+01 -0.34037283836E+01 -0.10895310192E+02  0.14767398406E+02  0.51100000000E-03 0.  1.
         12    1    4    4    0    0 -0.20946584031E+02  0.18735024895E+02 -0.20837470317E+02  0.34985149844E+02  0.00000000000E+00 0. -1.
</event>
<event>
 8    1  0.2971508E-007  0.9118800E+02  0.7816164E-02  0.1184000E+00
        -11   -1    0    0    0    0  0.00000000000E+00  0.00000000000E+00  0.45593999997E+02  0.45594000000E+02  0.51100000000E-03 0. -1.
         11   -1    0    0    0    0 -0.00000000000E+00 -0.00000000000E+00 -0.45593999997E+02  0.45594000000E+02  0.51100000000E-03 0.  1.
         23    2    1    2    0    0  0.00000000000E+00  0.77715611724E-15  0.00000000000E+00  0.91188000000E+02  0.91188000000E+02 0.  0.
    9900012    2    3    3    0    0  0.19849901506E+02  0.55933974375E+00  0.31007230407E+02  0.54367084907E+02  0.40000001663E+02 0.  0.
        -12    1    3    3    0    0 -0.19849901506E+02 -0.55933974375E+00 -0.31007230407E+02  0.36820915093E+02  0.00000000000E+00 0.  1.
         11    1    4    4    0    0  0.96974350285E+00  0.25129924366E+01 -0.40709685474E+01  0.48814258801E+01  0.51100000000E-03 0.  1.
        -11    1    4    4    0    0 -0.28488743922E+01  0.97901394044E+01  0.10767528398E+02  0.14829112682E+02  0.51100000000E-03 0. -1.
        -12    1    4    4    0    0  0.21729032396E+02 -0.11743792097E+02  0.24310670557E+02  0.34656546345E+02  0.00000000000E+00 0.  1.
</event>
<event>
 8    1  0.2971508E-007  0.9118800E+02  0.7816164E-02  0.1184000E+00
        -11   -1    0    0    0    0  0.00000000000E+00  0.00000000000E+00  0.45593999997E+02  0.45594000000E+02  0.51100000000E-03 0. -1.
         11   -1    0    0    0    0 -0.00000000000E+00 -0.00000000000E+00 -0.45593999997E+02  0.45594000000E+02  0.51100000000E-03 0.  1.
         23    2    1    2    0    0  0.00000000000E+00  0.00000000000E+00  0.35527136788E-14  0.91188000000E+02  0.91188000000E+02 0.  0.
    9900012    2    3    3    0    0  0.31209486368E+02 -0.11419058508E+02  0.15854099235E+02  0.54367090192E+02  0.40000013710E+02 0.  0.
        -12    1    3    3    0    0 -0.31209486368E+02  0.11419058508E+02 -0.15854099235E+02  0.36820909808E+02  0.00000000000E+00 0.  1.
         11    1    4    4    0    0  0.11816061292E+02 -0.12615482058E+02  0.25758974816E+02  0.31020871617E+02  0.51100000000E-03 0. -1.
        -11    1    4    4    0    0  0.34524103823E+01 -0.27906397943E+01 -0.64839059767E+00  0.44863368730E+01  0.51100000000E-03 0.  1.
        -12    1    4    4    0    0  0.15941014694E+02  0.39870633437E+01 -0.92564849836E+01  0.18859881702E+02  0.00000000000E+00 0.  1.
</event>
<event>
 8    1  0.2971508E-007  0.9118800E+02  0.7816164E-02  0.1184000E+00
        -11   -1    0    0    0    0  0.00000000000E+00  0.00000000000E+00  0.45593999997E+02  0.45594000000E+02  0.51100000000E-03 0. -1.
         11   -1    0    0    0    0 -0.00000000000E+00 -0.00000000000E+00 -0.45593999997E+02  0.45594000000E+02  0.51100000000E-03 0.  1.
         23    2    1    2    0    0  0.00000000000E+00  0.00000000000E+00  0.35527136788E-14  0.91188000000E+02  0.91188000000E+02 0.  0.
    9900012    2    3    3    0    0  0.18641396540E+02  0.49378228340E+01  0.31367161519E+02  0.54367046984E+02  0.39999915209E+02 0.  0.
        -12    1    3    3    0    0 -0.18641396540E+02 -0.49378228340E+01 -0.31367161519E+02  0.36820953016E+02  0.00000000000E+00 0.  1.
         11    1    4    4    0    0  0.11356388690E+02  0.77989984282E+01  0.19717293718E+02  0.24053349297E+02  0.51100000000E-03 0.  1.
        -11    1    4    4    0    0 -0.82815595342E+01 -0.15447351276E+01  0.12030600987E+02  0.14686925999E+02  0.51100000000E-03 0. -1.
        -12    1    4    4    0    0  0.15566567384E+02 -0.13164404666E+01 -0.38073318678E+00  0.15626771688E+02  0.00000000000E+00 0.  1.
</event>
<event>
 8    1  0.2971508E-007  0.9118800E+02  0.7816164E-02  0.1184000E+00
        -11   -1    0    0    0    0  0.00000000000E+00  0.00000000000E+00  0.45593999997E+02  0.45594000000E+02  0.51100000000E-03 0. -1.
         11   -1    0    0    0    0 -0.00000000000E+00 -0.00000000000E+00 -0.45593999997E+02  0.45594000000E+02  0.51100000000E-03 0.  1.
         23    2    1    2    0    0  0.35527136788E-14 -0.44408920985E-15  0.00000000000E+00  0.91188000000E+02  0.91188000000E+02 0.  0.
    9900012    2    3    3    0    0  0.31285169056E+02  0.14354341447E+01 -0.19363762524E+02  0.54367114987E+02  0.40000070236E+02 0.  0.
         12    1    3    3    0    0 -0.31285169056E+02 -0.14354341447E+01  0.19363762524E+02  0.36820885013E+02  0.00000000000E+00 0. -1.
         11    1    4    4    0    0  0.15148586898E+02 -0.47306962252E+01 -0.25241406631E+02  0.29815898120E+02  0.51100000000E-03 0. -1.
        -11    1    4    4    0    0  0.18109640462E+02  0.90660144861E+01  0.57009425013E+01  0.21039307070E+02  0.51100000000E-03 0.  1.
         12    1    4    4    0    0 -0.19730583039E+01 -0.28998841162E+01  0.17670160555E+00  0.35119097960E+01  0.00000000000E+00 0. -1.
</event>
<event>
 8    1  0.2971508E-007  0.9118800E+02  0.7816164E-02  0.1184000E+00
        -11   -1    0    0    0    0  0.00000000000E+00  0.00000000000E+00  0.45593999997E+02  0.45594000000E+02  0.51100000000E-03 0.  1.
         11   -1    0    0    0    0 -0.00000000000E+00 -0.00000000000E+00 -0.45593999997E+02  0.45594000000E+02  0.51100000000E-03 0. -1.
         23    2    1    2    0    0  0.00000000000E+00 -0.17763568394E-14 -0.88817841970E-15  0.91188000000E+02  0.91188000000E+02 0.  0.
    9900012    2    3    3    0    0  0.35061680545E+02  0.98805948421E+01  0.53707327258E+01  0.54366914097E+02  0.39999612265E+02 0.  0.
         12    1    3    3    0    0 -0.35061680545E+02 -0.98805948421E+01 -0.53707327258E+01  0.36821085903E+02  0.00000000000E+00 0. -1.
         11    1    4    4    0    0 -0.56970603995E+01 -0.26918744340E+01 -0.54071168554E+01  0.83029873005E+01  0.51100000000E-03 0. -1.
        -11    1    4    4    0    0 -0.16828683846E+00  0.26464382935E+01  0.31716938028E+00  0.26706839533E+01  0.51100000000E-03 0.  1.
        -12    1    4    4    0    0  0.40927027783E+02  0.99260309826E+01  0.10460680201E+02  0.43393242843E+02  0.00000000000E+00 0.  1.
</event>
<event>
 8    1  0.2971508E-007  0.9118800E+02  0.7816164E-02  0.1184000E+00
        -11   -1    0    0    0    0  0.00000000000E+00  0.00000000000E+00  0.45593999997E+02  0.45594000000E+02  0.51100000000E-03 0. -1.
         11   -1    0    0    0    0 -0.00000000000E+00 -0.00000000000E+00 -0.45593999997E+02  0.45594000000E+02  0.51100000000E-03 0.  1.
         23    2    1    2    0    0  0.00000000000E+00  0.00000000000E+00  0.71054273576E-14  0.91188000000E+02  0.91188000000E+02 0.  0.
    9900012    2    3    3    0    0 -0.23995673164E+02  0.35442049749E+01  0.27702452884E+02  0.54367087256E+02  0.40000007017E+02 0.  0.
        -12    1    3    3    0    0  0.23995673164E+02 -0.35442049749E+01 -0.27702452884E+02  0.36820912744E+02  0.00000000000E+00 0.  1.
         11    1    4    4    0    0  0.38512522372E+01 -0.39527207954E+01 -0.42733703081E+01  0.69798165830E+01  0.51100000000E-03 0. -1.
        -11    1    4    4    0    0 -0.46140850874E+01  0.30107591167E+01 -0.21047241919E+01  0.58978229744E+01  0.51100000000E-03 0.  1.
         12    1    4    4    0    0 -0.23232840314E+02  0.44861666536E+01  0.34080547384E+02  0.41489447698E+02  0.00000000000E+00 0. -1.
</event>
<event>
 8    1  0.2971508E-007  0.9118800E+02  0.7816164E-02  0.1184000E+00
        -11   -1    0    0    0    0  0.00000000000E+00  0.00000000000E+00  0.45593999997E+02  0.45594000000E+02  0.51100000000E-03 0. -1.
         11   -1    0    0    0    0 -0.00000000000E+00 -0.00000000000E+00 -0.45593999997E+02  0.45594000000E+02  0.51100000000E-03 0.  1.
         23    2    1    2    0    0  0.00000000000E+00  0.00000000000E+00  0.00000000000E+00  0.91188000000E+02  0.91188000000E+02 0.  0.
    9900012    2    3    3    0    0  0.15329749696E+02 -0.25304234564E+02 -0.21919799760E+02  0.54367039473E+02  0.39999898087E+02 0.  0.
        -12    1    3    3    0    0 -0.15329749696E+02  0.25304234564E+02  0.21919799760E+02  0.36820960527E+02  0.00000000000E+00 0.  1.
         11    1    4    4    0    0 -0.11127066998E+01 -0.21697813463E+02 -0.30106624630E+01  0.21933930656E+02  0.51100000000E-03 0. -1.
        -11    1    4    4    0    0  0.18907370438E+02 -0.85409513948E+00 -0.73599447821E+01  0.20307312053E+02  0.51100000000E-03 0.  1.
        -12    1    4    4    0    0 -0.24649140424E+01 -0.27523259617E+01 -0.11549192514E+02  0.12125796764E+02  0.00000000000E+00 0.  1.
</event>
<event>
 8    1  0.2971508E-007  0.9118800E+02  0.7816164E-02  0.1184000E+00
        -11   -1    0    0    0    0  0.00000000000E+00  0.00000000000E+00  0.45593999997E+02  0.45594000000E+02  0.51100000000E-03 0. -1.
         11   -1    0    0    0    0 -0.00000000000E+00 -0.00000000000E+00 -0.45593999997E+02  0.45594000000E+02  0.51100000000E-03 0.  1.
         23    2    1    2    0    0  0.00000000000E+00  0.00000000000E+00  0.00000000000E+00  0.91188000000E+02  0.91188000000E+02 0.  0.
    9900012    2    3    3    0    0 -0.28680862316E+02  0.22555928565E+02  0.49425114917E+01  0.54366943572E+02  0.39999679461E+02 0.  0.
         12    1    3    3    0    0  0.28680862316E+02 -0.22555928565E+02 -0.49425114917E+01  0.36821056428E+02  0.00000000000E+00 0. -1.
         11    1    4    4    0    0 -0.18184344739E+02  0.11995077041E+02 -0.27466386405E+01  0.21956691256E+02  0.51100000000E-03 0. -1.
        -11    1    4    4    0    0 -0.14620891185E+02  0.14933083560E+02 -0.20145425049E+01  0.20995852576E+02  0.51100000000E-03 0.  1.
         12    1    4    4    0    0  0.41243736086E+01 -0.43722320356E+01  0.97036926370E+01  0.11414399740E+02  0.00000000000E+00 0. -1.
</event>
<event>
 8    1  0.2971508E-007  0.9118800E+02  0.7816164E-02  0.1184000E+00
        -11   -1    0    0    0    0  0.00000000000E+00  0.00000000000E+00  0.45593999997E+02  0.45594000000E+02  0.51100000000E-03 0.  1.
         11   -1    0    0    0    0 -0.00000000000E+00 -0.00000000000E+00 -0.45593999997E+02  0.45594000000E+02  0.51100000000E-03 0. -1.
         23    2    1    2    0    0  0.00000000000E+00  0.17763568394E-14  0.35527136788E-14  0.91188000000E+02  0.91188000000E+02 0.  0.
    9900012    2    3    3    0    0 -0.19922066671E+02  0.99603533066E+01 -0.29320320307E+02  0.54367101568E+02  0.40000039645E+02 0.  0.
        -12    1    3    3    0    0  0.19922066671E+02 -0.99603533066E+01  0.29320320307E+02  0.36820898432E+02  0.00000000000E+00 0.  1.
         11    1    4    4    0    0  0.57366415760E+00 -0.56773730303E+01  0.42806336681E+01  0.71334059153E+01  0.51100000000E-03 0.  1.
        -11    1    4    4    0    0 -0.75135486913E+00  0.74347737962E+01 -0.21287166309E+02  0.22560670320E+02  0.51100000000E-03 0. -1.
        -12    1    4    4    0    0 -0.19744375959E+02  0.82029525406E+01 -0.12313787666E+02  0.24673025333E+02  0.00000000000E+00 0.  1.
</event>
<event>
 8    1  0.2971508E-007  0.9118800E+02  0.7816164E-02  0.1184000E+00
        -11   -1    0    0    0    0  0.00000000000E+00  0.00000000000E+00  0.45593999997E+02  0.45594000000E+02  0.51100000000E-03 0.  1.
         11   -1    0    0    0    0 -0.00000000000E+00 -0.00000000000E+00 -0.45593999997E+02  0.45594000000E+02  0.51100000000E-03 0. -1.
         23    2    1    2    0    0  0.17763568394E-14  0.00000000000E+00 -0.71054273576E-14  0.91188000000E+02  0.91188000000E+02 0.  0.
    9900012    2    3    3    0    0  0.95568992615E+01  0.27021648299E+02 -0.23114421707E+02  0.54367078079E+02  0.39999986097E+02 0.  0.
        -12    1    3    3    0    0 -0.95568992615E+01 -0.27021648299E+02  0.23114421707E+02  0.36820921921E+02  0.00000000000E+00 0.  1.
         11    1    4    4    0    0  0.82848233685E+01  0.52470769553E+01 -0.28261785853E+02  0.29914856755E+02  0.51100000000E-03 0. -1.
        -11    1    4    4    0    0 -0.35578431315E+01  0.34586742880E+01  0.11229265294E+01  0.50874001052E+01  0.51100000000E-03 0.  1.
         12    1    4    4    0    0  0.48299190245E+01  0.18315897055E+02  0.40244376159E+01  0.19364821219E+02  0.00000000000E+00 0. -1.
</event>
<event>
 8    1  0.2971508E-007  0.9118800E+02  0.7816164E-02  0.1184000E+00
        -11   -1    0    0    0    0  0.00000000000E+00  0.00000000000E+00  0.45593999997E+02  0.45594000000E+02  0.51100000000E-03 0.  1.
         11   -1    0    0    0    0 -0.00000000000E+00 -0.00000000000E+00 -0.45593999997E+02  0.45594000000E+02  0.51100000000E-03 0. -1.
         23    2    1    2    0    0  0.00000000000E+00  0.00000000000E+00  0.35527136788E-14  0.91188000000E+02  0.91188000000E+02 0.  0.
    9900012    2    3    3    0    0  0.17011580702E+02  0.30999411690E+02 -0.10267466507E+02  0.54367105503E+02  0.40000048615E+02 0.  0.
        -12    1    3    3    0    0 -0.17011580702E+02 -0.30999411690E+02  0.10267466507E+02  0.36820894497E+02  0.00000000000E+00 0.  1.
         11    1    4    4    0    0  0.18650717839E+02  0.75362979617E+01 -0.13780257481E+01  0.20162936743E+02  0.51100000000E-03 0. -1.
        -11    1    4    4    0    0  0.87044717999E-01  0.55180613000E+01  0.78548692688E+01  0.95997681631E+01  0.51100000000E-03 0.  1.
         12    1    4    4    0    0 -0.17261818549E+01  0.17945052428E+02 -0.16744310028E+02  0.24604400597E+02  0.00000000000E+00 0. -1.
</event>
<event>
 8    1  0.2971508E-007  0.9118800E+02  0.7816164E-02  0.1184000E+00
        -11   -1    0    0    0    0  0.00000000000E+00  0.00000000000E+00  0.45593999997E+02  0.45594000000E+02  0.51100000000E-03 0.  1.
         11   -1    0    0    0    0 -0.00000000000E+00 -0.00000000000E+00 -0.45593999997E+02  0.45594000000E+02  0.51100000000E-03 0. -1.
         23    2    1    2    0    0 -0.35527136788E-14 -0.35527136788E-14  0.88817841970E-15  0.91188000000E+02  0.91188000000E+02 0.  0.
    9900012    2    3    3    0    0 -0.26551989849E+02 -0.25325625891E+02  0.30634369268E+01  0.54367080164E+02  0.39999990850E+02 0.  0.
         12    1    3    3    0    0  0.26551989849E+02  0.25325625891E+02 -0.30634369268E+01  0.36820919836E+02  0.00000000000E+00 0. -1.
         11    1    4    4    0    0  0.83488518180E+01 -0.21559215661E+01 -0.18169542972E+01  0.88120739703E+01  0.51100000000E-03 0. -1.
        -11    1    4    4    0    0 -0.11033215144E+02 -0.91362330784E+01  0.99041405027E+01  0.17415355024E+02  0.51100000000E-03 0.  1.
         12    1    4    4    0    0 -0.23867626524E+02 -0.14033471247E+02 -0.50237492787E+01  0.28139651169E+02  0.00000000000E+00 0. -1.
</event>
<event>
 8    1  0.2971508E-007  0.9118800E+02  0.7816164E-02  0.1184000E+00
        -11   -1    0    0    0    0  0.00000000000E+00  0.00000000000E+00  0.45593999997E+02  0.45594000000E+02  0.51100000000E-03 0. -1.
         11   -1    0    0    0    0 -0.00000000000E+00 -0.00000000000E+00 -0.45593999997E+02  0.45594000000E+02  0.51100000000E-03 0.  1.
         23    2    1    2    0    0  0.35527136788E-14 -0.35527136788E-14 -0.88817841970E-15  0.91188000000E+02  0.91188000000E+02 0.  0.
    9900012    2    3    3    0    0 -0.30314666461E+02  0.20630051935E+02  0.33468963655E+01  0.54367085281E+02  0.40000002515E+02 0.  0.
         12    1    3    3    0    0  0.30314666461E+02 -0.20630051935E+02 -0.33468963655E+01  0.36820914719E+02  0.00000000000E+00 0. -1.
         11    1    4    4    0    0 -0.25786680241E+02  0.18002671420E+02 -0.54643913809E+01  0.31920348205E+02  0.51100000000E-03 0. -1.
        -11    1    4    4    0    0 -0.73989314911E+00  0.97628963120E+01 -0.87938383689E+00  0.98303053088E+01  0.51100000000E-03 0.  1.
         12    1    4    4    0    0 -0.37880930709E+01 -0.71355157973E+01  0.96906715833E+01  0.12616431767E+02  0.00000000000E+00 0. -1.
</event>
<event>
 8    1  0.2971508E-007  0.9118800E+02  0.7816164E-02  0.1184000E+00
        -11   -1    0    0    0    0  0.00000000000E+00  0.00000000000E+00  0.45593999997E+02  0.45594000000E+02  0.51100000000E-03 0.  1.
         11   -1    0    0    0    0 -0.00000000000E+00 -0.00000000000E+00 -0.45593999997E+02  0.45594000000E+02  0.51100000000E-03 0. -1.
         23    2    1    2    0    0  0.00000000000E+00 -0.35527136788E-14  0.00000000000E+00  0.91188000000E+02  0.91188000000E+02 0.  0.
    9900012    2    3    3    0    0  0.21572525604E+02 -0.17557663259E+02 -0.24127461592E+02  0.54367084708E+02  0.40000001209E+02 0.  0.
        -12    1    3    3    0    0 -0.21572525604E+02  0.17557663259E+02  0.24127461592E+02  0.36820915292E+02  0.00000000000E+00 0.  1.
         11    1    4    4    0    0  0.76217100023E+01 -0.53683958966E+01 -0.37842762368E+01  0.10061356010E+02  0.51100000000E-03 0. -1.
        -11    1    4    4    0    0  0.65842214268E+01 -0.14041633699E+02  0.61962323236E+01  0.16700680944E+02  0.51100000000E-03 0.  1.
        -12    1    4    4    0    0  0.73665941751E+01  0.18523663366E+01 -0.26539417679E+02  0.27605047754E+02  0.00000000000E+00 0.  1.
</event>
<event>
 8    1  0.2971508E-007  0.9118800E+02  0.7816164E-02  0.1184000E+00
        -11   -1    0    0    0    0  0.00000000000E+00  0.00000000000E+00  0.45593999997E+02  0.45594000000E+02  0.51100000000E-03 0.  1.
         11   -1    0    0    0    0 -0.00000000000E+00 -0.00000000000E+00 -0.45593999997E+02  0.45594000000E+02  0.51100000000E-03 0. -1.
         23    2    1    2    0    0 -0.35527136788E-14  0.00000000000E+00  0.00000000000E+00  0.91188000000E+02  0.91188000000E+02 0.  0.
    9900012    2    3    3    0    0 -0.23322578322E+02 -0.22802137481E+02  0.17085066983E+02  0.54367086824E+02  0.40000006033E+02 0.  0.
         12    1    3    3    0    0  0.23322578322E+02  0.22802137481E+02 -0.17085066983E+02  0.36820913176E+02  0.00000000000E+00 0. -1.
         11    1    4    4    0    0 -0.62483254337E+01 -0.10921424830E+02 -0.56671078590E+01  0.13799826187E+02  0.51100000000E-03 0. -1.
        -11    1    4    4    0    0 -0.11749728913E+02  0.51254206784E+01  0.18046940319E+02  0.22136352947E+02  0.51100000000E-03 0.  1.
        -12    1    4    4    0    0 -0.53245239753E+01 -0.17006133329E+02  0.47052345228E+01  0.18430907690E+02  0.00000000000E+00 0.  1.
</event>
<event>
 8    1  0.2971508E-007  0.9118800E+02  0.7816164E-02  0.1184000E+00
        -11   -1    0    0    0    0  0.00000000000E+00  0.00000000000E+00  0.45593999997E+02  0.45594000000E+02  0.51100000000E-03 0.  1.
         11   -1    0    0    0    0 -0.00000000000E+00 -0.00000000000E+00 -0.45593999997E+02  0.45594000000E+02  0.51100000000E-03 0. -1.
         23    2    1    2    0    0  0.35527136788E-14  0.00000000000E+00 -0.35527136788E-14  0.91188000000E+02  0.91188000000E+02 0.  0.
    9900012    2    3    3    0    0  0.27834827434E+02  0.36627721672E+01 -0.23824119549E+02  0.54367052286E+02  0.39999927297E+02 0.  0.
        -12    1    3    3    0    0 -0.27834827434E+02 -0.36627721672E+01  0.23824119549E+02  0.36820947714E+02  0.00000000000E+00 0.  1.
         11    1    4    4    0    0  0.49010667918E+01  0.12027614871E+02 -0.18626936423E+02  0.22707856261E+02  0.51100000000E-03 0. -1.
        -11    1    4    4    0    0  0.14960660625E+02 -0.82561222766E+01 -0.12241066959E+02  0.21019720311E+02  0.51100000000E-03 0.  1.
        -12    1    4    4    0    0  0.79731000173E+01 -0.10872042760E+00  0.70438838332E+01  0.10639475714E+02  0.00000000000E+00 0.  1.
</event>
<event>
 8    1  0.2971508E-007  0.9118800E+02  0.7816164E-02  0.1184000E+00
        -11   -1    0    0    0    0  0.00000000000E+00  0.00000000000E+00  0.45593999997E+02  0.45594000000E+02  0.51100000000E-03 0.  1.
         11   -1    0    0    0    0 -0.00000000000E+00 -0.00000000000E+00 -0.45593999997E+02  0.45594000000E+02  0.51100000000E-03 0. -1.
         23    2    1    2    0    0  0.00000000000E+00  0.00000000000E+00  0.17763568394E-14  0.91188000000E+02  0.91188000000E+02 0.  0.
    9900012    2    3    3    0    0  0.35633489667E+02 -0.25824658019E+01 -0.89085950851E+01  0.54367112152E+02  0.40000063774E+02 0.  0.
         12    1    3    3    0    0 -0.35633489667E+02  0.25824658019E+01  0.89085950851E+01  0.36820887848E+02  0.00000000000E+00 0. -1.
         11    1    4    4    0    0 -0.13273518519E+01  0.13600086420E+01 -0.96897603466E+01  0.98743578161E+01  0.51100000000E-03 0. -1.
        -11    1    4    4    0    0  0.36151719335E+01 -0.90420904722E+01  0.41625177947E+01  0.10590345739E+02  0.51100000000E-03 0.  1.
        -12    1    4    4    0    0  0.33345669586E+02  0.50996160283E+01 -0.33813525332E+01  0.33902408597E+02  0.00000000000E+00 0.  1.
</event>
<event>
 8    1  0.2971508E-007  0.9118800E+02  0.7816164E-02  0.1184000E+00
        -11   -1    0    0    0    0  0.00000000000E+00  0.00000000000E+00  0.45593999997E+02  0.45594000000E+02  0.51100000000E-03 0.  1.
         11   -1    0    0    0    0 -0.00000000000E+00 -0.00000000000E+00 -0.45593999997E+02  0.45594000000E+02  0.51100000000E-03 0. -1.
         23    2    1    2    0    0 -0.35527136788E-14 -0.35527136788E-14  0.00000000000E+00  0.91188000000E+02  0.91188000000E+02 0.  0.
    9900012    2    3    3    0    0  0.20046011066E+02  0.26960501971E+02 -0.15068803740E+02  0.54367081050E+02  0.39999992869E+02 0.  0.
        -12    1    3    3    0    0 -0.20046011066E+02 -0.26960501971E+02  0.15068803740E+02  0.36820918950E+02  0.00000000000E+00 0.  1.
         11    1    4    4    0    0  0.47221482306E+01 -0.10597599381E+02 -0.27738598246E+01  0.11929044184E+02  0.51100000000E-03 0.  1.
        -11    1    4    4    0    0  0.11018490326E+02  0.24833673090E+02 -0.87961054558E+01  0.28556784126E+02  0.51100000000E-03 0. -1.
        -12    1    4    4    0    0  0.43053725095E+01  0.12724428262E+02 -0.34988384599E+01  0.13881252740E+02  0.00000000000E+00 0.  1.
</event>
<event>
 8    1  0.2971508E-007  0.9118800E+02  0.7816164E-02  0.1184000E+00
        -11   -1    0    0    0    0  0.00000000000E+00  0.00000000000E+00  0.45593999997E+02  0.45594000000E+02  0.51100000000E-03 0.  1.
         11   -1    0    0    0    0 -0.00000000000E+00 -0.00000000000E+00 -0.45593999997E+02  0.45594000000E+02  0.51100000000E-03 0. -1.
         23    2    1    2    0    0  0.00000000000E+00 -0.17763568394E-14  0.00000000000E+00  0.91188000000E+02  0.91188000000E+02 0.  0.
    9900012    2    3    3    0    0 -0.34050904327E+02 -0.13116519239E+02 -0.49267004497E+01  0.54367088282E+02  0.40000009357E+02 0.  0.
        -12    1    3    3    0    0  0.34050904327E+02  0.13116519239E+02  0.49267004497E+01  0.36820911718E+02  0.00000000000E+00 0.  1.
         11    1    4    4    0    0  0.14966063077E+00  0.54566854155E+01  0.34323975361E+01  0.64481909970E+01  0.51100000000E-03 0. -1.
        -11    1    4    4    0    0  0.30434332054E+01  0.27838887075E+01 -0.17486459975E+01  0.44799871760E+01  0.51100000000E-03 0.  1.
         12    1    4    4    0    0 -0.37243998163E+02 -0.21357093362E+02 -0.66104519883E+01  0.43438910109E+02  0.00000000000E+00 0. -1.
</event>
<event>
 8    1  0.2971508E-007  0.9118800E+02  0.7816164E-02  0.1184000E+00
        -11   -1    0    0    0    0  0.00000000000E+00  0.00000000000E+00  0.45593999997E+02  0.45594000000E+02  0.51100000000E-03 0.  1.
         11   -1    0    0    0    0 -0.00000000000E+00 -0.00000000000E+00 -0.45593999997E+02  0.45594000000E+02  0.51100000000E-03 0. -1.
         23    2    1    2    0    0 -0.35527136788E-14  0.35527136788E-14  0.00000000000E+00  0.91188000000E+02  0.91188000000E+02 0.  0.
    9900012    2    3    3    0    0  0.21604560506E+02  0.27585486045E+02 -0.11316590008E+02  0.54367064591E+02  0.39999955348E+02 0.  0.
        -12    1    3    3    0    0 -0.21604560506E+02 -0.27585486045E+02  0.11316590008E+02  0.36820935409E+02  0.00000000000E+00 0.  1.
         11    1    4    4    0    0  0.14777966617E+02  0.21594692895E+02 -0.22101336017E+01  0.26260307488E+02  0.51100000000E-03 0. -1.
        -11    1    4    4    0    0 -0.57109690518E+01  0.74964944181E+01 -0.11894115959E+02  0.15175064770E+02  0.51100000000E-03 0.  1.
         12    1    4    4    0    0  0.12537562941E+02 -0.15057012683E+01  0.27876595524E+01  0.12931692333E+02  0.00000000000E+00 0. -1.
</event>
<event>
 8    1  0.2971508E-007  0.9118800E+02  0.7816164E-02  0.1184000E+00
        -11   -1    0    0    0    0  0.00000000000E+00  0.00000000000E+00  0.45593999997E+02  0.45594000000E+02  0.51100000000E-03 0.  1.
         11   -1    0    0    0    0 -0.00000000000E+00 -0.00000000000E+00 -0.45593999997E+02  0.45594000000E+02  0.51100000000E-03 0. -1.
         23    2    1    2    0    0  0.00000000000E+00  0.00000000000E+00  0.00000000000E+00  0.91188000000E+02  0.91188000000E+02 0.  0.
    9900012    2    3    3    0    0 -0.11314517196E+02 -0.84629962345E+01  0.34002041051E+02  0.54367090176E+02  0.40000013674E+02 0.  0.
         12    1    3    3    0    0  0.11314517196E+02  0.84629962345E+01 -0.34002041051E+02  0.36820909824E+02  0.00000000000E+00 0. -1.
         11    1    4    4    0    0  0.41545621837E+01  0.51202494597E+01  0.94314714600E+00  0.66608459124E+01  0.51100000000E-03 0. -1.
        -11    1    4    4    0    0  0.20541995621E+00  0.72628770348E+01  0.28724202889E+01  0.78129622268E+01  0.51100000000E-03 0.  1.
        -12    1    4    4    0    0 -0.15674499336E+02 -0.20846122729E+02  0.30186473616E+02  0.39893282037E+02  0.00000000000E+00 0.  1.
</event>
<event>
 8    1  0.2971508E-007  0.9118800E+02  0.7816164E-02  0.1184000E+00
        -11   -1    0    0    0    0  0.00000000000E+00  0.00000000000E+00  0.45593999997E+02  0.45594000000E+02  0.51100000000E-03 0.  1.
         11   -1    0    0    0    0 -0.00000000000E+00 -0.00000000000E+00 -0.45593999997E+02  0.45594000000E+02  0.51100000000E-03 0. -1.
         23    2    1    2    0    0  0.88817841970E-15  0.00000000000E+00 -0.12212453271E-14  0.91188000000E+02  0.91188000000E+02 0.  0.
    9900012    2    3    3    0    0 -0.38542940616E+01 -0.36609117767E+02  0.83242883703E+00  0.54367136021E+02  0.40000118187E+02 0.  0.
         12    1    3    3    0    0  0.38542940616E+01  0.36609117767E+02 -0.83242883703E+00  0.36820863979E+02  0.00000000000E+00 0. -1.
         11    1    4    4    0    0 -0.82721198017E+00 -0.12829756961E+02  0.13819504597E+02  0.18875000686E+02  0.51100000000E-03 0. -1.
        -11    1    4    4    0    0 -0.87500808064E+01 -0.10521470123E+01 -0.71261601662E+01  0.11333714591E+02  0.51100000000E-03 0.  1.
        -12    1    4    4    0    0  0.57229987250E+01 -0.22727213794E+02 -0.58609155938E+01  0.24158420744E+02  0.00000000000E+00 0.  1.
</event>
<event>
 8    1  0.2971508E-007  0.9118800E+02  0.7816164E-02  0.1184000E+00
        -11   -1    0    0    0    0  0.00000000000E+00  0.00000000000E+00  0.45593999997E+02  0.45594000000E+02  0.51100000000E-03 0. -1.
         11   -1    0    0    0    0 -0.00000000000E+00 -0.00000000000E+00 -0.45593999997E+02  0.45594000000E+02  0.51100000000E-03 0.  1.
         23    2    1    2    0    0  0.00000000000E+00  0.35527136788E-14 -0.17763568394E-14  0.91188000000E+02  0.91188000000E+02 0.  0.
    9900012    2    3    3    0    0  0.25958865065E+02 -0.25285753222E+02  0.65228156354E+01  0.54367094046E+02  0.40000022497E+02 0.  0.
         12    1    3    3    0    0 -0.25958865065E+02  0.25285753222E+02 -0.65228156354E+01  0.36820905954E+02  0.00000000000E+00 0. -1.
         11    1    4    4    0    0  0.31656046907E+01 -0.20490493053E+02  0.13153552718E+02  0.24553967255E+02  0.51100000000E-03 0. -1.
        -11    1    4    4    0    0  0.13524447796E+02  0.40871272680E+01  0.21058220352E+01  0.14284599546E+02  0.51100000000E-03 0.  1.
         12    1    4    4    0    0  0.92688125779E+01 -0.88823874373E+01 -0.87365591175E+01  0.15528527245E+02  0.00000000000E+00 0. -1.
</event>
<event>
 8    1  0.2971508E-007  0.9118800E+02  0.7816164E-02  0.1184000E+00
        -11   -1    0    0    0    0  0.00000000000E+00  0.00000000000E+00  0.45593999997E+02  0.45594000000E+02  0.51100000000E-03 0. -1.
         11   -1    0    0    0    0 -0.00000000000E+00 -0.00000000000E+00 -0.45593999997E+02  0.45594000000E+02  0.51100000000E-03 0.  1.
         23    2    1    2    0    0 -0.10658141036E-13  0.00000000000E+00  0.00000000000E+00  0.91188000000E+02  0.91188000000E+02 0.  0.
    9900012    2    3    3    0    0 -0.30209511363E+02 -0.18225000675E+02  0.10536329879E+02  0.54367089179E+02  0.40000011400E+02 0.  0.
        -12    1    3    3    0    0  0.30209511363E+02  0.18225000675E+02 -0.10536329879E+02  0.36820910821E+02  0.00000000000E+00 0.  1.
         11    1    4    4    0    0 -0.19753616048E+02  0.26209835228E+01  0.90903401333E+01  0.21902264394E+02  0.51100000000E-03 0. -1.
        -11    1    4    4    0    0 -0.13906195821E+02 -0.49921165355E+01 -0.40741431815E+01  0.15326517956E+02  0.51100000000E-03 0.  1.
        -12    1    4    4    0    0  0.34503005057E+01 -0.15853867662E+02  0.55201329267E+01  0.17138306829E+02  0.00000000000E+00 0.  1.
</event>
<event>
 8    1  0.2971508E-007  0.9118800E+02  0.7816164E-02  0.1184000E+00
        -11   -1    0    0    0    0  0.00000000000E+00  0.00000000000E+00  0.45593999997E+02  0.45594000000E+02  0.51100000000E-03 0. -1.
         11   -1    0    0    0    0 -0.00000000000E+00 -0.00000000000E+00 -0.45593999997E+02  0.45594000000E+02  0.51100000000E-03 0.  1.
         23    2    1    2    0    0 -0.35527136788E-14  0.00000000000E+00  0.00000000000E+00  0.91188000000E+02  0.91188000000E+02 0.  0.
    9900012    2    3    3    0    0  0.29805441758E+02  0.19668968190E+02 -0.89748392582E+01  0.54367076495E+02  0.39999982485E+02 0.  0.
        -12    1    3    3    0    0 -0.29805441758E+02 -0.19668968190E+02  0.89748392582E+01  0.36820923505E+02  0.00000000000E+00 0.  1.
         11    1    4    4    0    0  0.22637657779E+02  0.21430399363E+02 -0.36586401270E+01  0.31386481396E+02  0.51100000000E-03 0. -1.
        -11    1    4    4    0    0 -0.47087926031E+01 -0.16002287978E+01 -0.92217373810E+01  0.10477304070E+02  0.51100000000E-03 0.  1.
         12    1    4    4    0    0  0.11876576583E+02 -0.16120237585E+00  0.39055382498E+01  0.12503291029E+02  0.00000000000E+00 0. -1.
</event>
<event>
 8    1  0.2971508E-007  0.9118800E+02  0.7816164E-02  0.1184000E+00
        -11   -1    0    0    0    0  0.00000000000E+00  0.00000000000E+00  0.45593999997E+02  0.45594000000E+02  0.51100000000E-03 0. -1.
         11   -1    0    0    0    0 -0.00000000000E+00 -0.00000000000E+00 -0.45593999997E+02  0.45594000000E+02  0.51100000000E-03 0.  1.
         23    2    1    2    0    0  0.88817841970E-15  0.35527136788E-14 -0.35527136788E-14  0.91188000000E+02  0.91188000000E+02 0.  0.
    9900012    2    3    3    0    0 -0.29757214464E+01  0.23581594139E+02  0.28121778705E+02  0.54367069298E+02  0.39999966079E+02 0.  0.
        -12    1    3    3    0    0  0.29757214464E+01 -0.23581594139E+02 -0.28121778705E+02  0.36820930702E+02  0.00000000000E+00 0.  1.
         11    1    4    4    0    0  0.67882248840E+01  0.14035145429E+02  0.23788151043E+02  0.28441895763E+02  0.51100000000E-03 0. -1.
        -11    1    4    4    0    0 -0.12021370652E+02  0.13285957027E+02 -0.22147085368E+01  0.18053668343E+02  0.51100000000E-03 0.  1.
         12    1    4    4    0    0  0.22574243216E+01 -0.37395083171E+01  0.65483361987E+01  0.78715051923E+01  0.00000000000E+00 0. -1.
</event>
<event>
 8    1  0.2971508E-007  0.9118800E+02  0.7816164E-02  0.1184000E+00
        -11   -1    0    0    0    0  0.00000000000E+00  0.00000000000E+00  0.45593999997E+02  0.45594000000E+02  0.51100000000E-03 0. -1.
         11   -1    0    0    0    0 -0.00000000000E+00 -0.00000000000E+00 -0.45593999997E+02  0.45594000000E+02  0.51100000000E-03 0.  1.
         23    2    1    2    0    0  0.00000000000E+00  0.00000000000E+00  0.17763568394E-14  0.91188000000E+02  0.91188000000E+02 0.  0.
    9900012    2    3    3    0    0 -0.76627090828E+01 -0.34172307428E+02  0.11371743553E+02  0.54367078544E+02  0.39999987157E+02 0.  0.
         12    1    3    3    0    0  0.76627090828E+01  0.34172307428E+02 -0.11371743553E+02  0.36820921456E+02  0.00000000000E+00 0. -1.
         11    1    4    4    0    0  0.38660341084E+01 -0.22611459135E+02  0.18636798084E+02  0.29555956202E+02  0.51100000000E-03 0. -1.
        -11    1    4    4    0    0  0.38277369896E+01 -0.13227714996E+00 -0.37276328864E+01  0.53445593741E+01  0.51100000000E-03 0.  1.
         12    1    4    4    0    0 -0.15356480181E+02 -0.11428571143E+02 -0.35374216442E+01  0.19466562968E+02  0.00000000000E+00 0. -1.
</event>
<event>
 8    1  0.2971508E-007  0.9118800E+02  0.7816164E-02  0.1184000E+00
        -11   -1    0    0    0    0  0.00000000000E+00  0.00000000000E+00  0.45593999997E+02  0.45594000000E+02  0.51100000000E-03 0. -1.
         11   -1    0    0    0    0 -0.00000000000E+00 -0.00000000000E+00 -0.45593999997E+02  0.45594000000E+02  0.51100000000E-03 0.  1.
         23    2    1    2    0    0  0.35527136788E-14 -0.17763568394E-14  0.00000000000E+00  0.91188000000E+02  0.91188000000E+02 0.  0.
    9900012    2    3    3    0    0  0.24512924347E+02  0.90617350919E+01 -0.25938031883E+02  0.54367082020E+02  0.39999995081E+02 0.  0.
         12    1    3    3    0    0 -0.24512924347E+02 -0.90617350919E+01  0.25938031883E+02  0.36820917980E+02  0.00000000000E+00 0. -1.
         11    1    4    4    0    0  0.10672857888E+02 -0.17156320623E+01  0.32578301696E+01  0.11290117207E+02  0.51100000000E-03 0. -1.
        -11    1    4    4    0    0  0.17065641691E+02  0.94484154511E-01 -0.26625822593E+02  0.31625614344E+02  0.51100000000E-03 0.  1.
        -12    1    4    4    0    0 -0.32255752313E+01  0.10682883000E+02 -0.25700394587E+01  0.11451350470E+02  0.00000000000E+00 0.  1.
</event>
<event>
 8    1  0.2971508E-007  0.9118800E+02  0.7816164E-02  0.1184000E+00
        -11   -1    0    0    0    0  0.00000000000E+00  0.00000000000E+00  0.45593999997E+02  0.45594000000E+02  0.51100000000E-03 0. -1.
         11   -1    0    0    0    0 -0.00000000000E+00 -0.00000000000E+00 -0.45593999997E+02  0.45594000000E+02  0.51100000000E-03 0.  1.
         23    2    1    2    0    0  0.24424906542E-14  0.00000000000E+00 -0.71054273576E-14  0.91188000000E+02  0.91188000000E+02 0.  0.
    9900012    2    3    3    0    0  0.19831794538E+01  0.83366849654E+01  0.35809889513E+02  0.54367061611E+02  0.39999948554E+02 0.  0.
        -12    1    3    3    0    0 -0.19831794538E+01 -0.83366849654E+01 -0.35809889513E+02  0.36820938389E+02  0.00000000000E+00 0.  1.
         11    1    4    4    0    0  0.10005757735E+02 -0.38665507232E+01  0.13715005838E+02  0.17411685379E+02  0.51100000000E-03 0. -1.
        -11    1    4    4    0    0  0.31601171036E+01  0.15195263425E+02  0.49925297144E+01  0.16303610762E+02  0.51100000000E-03 0.  1.
         12    1    4    4    0    0 -0.11182695385E+02 -0.29920277360E+01  0.17102353960E+02  0.20651765470E+02  0.00000000000E+00 0. -1.
</event>
<event>
 8    1  0.2971508E-007  0.9118800E+02  0.7816164E-02  0.1184000E+00
        -11   -1    0    0    0    0  0.00000000000E+00  0.00000000000E+00  0.45593999997E+02  0.45594000000E+02  0.51100000000E-03 0. -1.
         11   -1    0    0    0    0 -0.00000000000E+00 -0.00000000000E+00 -0.45593999997E+02  0.45594000000E+02  0.51100000000E-03 0.  1.
         23    2    1    2    0    0  0.17763568394E-14  0.22204460493E-14  0.00000000000E+00  0.91188000000E+02  0.91188000000E+02 0.  0.
    9900012    2    3    3    0    0 -0.56189152896E+00 -0.38906916583E+01  0.36610472923E+02  0.54367082965E+02  0.39999997234E+02 0.  0.
        -12    1    3    3    0    0  0.56189152896E+00  0.38906916583E+01 -0.36610472923E+02  0.36820917035E+02  0.00000000000E+00 0.  1.
         11    1    4    4    0    0  0.36773896787E+01  0.76839064223E+01  0.46099364603E+01  0.96859241781E+01  0.51100000000E-03 0. -1.
        -11    1    4    4    0    0  0.44819477722E+01  0.53789436487E+01  0.22132410066E+02  0.23213454422E+02  0.51100000000E-03 0.  1.
        -12    1    4    4    0    0 -0.87212289798E+01 -0.16953541729E+02  0.98681263967E+01  0.21467704364E+02  0.00000000000E+00 0.  1.
</event>
<event>
 8    1  0.2971508E-007  0.9118800E+02  0.7816164E-02  0.1184000E+00
        -11   -1    0    0    0    0  0.00000000000E+00  0.00000000000E+00  0.45593999997E+02  0.45594000000E+02  0.51100000000E-03 0. -1.
         11   -1    0    0    0    0 -0.00000000000E+00 -0.00000000000E+00 -0.45593999997E+02  0.45594000000E+02  0.51100000000E-03 0.  1.
         23    2    1    2    0    0  0.71054273576E-14  0.35527136788E-14  0.00000000000E+00  0.91188000000E+02  0.91188000000E+02 0.  0.
    9900012    2    3    3    0    0  0.20713441040E+02  0.15631266572E+02 -0.26122686083E+02  0.54367111057E+02  0.40000061276E+02 0.  0.
         12    1    3    3    0    0 -0.20713441040E+02 -0.15631266572E+02  0.26122686083E+02  0.36820888943E+02  0.00000000000E+00 0. -1.
         11    1    4    4    0    0  0.50764171173E+01 -0.11624136587E+01  0.24796148884E+01  0.57679898161E+01  0.51100000000E-03 0. -1.
        -11    1    4    4    0    0  0.14712873590E+02  0.23565657476E+02 -0.11292484703E+02  0.29988815792E+02  0.51100000000E-03 0.  1.
        -12    1    4    4    0    0  0.92415033276E+00 -0.67719772459E+01 -0.17309816268E+02  0.18610305449E+02  0.00000000000E+00 0.  1.
</event>
<event>
 8    1  0.2971508E-007  0.9118800E+02  0.7816164E-02  0.1184000E+00
        -11   -1    0    0    0    0  0.00000000000E+00  0.00000000000E+00  0.45593999997E+02  0.45594000000E+02  0.51100000000E-03 0. -1.
         11   -1    0    0    0    0 -0.00000000000E+00 -0.00000000000E+00 -0.45593999997E+02  0.45594000000E+02  0.51100000000E-03 0.  1.
         23    2    1    2    0    0 -0.17763568394E-14 -0.71054273576E-14 -0.17763568394E-14  0.91188000000E+02  0.91188000000E+02 0.  0.
    9900012    2    3    3    0    0 -0.55068522537E+01  0.35260894390E+02  0.90621876470E+01  0.54367090996E+02  0.40000015543E+02 0.  0.
        -12    1    3    3    0    0  0.55068522537E+01 -0.35260894390E+02 -0.90621876470E+01  0.36820909004E+02  0.00000000000E+00 0.  1.
         11    1    4    4    0    0  0.10859432612E+02  0.33274029691E+02  0.12253074593E+02  0.37084041929E+02  0.51100000000E-03 0. -1.
        -11    1    4    4    0    0 -0.28864551818E+01  0.17666911648E+01  0.17117120389E+00  0.33885278560E+01  0.51100000000E-03 0.  1.
         12    1    4    4    0    0 -0.13479829683E+02  0.22017353422E+00 -0.33620581496E+01  0.13894521211E+02  0.00000000000E+00 0. -1.
</event>
<event>
 8    1  0.2971508E-007  0.9118800E+02  0.7816164E-02  0.1184000E+00
        -11   -1    0    0    0    0  0.00000000000E+00  0.00000000000E+00  0.45593999997E+02  0.45594000000E+02  0.51100000000E-03 0. -1.
         11   -1    0    0    0    0 -0.00000000000E+00 -0.00000000000E+00 -0.45593999997E+02  0.45594000000E+02  0.51100000000E-03 0.  1.
         23    2    1    2    0    0 -0.35527136788E-14 -0.22204460493E-15  0.00000000000E+00  0.91188000000E+02  0.91188000000E+02 0.  0.
    9900012    2    3    3    0    0 -0.31624078494E+02 -0.11180794479E+01  0.18826773810E+02  0.54367084010E+02  0.39999999618E+02 0.  0.
         12    1    3    3    0    0  0.31624078494E+02  0.11180794479E+01 -0.18826773810E+02  0.36820915990E+02  0.00000000000E+00 0. -1.
         11    1    4    4    0    0 -0.15992794877E+02 -0.51264401001E+01  0.89708707956E+01  0.19040126028E+02  0.51100000000E-03 0. -1.
        -11    1    4    4    0    0 -0.21001789005E+02  0.11966400999E+01 -0.28702348854E+01  0.21230763941E+02  0.51100000000E-03 0.  1.
        -12    1    4    4    0    0  0.53705053885E+01  0.28117205522E+01  0.12726137900E+02  0.14096194041E+02  0.00000000000E+00 0.  1.
</event>
<event>
 8    1  0.2971508E-007  0.9118800E+02  0.7816164E-02  0.1184000E+00
        -11   -1    0    0    0    0  0.00000000000E+00  0.00000000000E+00  0.45593999997E+02  0.45594000000E+02  0.51100000000E-03 0. -1.
         11   -1    0    0    0    0 -0.00000000000E+00 -0.00000000000E+00 -0.45593999997E+02  0.45594000000E+02  0.51100000000E-03 0.  1.
         23    2    1    2    0    0  0.71054273576E-14 -0.35527136788E-14  0.88817841970E-15  0.91188000000E+02  0.91188000000E+02 0.  0.
    9900012    2    3    3    0    0 -0.32158717104E+02 -0.17340858061E+02 -0.45705423277E+01  0.54367105100E+02  0.40000047697E+02 0.  0.
         12    1    3    3    0    0  0.32158717104E+02  0.17340858061E+02  0.45705423277E+01  0.36820894900E+02  0.00000000000E+00 0. -1.
         11    1    4    4    0    0 -0.26674084421E+02 -0.13855940432E+02  0.32678328809E+01  0.30235287281E+02  0.51100000000E-03 0. -1.
        -11    1    4    4    0    0 -0.63602831879E+01 -0.12278432893E+02 -0.33857928230E+01  0.14236457068E+02  0.51100000000E-03 0.  1.
         12    1    4    4    0    0  0.87565050502E+00  0.87935152640E+01 -0.44525823857E+01  0.98953607517E+01  0.00000000000E+00 0. -1.
</event>
<event>
 8    1  0.2971508E-007  0.9118800E+02  0.7816164E-02  0.1184000E+00
        -11   -1    0    0    0    0  0.00000000000E+00  0.00000000000E+00  0.45593999997E+02  0.45594000000E+02  0.51100000000E-03 0.  1.
         11   -1    0    0    0    0 -0.00000000000E+00 -0.00000000000E+00 -0.45593999997E+02  0.45594000000E+02  0.51100000000E-03 0. -1.
         23    2    1    2    0    0  0.00000000000E+00  0.00000000000E+00  0.00000000000E+00  0.91188000000E+02  0.91188000000E+02 0.  0.
    9900012    2    3    3    0    0  0.30624609478E+02  0.13837437030E+02 -0.15047872222E+02  0.54367084373E+02  0.40000000444E+02 0.  0.
         12    1    3    3    0    0 -0.30624609478E+02 -0.13837437030E+02  0.15047872222E+02  0.36820915627E+02  0.00000000000E+00 0. -1.
         11    1    4    4    0    0  0.27855143519E+02 -0.52053061336E-01 -0.19892361975E+02  0.34228902921E+02  0.51100000000E-03 0. -1.
        -11    1    4    4    0    0 -0.51270938366E+01  0.79132544761E+01  0.38519289078E+01  0.10185482030E+02  0.51100000000E-03 0.  1.
         12    1    4    4    0    0  0.78965597957E+01  0.59762356152E+01  0.99256084583E+00  0.99526994212E+01  0.00000000000E+00 0. -1.
</event>
<event>
 8    1  0.2971508E-007  0.9118800E+02  0.7816164E-02  0.1184000E+00
        -11   -1    0    0    0    0  0.00000000000E+00  0.00000000000E+00  0.45593999997E+02  0.45594000000E+02  0.51100000000E-03 0.  1.
         11   -1    0    0    0    0 -0.00000000000E+00 -0.00000000000E+00 -0.45593999997E+02  0.45594000000E+02  0.51100000000E-03 0. -1.
         23    2    1    2    0    0  0.00000000000E+00  0.00000000000E+00  0.00000000000E+00  0.91188000000E+02  0.91188000000E+02 0.  0.
    9900012    2    3    3    0    0  0.21095619394E+02 -0.18293504977E+02 -0.24002098959E+02  0.54367105980E+02  0.40000049703E+02 0.  0.
        -12    1    3    3    0    0 -0.21095619394E+02  0.18293504977E+02  0.24002098959E+02  0.36820894020E+02  0.00000000000E+00 0.  1.
         11    1    4    4    0    0 -0.70802938710E+01  0.21605169955E+01 -0.87307599329E+01  0.11446596186E+02  0.51100000000E-03 0. -1.
        -11    1    4    4    0    0 -0.13167229483E+01 -0.60509205100E+01 -0.64338604780E+01  0.89298353429E+01  0.51100000000E-03 0.  1.
        -12    1    4    4    0    0  0.29492636213E+02 -0.14403101463E+02 -0.88374785484E+01  0.33990674451E+02  0.00000000000E+00 0.  1.
</event>
<event>
 8    1  0.2971508E-007  0.9118800E+02  0.7816164E-02  0.1184000E+00
        -11   -1    0    0    0    0  0.00000000000E+00  0.00000000000E+00  0.45593999997E+02  0.45594000000E+02  0.51100000000E-03 0. -1.
         11   -1    0    0    0    0 -0.00000000000E+00 -0.00000000000E+00 -0.45593999997E+02  0.45594000000E+02  0.51100000000E-03 0.  1.
         23    2    1    2    0    0  0.00000000000E+00  0.00000000000E+00  0.00000000000E+00  0.91188000000E+02  0.91188000000E+02 0.  0.
    9900012    2    3    3    0    0 -0.11168498577E+02  0.22001782735E+02 -0.27330666101E+02  0.54367094070E+02  0.40000022552E+02 0.  0.
         12    1    3    3    0    0  0.11168498577E+02 -0.22001782735E+02  0.27330666101E+02  0.36820905930E+02  0.00000000000E+00 0. -1.
         11    1    4    4    0    0 -0.15707678267E+02  0.35311362972E+01 -0.12774210111E+02  0.20551898314E+02  0.51100000000E-03 0.  1.
        -11    1    4    4    0    0  0.64371092065E+00  0.13800974484E+02  0.39219576929E+01  0.14361859659E+02  0.51100000000E-03 0. -1.
        -12    1    4    4    0    0  0.38954687697E+01  0.46696719536E+01 -0.18478413683E+02  0.19453336097E+02  0.00000000000E+00 0.  1.
</event>
<event>
 8    1  0.2971508E-007  0.9118800E+02  0.7816164E-02  0.1184000E+00
        -11   -1    0    0    0    0  0.00000000000E+00  0.00000000000E+00  0.45593999997E+02  0.45594000000E+02  0.51100000000E-03 0. -1.
         11   -1    0    0    0    0 -0.00000000000E+00 -0.00000000000E+00 -0.45593999997E+02  0.45594000000E+02  0.51100000000E-03 0.  1.
         23    2    1    2    0    0  0.00000000000E+00  0.00000000000E+00  0.35527136788E-14  0.91188000000E+02  0.91188000000E+02 0.  0.
    9900012    2    3    3    0    0 -0.25315815245E+02 -0.61973807943E+01 -0.26009252941E+02  0.54367091962E+02  0.40000017745E+02 0.  0.
         12    1    3    3    0    0  0.25315815245E+02  0.61973807943E+01  0.26009252941E+02  0.36820908038E+02  0.00000000000E+00 0. -1.
         11    1    4    4    0    0  0.29973401149E+00 -0.22696980670E-01 -0.15165727814E+00  0.33668356317E+00  0.51100000000E-03 0. -1.
        -11    1    4    4    0    0 -0.82391699917E+01  0.32598717080E+01 -0.32096448473E+02  0.33297037264E+02  0.51100000000E-03 0.  1.
         12    1    4    4    0    0 -0.17376379264E+02 -0.94345555217E+01  0.62388528102E+01  0.20733371135E+02  0.00000000000E+00 0. -1.
</event>
<event>
 8    1  0.2971508E-007  0.9118800E+02  0.7816164E-02  0.1184000E+00
        -11   -1    0    0    0    0  0.00000000000E+00  0.00000000000E+00  0.45593999997E+02  0.45594000000E+02  0.51100000000E-03 0. -1.
         11   -1    0    0    0    0 -0.00000000000E+00 -0.00000000000E+00 -0.45593999997E+02  0.45594000000E+02  0.51100000000E-03 0.  1.
         23    2    1    2    0    0  0.00000000000E+00  0.00000000000E+00 -0.35527136788E-14  0.91188000000E+02  0.91188000000E+02 0.  0.
    9900012    2    3    3    0    0 -0.95970290072E+01 -0.18011791821E+02 -0.30647233093E+02  0.54367075153E+02  0.39999979426E+02 0.  0.
         12    1    3    3    0    0  0.95970290072E+01  0.18011791821E+02  0.30647233093E+02  0.36820924847E+02  0.00000000000E+00 0. -1.
         11    1    4    4    0    0 -0.10581588160E+02 -0.28931667203E+02 -0.14509806350E+02  0.34052105011E+02  0.51100000000E-03 0. -1.
        -11    1    4    4    0    0  0.93181899153E+00  0.37944049380E+01 -0.10579929127E+02  0.11278328603E+02  0.51100000000E-03 0.  1.
         12    1    4    4    0    0  0.52740161190E-01  0.71254704435E+01 -0.55574976153E+01  0.90366415393E+01  0.00000000000E+00 0. -1.
</event>
<event>
 8    1  0.2971508E-007  0.9118800E+02  0.7816164E-02  0.1184000E+00
        -11   -1    0    0    0    0  0.00000000000E+00  0.00000000000E+00  0.45593999997E+02  0.45594000000E+02  0.51100000000E-03 0.  1.
         11   -1    0    0    0    0 -0.00000000000E+00 -0.00000000000E+00 -0.45593999997E+02  0.45594000000E+02  0.51100000000E-03 0. -1.
         23    2    1    2    0    0  0.35527136788E-14  0.35527136788E-14  0.35527136788E-14  0.91188000000E+02  0.91188000000E+02 0.  0.
    9900012    2    3    3    0    0 -0.25891609539E+02 -0.24270947839E+02 -0.98144334181E+01  0.54367116566E+02  0.40000073836E+02 0.  0.
        -12    1    3    3    0    0  0.25891609539E+02  0.24270947839E+02  0.98144334181E+01  0.36820883434E+02  0.00000000000E+00 0.  1.
         11    1    4    4    0    0 -0.47669705294E+01 -0.21705800990E+02 -0.17274931832E+02  0.28147630002E+02  0.51100000000E-03 0. -1.
        -11    1    4    4    0    0 -0.28343435014E+01 -0.56916853255E+01  0.41693067427E+00  0.63720182342E+01  0.51100000000E-03 0.  1.
         12    1    4    4    0    0 -0.18290295508E+02  0.31265384768E+01  0.70435677400E+01  0.19847468331E+02  0.00000000000E+00 0. -1.
</event>
<event>
 8    1  0.2971508E-007  0.9118800E+02  0.7816164E-02  0.1184000E+00
        -11   -1    0    0    0    0  0.00000000000E+00  0.00000000000E+00  0.45593999997E+02  0.45594000000E+02  0.51100000000E-03 0. -1.
         11   -1    0    0    0    0 -0.00000000000E+00 -0.00000000000E+00 -0.45593999997E+02  0.45594000000E+02  0.51100000000E-03 0.  1.
         23    2    1    2    0    0  0.00000000000E+00 -0.35527136788E-14  0.35527136788E-14  0.91188000000E+02  0.91188000000E+02 0.  0.
    9900012    2    3    3    0    0 -0.24396233691E+02  0.20259366386E+02 -0.18712581009E+02  0.54367097883E+02  0.40000031243E+02 0.  0.
         12    1    3    3    0    0  0.24396233691E+02 -0.20259366386E+02  0.18712581009E+02  0.36820902117E+02  0.00000000000E+00 0. -1.
         11    1    4    4    0    0 -0.24640602383E+00 -0.69722915332E+01  0.54499827498E+01  0.88530151580E+01  0.51100000000E-03 0. -1.
        -11    1    4    4    0    0  0.12984318955E+01  0.35562554212E+01 -0.18832770992E+01  0.42284288928E+01  0.51100000000E-03 0.  1.
        -12    1    4    4    0    0 -0.25448259563E+02  0.23675402498E+02 -0.22279286660E+02  0.41285653832E+02  0.00000000000E+00 0.  1.
</event>
<event>
 8    1  0.2971508E-007  0.9118800E+02  0.7816164E-02  0.1184000E+00
        -11   -1    0    0    0    0  0.00000000000E+00  0.00000000000E+00  0.45593999997E+02  0.45594000000E+02  0.51100000000E-03 0.  1.
         11   -1    0    0    0    0 -0.00000000000E+00 -0.00000000000E+00 -0.45593999997E+02  0.45594000000E+02  0.51100000000E-03 0. -1.
         23    2    1    2    0    0 -0.71054273576E-14 -0.10658141036E-13 -0.17763568394E-14  0.91188000000E+02  0.91188000000E+02 0.  0.
    9900012    2    3    3    0    0  0.19600950162E+02  0.28129516324E+02  0.13428099191E+02  0.54367071389E+02  0.39999970847E+02 0.  0.
         12    1    3    3    0    0 -0.19600950162E+02 -0.28129516324E+02 -0.13428099191E+02  0.36820928611E+02  0.00000000000E+00 0. -1.
         11    1    4    4    0    0  0.16626164139E+02  0.23653684587E+02 -0.96451172311E+01  0.30478753504E+02  0.51100000000E-03 0. -1.
        -11    1    4    4    0    0  0.31034540497E+01  0.19665664325E+01  0.13821731963E+02  0.14301716166E+02  0.51100000000E-03 0.  1.
         12    1    4    4    0    0 -0.12866802668E+00  0.25092653043E+01  0.92514844587E+01  0.95866017190E+01  0.00000000000E+00 0. -1.
</event>
<event>
 8    1  0.2971508E-007  0.9118800E+02  0.7816164E-02  0.1184000E+00
        -11   -1    0    0    0    0  0.00000000000E+00  0.00000000000E+00  0.45593999997E+02  0.45594000000E+02  0.51100000000E-03 0.  1.
         11   -1    0    0    0    0 -0.00000000000E+00 -0.00000000000E+00 -0.45593999997E+02  0.45594000000E+02  0.51100000000E-03 0. -1.
         23    2    1    2    0    0 -0.35527136788E-14  0.83266726847E-16  0.35527136788E-14  0.91188000000E+02  0.91188000000E+02 0.  0.
    9900012    2    3    3    0    0  0.29306133537E+02 -0.16126866706E+00  0.22291317287E+02  0.54367105160E+02  0.40000047832E+02 0.  0.
         12    1    3    3    0    0 -0.29306133537E+02  0.16126866706E+00 -0.22291317287E+02  0.36820894840E+02  0.00000000000E+00 0. -1.
         11    1    4    4    0    0  0.24185066642E+02  0.44665088941E+00  0.19236728540E+02  0.30905803187E+02  0.51100000000E-03 0. -1.
        -11    1    4    4    0    0 -0.86534661062E+01  0.14910208083E+01  0.36632934198E+01  0.95144804190E+01  0.51100000000E-03 0.  1.
         12    1    4    4    0    0  0.13774533001E+02 -0.20989403647E+01 -0.60870467252E+00  0.13946821553E+02  0.00000000000E+00 0. -1.
</event>
<event>
 8    1  0.2971508E-007  0.9118800E+02  0.7816164E-02  0.1184000E+00
        -11   -1    0    0    0    0  0.00000000000E+00  0.00000000000E+00  0.45593999997E+02  0.45594000000E+02  0.51100000000E-03 0. -1.
         11   -1    0    0    0    0 -0.00000000000E+00 -0.00000000000E+00 -0.45593999997E+02  0.45594000000E+02  0.51100000000E-03 0.  1.
         23    2    1    2    0    0  0.00000000000E+00 -0.17763568394E-14 -0.71054273576E-14  0.91188000000E+02  0.91188000000E+02 0.  0.
    9900012    2    3    3    0    0 -0.24963474249E+01  0.10839446358E+02  0.35100629890E+02  0.54367087919E+02  0.40000008528E+02 0.  0.
         12    1    3    3    0    0  0.24963474249E+01 -0.10839446358E+02 -0.35100629890E+02  0.36820912081E+02  0.00000000000E+00 0. -1.
         11    1    4    4    0    0 -0.60444750770E+01  0.92340026830E+01  0.77613948417E+01  0.13492284264E+02  0.51100000000E-03 0. -1.
        -11    1    4    4    0    0  0.20797219819E+01  0.12473458160E+02  0.14128098676E+01  0.12724324499E+02  0.51100000000E-03 0.  1.
        -12    1    4    4    0    0  0.14684056702E+01 -0.10868014484E+02  0.25926425181E+02  0.28150479156E+02  0.00000000000E+00 0.  1.
</event>
<event>
 8    1  0.2971508E-007  0.9118800E+02  0.7816164E-02  0.1184000E+00
        -11   -1    0    0    0    0  0.00000000000E+00  0.00000000000E+00  0.45593999997E+02  0.45594000000E+02  0.51100000000E-03 0. -1.
         11   -1    0    0    0    0 -0.00000000000E+00 -0.00000000000E+00 -0.45593999997E+02  0.45594000000E+02  0.51100000000E-03 0.  1.
         23    2    1    2    0    0  0.00000000000E+00 -0.17763568394E-14 -0.35527136788E-14  0.91188000000E+02  0.91188000000E+02 0.  0.
    9900012    2    3    3    0    0 -0.16377168728E+02  0.15075799782E+02 -0.29330687788E+02  0.54367073332E+02  0.39999975274E+02 0.  0.
         12    1    3    3    0    0  0.16377168728E+02 -0.15075799782E+02  0.29330687788E+02  0.36820926668E+02  0.00000000000E+00 0. -1.
         11    1    4    4    0    0 -0.17179739973E+02  0.61363256648E+01 -0.21097609874E+02  0.27890986014E+02  0.51100000000E-03 0.  1.
        -11    1    4    4    0    0 -0.91764947406E+01  0.83337616428E+01  0.15449587617E+01  0.12491858816E+02  0.51100000000E-03 0. -1.
        -12    1    4    4    0    0  0.99790659858E+01  0.60571247420E+00 -0.97780366756E+01  0.13984228501E+02  0.00000000000E+00 0.  1.
</event>
<event>
 8    1  0.2971508E-007  0.9118800E+02  0.7816164E-02  0.1184000E+00
        -11   -1    0    0    0    0  0.00000000000E+00  0.00000000000E+00  0.45593999997E+02  0.45594000000E+02  0.51100000000E-03 0.  1.
         11   -1    0    0    0    0 -0.00000000000E+00 -0.00000000000E+00 -0.45593999997E+02  0.45594000000E+02  0.51100000000E-03 0. -1.
         23    2    1    2    0    0  0.00000000000E+00  0.17763568394E-14  0.00000000000E+00  0.91188000000E+02  0.91188000000E+02 0.  0.
    9900012    2    3    3    0    0 -0.11035010845E+02  0.10346308488E+02  0.33570226893E+02  0.54367113301E+02  0.40000066393E+02 0.  0.
         12    1    3    3    0    0  0.11035010845E+02 -0.10346308488E+02 -0.33570226893E+02  0.36820886699E+02  0.00000000000E+00 0. -1.
         11    1    4    4    0    0  0.75299726375E+01  0.13265248632E+01 -0.38331355787E+01  0.85529576615E+01  0.51100000000E-03 0. -1.
        -11    1    4    4    0    0 -0.14790231776E+02  0.10749464020E+02  0.16911438416E+02  0.24905796158E+02  0.51100000000E-03 0.  1.
         12    1    4    4    0    0 -0.37747517059E+01 -0.17296803958E+01  0.20491924055E+02  0.20908359482E+02  0.00000000000E+00 0. -1.
</event>
<event>
 8    1  0.2971508E-007  0.9118800E+02  0.7816164E-02  0.1184000E+00
        -11   -1    0    0    0    0  0.00000000000E+00  0.00000000000E+00  0.45593999997E+02  0.45594000000E+02  0.51100000000E-03 0. -1.
         11   -1    0    0    0    0 -0.00000000000E+00 -0.00000000000E+00 -0.45593999997E+02  0.45594000000E+02  0.51100000000E-03 0.  1.
         23    2    1    2    0    0 -0.17763568394E-14  0.00000000000E+00  0.88817841970E-15  0.91188000000E+02  0.91188000000E+02 0.  0.
    9900012    2    3    3    0    0 -0.11164642965E+02  0.34829634554E+02  0.42460710896E+01  0.54367057380E+02  0.39999938910E+02 0.  0.
         12    1    3    3    0    0  0.11164642965E+02 -0.34829634554E+02 -0.42460710896E+01  0.36820942620E+02  0.00000000000E+00 0. -1.
         11    1    4    4    0    0 -0.10129541372E+02  0.27577285368E+02  0.14649536567E+02  0.32828694744E+02  0.51100000000E-03 0. -1.
        -11    1    4    4    0    0  0.36327721425E+01 -0.47495376138E+01 -0.31548082116E+01  0.67607659401E+01  0.51100000000E-03 0.  1.
         12    1    4    4    0    0 -0.46678737347E+01  0.12001886800E+02 -0.72486572660E+01  0.14777596696E+02  0.00000000000E+00 0. -1.
</event>
<event>
 8    1  0.2971508E-007  0.9118800E+02  0.7816164E-02  0.1184000E+00
        -11   -1    0    0    0    0  0.00000000000E+00  0.00000000000E+00  0.45593999997E+02  0.45594000000E+02  0.51100000000E-03 0.  1.
         11   -1    0    0    0    0 -0.00000000000E+00 -0.00000000000E+00 -0.45593999997E+02  0.45594000000E+02  0.51100000000E-03 0. -1.
         23    2    1    2    0    0 -0.44408920985E-15  0.00000000000E+00  0.00000000000E+00  0.91188000000E+02  0.91188000000E+02 0.  0.
    9900012    2    3    3    0    0  0.12106591188E+01  0.13167531218E+02  0.34364702499E+02  0.54367050097E+02  0.39999922306E+02 0.  0.
         12    1    3    3    0    0 -0.12106591188E+01 -0.13167531218E+02 -0.34364702499E+02  0.36820949903E+02  0.00000000000E+00 0. -1.
         11    1    4    4    0    0 -0.42336981696E+01  0.15235638268E+02  0.94249542352E+01  0.18408656557E+02  0.51100000000E-03 0. -1.
        -11    1    4    4    0    0 -0.32521783091E+01 -0.11004911100E+02  0.51740309679E+01  0.12587904066E+02  0.51100000000E-03 0.  1.
         12    1    4    4    0    0  0.86965355975E+01  0.89368040501E+01  0.19765717296E+02  0.23370489474E+02  0.00000000000E+00 0. -1.
</event>
<event>
 8    1  0.2971508E-007  0.9118800E+02  0.7816164E-02  0.1184000E+00
        -11   -1    0    0    0    0  0.00000000000E+00  0.00000000000E+00  0.45593999997E+02  0.45594000000E+02  0.51100000000E-03 0.  1.
         11   -1    0    0    0    0 -0.00000000000E+00 -0.00000000000E+00 -0.45593999997E+02  0.45594000000E+02  0.51100000000E-03 0. -1.
         23    2    1    2    0    0 -0.88817841970E-15 -0.17763568394E-14  0.00000000000E+00  0.91188000000E+02  0.91188000000E+02 0.  0.
    9900012    2    3    3    0    0 -0.79626109387E+01  0.98866442261E+01 -0.34563431729E+02  0.54367085836E+02  0.40000003780E+02 0.  0.
        -12    1    3    3    0    0  0.79626109387E+01 -0.98866442261E+01  0.34563431729E+02  0.36820914164E+02  0.00000000000E+00 0.  1.
         11    1    4    4    0    0 -0.52734023772E+01  0.11625957317E+01 -0.68895243542E+01  0.87536248238E+01  0.51100000000E-03 0. -1.
        -11    1    4    4    0    0  0.15564012034E+02  0.21406722583E+01 -0.18127721177E+02  0.23988230940E+02  0.51100000000E-03 0.  1.
        -12    1    4    4    0    0 -0.18253220595E+02  0.65833762360E+01 -0.95461861978E+01  0.21625230072E+02  0.00000000000E+00 0.  1.
</event>
<event>
 8    1  0.2971508E-007  0.9118800E+02  0.7816164E-02  0.1184000E+00
        -11   -1    0    0    0    0  0.00000000000E+00  0.00000000000E+00  0.45593999997E+02  0.45594000000E+02  0.51100000000E-03 0. -1.
         11   -1    0    0    0    0 -0.00000000000E+00 -0.00000000000E+00 -0.45593999997E+02  0.45594000000E+02  0.51100000000E-03 0.  1.
         23    2    1    2    0    0  0.00000000000E+00 -0.35527136788E-14  0.35527136788E-14  0.91188000000E+02  0.91188000000E+02 0.  0.
    9900012    2    3    3    0    0  0.17495182390E+02  0.17701891287E+02  0.27135591855E+02  0.54367099585E+02  0.40000035125E+02 0.  0.
        -12    1    3    3    0    0 -0.17495182390E+02 -0.17701891287E+02 -0.27135591855E+02  0.36820900415E+02  0.00000000000E+00 0.  1.
         11    1    4    4    0    0 -0.18907318805E+01  0.52556376479E+00  0.95173876100E+01  0.97176000893E+01  0.51100000000E-03 0. -1.
        -11    1    4    4    0    0 -0.49365049169E+01  0.15797346692E+02  0.87719974540E+01  0.18731609191E+02  0.51100000000E-03 0.  1.
         12    1    4    4    0    0  0.24322419187E+02  0.13789808300E+01  0.88462067913E+01  0.25917890305E+02  0.00000000000E+00 0. -1.
</event>
<event>
 8    1  0.2971508E-007  0.9118800E+02  0.7816164E-02  0.1184000E+00
        -11   -1    0    0    0    0  0.00000000000E+00  0.00000000000E+00  0.45593999997E+02  0.45594000000E+02  0.51100000000E-03 0.  1.
         11   -1    0    0    0    0 -0.00000000000E+00 -0.00000000000E+00 -0.45593999997E+02  0.45594000000E+02  0.51100000000E-03 0. -1.
         23    2    1    2    0    0  0.00000000000E+00  0.00000000000E+00  0.00000000000E+00  0.91188000000E+02  0.91188000000E+02 0.  0.
    9900012    2    3    3    0    0 -0.33980967986E+02  0.47380693840E+01 -0.13365032250E+02  0.54367087820E+02  0.40000008302E+02 0.  0.
        -12    1    3    3    0    0  0.33980967986E+02 -0.47380693840E+01  0.13365032250E+02  0.36820912180E+02  0.00000000000E+00 0.  1.
         11    1    4    4    0    0 -0.14853770852E+02 -0.38603460662E+01 -0.14116074173E+01  0.15411989360E+02  0.51100000000E-03 0. -1.
        -11    1    4    4    0    0 -0.20818305928E+02  0.10538767684E+02  0.32288741365E+01  0.23556169350E+02  0.51100000000E-03 0.  1.
        -12    1    4    4    0    0  0.16911087934E+01 -0.19403522338E+01 -0.15182298969E+02  0.15398929110E+02  0.00000000000E+00 0.  1.
</event>
<event>
 8    1  0.2971508E-007  0.9118800E+02  0.7816164E-02  0.1184000E+00
        -11   -1    0    0    0    0  0.00000000000E+00  0.00000000000E+00  0.45593999997E+02  0.45594000000E+02  0.51100000000E-03 0. -1.
         11   -1    0    0    0    0 -0.00000000000E+00 -0.00000000000E+00 -0.45593999997E+02  0.45594000000E+02  0.51100000000E-03 0.  1.
         23    2    1    2    0    0 -0.17763568394E-14  0.88817841970E-15  0.00000000000E+00  0.91188000000E+02  0.91188000000E+02 0.  0.
    9900012    2    3    3    0    0  0.12949606383E+02  0.60762287443E+01  0.33928837825E+02  0.54367097004E+02  0.40000029241E+02 0.  0.
        -12    1    3    3    0    0 -0.12949606383E+02 -0.60762287443E+01 -0.33928837825E+02  0.36820902996E+02  0.00000000000E+00 0.  1.
         11    1    4    4    0    0  0.18816553400E+02  0.20587010707E+01  0.53342984431E+01  0.19666104650E+02  0.51100000000E-03 0. -1.
        -11    1    4    4    0    0 -0.37697640018E+01  0.69287398623E+01  0.23758087834E+01  0.82379016955E+01  0.51100000000E-03 0.  1.
         12    1    4    4    0    0 -0.20971830154E+01 -0.29112121887E+01  0.26218730599E+02  0.26463090659E+02  0.00000000000E+00 0. -1.
</event>
<event>
 8    1  0.2971508E-007  0.9118800E+02  0.7816164E-02  0.1184000E+00
        -11   -1    0    0    0    0  0.00000000000E+00  0.00000000000E+00  0.45593999997E+02  0.45594000000E+02  0.51100000000E-03 0. -1.
         11   -1    0    0    0    0 -0.00000000000E+00 -0.00000000000E+00 -0.45593999997E+02  0.45594000000E+02  0.51100000000E-03 0.  1.
         23    2    1    2    0    0  0.00000000000E+00  0.00000000000E+00  0.00000000000E+00  0.91188000000E+02  0.91188000000E+02 0.  0.
    9900012    2    3    3    0    0 -0.26641429249E+02  0.31867989944E+01 -0.25216291310E+02  0.54367044177E+02  0.39999908811E+02 0.  0.
         12    1    3    3    0    0  0.26641429249E+02 -0.31867989944E+01  0.25216291310E+02  0.36820955823E+02  0.00000000000E+00 0. -1.
         11    1    4    4    0    0  0.52062430875E+01  0.12352789771E+02 -0.13581231096E+02  0.19082615663E+02  0.51100000000E-03 0. -1.
        -11    1    4    4    0    0 -0.35385145491E+01 -0.99529317617E+00 -0.20874389183E+00  0.36817479536E+01  0.51100000000E-03 0.  1.
        -12    1    4    4    0    0 -0.28309157788E+02 -0.81706976001E+01 -0.11426316322E+02  0.31602680561E+02  0.00000000000E+00 0.  1.
</event>
<event>
 8    1  0.2971508E-007  0.9118800E+02  0.7816164E-02  0.1184000E+00
        -11   -1    0    0    0    0  0.00000000000E+00  0.00000000000E+00  0.45593999997E+02  0.45594000000E+02  0.51100000000E-03 0. -1.
         11   -1    0    0    0    0 -0.00000000000E+00 -0.00000000000E+00 -0.45593999997E+02  0.45594000000E+02  0.51100000000E-03 0.  1.
         23    2    1    2    0    0  0.00000000000E+00  0.00000000000E+00  0.00000000000E+00  0.91188000000E+02  0.91188000000E+02 0.  0.
    9900012    2    3    3    0    0 -0.21666913022E+02 -0.16731157361E+02 -0.24625010001E+02  0.54367111037E+02  0.40000061230E+02 0.  0.
         12    1    3    3    0    0  0.21666913022E+02  0.16731157361E+02  0.24625010001E+02  0.36820888963E+02  0.00000000000E+00 0. -1.
         11    1    4    4    0    0 -0.85881801540E+01 -0.60016027120E+01 -0.14585535190E+02  0.17958672293E+02  0.51100000000E-03 0.  1.
        -11    1    4    4    0    0 -0.30273016114E+01  0.35718062899E+01  0.92557255135E+01  0.10372599012E+02  0.51100000000E-03 0. -1.
         12    1    4    4    0    0 -0.10051431256E+02 -0.14301360939E+02 -0.19295200324E+02  0.26035839732E+02  0.00000000000E+00 0. -1.
</event>
<event>
 8    1  0.2971508E-007  0.9118800E+02  0.7816164E-02  0.1184000E+00
        -11   -1    0    0    0    0  0.00000000000E+00  0.00000000000E+00  0.45593999997E+02  0.45594000000E+02  0.51100000000E-03 0.  1.
         11   -1    0    0    0    0 -0.00000000000E+00 -0.00000000000E+00 -0.45593999997E+02  0.45594000000E+02  0.51100000000E-03 0. -1.
         23    2    1    2    0    0  0.17763568394E-14  0.71054273576E-14  0.00000000000E+00  0.91188000000E+02  0.91188000000E+02 0.  0.
    9900012    2    3    3    0    0  0.86866028931E+01  0.30935967258E+02  0.17980225896E+02  0.54367086605E+02  0.40000005532E+02 0.  0.
         12    1    3    3    0    0 -0.86866028931E+01 -0.30935967258E+02 -0.17980225896E+02  0.36820913395E+02  0.00000000000E+00 0. -1.
         11    1    4    4    0    0 -0.59691681910E+00  0.22020191131E+02  0.71871539373E+01  0.23171109363E+02  0.51100000000E-03 0. -1.
        -11    1    4    4    0    0 -0.19274494279E+01  0.13508265926E+02 -0.17506047615E+01  0.13756922873E+02  0.51100000000E-03 0.  1.
        -12    1    4    4    0    0  0.11210969140E+02 -0.45924897994E+01  0.12543676720E+02  0.17439054369E+02  0.00000000000E+00 0.  1.
</event>
<event>
 8    1  0.2971508E-007  0.9118800E+02  0.7816164E-02  0.1184000E+00
        -11   -1    0    0    0    0  0.00000000000E+00  0.00000000000E+00  0.45593999997E+02  0.45594000000E+02  0.51100000000E-03 0. -1.
         11   -1    0    0    0    0 -0.00000000000E+00 -0.00000000000E+00 -0.45593999997E+02  0.45594000000E+02  0.51100000000E-03 0.  1.
         23    2    1    2    0    0 -0.17763568394E-14  0.00000000000E+00 -0.35527136788E-14  0.91188000000E+02  0.91188000000E+02 0.  0.
    9900012    2    3    3    0    0  0.12793742252E+02 -0.14964896547E+02  0.31115115952E+02  0.54367103621E+02  0.40000044324E+02 0.  0.
        -12    1    3    3    0    0 -0.12793742252E+02  0.14964896547E+02 -0.31115115952E+02  0.36820896379E+02  0.00000000000E+00 0.  1.
         11    1    4    4    0    0  0.78657185109E+01 -0.93289193485E+01  0.66769724456E+01  0.13909716935E+02  0.51100000000E-03 0. -1.
        -11    1    4    4    0    0  0.51897372480E+01  0.10189215096E+02  0.11168353580E+00  0.11435294070E+02  0.51100000000E-03 0.  1.
        -12    1    4    4    0    0 -0.26171350725E+00 -0.15825192295E+02  0.24326459971E+02  0.29022092616E+02  0.00000000000E+00 0.  1.
</event>
<event>
 8    1  0.2971508E-007  0.9118800E+02  0.7816164E-02  0.1184000E+00
        -11   -1    0    0    0    0  0.00000000000E+00  0.00000000000E+00  0.45593999997E+02  0.45594000000E+02  0.51100000000E-03 0. -1.
         11   -1    0    0    0    0 -0.00000000000E+00 -0.00000000000E+00 -0.45593999997E+02  0.45594000000E+02  0.51100000000E-03 0.  1.
         23    2    1    2    0    0  0.17763568394E-14  0.00000000000E+00  0.00000000000E+00  0.91188000000E+02  0.91188000000E+02 0.  0.
    9900012    2    3    3    0    0  0.11210457601E+02  0.29212348050E+02  0.19409888284E+02  0.54367090160E+02  0.40000013638E+02 0.  0.
        -12    1    3    3    0    0 -0.11210457601E+02 -0.29212348050E+02 -0.19409888284E+02  0.36820909840E+02  0.00000000000E+00 0.  1.
         11    1    4    4    0    0 -0.12174371888E+02 -0.12921809824E+01  0.42617872806E+01  0.12963328802E+02  0.51100000000E-03 0.  1.
        -11    1    4    4    0    0  0.59835517011E+01  0.91850792907E+01  0.52903697689E+01  0.12171958967E+02  0.51100000000E-03 0. -1.
        -12    1    4    4    0    0  0.17401277788E+02  0.21319449742E+02  0.98577312348E+01  0.29231802391E+02  0.00000000000E+00 0.  1.
</event>
<event>
 8    1  0.2971508E-007  0.9118800E+02  0.7816164E-02  0.1184000E+00
        -11   -1    0    0    0    0  0.00000000000E+00  0.00000000000E+00  0.45593999997E+02  0.45594000000E+02  0.51100000000E-03 0. -1.
         11   -1    0    0    0    0 -0.00000000000E+00 -0.00000000000E+00 -0.45593999997E+02  0.45594000000E+02  0.51100000000E-03 0.  1.
         23    2    1    2    0    0  0.00000000000E+00 -0.88817841970E-15 -0.22204460493E-15  0.91188000000E+02  0.91188000000E+02 0.  0.
    9900012    2    3    3    0    0 -0.35902285177E+02  0.79939569413E+01  0.17014643627E+01  0.54367185106E+02  0.40000230084E+02 0.  0.
        -12    1    3    3    0    0  0.35902285177E+02 -0.79939569413E+01 -0.17014643627E+01  0.36820814894E+02  0.00000000000E+00 0.  1.
         11    1    4    4    0    0 -0.91791801517E+01  0.63358600249E+00 -0.89383136202E+01  0.12827791319E+02  0.51100000000E-03 0. -1.
        -11    1    4    4    0    0  0.24963305717E+01  0.79543285301E+01  0.89999839890E+01  0.12267955035E+02  0.51100000000E-03 0.  1.
         12    1    4    4    0    0 -0.29219435597E+02 -0.59395759137E+00  0.16397939940E+01  0.29271438751E+02  0.00000000000E+00 0. -1.
</event>
<event>
 8    1  0.2971508E-007  0.9118800E+02  0.7816164E-02  0.1184000E+00
        -11   -1    0    0    0    0  0.00000000000E+00  0.00000000000E+00  0.45593999997E+02  0.45594000000E+02  0.51100000000E-03 0.  1.
         11   -1    0    0    0    0 -0.00000000000E+00 -0.00000000000E+00 -0.45593999997E+02  0.45594000000E+02  0.51100000000E-03 0. -1.
         23    2    1    2    0    0  0.00000000000E+00  0.00000000000E+00 -0.35527136788E-14  0.91188000000E+02  0.91188000000E+02 0.  0.
    9900012    2    3    3    0    0  0.25072441225E+02  0.15970497046E+02  0.21727737119E+02  0.54367100429E+02  0.40000037049E+02 0.  0.
         12    1    3    3    0    0 -0.25072441225E+02 -0.15970497046E+02 -0.21727737119E+02  0.36820899571E+02  0.00000000000E+00 0. -1.
         11    1    4    4    0    0  0.17033533790E+02  0.15927167827E+01 -0.38805042245E+01  0.17542415268E+02  0.51100000000E-03 0. -1.
        -11    1    4    4    0    0  0.67827168089E+01 -0.34144104802E+01  0.12737673094E+02  0.14829422185E+02  0.51100000000E-03 0.  1.
        -12    1    4    4    0    0  0.12561906262E+01  0.17792190743E+02  0.12870568249E+02  0.21995262976E+02  0.00000000000E+00 0.  1.
</event>
<event>
 8    1  0.2971508E-007  0.9118800E+02  0.7816164E-02  0.1184000E+00
        -11   -1    0    0    0    0  0.00000000000E+00  0.00000000000E+00  0.45593999997E+02  0.45594000000E+02  0.51100000000E-03 0.  1.
         11   -1    0    0    0    0 -0.00000000000E+00 -0.00000000000E+00 -0.45593999997E+02  0.45594000000E+02  0.51100000000E-03 0. -1.
         23    2    1    2    0    0  0.35527136788E-14  0.00000000000E+00 -0.88817841970E-15  0.91188000000E+02  0.91188000000E+02 0.  0.
    9900012    2    3    3    0    0  0.28489107404E+02  0.22857062294E+02 -0.46588292435E+01  0.54367092524E+02  0.40000019027E+02 0.  0.
        -12    1    3    3    0    0 -0.28489107404E+02 -0.22857062294E+02  0.46588292435E+01  0.36820907476E+02  0.00000000000E+00 0.  1.
         11    1    4    4    0    0  0.11023956017E+02  0.24453775108E+02 -0.16442264476E+02  0.31462084875E+02  0.51100000000E-03 0. -1.
        -11    1    4    4    0    0  0.75242770726E+01  0.25627737165E+01  0.16611716992E+01  0.81204708154E+01  0.51100000000E-03 0.  1.
         12    1    4    4    0    0  0.99408743146E+01 -0.41594865304E+01  0.10122263534E+02  0.14784536834E+02  0.00000000000E+00 0. -1.
</event>
<event>
 8    1  0.2971508E-007  0.9118800E+02  0.7816164E-02  0.1184000E+00
        -11   -1    0    0    0    0  0.00000000000E+00  0.00000000000E+00  0.45593999997E+02  0.45594000000E+02  0.51100000000E-03 0. -1.
         11   -1    0    0    0    0 -0.00000000000E+00 -0.00000000000E+00 -0.45593999997E+02  0.45594000000E+02  0.51100000000E-03 0.  1.
         23    2    1    2    0    0  0.00000000000E+00  0.17763568394E-14  0.00000000000E+00  0.91188000000E+02  0.91188000000E+02 0.  0.
    9900012    2    3    3    0    0 -0.27913510538E+02  0.10394553724E+02  0.21646481589E+02  0.54367068686E+02  0.39999964683E+02 0.  0.
        -12    1    3    3    0    0  0.27913510538E+02 -0.10394553724E+02 -0.21646481589E+02  0.36820931314E+02  0.00000000000E+00 0.  1.
         11    1    4    4    0    0  0.11140079376E+01 -0.43466076441E+01  0.52275382401E+01  0.68892066314E+01  0.51100000000E-03 0. -1.
        -11    1    4    4    0    0  0.50167859626E+00 -0.32841714377E+00 -0.69126677484E+01  0.69386248562E+01  0.51100000000E-03 0.  1.
         12    1    4    4    0    0 -0.29529197072E+02  0.15069578512E+02  0.23331611097E+02  0.40539237198E+02  0.00000000000E+00 0. -1.
</event>
<event>
 8    1  0.2971508E-007  0.9118800E+02  0.7816164E-02  0.1184000E+00
        -11   -1    0    0    0    0  0.00000000000E+00  0.00000000000E+00  0.45593999997E+02  0.45594000000E+02  0.51100000000E-03 0.  1.
         11   -1    0    0    0    0 -0.00000000000E+00 -0.00000000000E+00 -0.45593999997E+02  0.45594000000E+02  0.51100000000E-03 0. -1.
         23    2    1    2    0    0  0.88817841970E-15  0.00000000000E+00 -0.71054273576E-14  0.91188000000E+02  0.91188000000E+02 0.  0.
    9900012    2    3    3    0    0  0.53398875104E+01  0.12103750536E+02 -0.34362264868E+02  0.54367076295E+02  0.39999982030E+02 0.  0.
        -12    1    3    3    0    0 -0.53398875104E+01 -0.12103750536E+02  0.34362264868E+02  0.36820923705E+02  0.00000000000E+00 0.  1.
         11    1    4    4    0    0  0.25265439320E+01  0.19634929627E+01  0.40557784619E+01  0.51660495592E+01  0.51100000000E-03 0. -1.
        -11    1    4    4    0    0 -0.49119526516E+01  0.16732899376E+02 -0.12767500550E+02  0.21613104149E+02  0.51100000000E-03 0.  1.
        -12    1    4    4    0    0  0.77252962301E+01 -0.65926418031E+01 -0.25650542779E+02  0.27587922587E+02  0.00000000000E+00 0.  1.
</event>
<event>
 8    1  0.2971508E-007  0.9118800E+02  0.7816164E-02  0.1184000E+00
        -11   -1    0    0    0    0  0.00000000000E+00  0.00000000000E+00  0.45593999997E+02  0.45594000000E+02  0.51100000000E-03 0.  1.
         11   -1    0    0    0    0 -0.00000000000E+00 -0.00000000000E+00 -0.45593999997E+02  0.45594000000E+02  0.51100000000E-03 0. -1.
         23    2    1    2    0    0  0.11102230246E-14 -0.17763568394E-14  0.00000000000E+00  0.91188000000E+02  0.91188000000E+02 0.  0.
    9900012    2    3    3    0    0 -0.17465060058E+01  0.12531582683E+02  0.34578757599E+02  0.54367064041E+02  0.39999954095E+02 0.  0.
         12    1    3    3    0    0  0.17465060058E+01 -0.12531582683E+02 -0.34578757599E+02  0.36820935959E+02  0.00000000000E+00 0. -1.
         11    1    4    4    0    0  0.12671603947E+02  0.15431726236E+02  0.33752586663E+02  0.39216639681E+02  0.51100000000E-03 0.  1.
        -11    1    4    4    0    0 -0.11252833392E+02 -0.34123862988E+01 -0.26947967303E+00  0.11761941131E+02  0.51100000000E-03 0. -1.
        -12    1    4    4    0    0 -0.31652765610E+01  0.51224274657E+00  0.10956506093E+01  0.33884832295E+01  0.00000000000E+00 0.  1.
</event>
<event>
 8    1  0.2971508E-007  0.9118800E+02  0.7816164E-02  0.1184000E+00
        -11   -1    0    0    0    0  0.00000000000E+00  0.00000000000E+00  0.45593999997E+02  0.45594000000E+02  0.51100000000E-03 0. -1.
         11   -1    0    0    0    0 -0.00000000000E+00 -0.00000000000E+00 -0.45593999997E+02  0.45594000000E+02  0.51100000000E-03 0.  1.
         23    2    1    2    0    0  0.00000000000E+00  0.00000000000E+00  0.00000000000E+00  0.91188000000E+02  0.91188000000E+02 0.  0.
    9900012    2    3    3    0    0 -0.18154034882E+02 -0.31306647830E+02 -0.67900514055E+01  0.54367082318E+02  0.39999995760E+02 0.  0.
        -12    1    3    3    0    0  0.18154034882E+02  0.31306647830E+02  0.67900514055E+01  0.36820917682E+02  0.00000000000E+00 0.  1.
         11    1    4    4    0    0 -0.63919702029E+01  0.19828189903E+01  0.43520767407E+01  0.79830712412E+01  0.51100000000E-03 0. -1.
        -11    1    4    4    0    0  0.91118213179E+01 -0.78404097713E+01 -0.42931459289E+01  0.12764341555E+02  0.51100000000E-03 0.  1.
        -12    1    4    4    0    0 -0.20873885997E+02 -0.25449057049E+02 -0.68489822174E+01  0.33619669521E+02  0.00000000000E+00 0.  1.
</event>
<event>
 8    1  0.2971508E-007  0.9118800E+02  0.7816164E-02  0.1184000E+00
        -11   -1    0    0    0    0  0.00000000000E+00  0.00000000000E+00  0.45593999997E+02  0.45594000000E+02  0.51100000000E-03 0.  1.
         11   -1    0    0    0    0 -0.00000000000E+00 -0.00000000000E+00 -0.45593999997E+02  0.45594000000E+02  0.51100000000E-03 0. -1.
         23    2    1    2    0    0 -0.13322676296E-14  0.35527136788E-14  0.00000000000E+00  0.91188000000E+02  0.91188000000E+02 0.  0.
    9900012    2    3    3    0    0 -0.33952059453E+01  0.16003044679E+02  0.32987183273E+02  0.54367093945E+02  0.40000022267E+02 0.  0.
         12    1    3    3    0    0  0.33952059453E+01 -0.16003044679E+02 -0.32987183273E+02  0.36820906055E+02  0.00000000000E+00 0. -1.
         11    1    4    4    0    0 -0.10927330371E+01 -0.53151342795E+01  0.15240299249E+02  0.16177497933E+02  0.51100000000E-03 0. -1.
        -11    1    4    4    0    0  0.94217279021E+01  0.47796074500E+01  0.14056045467E+02  0.17583686146E+02  0.51100000000E-03 0.  1.
        -12    1    4    4    0    0 -0.11724200810E+02  0.16538571509E+02  0.36908385562E+01  0.20605909867E+02  0.00000000000E+00 0.  1.
</event>
<event>
 8    1  0.2971508E-007  0.9118800E+02  0.7816164E-02  0.1184000E+00
        -11   -1    0    0    0    0  0.00000000000E+00  0.00000000000E+00  0.45593999997E+02  0.45594000000E+02  0.51100000000E-03 0.  1.
         11   -1    0    0    0    0 -0.00000000000E+00 -0.00000000000E+00 -0.45593999997E+02  0.45594000000E+02  0.51100000000E-03 0. -1.
         23    2    1    2    0    0  0.00000000000E+00  0.00000000000E+00  0.00000000000E+00  0.91188000000E+02  0.91188000000E+02 0.  0.
    9900012    2    3    3    0    0 -0.32126428069E+01  0.24762980981E+01  0.36596820485E+02  0.54367076659E+02  0.39999982859E+02 0.  0.
         12    1    3    3    0    0  0.32126428069E+01 -0.24762980981E+01 -0.36596820485E+02  0.36820923341E+02  0.00000000000E+00 0. -1.
         11    1    4    4    0    0 -0.60278303193E+01  0.32506193214E+01 -0.52195549371E+01  0.86107501609E+01  0.51100000000E-03 0. -1.
        -11    1    4    4    0    0 -0.52048056429E+01 -0.33842693472E+01  0.32909311411E+02  0.33489790364E+02  0.51100000000E-03 0.  1.
         12    1    4    4    0    0  0.80199931554E+01  0.26099481238E+01  0.89070640110E+01  0.12266536134E+02  0.00000000000E+00 0. -1.
</event>
<event>
 8    1  0.2971508E-007  0.9118800E+02  0.7816164E-02  0.1184000E+00
        -11   -1    0    0    0    0  0.00000000000E+00  0.00000000000E+00  0.45593999997E+02  0.45594000000E+02  0.51100000000E-03 0. -1.
         11   -1    0    0    0    0 -0.00000000000E+00 -0.00000000000E+00 -0.45593999997E+02  0.45594000000E+02  0.51100000000E-03 0.  1.
         23    2    1    2    0    0 -0.35527136788E-14 -0.35527136788E-14  0.35527136788E-14  0.91188000000E+02  0.91188000000E+02 0.  0.
    9900012    2    3    3    0    0  0.80471066784E+01  0.17881282014E+02 -0.31165418732E+02  0.54367088861E+02  0.40000010677E+02 0.  0.
         12    1    3    3    0    0 -0.80471066784E+01 -0.17881282014E+02  0.31165418732E+02  0.36820911139E+02  0.00000000000E+00 0. -1.
         11    1    4    4    0    0  0.18047956546E+02  0.14825482867E+02 -0.41654721664E+01  0.23724983379E+02  0.51100000000E-03 0. -1.
        -11    1    4    4    0    0 -0.39890700170E+01  0.63657626729E+01 -0.12182230716E+02  0.14312314959E+02  0.51100000000E-03 0.  1.
         12    1    4    4    0    0 -0.60117798508E+01 -0.33099635257E+01 -0.14817715850E+02  0.16329790523E+02  0.00000000000E+00 0. -1.
</event>
<event>
 8    1  0.2971508E-007  0.9118800E+02  0.7816164E-02  0.1184000E+00
        -11   -1    0    0    0    0  0.00000000000E+00  0.00000000000E+00  0.45593999997E+02  0.45594000000E+02  0.51100000000E-03 0. -1.
         11   -1    0    0    0    0 -0.00000000000E+00 -0.00000000000E+00 -0.45593999997E+02  0.45594000000E+02  0.51100000000E-03 0.  1.
         23    2    1    2    0    0 -0.35527136788E-14  0.00000000000E+00  0.35527136788E-14  0.91188000000E+02  0.91188000000E+02 0.  0.
    9900012    2    3    3    0    0 -0.29907265780E+02  0.48315043393E+01  0.20928262329E+02  0.54367080066E+02  0.39999990627E+02 0.  0.
        -12    1    3    3    0    0  0.29907265780E+02 -0.48315043393E+01 -0.20928262329E+02  0.36820919934E+02  0.00000000000E+00 0.  1.
         11    1    4    4    0    0 -0.63582424253E+01 -0.85811775919E+01  0.10254941957E+02  0.14806339534E+02  0.51100000000E-03 0. -1.
        -11    1    4    4    0    0 -0.14239618477E+02 -0.41630311580E+01  0.12752592395E+02  0.19563388660E+02  0.51100000000E-03 0.  1.
        -12    1    4    4    0    0 -0.93094048776E+01  0.17575713089E+02 -0.20792720222E+01  0.19997351872E+02  0.00000000000E+00 0.  1.
</event>
<event>
 8    1  0.2971508E-007  0.9118800E+02  0.7816164E-02  0.1184000E+00
        -11   -1    0    0    0    0  0.00000000000E+00  0.00000000000E+00  0.45593999997E+02  0.45594000000E+02  0.51100000000E-03 0.  1.
         11   -1    0    0    0    0 -0.00000000000E+00 -0.00000000000E+00 -0.45593999997E+02  0.45594000000E+02  0.51100000000E-03 0. -1.
         23    2    1    2    0    0 -0.88817841970E-15  0.00000000000E+00  0.00000000000E+00  0.91188000000E+02  0.91188000000E+02 0.  0.
    9900012    2    3    3    0    0 -0.50768504226E+01  0.84951979194E+01 -0.35466007461E+02  0.54367075472E+02  0.39999980153E+02 0.  0.
        -12    1    3    3    0    0  0.50768504226E+01 -0.84951979194E+01  0.35466007461E+02  0.36820924528E+02  0.00000000000E+00 0.  1.
         11    1    4    4    0    0  0.40594745823E+01  0.13380695737E+02 -0.23553114032E+02  0.27391084921E+02  0.51100000000E-03 0. -1.
        -11    1    4    4    0    0  0.10771354955E+01 -0.90283508298E+01 -0.13039844308E+02  0.15896819789E+02  0.51100000000E-03 0.  1.
         12    1    4    4    0    0 -0.10213460500E+02  0.41428530122E+01  0.11269508793E+01  0.11079170761E+02  0.00000000000E+00 0. -1.
</event>
<event>
 8    1  0.2971508E-007  0.9118800E+02  0.7816164E-02  0.1184000E+00
        -11   -1    0    0    0    0  0.00000000000E+00  0.00000000000E+00  0.45593999997E+02  0.45594000000E+02  0.51100000000E-03 0.  1.
         11   -1    0    0    0    0 -0.00000000000E+00 -0.00000000000E+00 -0.45593999997E+02  0.45594000000E+02  0.51100000000E-03 0. -1.
         23    2    1    2    0    0  0.00000000000E+00 -0.35527136788E-14  0.00000000000E+00  0.91188000000E+02  0.91188000000E+02 0.  0.
    9900012    2    3    3    0    0  0.26971714366E+02  0.20416653904E+02  0.14541911838E+02  0.54367077518E+02  0.39999984818E+02 0.  0.
         12    1    3    3    0    0 -0.26971714366E+02 -0.20416653904E+02 -0.14541911838E+02  0.36820922482E+02  0.00000000000E+00 0. -1.
         11    1    4    4    0    0  0.16929635644E+02 -0.35634449574E+00 -0.70262331127E+01  0.18333234751E+02  0.51100000000E-03 0. -1.
        -11    1    4    4    0    0  0.63940999700E+01  0.22198360387E+02  0.12751893800E+02  0.26386786732E+02  0.51100000000E-03 0.  1.
         12    1    4    4    0    0  0.36479787523E+01 -0.14253619876E+01  0.88162511513E+01  0.96470560347E+01  0.00000000000E+00 0. -1.
</event>
<event>
 8    1  0.2971508E-007  0.9118800E+02  0.7816164E-02  0.1184000E+00
        -11   -1    0    0    0    0  0.00000000000E+00  0.00000000000E+00  0.45593999997E+02  0.45594000000E+02  0.51100000000E-03 0.  1.
         11   -1    0    0    0    0 -0.00000000000E+00 -0.00000000000E+00 -0.45593999997E+02  0.45594000000E+02  0.51100000000E-03 0. -1.
         23    2    1    2    0    0  0.00000000000E+00  0.00000000000E+00  0.13322676296E-14  0.91188000000E+02  0.91188000000E+02 0.  0.
    9900012    2    3    3    0    0  0.20344283122E+02 -0.30662242024E+02 -0.13095395935E+01  0.54367111423E+02  0.40000062110E+02 0.  0.
        -12    1    3    3    0    0 -0.20344283122E+02  0.30662242024E+02  0.13095395935E+01  0.36820888577E+02  0.00000000000E+00 0.  1.
         11    1    4    4    0    0  0.67504289153E+01 -0.12686200533E+02  0.12948767956E+02  0.19343695778E+02  0.51100000000E-03 0. -1.
        -11    1    4    4    0    0  0.12784397220E+01 -0.55561398129E+01  0.59881428028E+01  0.82681891749E+01  0.51100000000E-03 0.  1.
        -12    1    4    4    0    0  0.12315414485E+02 -0.12419901677E+02 -0.20246450352E+02  0.26755226470E+02  0.00000000000E+00 0.  1.
</event>
<event>
 8    1  0.2971508E-007  0.9118800E+02  0.7816164E-02  0.1184000E+00
        -11   -1    0    0    0    0  0.00000000000E+00  0.00000000000E+00  0.45593999997E+02  0.45594000000E+02  0.51100000000E-03 0.  1.
         11   -1    0    0    0    0 -0.00000000000E+00 -0.00000000000E+00 -0.45593999997E+02  0.45594000000E+02  0.51100000000E-03 0. -1.
         23    2    1    2    0    0  0.00000000000E+00  0.00000000000E+00  0.00000000000E+00  0.91188000000E+02  0.91188000000E+02 0.  0.
    9900012    2    3    3    0    0  0.19903261570E+02  0.18038818343E+02  0.25184124420E+02  0.54367096818E+02  0.40000028816E+02 0.  0.
         12    1    3    3    0    0 -0.19903261570E+02 -0.18038818343E+02 -0.25184124420E+02  0.36820903182E+02  0.00000000000E+00 0. -1.
         11    1    4    4    0    0  0.13663540136E+02 -0.18797355285E+01  0.10499937065E+02  0.17334197799E+02  0.51100000000E-03 0. -1.
        -11    1    4    4    0    0  0.11233163801E+02  0.15362450683E+02  0.20603368940E+02  0.28047953079E+02  0.51100000000E-03 0.  1.
        -12    1    4    4    0    0 -0.49934423666E+01  0.45561031883E+01 -0.59191815844E+01  0.89849459408E+01  0.00000000000E+00 0.  1.
</event>
<event>
 8    1  0.2971508E-007  0.9118800E+02  0.7816164E-02  0.1184000E+00
        -11   -1    0    0    0    0  0.00000000000E+00  0.00000000000E+00  0.45593999997E+02  0.45594000000E+02  0.51100000000E-03 0.  1.
         11   -1    0    0    0    0 -0.00000000000E+00 -0.00000000000E+00 -0.45593999997E+02  0.45594000000E+02  0.51100000000E-03 0. -1.
         23    2    1    2    0    0  0.00000000000E+00  0.00000000000E+00  0.00000000000E+00  0.91188000000E+02  0.91188000000E+02 0.  0.
    9900012    2    3    3    0    0  0.19650239351E+02 -0.19434533169E+02  0.24329954877E+02  0.54367086237E+02  0.40000004695E+02 0.  0.
         12    1    3    3    0    0 -0.19650239351E+02  0.19434533169E+02 -0.24329954877E+02  0.36820913763E+02  0.00000000000E+00 0. -1.
         11    1    4    4    0    0  0.14340257277E+02  0.95746264704E+01  0.16322591331E+02  0.23743281973E+02  0.51100000000E-03 0.  1.
        -11    1    4    4    0    0  0.11075781876E+01 -0.31652681826E+01  0.12855747314E+01  0.35914279557E+01  0.51100000000E-03 0. -1.
        -12    1    4    4    0    0  0.42024038866E+01 -0.25843891456E+02  0.67217888139E+01  0.27032376309E+02  0.00000000000E+00 0.  1.
</event>
<event>
 8    1  0.2971508E-007  0.9118800E+02  0.7816164E-02  0.1184000E+00
        -11   -1    0    0    0    0  0.00000000000E+00  0.00000000000E+00  0.45593999997E+02  0.45594000000E+02  0.51100000000E-03 0. -1.
         11   -1    0    0    0    0 -0.00000000000E+00 -0.00000000000E+00 -0.45593999997E+02  0.45594000000E+02  0.51100000000E-03 0.  1.
         23    2    1    2    0    0  0.00000000000E+00  0.88817841970E-15 -0.35527136788E-14  0.91188000000E+02  0.91188000000E+02 0.  0.
    9900012    2    3    3    0    0 -0.34899975525E+02 -0.42657651856E+01  0.10935037423E+02  0.54367080841E+02  0.39999992393E+02 0.  0.
        -12    1    3    3    0    0  0.34899975525E+02  0.42657651856E+01 -0.10935037423E+02  0.36820919159E+02  0.00000000000E+00 0.  1.
         11    1    4    4    0    0 -0.15332969856E+02 -0.12586959715E+00  0.17589510068E+02  0.23334666752E+02  0.51100000000E-03 0. -1.
        -11    1    4    4    0    0 -0.94916207734E+01  0.94205542982E+01 -0.37690874850E+01  0.13894017739E+02  0.51100000000E-03 0.  1.
        -12    1    4    4    0    0 -0.10075384896E+02 -0.13560449887E+02 -0.28853851601E+01  0.17138396350E+02  0.00000000000E+00 0.  1.
</event>
<event>
 8    1  0.2971508E-007  0.9118800E+02  0.7816164E-02  0.1184000E+00
        -11   -1    0    0    0    0  0.00000000000E+00  0.00000000000E+00  0.45593999997E+02  0.45594000000E+02  0.51100000000E-03 0.  1.
         11   -1    0    0    0    0 -0.00000000000E+00 -0.00000000000E+00 -0.45593999997E+02  0.45594000000E+02  0.51100000000E-03 0. -1.
         23    2    1    2    0    0  0.00000000000E+00 -0.35527136788E-14  0.17763568394E-14  0.91188000000E+02  0.91188000000E+02 0.  0.
    9900012    2    3    3    0    0 -0.18176542404E+02 -0.28697838999E+02  0.14206605997E+02  0.54367077810E+02  0.39999985484E+02 0.  0.
         12    1    3    3    0    0  0.18176542404E+02  0.28697838999E+02 -0.14206605997E+02  0.36820922190E+02  0.00000000000E+00 0. -1.
         11    1    4    4    0    0 -0.83464975735E+01 -0.35541765253E+02  0.90807224267E+01  0.37621012999E+02  0.51100000000E-03 0. -1.
        -11    1    4    4    0    0 -0.25346737772E+01  0.33773766047E+01  0.72537935444E+01  0.83933762535E+01  0.51100000000E-03 0.  1.
        -12    1    4    4    0    0 -0.72953710534E+01  0.34665496493E+01 -0.21279099743E+01  0.83526885574E+01  0.00000000000E+00 0.  1.
</event>
<event>
 8    1  0.2971508E-007  0.9118800E+02  0.7816164E-02  0.1184000E+00
        -11   -1    0    0    0    0  0.00000000000E+00  0.00000000000E+00  0.45593999997E+02  0.45594000000E+02  0.51100000000E-03 0.  1.
         11   -1    0    0    0    0 -0.00000000000E+00 -0.00000000000E+00 -0.45593999997E+02  0.45594000000E+02  0.51100000000E-03 0. -1.
         23    2    1    2    0    0  0.00000000000E+00 -0.10658141036E-13  0.35527136788E-14  0.91188000000E+02  0.91188000000E+02 0.  0.
    9900012    2    3    3    0    0 -0.51178449735E+00  0.22004287836E+02 -0.29518244831E+02  0.54367117549E+02  0.40000076077E+02 0.  0.
        -12    1    3    3    0    0  0.51178449735E+00 -0.22004287836E+02  0.29518244831E+02  0.36820882451E+02  0.00000000000E+00 0.  1.
         11    1    4    4    0    0  0.36405302957E+01  0.40915085094E+01 -0.36749379762E+01  0.65953826353E+01  0.51100000000E-03 0. -1.
        -11    1    4    4    0    0 -0.19834513057E+01  0.27865687102E+02 -0.25103927497E+02  0.37558458072E+02  0.51100000000E-03 0.  1.
        -12    1    4    4    0    0 -0.21688634873E+01 -0.99529077753E+01 -0.73937935794E+00  0.10213276842E+02  0.00000000000E+00 0.  1.
</event>
<event>
 8    1  0.2971508E-007  0.9118800E+02  0.7816164E-02  0.1184000E+00
        -11   -1    0    0    0    0  0.00000000000E+00  0.00000000000E+00  0.45593999997E+02  0.45594000000E+02  0.51100000000E-03 0.  1.
         11   -1    0    0    0    0 -0.00000000000E+00 -0.00000000000E+00 -0.45593999997E+02  0.45594000000E+02  0.51100000000E-03 0. -1.
         23    2    1    2    0    0 -0.35527136788E-14  0.00000000000E+00  0.88817841970E-15  0.91188000000E+02  0.91188000000E+02 0.  0.
    9900012    2    3    3    0    0 -0.26466416622E+02 -0.25244767169E+02  0.42438715344E+01  0.54367083066E+02  0.39999997466E+02 0.  0.
        -12    1    3    3    0    0  0.26466416622E+02  0.25244767169E+02 -0.42438715344E+01  0.36820916934E+02  0.00000000000E+00 0.  1.
         11    1    4    4    0    0  0.12405584396E+00  0.94261817893E-01 -0.63181612078E+01  0.63200819972E+01  0.51100000000E-03 0. -1.
        -11    1    4    4    0    0 -0.65663301481E+01 -0.15226250401E+02 -0.84778388203E+01  0.18623349436E+02  0.51100000000E-03 0.  1.
        -12    1    4    4    0    0 -0.20024142318E+02 -0.10112778585E+02  0.19039871562E+02  0.29423651633E+02  0.00000000000E+00 0.  1.
</event>
<event>
 8    1  0.2971508E-007  0.9118800E+02  0.7816164E-02  0.1184000E+00
        -11   -1    0    0    0    0  0.00000000000E+00  0.00000000000E+00  0.45593999997E+02  0.45594000000E+02  0.51100000000E-03 0.  1.
         11   -1    0    0    0    0 -0.00000000000E+00 -0.00000000000E+00 -0.45593999997E+02  0.45594000000E+02  0.51100000000E-03 0. -1.
         23    2    1    2    0    0  0.35527136788E-14  0.35527136788E-14  0.00000000000E+00  0.91188000000E+02  0.91188000000E+02 0.  0.
    9900012    2    3    3    0    0 -0.22758352933E+02 -0.14672223349E+02  0.24951224772E+02  0.54367076820E+02  0.39999983226E+02 0.  0.
         12    1    3    3    0    0  0.22758352933E+02  0.14672223349E+02 -0.24951224772E+02  0.36820923180E+02  0.00000000000E+00 0. -1.
         11    1    4    4    0    0 -0.12103969441E+01 -0.16464716435E+02 -0.81464506085E+00  0.16529234552E+02  0.51100000000E-03 0. -1.
        -11    1    4    4    0    0 -0.21422961565E+02  0.59691169702E+01  0.16557833433E+02  0.27726079562E+02  0.51100000000E-03 0.  1.
        -12    1    4    4    0    0 -0.12499442379E+00 -0.41766238846E+01  0.92080364001E+01  0.10111762706E+02  0.00000000000E+00 0.  1.
</event>
<event>
 8    1  0.2971508E-007  0.9118800E+02  0.7816164E-02  0.1184000E+00
        -11   -1    0    0    0    0  0.00000000000E+00  0.00000000000E+00  0.45593999997E+02  0.45594000000E+02  0.51100000000E-03 0.  1.
         11   -1    0    0    0    0 -0.00000000000E+00 -0.00000000000E+00 -0.45593999997E+02  0.45594000000E+02  0.51100000000E-03 0. -1.
         23    2    1    2    0    0  0.35527136788E-14  0.35527136788E-14  0.35527136788E-14  0.91188000000E+02  0.91188000000E+02 0.  0.
    9900012    2    3    3    0    0 -0.24955870501E+02 -0.22119424563E+02 -0.15611380931E+02  0.54367087056E+02  0.40000006562E+02 0.  0.
         12    1    3    3    0    0  0.24955870501E+02  0.22119424563E+02  0.15611380931E+02  0.36820912944E+02  0.00000000000E+00 0. -1.
         11    1    4    4    0    0 -0.17964901558E+02 -0.16819224652E+02 -0.26991414748E+02  0.36526161532E+02  0.51100000000E-03 0. -1.
        -11    1    4    4    0    0 -0.29034410253E+01 -0.68901516470E+01  0.11180916131E+02  0.13450540706E+02  0.51100000000E-03 0.  1.
         12    1    4    4    0    0 -0.40875279170E+01  0.15899517359E+01  0.19911768635E+00  0.43903848177E+01  0.00000000000E+00 0. -1.
</event>
