<event>
 8    1  0.2402194E-006  0.9118800E+02  0.7816164E-02  0.1184000E+00
        -11   -1    0    0    0    0  0.00000000000E+00  0.00000000000E+00  0.45593999997E+02  0.45594000000E+02  0.51100000000E-03 0.  1.
         11   -1    0    0    0    0 -0.00000000000E+00 -0.00000000000E+00 -0.45593999997E+02  0.45594000000E+02  0.51100000000E-03 0. -1.
         23    2    1    2    0    0  0.00000000000E+00  0.00000000000E+00  0.17763568394E-14  0.91188000000E+02  0.91188000000E+02 0.  0.
    9900012    2    3    3    0    0  0.11205713324E+02 -0.31521722374E+02  0.15381600339E+02  0.54367073592E+02  0.39999975868E+02 0.  0.
         12    1    3    3    0    0 -0.11205713324E+02  0.31521722374E+02 -0.15381600339E+02  0.36820926408E+02  0.00000000000E+00 0. -1.
         11    1    4    4    0    0  0.33103828966E+01 -0.24039011266E+01 -0.44897914283E+01  0.60741750781E+01  0.51100000000E-03 0. -1.
        -11    1    4    4    0    0  0.10081115207E+02 -0.25366048966E+02 -0.66351968950E+00  0.27303948114E+02  0.51100000000E-03 0.  1.
        -12    1    4    4    0    0 -0.21857847795E+01 -0.37517722817E+01  0.20534911457E+02  0.20988950400E+02  0.00000000000E+00 0.  1.
</event>
<event>
 8    1  0.2402194E-006  0.9118800E+02  0.7816164E-02  0.1184000E+00
        -11   -1    0    0    0    0  0.00000000000E+00  0.00000000000E+00  0.45593999997E+02  0.45594000000E+02  0.51100000000E-03 0. -1.
         11   -1    0    0    0    0 -0.00000000000E+00 -0.00000000000E+00 -0.45593999997E+02  0.45594000000E+02  0.51100000000E-03 0.  1.
         23    2    1    2    0    0 -0.35527136788E-14  0.00000000000E+00 -0.17763568394E-14  0.91188000000E+02  0.91188000000E+02 0.  0.
    9900012    2    3    3    0    0 -0.27317615061E+02  0.23620669077E+02 -0.71830655523E+01  0.54367020505E+02  0.39999854844E+02 0.  0.
         12    1    3    3    0    0  0.27317615061E+02 -0.23620669077E+02  0.71830655523E+01  0.36820979495E+02  0.00000000000E+00 0. -1.
         11    1    4    4    0    0 -0.14356925127E+02  0.12355159832E+02  0.64138836097E+01  0.19997729291E+02  0.51100000000E-03 0. -1.
        -11    1    4    4    0    0 -0.15808666579E+02 -0.33168953541E+01 -0.38681382111E+01  0.16609582393E+02  0.51100000000E-03 0.  1.
        -12    1    4    4    0    0  0.28479766451E+01  0.14582404599E+02 -0.97288109509E+01  0.17759708821E+02  0.00000000000E+00 0.  1.
</event>
<event>
 8    1  0.2402194E-006  0.9118800E+02  0.7816164E-02  0.1184000E+00
        -11   -1    0    0    0    0  0.00000000000E+00  0.00000000000E+00  0.45593999997E+02  0.45594000000E+02  0.51100000000E-03 0.  1.
         11   -1    0    0    0    0 -0.00000000000E+00 -0.00000000000E+00 -0.45593999997E+02  0.45594000000E+02  0.51100000000E-03 0. -1.
         23    2    1    2    0    0  0.00000000000E+00  0.00000000000E+00  0.88817841970E-15  0.91188000000E+02  0.91188000000E+02 0.  0.
    9900012    2    3    3    0    0  0.24513575895E+02 -0.26707810697E+02  0.64465323022E+01  0.54367077495E+02  0.39999984765E+02 0.  0.
         12    1    3    3    0    0 -0.24513575895E+02  0.26707810697E+02 -0.64465323022E+01  0.36820922505E+02  0.00000000000E+00 0. -1.
         11    1    4    4    0    0 -0.93231138351E+00  0.74372203564E+00  0.36550291426E+01  0.38446801267E+01  0.51100000000E-03 0. -1.
        -11    1    4    4    0    0  0.15187802049E+02 -0.16131365211E+02  0.18312624019E+02  0.28744433780E+02  0.51100000000E-03 0.  1.
        -12    1    4    4    0    0  0.10258085230E+02 -0.11320167522E+02 -0.15521120859E+02  0.21777963588E+02  0.00000000000E+00 0.  1.
</event>
<event>
 8    1  0.2402194E-006  0.9118800E+02  0.7816164E-02  0.1184000E+00
        -11   -1    0    0    0    0  0.00000000000E+00  0.00000000000E+00  0.45593999997E+02  0.45594000000E+02  0.51100000000E-03 0. -1.
         11   -1    0    0    0    0 -0.00000000000E+00 -0.00000000000E+00 -0.45593999997E+02  0.45594000000E+02  0.51100000000E-03 0.  1.
         23    2    1    2    0    0 -0.71054273576E-14 -0.88817841970E-15  0.17763568394E-14  0.91188000000E+02  0.91188000000E+02 0.  0.
    9900012    2    3    3    0    0  0.35801746371E+02 -0.30696460800E+01  0.80369460907E+01  0.54367078329E+02  0.39999986666E+02 0.  0.
         12    1    3    3    0    0 -0.35801746371E+02  0.30696460800E+01 -0.80369460907E+01  0.36820921671E+02  0.00000000000E+00 0. -1.
         11    1    4    4    0    0  0.68573068438E+00 -0.29318418610E+01  0.21197848433E+01  0.36823105942E+01  0.51100000000E-03 0. -1.
        -11    1    4    4    0    0  0.97509750989E+01 -0.10560730284E+02 -0.11318301399E+02  0.18295203916E+02  0.51100000000E-03 0.  1.
        -12    1    4    4    0    0  0.25365040587E+02  0.10422926065E+02  0.17235462646E+02  0.32389563819E+02  0.00000000000E+00 0.  1.
</event>
<event>
 8    1  0.2402194E-006  0.9118800E+02  0.7816164E-02  0.1184000E+00
        -11   -1    0    0    0    0  0.00000000000E+00  0.00000000000E+00  0.45593999997E+02  0.45594000000E+02  0.51100000000E-03 0. -1.
         11   -1    0    0    0    0 -0.00000000000E+00 -0.00000000000E+00 -0.45593999997E+02  0.45594000000E+02  0.51100000000E-03 0.  1.
         23    2    1    2    0    0  0.00000000000E+00  0.17763568394E-14  0.71054273576E-14  0.91188000000E+02  0.91188000000E+02 0.  0.
    9900012    2    3    3    0    0 -0.17810965146E+01  0.15993636436E+02  0.33118132683E+02  0.54367089859E+02  0.40000012951E+02 0.  0.
        -12    1    3    3    0    0  0.17810965146E+01 -0.15993636436E+02 -0.33118132683E+02  0.36820910141E+02  0.00000000000E+00 0.  1.
         11    1    4    4    0    0 -0.11177363718E+01 -0.21791633968E+01  0.63516467784E+01  0.68074594942E+01  0.51100000000E-03 0. -1.
        -11    1    4    4    0    0 -0.37600273850E+01 -0.30226224650E+01 -0.64382582603E+01  0.80451987041E+01  0.51100000000E-03 0.  1.
        -12    1    4    4    0    0  0.30966672422E+01  0.21195422298E+02  0.33204744165E+02  0.39514431660E+02  0.00000000000E+00 0.  1.
</event>
<event>
 8    1  0.2402194E-006  0.9118800E+02  0.7816164E-02  0.1184000E+00
        -11   -1    0    0    0    0  0.00000000000E+00  0.00000000000E+00  0.45593999997E+02  0.45594000000E+02  0.51100000000E-03 0.  1.
         11   -1    0    0    0    0 -0.00000000000E+00 -0.00000000000E+00 -0.45593999997E+02  0.45594000000E+02  0.51100000000E-03 0. -1.
         23    2    1    2    0    0  0.00000000000E+00  0.88817841970E-15  0.00000000000E+00  0.91188000000E+02  0.91188000000E+02 0.  0.
    9900012    2    3    3    0    0 -0.28394827375E+02  0.11027247732E+01 -0.23415756621E+02  0.54367083639E+02  0.39999998771E+02 0.  0.
        -12    1    3    3    0    0  0.28394827375E+02 -0.11027247732E+01  0.23415756621E+02  0.36820916361E+02  0.00000000000E+00 0.  1.
         11    1    4    4    0    0 -0.75050011556E+01 -0.91015025087E+01 -0.14569380556E+02  0.18746446071E+02  0.51100000000E-03 0.  1.
        -11    1    4    4    0    0 -0.64183804742E+01  0.26132054806E+01 -0.16260652309E+02  0.17675781866E+02  0.51100000000E-03 0. -1.
        -12    1    4    4    0    0 -0.14471445745E+02  0.75910218012E+01  0.74142762439E+01  0.17944855702E+02  0.00000000000E+00 0.  1.
</event>
<event>
 8    1  0.2402194E-006  0.9118800E+02  0.7816164E-02  0.1184000E+00
        -11   -1    0    0    0    0  0.00000000000E+00  0.00000000000E+00  0.45593999997E+02  0.45594000000E+02  0.51100000000E-03 0. -1.
         11   -1    0    0    0    0 -0.00000000000E+00 -0.00000000000E+00 -0.45593999997E+02  0.45594000000E+02  0.51100000000E-03 0.  1.
         23    2    1    2    0    0  0.00000000000E+00  0.00000000000E+00 -0.35527136788E-14  0.91188000000E+02  0.91188000000E+02 0.  0.
    9900012    2    3    3    0    0  0.34546902190E+02  0.72273840618E+01  0.10490747544E+02  0.54367091330E+02  0.40000016305E+02 0.  0.
        -12    1    3    3    0    0 -0.34546902190E+02 -0.72273840618E+01 -0.10490747544E+02  0.36820908670E+02  0.00000000000E+00 0.  1.
         11    1    4    4    0    0  0.24636447871E+02  0.12706268626E+01 -0.11442821818E+02  0.27193882175E+02  0.51100000000E-03 0. -1.
        -11    1    4    4    0    0  0.11436565916E+02  0.74252844359E+01  0.16919226205E+02  0.21729935677E+02  0.51100000000E-03 0.  1.
         12    1    4    4    0    0 -0.15261115976E+01 -0.14685272367E+01  0.50143431574E+01  0.54432734777E+01  0.00000000000E+00 0. -1.
</event>
<event>
 8    1  0.2402194E-006  0.9118800E+02  0.7816164E-02  0.1184000E+00
        -11   -1    0    0    0    0  0.00000000000E+00  0.00000000000E+00  0.45593999997E+02  0.45594000000E+02  0.51100000000E-03 0.  1.
         11   -1    0    0    0    0 -0.00000000000E+00 -0.00000000000E+00 -0.45593999997E+02  0.45594000000E+02  0.51100000000E-03 0. -1.
         23    2    1    2    0    0  0.44408920985E-15  0.00000000000E+00  0.00000000000E+00  0.91188000000E+02  0.91188000000E+02 0.  0.
    9900012    2    3    3    0    0  0.39828089476E+01 -0.22800271849E+02 -0.28636783471E+02  0.54367074821E+02  0.39999978669E+02 0.  0.
         12    1    3    3    0    0 -0.39828089476E+01  0.22800271849E+02  0.28636783471E+02  0.36820925179E+02  0.00000000000E+00 0. -1.
         11    1    4    4    0    0  0.14970630995E+02 -0.74875364851E+01 -0.16022567676E+02  0.23171225047E+02  0.51100000000E-03 0. -1.
        -11    1    4    4    0    0 -0.40237443375E+01 -0.14821487416E+02  0.15184621357E+01  0.15432845987E+02  0.51100000000E-03 0.  1.
         12    1    4    4    0    0 -0.69640777095E+01 -0.49124794700E+00 -0.14132677931E+02  0.15763003787E+02  0.00000000000E+00 0. -1.
</event>
<event>
 8    1  0.2402194E-006  0.9118800E+02  0.7816164E-02  0.1184000E+00
        -11   -1    0    0    0    0  0.00000000000E+00  0.00000000000E+00  0.45593999997E+02  0.45594000000E+02  0.51100000000E-03 0. -1.
         11   -1    0    0    0    0 -0.00000000000E+00 -0.00000000000E+00 -0.45593999997E+02  0.45594000000E+02  0.51100000000E-03 0.  1.
         23    2    1    2    0    0  0.00000000000E+00 -0.35527136788E-14  0.88817841970E-15  0.91188000000E+02  0.91188000000E+02 0.  0.
    9900012    2    3    3    0    0 -0.32796907861E+02 -0.15417071371E+02  0.65157624431E+01  0.54367103554E+02  0.40000044172E+02 0.  0.
         12    1    3    3    0    0  0.32796907861E+02  0.15417071371E+02 -0.65157624431E+01  0.36820896446E+02  0.00000000000E+00 0. -1.
         11    1    4    4    0    0  0.75508822703E+00 -0.58423167485E+01  0.13745126734E+02  0.14954308155E+02  0.51100000000E-03 0. -1.
        -11    1    4    4    0    0  0.92162501445E+00 -0.13068503592E+00 -0.33291236895E+01  0.34568100970E+01  0.51100000000E-03 0.  1.
        -12    1    4    4    0    0 -0.34473621102E+02 -0.94440695866E+01 -0.39002406010E+01  0.35955985302E+02  0.00000000000E+00 0.  1.
</event>
<event>
 8    1  0.2402194E-006  0.9118800E+02  0.7816164E-02  0.1184000E+00
        -11   -1    0    0    0    0  0.00000000000E+00  0.00000000000E+00  0.45593999997E+02  0.45594000000E+02  0.51100000000E-03 0.  1.
         11   -1    0    0    0    0 -0.00000000000E+00 -0.00000000000E+00 -0.45593999997E+02  0.45594000000E+02  0.51100000000E-03 0. -1.
         23    2    1    2    0    0 -0.35527136788E-14  0.22204460493E-15  0.35527136788E-14  0.91188000000E+02  0.91188000000E+02 0.  0.
    9900012    2    3    3    0    0  0.21981760588E+02  0.28158197037E+00 -0.29538161334E+02  0.54367081191E+02  0.39999993191E+02 0.  0.
        -12    1    3    3    0    0 -0.21981760588E+02 -0.28158197037E+00  0.29538161334E+02  0.36820918809E+02  0.00000000000E+00 0.  1.
         11    1    4    4    0    0  0.19430056702E+01 -0.10852010123E+02 -0.20618056132E+02  0.23380454095E+02  0.51100000000E-03 0. -1.
        -11    1    4    4    0    0  0.69365745947E+01  0.11476441639E+01 -0.12301863231E+02  0.14169297563E+02  0.51100000000E-03 0.  1.
        -12    1    4    4    0    0  0.13102180323E+02  0.99859479293E+01  0.33817580288E+01  0.16817329533E+02  0.00000000000E+00 0.  1.
</event>
<event>
 8    1  0.2402194E-006  0.9118800E+02  0.7816164E-02  0.1184000E+00
        -11   -1    0    0    0    0  0.00000000000E+00  0.00000000000E+00  0.45593999997E+02  0.45594000000E+02  0.51100000000E-03 0. -1.
         11   -1    0    0    0    0 -0.00000000000E+00 -0.00000000000E+00 -0.45593999997E+02  0.45594000000E+02  0.51100000000E-03 0.  1.
         23    2    1    2    0    0  0.00000000000E+00  0.00000000000E+00  0.35527136788E-14  0.91188000000E+02  0.91188000000E+02 0.  0.
    9900012    2    3    3    0    0 -0.87750596362E+01  0.22172032089E+02  0.28056721706E+02  0.54367077803E+02  0.39999985467E+02 0.  0.
        -12    1    3    3    0    0  0.87750596362E+01 -0.22172032089E+02 -0.28056721706E+02  0.36820922197E+02  0.00000000000E+00 0.  1.
         11    1    4    4    0    0 -0.11457405238E+02  0.17935326211E+02  0.28924613507E+01  0.21478230700E+02  0.51100000000E-03 0. -1.
        -11    1    4    4    0    0  0.42387052055E+00  0.19312523358E+01  0.28311802377E+02  0.28380760313E+02  0.51100000000E-03 0.  1.
        -12    1    4    4    0    0  0.22584750808E+01  0.23054535419E+01 -0.31475420224E+01  0.45080867901E+01  0.00000000000E+00 0.  1.
</event>
<event>
 8    1  0.2402194E-006  0.9118800E+02  0.7816164E-02  0.1184000E+00
        -11   -1    0    0    0    0  0.00000000000E+00  0.00000000000E+00  0.45593999997E+02  0.45594000000E+02  0.51100000000E-03 0. -1.
         11   -1    0    0    0    0 -0.00000000000E+00 -0.00000000000E+00 -0.45593999997E+02  0.45594000000E+02  0.51100000000E-03 0.  1.
         23    2    1    2    0    0  0.88817841970E-15  0.00000000000E+00  0.00000000000E+00  0.91188000000E+02  0.91188000000E+02 0.  0.
    9900012    2    3    3    0    0  0.21674897913E+01  0.23587311505E+02 -0.28190801467E+02  0.54367074382E+02  0.39999977668E+02 0.  0.
         12    1    3    3    0    0 -0.21674897913E+01 -0.23587311505E+02  0.28190801467E+02  0.36820925618E+02  0.00000000000E+00 0. -1.
         11    1    4    4    0    0  0.94189614746E+01  0.10936550433E+02 -0.98844751627E+00  0.14467273392E+02  0.51100000000E-03 0. -1.
        -11    1    4    4    0    0 -0.75496763998E+01  0.72238835113E+01  0.16161394595E+01  0.10573268830E+02  0.51100000000E-03 0.  1.
        -12    1    4    4    0    0  0.29820471655E+00  0.54268775603E+01 -0.28818493410E+02  0.29326532160E+02  0.00000000000E+00 0.  1.
</event>
<event>
 8    1  0.2402194E-006  0.9118800E+02  0.7816164E-02  0.1184000E+00
        -11   -1    0    0    0    0  0.00000000000E+00  0.00000000000E+00  0.45593999997E+02  0.45594000000E+02  0.51100000000E-03 0.  1.
         11   -1    0    0    0    0 -0.00000000000E+00 -0.00000000000E+00 -0.45593999997E+02  0.45594000000E+02  0.51100000000E-03 0. -1.
         23    2    1    2    0    0  0.88817841970E-15  0.00000000000E+00  0.00000000000E+00  0.91188000000E+02  0.91188000000E+02 0.  0.
    9900012    2    3    3    0    0 -0.72594003089E+01 -0.16855375391E+02  0.31921424812E+02  0.54367082922E+02  0.39999997137E+02 0.  0.
         12    1    3    3    0    0  0.72594003089E+01  0.16855375391E+02 -0.31921424812E+02  0.36820917078E+02  0.00000000000E+00 0. -1.
         11    1    4    4    0    0  0.52929864402E+01 -0.11027093629E+02  0.22640070788E+02  0.25732961448E+02  0.51100000000E-03 0. -1.
        -11    1    4    4    0    0 -0.10117271081E+02  0.80174073913E+01  0.57959712178E+01  0.14150310174E+02  0.51100000000E-03 0.  1.
         12    1    4    4    0    0 -0.24351156677E+01 -0.13845689153E+02  0.34853828067E+01  0.14483811299E+02  0.00000000000E+00 0. -1.
</event>
<event>
 8    1  0.2402194E-006  0.9118800E+02  0.7816164E-02  0.1184000E+00
        -11   -1    0    0    0    0  0.00000000000E+00  0.00000000000E+00  0.45593999997E+02  0.45594000000E+02  0.51100000000E-03 0.  1.
         11   -1    0    0    0    0 -0.00000000000E+00 -0.00000000000E+00 -0.45593999997E+02  0.45594000000E+02  0.51100000000E-03 0. -1.
         23    2    1    2    0    0  0.00000000000E+00 -0.91593399532E-15  0.00000000000E+00  0.91188000000E+02  0.91188000000E+02 0.  0.
    9900012    2    3    3    0    0 -0.16232521156E+02  0.91777045925E-01 -0.33049618416E+02  0.54367076008E+02  0.39999981376E+02 0.  0.
        -12    1    3    3    0    0  0.16232521156E+02 -0.91777045925E-01  0.33049618416E+02  0.36820923992E+02  0.00000000000E+00 0.  1.
         11    1    4    4    0    0 -0.10108602320E+02 -0.13071195900E+02 -0.21936581951E+02  0.27463678397E+02  0.51100000000E-03 0. -1.
        -11    1    4    4    0    0 -0.85045183180E+01 -0.14622787835E+01 -0.79895894803E+01  0.11760043851E+02  0.51100000000E-03 0.  1.
        -12    1    4    4    0    0  0.23805994813E+01  0.14625251729E+02 -0.31234469849E+01  0.15143353760E+02  0.00000000000E+00 0.  1.
</event>
<event>
 8    1  0.2402194E-006  0.9118800E+02  0.7816164E-02  0.1184000E+00
        -11   -1    0    0    0    0  0.00000000000E+00  0.00000000000E+00  0.45593999997E+02  0.45594000000E+02  0.51100000000E-03 0.  1.
         11   -1    0    0    0    0 -0.00000000000E+00 -0.00000000000E+00 -0.45593999997E+02  0.45594000000E+02  0.51100000000E-03 0. -1.
         23    2    1    2    0    0  0.17208456882E-14  0.00000000000E+00 -0.35527136788E-14  0.91188000000E+02  0.91188000000E+02 0.  0.
    9900012    2    3    3    0    0  0.21757499568E+00  0.26165015297E+02  0.25906059278E+02  0.54367091923E+02  0.40000017656E+02 0.  0.
         12    1    3    3    0    0 -0.21757499568E+00 -0.26165015297E+02 -0.25906059278E+02  0.36820908077E+02  0.00000000000E+00 0. -1.
         11    1    4    4    0    0  0.93984558598E+00 -0.21113327090E+01  0.92853324401E+01  0.95686171581E+01  0.51100000000E-03 0. -1.
        -11    1    4    4    0    0  0.14637702302E+02  0.16764917375E+02  0.10817476836E+02  0.24745556947E+02  0.51100000000E-03 0.  1.
        -12    1    4    4    0    0 -0.15359972892E+02  0.11511430631E+02  0.58032500015E+01  0.20052917817E+02  0.00000000000E+00 0.  1.
</event>
<event>
 8    1  0.2402194E-006  0.9118800E+02  0.7816164E-02  0.1184000E+00
        -11   -1    0    0    0    0  0.00000000000E+00  0.00000000000E+00  0.45593999997E+02  0.45594000000E+02  0.51100000000E-03 0.  1.
         11   -1    0    0    0    0 -0.00000000000E+00 -0.00000000000E+00 -0.45593999997E+02  0.45594000000E+02  0.51100000000E-03 0. -1.
         23    2    1    2    0    0  0.00000000000E+00  0.00000000000E+00  0.00000000000E+00  0.91188000000E+02  0.91188000000E+02 0.  0.
    9900012    2    3    3    0    0  0.31156632526E+02 -0.16258242450E+02 -0.10987262282E+02  0.54366998786E+02  0.39999805332E+02 0.  0.
        -12    1    3    3    0    0 -0.31156632526E+02  0.16258242450E+02  0.10987262282E+02  0.36821001214E+02  0.00000000000E+00 0.  1.
         11    1    4    4    0    0 -0.18688024310E+01  0.43035741189E+01  0.72621491243E+01  0.86459229055E+01  0.51100000000E-03 0.  1.
        -11    1    4    4    0    0  0.19430956164E+02 -0.18330597049E+02 -0.62095849895E+01  0.27425021269E+02  0.51100000000E-03 0. -1.
        -12    1    4    4    0    0  0.13594478793E+02 -0.22312195203E+01 -0.12039826417E+02  0.18296054611E+02  0.00000000000E+00 0.  1.
</event>
<event>
 8    1  0.2402194E-006  0.9118800E+02  0.7816164E-02  0.1184000E+00
        -11   -1    0    0    0    0  0.00000000000E+00  0.00000000000E+00  0.45593999997E+02  0.45594000000E+02  0.51100000000E-03 0.  1.
         11   -1    0    0    0    0 -0.00000000000E+00 -0.00000000000E+00 -0.45593999997E+02  0.45594000000E+02  0.51100000000E-03 0. -1.
         23    2    1    2    0    0  0.17763568394E-14  0.17763568394E-14  0.00000000000E+00  0.91188000000E+02  0.91188000000E+02 0.  0.
    9900012    2    3    3    0    0 -0.46751124136E+01 -0.15376529914E+02  0.33128467787E+02  0.54366949958E+02  0.39999694019E+02 0.  0.
         12    1    3    3    0    0  0.46751124136E+01  0.15376529914E+02 -0.33128467787E+02  0.36821050042E+02  0.00000000000E+00 0. -1.
         11    1    4    4    0    0 -0.32683621875E+01  0.35189756614E-01  0.52516989851E+00  0.33104732881E+01  0.51100000000E-03 0. -1.
        -11    1    4    4    0    0 -0.17032708134E+02 -0.13086971659E+02  0.10556049940E+02  0.23933494608E+02  0.51100000000E-03 0.  1.
         12    1    4    4    0    0  0.15625957907E+02 -0.23247480119E+01  0.22047247948E+02  0.27122982062E+02  0.00000000000E+00 0. -1.
</event>
<event>
 8    1  0.2402194E-006  0.9118800E+02  0.7816164E-02  0.1184000E+00
        -11   -1    0    0    0    0  0.00000000000E+00  0.00000000000E+00  0.45593999997E+02  0.45594000000E+02  0.51100000000E-03 0.  1.
         11   -1    0    0    0    0 -0.00000000000E+00 -0.00000000000E+00 -0.45593999997E+02  0.45594000000E+02  0.51100000000E-03 0. -1.
         23    2    1    2    0    0  0.71054273576E-14  0.00000000000E+00  0.00000000000E+00  0.91188000000E+02  0.91188000000E+02 0.  0.
    9900012    2    3    3    0    0  0.36105504741E+02  0.71765857822E+01 -0.81816381619E+00  0.54367078662E+02  0.39999987427E+02 0.  0.
         12    1    3    3    0    0 -0.36105504741E+02 -0.71765857822E+01  0.81816381619E+00  0.36820921338E+02  0.00000000000E+00 0. -1.
         11    1    4    4    0    0  0.29360408307E+01  0.85166296710E+01  0.52625554879E+01  0.10433015251E+02  0.51100000000E-03 0. -1.
        -11    1    4    4    0    0  0.18321241700E+02 -0.14373035244E+02 -0.81094737001E-01  0.23286447049E+02  0.51100000000E-03 0.  1.
        -12    1    4    4    0    0  0.14848222211E+02  0.13032991355E+02 -0.59996245671E+01  0.20647616362E+02  0.00000000000E+00 0.  1.
</event>
<event>
 8    1  0.2402194E-006  0.9118800E+02  0.7816164E-02  0.1184000E+00
        -11   -1    0    0    0    0  0.00000000000E+00  0.00000000000E+00  0.45593999997E+02  0.45594000000E+02  0.51100000000E-03 0.  1.
         11   -1    0    0    0    0 -0.00000000000E+00 -0.00000000000E+00 -0.45593999997E+02  0.45594000000E+02  0.51100000000E-03 0. -1.
         23    2    1    2    0    0  0.00000000000E+00  0.35527136788E-14  0.00000000000E+00  0.91188000000E+02  0.91188000000E+02 0.  0.
    9900012    2    3    3    0    0 -0.11243058343E+02  0.27711444794E+02 -0.21481381781E+02  0.54367078003E+02  0.39999985924E+02 0.  0.
        -12    1    3    3    0    0  0.11243058343E+02 -0.27711444794E+02  0.21481381781E+02  0.36820921997E+02  0.00000000000E+00 0.  1.
         11    1    4    4    0    0 -0.92883974671E+01  0.18859442057E+02 -0.78070994320E+01  0.22425514130E+02  0.51100000000E-03 0. -1.
        -11    1    4    4    0    0  0.27116996012E+01  0.17616059116E+02 -0.44082748394E+01  0.18360602954E+02  0.51100000000E-03 0.  1.
         12    1    4    4    0    0 -0.46663604774E+01 -0.87640563791E+01 -0.92660075094E+01  0.13580960919E+02  0.00000000000E+00 0. -1.
</event>
<event>
 8    1  0.2402194E-006  0.9118800E+02  0.7816164E-02  0.1184000E+00
        -11   -1    0    0    0    0  0.00000000000E+00  0.00000000000E+00  0.45593999997E+02  0.45594000000E+02  0.51100000000E-03 0.  1.
         11   -1    0    0    0    0 -0.00000000000E+00 -0.00000000000E+00 -0.45593999997E+02  0.45594000000E+02  0.51100000000E-03 0. -1.
         23    2    1    2    0    0  0.00000000000E+00  0.00000000000E+00  0.00000000000E+00  0.91188000000E+02  0.91188000000E+02 0.  0.
    9900012    2    3    3    0    0 -0.10917844044E+02 -0.62453226832E+01 -0.34605990160E+02  0.54367110155E+02  0.40000059220E+02 0.  0.
        -12    1    3    3    0    0  0.10917844044E+02  0.62453226832E+01  0.34605990160E+02  0.36820889845E+02  0.00000000000E+00 0.  1.
         11    1    4    4    0    0 -0.93932308042E+01  0.14715666468E+02 -0.78425117067E+01  0.19138668049E+02  0.51100000000E-03 0. -1.
        -11    1    4    4    0    0 -0.25253964699E+01 -0.20511479483E+02 -0.21384739711E+02  0.29738956113E+02  0.51100000000E-03 0.  1.
        -12    1    4    4    0    0  0.10007832296E+01 -0.44950966844E+00 -0.53787387424E+01  0.54894859935E+01  0.00000000000E+00 0.  1.
</event>
<event>
 8    1  0.2402194E-006  0.9118800E+02  0.7816164E-02  0.1184000E+00
        -11   -1    0    0    0    0  0.00000000000E+00  0.00000000000E+00  0.45593999997E+02  0.45594000000E+02  0.51100000000E-03 0.  1.
         11   -1    0    0    0    0 -0.00000000000E+00 -0.00000000000E+00 -0.45593999997E+02  0.45594000000E+02  0.51100000000E-03 0. -1.
         23    2    1    2    0    0  0.00000000000E+00  0.00000000000E+00  0.00000000000E+00  0.91188000000E+02  0.91188000000E+02 0.  0.
    9900012    2    3    3    0    0 -0.47688076185E+01 -0.33284566583E+02 -0.15005997007E+02  0.54367029821E+02  0.39999876084E+02 0.  0.
         12    1    3    3    0    0  0.47688076185E+01  0.33284566583E+02  0.15005997007E+02  0.36820970179E+02  0.00000000000E+00 0. -1.
         11    1    4    4    0    0 -0.47796006773E+01 -0.32326706832E+02  0.20695279892E+01  0.32743602484E+02  0.51100000000E-03 0. -1.
        -11    1    4    4    0    0 -0.18181982021E+01  0.46811976457E+01 -0.19668509678E+01  0.53933254205E+01  0.51100000000E-03 0.  1.
         12    1    4    4    0    0  0.18289912609E+01 -0.56390573963E+01 -0.15108674028E+02  0.16230101917E+02  0.00000000000E+00 0. -1.
</event>
<event>
 8    1  0.2402194E-006  0.9118800E+02  0.7816164E-02  0.1184000E+00
        -11   -1    0    0    0    0  0.00000000000E+00  0.00000000000E+00  0.45593999997E+02  0.45594000000E+02  0.51100000000E-03 0. -1.
         11   -1    0    0    0    0 -0.00000000000E+00 -0.00000000000E+00 -0.45593999997E+02  0.45594000000E+02  0.51100000000E-03 0.  1.
         23    2    1    2    0    0 -0.13322676296E-14  0.00000000000E+00  0.00000000000E+00  0.91188000000E+02  0.91188000000E+02 0.  0.
    9900012    2    3    3    0    0 -0.22391419473E+01  0.93688998086E+01 -0.35538565314E+02  0.54367086583E+02  0.40000005483E+02 0.  0.
         12    1    3    3    0    0  0.22391419473E+01 -0.93688998086E+01  0.35538565314E+02  0.36820913417E+02  0.00000000000E+00 0. -1.
         11    1    4    4    0    0 -0.27518049649E+01  0.52096568216E+01  0.15313763881E+01  0.60875338740E+01  0.51100000000E-03 0. -1.
        -11    1    4    4    0    0 -0.15054541036E+02  0.21407472941E+01 -0.19260485277E+02  0.24539525222E+02  0.51100000000E-03 0.  1.
        -12    1    4    4    0    0  0.15567204053E+02  0.20184956929E+01 -0.17809456426E+02  0.23740027487E+02  0.00000000000E+00 0.  1.
</event>
<event>
 8    1  0.2402194E-006  0.9118800E+02  0.7816164E-02  0.1184000E+00
        -11   -1    0    0    0    0  0.00000000000E+00  0.00000000000E+00  0.45593999997E+02  0.45594000000E+02  0.51100000000E-03 0.  1.
         11   -1    0    0    0    0 -0.00000000000E+00 -0.00000000000E+00 -0.45593999997E+02  0.45594000000E+02  0.51100000000E-03 0. -1.
         23    2    1    2    0    0 -0.35527136788E-14  0.00000000000E+00  0.00000000000E+00  0.91188000000E+02  0.91188000000E+02 0.  0.
    9900012    2    3    3    0    0  0.31154832133E+02 -0.19044953713E+02 -0.47376458450E+01  0.54367094045E+02  0.40000022495E+02 0.  0.
         12    1    3    3    0    0 -0.31154832133E+02  0.19044953713E+02  0.47376458450E+01  0.36820905955E+02  0.00000000000E+00 0. -1.
         11    1    4    4    0    0  0.87787027568E+01  0.14839264614E+01 -0.44108995776E+01  0.99359798299E+01  0.51100000000E-03 0. -1.
        -11    1    4    4    0    0  0.25720495422E+02 -0.26562145980E+02 -0.28548522601E+01  0.37084250909E+02  0.51100000000E-03 0.  1.
        -12    1    4    4    0    0 -0.33443660460E+01  0.60332658051E+01  0.25281059928E+01  0.73468633059E+01  0.00000000000E+00 0.  1.
</event>
<event>
 8    1  0.2402194E-006  0.9118800E+02  0.7816164E-02  0.1184000E+00
        -11   -1    0    0    0    0  0.00000000000E+00  0.00000000000E+00  0.45593999997E+02  0.45594000000E+02  0.51100000000E-03 0.  1.
         11   -1    0    0    0    0 -0.00000000000E+00 -0.00000000000E+00 -0.45593999997E+02  0.45594000000E+02  0.51100000000E-03 0. -1.
         23    2    1    2    0    0  0.35527136788E-14  0.00000000000E+00  0.00000000000E+00  0.91188000000E+02  0.91188000000E+02 0.  0.
    9900012    2    3    3    0    0 -0.19695586738E+02  0.30882633416E+02  0.37583316741E+01  0.54367105923E+02  0.40000049572E+02 0.  0.
         12    1    3    3    0    0  0.19695586738E+02 -0.30882633416E+02 -0.37583316741E+01  0.36820894077E+02  0.00000000000E+00 0. -1.
         11    1    4    4    0    0 -0.49635043318E+01  0.18036590047E+02  0.79903667482E+01  0.20342097158E+02  0.51100000000E-03 0. -1.
        -11    1    4    4    0    0 -0.32325148506E+01  0.16405697152E+02  0.64587781378E+01  0.17925174102E+02  0.51100000000E-03 0.  1.
         12    1    4    4    0    0 -0.11499567556E+02 -0.35596537821E+01 -0.10690813212E+02  0.16099834662E+02  0.00000000000E+00 0. -1.
</event>
<event>
 8    1  0.2402194E-006  0.9118800E+02  0.7816164E-02  0.1184000E+00
        -11   -1    0    0    0    0  0.00000000000E+00  0.00000000000E+00  0.45593999997E+02  0.45594000000E+02  0.51100000000E-03 0. -1.
         11   -1    0    0    0    0 -0.00000000000E+00 -0.00000000000E+00 -0.45593999997E+02  0.45594000000E+02  0.51100000000E-03 0.  1.
         23    2    1    2    0    0  0.17763568394E-14  0.35527136788E-14  0.00000000000E+00  0.91188000000E+02  0.91188000000E+02 0.  0.
    9900012    2    3    3    0    0 -0.86291155640E+01 -0.13509197654E+02  0.33148439901E+02  0.54367093920E+02  0.40000022210E+02 0.  0.
        -12    1    3    3    0    0  0.86291155640E+01  0.13509197654E+02 -0.33148439901E+02  0.36820906080E+02  0.00000000000E+00 0.  1.
         11    1    4    4    0    0 -0.39730843532E+01 -0.22578705863E+02  0.22383746574E+02  0.32040840636E+02  0.51100000000E-03 0. -1.
        -11    1    4    4    0    0 -0.39544249654E+01  0.59451214989E+01  0.15236267605E+02  0.16826342361E+02  0.51100000000E-03 0.  1.
        -12    1    4    4    0    0 -0.70160624534E+00  0.31243867098E+01 -0.44715742784E+01  0.54999109232E+01  0.00000000000E+00 0.  1.
</event>
<event>
 8    1  0.2402194E-006  0.9118800E+02  0.7816164E-02  0.1184000E+00
        -11   -1    0    0    0    0  0.00000000000E+00  0.00000000000E+00  0.45593999997E+02  0.45594000000E+02  0.51100000000E-03 0. -1.
         11   -1    0    0    0    0 -0.00000000000E+00 -0.00000000000E+00 -0.45593999997E+02  0.45594000000E+02  0.51100000000E-03 0.  1.
         23    2    1    2    0    0  0.17763568394E-14 -0.88817841970E-15  0.00000000000E+00  0.91188000000E+02  0.91188000000E+02 0.  0.
    9900012    2    3    3    0    0 -0.99368812429E+01 -0.21367218018E+01  0.35390298579E+02  0.54367076297E+02  0.39999982033E+02 0.  0.
        -12    1    3    3    0    0  0.99368812429E+01  0.21367218018E+01 -0.35390298579E+02  0.36820923703E+02  0.00000000000E+00 0.  1.
         11    1    4    4    0    0 -0.12128336309E+02 -0.78832051430E+01  0.25717234903E+02  0.29506230465E+02  0.51100000000E-03 0. -1.
        -11    1    4    4    0    0 -0.92252031045E+01  0.66261715237E+01  0.36977894533E+01  0.11945047864E+02  0.51100000000E-03 0.  1.
         12    1    4    4    0    0  0.11416658171E+02 -0.87968818256E+00  0.59752742225E+01  0.12915797967E+02  0.00000000000E+00 0. -1.
</event>
<event>
 8    1  0.2402194E-006  0.9118800E+02  0.7816164E-02  0.1184000E+00
        -11   -1    0    0    0    0  0.00000000000E+00  0.00000000000E+00  0.45593999997E+02  0.45594000000E+02  0.51100000000E-03 0. -1.
         11   -1    0    0    0    0 -0.00000000000E+00 -0.00000000000E+00 -0.45593999997E+02  0.45594000000E+02  0.51100000000E-03 0.  1.
         23    2    1    2    0    0  0.00000000000E+00  0.00000000000E+00 -0.17763568394E-14  0.91188000000E+02  0.91188000000E+02 0.  0.
    9900012    2    3    3    0    0  0.14635254822E+02  0.33026709020E+02 -0.71288615143E+01  0.54367151845E+02  0.40000154261E+02 0.  0.
        -12    1    3    3    0    0 -0.14635254822E+02 -0.33026709020E+02  0.71288615143E+01  0.36820848155E+02  0.00000000000E+00 0.  1.
         11    1    4    4    0    0  0.17486986348E+01  0.61931156575E+01 -0.32503306347E+01  0.72095268887E+01  0.51100000000E-03 0. -1.
        -11    1    4    4    0    0 -0.31226839056E+00  0.21039822411E+02 -0.17467588091E+02  0.27347546007E+02  0.51100000000E-03 0.  1.
        -12    1    4    4    0    0  0.13198824578E+02  0.57937709512E+01  0.13589057212E+02  0.19810078949E+02  0.00000000000E+00 0.  1.
</event>
<event>
 8    1  0.2402194E-006  0.9118800E+02  0.7816164E-02  0.1184000E+00
        -11   -1    0    0    0    0  0.00000000000E+00  0.00000000000E+00  0.45593999997E+02  0.45594000000E+02  0.51100000000E-03 0. -1.
         11   -1    0    0    0    0 -0.00000000000E+00 -0.00000000000E+00 -0.45593999997E+02  0.45594000000E+02  0.51100000000E-03 0.  1.
         23    2    1    2    0    0  0.00000000000E+00  0.00000000000E+00 -0.35527136788E-14  0.91188000000E+02  0.91188000000E+02 0.  0.
    9900012    2    3    3    0    0 -0.10088391118E+02  0.29490373217E+02  0.19604194711E+02  0.54367052184E+02  0.39999927063E+02 0.  0.
        -12    1    3    3    0    0  0.10088391118E+02 -0.29490373217E+02 -0.19604194711E+02  0.36820947816E+02  0.00000000000E+00 0.  1.
         11    1    4    4    0    0 -0.18994293752E+01 -0.83643730265E+01  0.18248159099E+01  0.87692942386E+01  0.51100000000E-03 0. -1.
        -11    1    4    4    0    0 -0.80172097592E+01  0.27143240953E+02  0.46983856948E+01  0.28689824157E+02  0.51100000000E-03 0.  1.
        -12    1    4    4    0    0 -0.17175198335E+00  0.10711505290E+02  0.13080993107E+02  0.16907933788E+02  0.00000000000E+00 0.  1.
</event>
<event>
 8    1  0.2402194E-006  0.9118800E+02  0.7816164E-02  0.1184000E+00
        -11   -1    0    0    0    0  0.00000000000E+00  0.00000000000E+00  0.45593999997E+02  0.45594000000E+02  0.51100000000E-03 0.  1.
         11   -1    0    0    0    0 -0.00000000000E+00 -0.00000000000E+00 -0.45593999997E+02  0.45594000000E+02  0.51100000000E-03 0. -1.
         23    2    1    2    0    0  0.00000000000E+00  0.35527136788E-14  0.35527136788E-14  0.91188000000E+02  0.91188000000E+02 0.  0.
    9900012    2    3    3    0    0 -0.23370149570E+02 -0.19724215467E+02 -0.20507894043E+02  0.54367051006E+02  0.39999924379E+02 0.  0.
        -12    1    3    3    0    0  0.23370149570E+02  0.19724215467E+02  0.20507894043E+02  0.36820948994E+02  0.00000000000E+00 0.  1.
         11    1    4    4    0    0 -0.14320771957E+02 -0.25724160424E+02 -0.21008164986E+02  0.36168493683E+02  0.51100000000E-03 0. -1.
        -11    1    4    4    0    0  0.32367994577E+01  0.44561823655E+01  0.16838894991E+01  0.57593329571E+01  0.51100000000E-03 0.  1.
        -12    1    4    4    0    0 -0.12286177071E+02  0.15437625908E+01 -0.11836185559E+01  0.12439224366E+02  0.00000000000E+00 0.  1.
</event>
<event>
 8    1  0.2402194E-006  0.9118800E+02  0.7816164E-02  0.1184000E+00
        -11   -1    0    0    0    0  0.00000000000E+00  0.00000000000E+00  0.45593999997E+02  0.45594000000E+02  0.51100000000E-03 0.  1.
         11   -1    0    0    0    0 -0.00000000000E+00 -0.00000000000E+00 -0.45593999997E+02  0.45594000000E+02  0.51100000000E-03 0. -1.
         23    2    1    2    0    0  0.35527136788E-14  0.00000000000E+00 -0.35527136788E-14  0.91188000000E+02  0.91188000000E+02 0.  0.
    9900012    2    3    3    0    0 -0.19023325309E+02  0.25792757173E+02  0.18127771627E+02  0.54367226888E+02  0.40000325335E+02 0.  0.
         12    1    3    3    0    0  0.19023325309E+02 -0.25792757173E+02 -0.18127771627E+02  0.36820773112E+02  0.00000000000E+00 0. -1.
         11    1    4    4    0    0 -0.19597252303E+02  0.21036842248E+02  0.19498119293E+02  0.34738705875E+02  0.51100000000E-03 0. -1.
        -11    1    4    4    0    0  0.45878432531E+01  0.85382083275E+01  0.52408798329E+01  0.11018898713E+02  0.51100000000E-03 0.  1.
         12    1    4    4    0    0 -0.40139162587E+01 -0.37822934021E+01 -0.66112274993E+01  0.86096223006E+01  0.00000000000E+00 0. -1.
</event>
<event>
 8    1  0.2402194E-006  0.9118800E+02  0.7816164E-02  0.1184000E+00
        -11   -1    0    0    0    0  0.00000000000E+00  0.00000000000E+00  0.45593999997E+02  0.45594000000E+02  0.51100000000E-03 0. -1.
         11   -1    0    0    0    0 -0.00000000000E+00 -0.00000000000E+00 -0.45593999997E+02  0.45594000000E+02  0.51100000000E-03 0.  1.
         23    2    1    2    0    0 -0.71054273576E-14 -0.88817841970E-15  0.17763568394E-14  0.91188000000E+02  0.91188000000E+02 0.  0.
    9900012    2    3    3    0    0 -0.32552411038E+02  0.64973195412E+01  0.15934377546E+02  0.54367095429E+02  0.40000025650E+02 0.  0.
        -12    1    3    3    0    0  0.32552411038E+02 -0.64973195412E+01 -0.15934377546E+02  0.36820904571E+02  0.00000000000E+00 0.  1.
         11    1    4    4    0    0 -0.10900063733E+02  0.28023463177E+01  0.16810434994E+02  0.20230058309E+02  0.51100000000E-03 0. -1.
        -11    1    4    4    0    0 -0.11460368275E+01 -0.71148068275E+01  0.66083284783E+01  0.97777237710E+01  0.51100000000E-03 0.  1.
         12    1    4    4    0    0 -0.20506310478E+02  0.10809780051E+02 -0.74843859256E+01  0.24359313349E+02  0.00000000000E+00 0. -1.
</event>
<event>
 8    1  0.2402194E-006  0.9118800E+02  0.7816164E-02  0.1184000E+00
        -11   -1    0    0    0    0  0.00000000000E+00  0.00000000000E+00  0.45593999997E+02  0.45594000000E+02  0.51100000000E-03 0. -1.
         11   -1    0    0    0    0 -0.00000000000E+00 -0.00000000000E+00 -0.45593999997E+02  0.45594000000E+02  0.51100000000E-03 0.  1.
         23    2    1    2    0    0  0.00000000000E+00  0.00000000000E+00 -0.17763568394E-14  0.91188000000E+02  0.91188000000E+02 0.  0.
    9900012    2    3    3    0    0  0.34800443229E+02  0.74775498703E+01  0.94231420929E+01  0.54367079209E+02  0.39999988672E+02 0.  0.
         12    1    3    3    0    0 -0.34800443229E+02 -0.74775498703E+01 -0.94231420929E+01  0.36820920791E+02  0.00000000000E+00 0. -1.
         11    1    4    4    0    0  0.58475851282E+01 -0.23749599695E+01  0.11686417394E+02  0.13281831141E+02  0.51100000000E-03 0. -1.
        -11    1    4    4    0    0  0.12567602989E+02  0.28014810242E+01  0.12488623468E+02  0.17937632430E+02  0.51100000000E-03 0.  1.
        -12    1    4    4    0    0  0.16385255112E+02  0.70510288156E+01 -0.14751898769E+02  0.23147615638E+02  0.00000000000E+00 0.  1.
</event>
<event>
 8    1  0.2402194E-006  0.9118800E+02  0.7816164E-02  0.1184000E+00
        -11   -1    0    0    0    0  0.00000000000E+00  0.00000000000E+00  0.45593999997E+02  0.45594000000E+02  0.51100000000E-03 0.  1.
         11   -1    0    0    0    0 -0.00000000000E+00 -0.00000000000E+00 -0.45593999997E+02  0.45594000000E+02  0.51100000000E-03 0. -1.
         23    2    1    2    0    0  0.38857805862E-15  0.17763568394E-14  0.00000000000E+00  0.91188000000E+02  0.91188000000E+02 0.  0.
    9900012    2    3    3    0    0 -0.41829422561E+00 -0.48311573154E+01 -0.36500191759E+02  0.54367094939E+02  0.40000024533E+02 0.  0.
        -12    1    3    3    0    0  0.41829422561E+00  0.48311573154E+01  0.36500191759E+02  0.36820905061E+02  0.00000000000E+00 0.  1.
         11    1    4    4    0    0  0.48877758732E+01 -0.40069584567E+01 -0.22037539063E+02  0.22925950303E+02  0.51100000000E-03 0. -1.
        -11    1    4    4    0    0  0.57077893165E+01 -0.92031237330E+01 -0.13860235511E+02  0.17589271560E+02  0.51100000000E-03 0.  1.
        -12    1    4    4    0    0 -0.11013859415E+02  0.83789248743E+01 -0.60241718445E+00  0.13851873077E+02  0.00000000000E+00 0.  1.
</event>
<event>
 8    1  0.2402194E-006  0.9118800E+02  0.7816164E-02  0.1184000E+00
        -11   -1    0    0    0    0  0.00000000000E+00  0.00000000000E+00  0.45593999997E+02  0.45594000000E+02  0.51100000000E-03 0. -1.
         11   -1    0    0    0    0 -0.00000000000E+00 -0.00000000000E+00 -0.45593999997E+02  0.45594000000E+02  0.51100000000E-03 0.  1.
         23    2    1    2    0    0  0.00000000000E+00  0.00000000000E+00  0.88817841970E-15  0.91188000000E+02  0.91188000000E+02 0.  0.
    9900012    2    3    3    0    0 -0.23419348652E+02  0.28333014154E+02  0.21336155529E+01  0.54367110580E+02  0.40000060190E+02 0.  0.
         12    1    3    3    0    0  0.23419348652E+02 -0.28333014154E+02 -0.21336155529E+01  0.36820889420E+02  0.00000000000E+00 0. -1.
         11    1    4    4    0    0 -0.12914951372E+02  0.31573229265E+02 -0.76413031314E+01  0.34957893086E+02  0.51100000000E-03 0. -1.
        -11    1    4    4    0    0 -0.13261576184E+02 -0.16249736573E+01  0.90359167092E+01  0.16129405857E+02  0.51100000000E-03 0.  1.
         12    1    4    4    0    0  0.27571789032E+01 -0.16152414544E+01  0.73900197505E+00  0.32798116378E+01  0.00000000000E+00 0. -1.
</event>
<event>
 8    1  0.2402194E-006  0.9118800E+02  0.7816164E-02  0.1184000E+00
        -11   -1    0    0    0    0  0.00000000000E+00  0.00000000000E+00  0.45593999997E+02  0.45594000000E+02  0.51100000000E-03 0.  1.
         11   -1    0    0    0    0 -0.00000000000E+00 -0.00000000000E+00 -0.45593999997E+02  0.45594000000E+02  0.51100000000E-03 0. -1.
         23    2    1    2    0    0  0.35527136788E-14 -0.35527136788E-14  0.88817841970E-15  0.91188000000E+02  0.91188000000E+02 0.  0.
    9900012    2    3    3    0    0  0.31947405561E+02 -0.16713474761E+02  0.74702001723E+01  0.54367070472E+02  0.39999968756E+02 0.  0.
        -12    1    3    3    0    0 -0.31947405561E+02  0.16713474761E+02 -0.74702001723E+01  0.36820929528E+02  0.00000000000E+00 0.  1.
         11    1    4    4    0    0  0.13461979837E+02  0.12520145980E+01  0.74656509202E+01  0.15444364202E+02  0.51100000000E-03 0. -1.
        -11    1    4    4    0    0  0.48502912133E+01 -0.12739150278E+02  0.13394281162E+02  0.19110678763E+02  0.51100000000E-03 0.  1.
         12    1    4    4    0    0  0.13635134511E+02 -0.52263390804E+01 -0.13389731910E+02  0.19812027507E+02  0.00000000000E+00 0. -1.
</event>
<event>
 8    1  0.2402194E-006  0.9118800E+02  0.7816164E-02  0.1184000E+00
        -11   -1    0    0    0    0  0.00000000000E+00  0.00000000000E+00  0.45593999997E+02  0.45594000000E+02  0.51100000000E-03 0.  1.
         11   -1    0    0    0    0 -0.00000000000E+00 -0.00000000000E+00 -0.45593999997E+02  0.45594000000E+02  0.51100000000E-03 0. -1.
         23    2    1    2    0    0  0.00000000000E+00  0.17763568394E-14  0.00000000000E+00  0.91188000000E+02  0.91188000000E+02 0.  0.
    9900012    2    3    3    0    0  0.10887680346E+02 -0.12683726005E+02 -0.32807967024E+02  0.54367065887E+02  0.39999958302E+02 0.  0.
        -12    1    3    3    0    0 -0.10887680346E+02  0.12683726005E+02  0.32807967024E+02  0.36820934113E+02  0.00000000000E+00 0.  1.
         11    1    4    4    0    0 -0.27051644258E+01 -0.64739956292E+01 -0.23549992757E+02  0.24573007408E+02  0.51100000000E-03 0. -1.
        -11    1    4    4    0    0  0.12938172620E+02  0.23110902521E+01 -0.14656101670E+02  0.19686004300E+02  0.51100000000E-03 0.  1.
         12    1    4    4    0    0  0.65467215233E+00 -0.85208206284E+01  0.53981274027E+01  0.10108054178E+02  0.00000000000E+00 0. -1.
</event>
<event>
 8    1  0.2402194E-006  0.9118800E+02  0.7816164E-02  0.1184000E+00
        -11   -1    0    0    0    0  0.00000000000E+00  0.00000000000E+00  0.45593999997E+02  0.45594000000E+02  0.51100000000E-03 0.  1.
         11   -1    0    0    0    0 -0.00000000000E+00 -0.00000000000E+00 -0.45593999997E+02  0.45594000000E+02  0.51100000000E-03 0. -1.
         23    2    1    2    0    0  0.71054273576E-14  0.88817841970E-15  0.17763568394E-14  0.91188000000E+02  0.91188000000E+02 0.  0.
    9900012    2    3    3    0    0 -0.34570489852E+02 -0.79466118451E+01 -0.98747878316E+01  0.54367097741E+02  0.40000030921E+02 0.  0.
        -12    1    3    3    0    0  0.34570489852E+02  0.79466118451E+01  0.98747878316E+01  0.36820902259E+02  0.00000000000E+00 0.  1.
         11    1    4    4    0    0  0.71191286633E+01 -0.56723401768E+01  0.44108506341E+00  0.91132865806E+01  0.51100000000E-03 0. -1.
        -11    1    4    4    0    0 -0.86361002650E+01 -0.39811078462E+01  0.23832185523E+01  0.98036308784E+01  0.51100000000E-03 0.  1.
         12    1    4    4    0    0 -0.33053518250E+02  0.17068361779E+01 -0.12699091447E+02  0.35450180282E+02  0.00000000000E+00 0. -1.
</event>
<event>
 8    1  0.2402194E-006  0.9118800E+02  0.7816164E-02  0.1184000E+00
        -11   -1    0    0    0    0  0.00000000000E+00  0.00000000000E+00  0.45593999997E+02  0.45594000000E+02  0.51100000000E-03 0.  1.
         11   -1    0    0    0    0 -0.00000000000E+00 -0.00000000000E+00 -0.45593999997E+02  0.45594000000E+02  0.51100000000E-03 0. -1.
         23    2    1    2    0    0  0.17763568394E-14  0.00000000000E+00  0.00000000000E+00  0.91188000000E+02  0.91188000000E+02 0.  0.
    9900012    2    3    3    0    0  0.91999554593E+01  0.20493691574E+02 -0.29174493125E+02  0.54367059981E+02  0.39999944839E+02 0.  0.
        -12    1    3    3    0    0 -0.91999554593E+01 -0.20493691574E+02  0.29174493125E+02  0.36820940019E+02  0.00000000000E+00 0.  1.
         11    1    4    4    0    0  0.18571135468E+02  0.14223986052E+01 -0.18580930918E+02  0.26308958254E+02  0.51100000000E-03 0. -1.
        -11    1    4    4    0    0 -0.87891454039E+00  0.13313741409E+02 -0.11690419584E+02  0.17739619821E+02  0.51100000000E-03 0.  1.
        -12    1    4    4    0    0 -0.84922654685E+01  0.57575515593E+01  0.10968573771E+01  0.10318481906E+02  0.00000000000E+00 0.  1.
</event>
<event>
 8    1  0.2402194E-006  0.9118800E+02  0.7816164E-02  0.1184000E+00
        -11   -1    0    0    0    0  0.00000000000E+00  0.00000000000E+00  0.45593999997E+02  0.45594000000E+02  0.51100000000E-03 0. -1.
         11   -1    0    0    0    0 -0.00000000000E+00 -0.00000000000E+00 -0.45593999997E+02  0.45594000000E+02  0.51100000000E-03 0.  1.
         23    2    1    2    0    0 -0.88817841970E-15  0.00000000000E+00  0.00000000000E+00  0.91188000000E+02  0.91188000000E+02 0.  0.
    9900012    2    3    3    0    0 -0.72812973237E+01 -0.14876367872E+02  0.32885499555E+02  0.54367086205E+02  0.40000004620E+02 0.  0.
        -12    1    3    3    0    0  0.72812973237E+01  0.14876367872E+02 -0.32885499555E+02  0.36820913795E+02  0.00000000000E+00 0.  1.
         11    1    4    4    0    0  0.15851322187E+01 -0.10459786784E+02  0.19121878939E+02  0.21853284379E+02  0.51100000000E-03 0. -1.
        -11    1    4    4    0    0 -0.16959974582E+02  0.73415627755E+00  0.16418727492E+01  0.17055071669E+02  0.51100000000E-03 0.  1.
         12    1    4    4    0    0  0.80935450395E+01 -0.51507373652E+01  0.12121747866E+02  0.15458730156E+02  0.00000000000E+00 0. -1.
</event>
<event>
 8    1  0.2402194E-006  0.9118800E+02  0.7816164E-02  0.1184000E+00
        -11   -1    0    0    0    0  0.00000000000E+00  0.00000000000E+00  0.45593999997E+02  0.45594000000E+02  0.51100000000E-03 0.  1.
         11   -1    0    0    0    0 -0.00000000000E+00 -0.00000000000E+00 -0.45593999997E+02  0.45594000000E+02  0.51100000000E-03 0. -1.
         23    2    1    2    0    0 -0.44408920985E-15  0.00000000000E+00  0.00000000000E+00  0.91188000000E+02  0.91188000000E+02 0.  0.
    9900012    2    3    3    0    0  0.39891053219E+01 -0.26638229561E+02 -0.25105222075E+02  0.54367076453E+02  0.39999982389E+02 0.  0.
        -12    1    3    3    0    0 -0.39891053219E+01  0.26638229561E+02  0.25105222075E+02  0.36820923547E+02  0.00000000000E+00 0.  1.
         11    1    4    4    0    0  0.38073439876E+01  0.31568495630E+01 -0.62312453608E+00  0.49849625728E+01  0.51100000000E-03 0.  1.
        -11    1    4    4    0    0  0.14273441371E+02 -0.74299136945E+01 -0.62140535218E+01  0.17249614706E+02  0.51100000000E-03 0. -1.
         12    1    4    4    0    0 -0.14091680036E+02 -0.22365165430E+02 -0.18268044018E+02  0.32132499174E+02  0.00000000000E+00 0. -1.
</event>
<event>
 8    1  0.2402194E-006  0.9118800E+02  0.7816164E-02  0.1184000E+00
        -11   -1    0    0    0    0  0.00000000000E+00  0.00000000000E+00  0.45593999997E+02  0.45594000000E+02  0.51100000000E-03 0. -1.
         11   -1    0    0    0    0 -0.00000000000E+00 -0.00000000000E+00 -0.45593999997E+02  0.45594000000E+02  0.51100000000E-03 0.  1.
         23    2    1    2    0    0 -0.17763568394E-14  0.00000000000E+00  0.17763568394E-14  0.91188000000E+02  0.91188000000E+02 0.  0.
    9900012    2    3    3    0    0 -0.14158731702E+02 -0.32058905610E+02  0.11293201114E+02  0.54367088771E+02  0.40000010471E+02 0.  0.
        -12    1    3    3    0    0  0.14158731702E+02  0.32058905610E+02 -0.11293201114E+02  0.36820911229E+02  0.00000000000E+00 0.  1.
         11    1    4    4    0    0 -0.10270961437E+01 -0.25572079959E+02  0.42995852398E+01  0.25951351283E+02  0.51100000000E-03 0. -1.
        -11    1    4    4    0    0 -0.47970832723E+00 -0.91320914587E+01 -0.53067064711E+01  0.10572906333E+02  0.51100000000E-03 0.  1.
        -12    1    4    4    0    0 -0.12651927231E+02  0.26452658069E+01  0.12300322345E+02  0.17842831155E+02  0.00000000000E+00 0.  1.
</event>
<event>
 8    1  0.2402194E-006  0.9118800E+02  0.7816164E-02  0.1184000E+00
        -11   -1    0    0    0    0  0.00000000000E+00  0.00000000000E+00  0.45593999997E+02  0.45594000000E+02  0.51100000000E-03 0.  1.
         11   -1    0    0    0    0 -0.00000000000E+00 -0.00000000000E+00 -0.45593999997E+02  0.45594000000E+02  0.51100000000E-03 0. -1.
         23    2    1    2    0    0  0.35527136788E-14  0.17763568394E-14 -0.35527136788E-14  0.91188000000E+02  0.91188000000E+02 0.  0.
    9900012    2    3    3    0    0  0.21760022337E+02  0.20684234566E+01 -0.29631153484E+02  0.54367052097E+02  0.39999926865E+02 0.  0.
        -12    1    3    3    0    0 -0.21760022337E+02 -0.20684234566E+01  0.29631153484E+02  0.36820947903E+02  0.00000000000E+00 0.  1.
         11    1    4    4    0    0  0.57634806424E+01  0.22259073300E+01 -0.15238938054E+02  0.16443771034E+02  0.51100000000E-03 0. -1.
        -11    1    4    4    0    0  0.49458335302E+01  0.12593813379E+02  0.28188647957E+01  0.13820687528E+02  0.51100000000E-03 0.  1.
        -12    1    4    4    0    0  0.11050708164E+02 -0.12751297253E+02 -0.17211080226E+02  0.24102593535E+02  0.00000000000E+00 0.  1.
</event>
<event>
 8    1  0.2402194E-006  0.9118800E+02  0.7816164E-02  0.1184000E+00
        -11   -1    0    0    0    0  0.00000000000E+00  0.00000000000E+00  0.45593999997E+02  0.45594000000E+02  0.51100000000E-03 0. -1.
         11   -1    0    0    0    0 -0.00000000000E+00 -0.00000000000E+00 -0.45593999997E+02  0.45594000000E+02  0.51100000000E-03 0.  1.
         23    2    1    2    0    0  0.35527136788E-14 -0.88817841970E-15 -0.35527136788E-14  0.91188000000E+02  0.91188000000E+02 0.  0.
    9900012    2    3    3    0    0  0.27002662517E+02 -0.22823736392E+01  0.24928456857E+02  0.54367068810E+02  0.39999964966E+02 0.  0.
        -12    1    3    3    0    0 -0.27002662517E+02  0.22823736392E+01 -0.24928456857E+02  0.36820931190E+02  0.00000000000E+00 0.  1.
         11    1    4    4    0    0  0.23448089321E+02 -0.13767884861E+02  0.21592441552E+02  0.34721766643E+02  0.51100000000E-03 0. -1.
        -11    1    4    4    0    0 -0.23821794113E+01  0.12903140855E+02  0.33481094083E+01  0.13541626917E+02  0.51100000000E-03 0.  1.
        -12    1    4    4    0    0  0.59367526073E+01 -0.14176296336E+01 -0.12094103573E-01  0.61036752507E+01  0.00000000000E+00 0.  1.
</event>
<event>
 8    1  0.2402194E-006  0.9118800E+02  0.7816164E-02  0.1184000E+00
        -11   -1    0    0    0    0  0.00000000000E+00  0.00000000000E+00  0.45593999997E+02  0.45594000000E+02  0.51100000000E-03 0.  1.
         11   -1    0    0    0    0 -0.00000000000E+00 -0.00000000000E+00 -0.45593999997E+02  0.45594000000E+02  0.51100000000E-03 0. -1.
         23    2    1    2    0    0 -0.35527136788E-14  0.00000000000E+00  0.35527136788E-14  0.91188000000E+02  0.91188000000E+02 0.  0.
    9900012    2    3    3    0    0  0.27068533409E+02 -0.23902486942E+02 -0.71932342034E+01  0.54367122753E+02  0.40000087939E+02 0.  0.
        -12    1    3    3    0    0 -0.27068533409E+02  0.23902486942E+02  0.71932342034E+01  0.36820877247E+02  0.00000000000E+00 0.  1.
         11    1    4    4    0    0  0.17208769109E+02 -0.24032169280E+02  0.91691135660E+01  0.30947690356E+02  0.51100000000E-03 0. -1.
        -11    1    4    4    0    0 -0.16742967891E+01 -0.14817352389E+01  0.10510288016E+01  0.24705203620E+01  0.51100000000E-03 0.  1.
         12    1    4    4    0    0  0.11534061089E+02  0.16114175764E+01 -0.17413376571E+02  0.20948912034E+02  0.00000000000E+00 0. -1.
</event>
<event>
 8    1  0.2402194E-006  0.9118800E+02  0.7816164E-02  0.1184000E+00
        -11   -1    0    0    0    0  0.00000000000E+00  0.00000000000E+00  0.45593999997E+02  0.45594000000E+02  0.51100000000E-03 0.  1.
         11   -1    0    0    0    0 -0.00000000000E+00 -0.00000000000E+00 -0.45593999997E+02  0.45594000000E+02  0.51100000000E-03 0. -1.
         23    2    1    2    0    0  0.00000000000E+00  0.00000000000E+00  0.00000000000E+00  0.91188000000E+02  0.91188000000E+02 0.  0.
    9900012    2    3    3    0    0  0.10342441673E+02 -0.34384622074E+02 -0.81555206399E+01  0.54367070464E+02  0.39999968737E+02 0.  0.
         12    1    3    3    0    0 -0.10342441673E+02  0.34384622074E+02  0.81555206399E+01  0.36820929536E+02  0.00000000000E+00 0. -1.
         11    1    4    4    0    0  0.23496348757E+01 -0.82122939558E+01  0.38932640348E+01  0.93872286204E+01  0.51100000000E-03 0. -1.
        -11    1    4    4    0    0 -0.53011150373E+01 -0.23288167592E+02  0.37007600064E+01  0.24168909684E+02  0.51100000000E-03 0.  1.
         12    1    4    4    0    0  0.13293921835E+02 -0.28841605267E+01 -0.15749544681E+02  0.20810932160E+02  0.00000000000E+00 0. -1.
</event>
<event>
 8    1  0.2402194E-006  0.9118800E+02  0.7816164E-02  0.1184000E+00
        -11   -1    0    0    0    0  0.00000000000E+00  0.00000000000E+00  0.45593999997E+02  0.45594000000E+02  0.51100000000E-03 0.  1.
         11   -1    0    0    0    0 -0.00000000000E+00 -0.00000000000E+00 -0.45593999997E+02  0.45594000000E+02  0.51100000000E-03 0. -1.
         23    2    1    2    0    0  0.17763568394E-14  0.00000000000E+00  0.35527136788E-14  0.91188000000E+02  0.91188000000E+02 0.  0.
    9900012    2    3    3    0    0 -0.43594677724E+01 -0.33111009744E+02 -0.15505984519E+02  0.54367089074E+02  0.40000011162E+02 0.  0.
        -12    1    3    3    0    0  0.43594677724E+01  0.33111009744E+02  0.15505984519E+02  0.36820910926E+02  0.00000000000E+00 0.  1.
         11    1    4    4    0    0 -0.15857521826E+02 -0.12453117440E+02 -0.21308803252E+02  0.29336090890E+02  0.51100000000E-03 0. -1.
        -11    1    4    4    0    0  0.56263114781E+01 -0.10325964658E+02 -0.10478048955E+00  0.11759757913E+02  0.51100000000E-03 0.  1.
        -12    1    4    4    0    0  0.58717425760E+01 -0.10331927645E+02  0.59075992218E+01  0.13271240270E+02  0.00000000000E+00 0.  1.
</event>
<event>
 8    1  0.2402194E-006  0.9118800E+02  0.7816164E-02  0.1184000E+00
        -11   -1    0    0    0    0  0.00000000000E+00  0.00000000000E+00  0.45593999997E+02  0.45594000000E+02  0.51100000000E-03 0. -1.
         11   -1    0    0    0    0 -0.00000000000E+00 -0.00000000000E+00 -0.45593999997E+02  0.45594000000E+02  0.51100000000E-03 0.  1.
         23    2    1    2    0    0  0.88817841970E-15  0.00000000000E+00  0.71054273576E-14  0.91188000000E+02  0.91188000000E+02 0.  0.
    9900012    2    3    3    0    0 -0.77292659814E+01 -0.23898611481E+02 -0.26923861328E+02  0.54367088928E+02  0.40000010829E+02 0.  0.
         12    1    3    3    0    0  0.77292659814E+01  0.23898611481E+02  0.26923861328E+02  0.36820911072E+02  0.00000000000E+00 0. -1.
         11    1    4    4    0    0  0.15633958674E+01  0.47189571628E+01 -0.64049014791E+01  0.81077448505E+01  0.51100000000E-03 0. -1.
        -11    1    4    4    0    0  0.43211638263E+01 -0.20498915948E+02 -0.80710461161E+00  0.20964957190E+02  0.51100000000E-03 0.  1.
         12    1    4    4    0    0 -0.13613825675E+02 -0.81186526963E+01 -0.19711855238E+02  0.25294386888E+02  0.00000000000E+00 0. -1.
</event>
<event>
 8    1  0.2402194E-006  0.9118800E+02  0.7816164E-02  0.1184000E+00
        -11   -1    0    0    0    0  0.00000000000E+00  0.00000000000E+00  0.45593999997E+02  0.45594000000E+02  0.51100000000E-03 0.  1.
         11   -1    0    0    0    0 -0.00000000000E+00 -0.00000000000E+00 -0.45593999997E+02  0.45594000000E+02  0.51100000000E-03 0. -1.
         23    2    1    2    0    0  0.00000000000E+00  0.17763568394E-14  0.00000000000E+00  0.91188000000E+02  0.91188000000E+02 0.  0.
    9900012    2    3    3    0    0 -0.25901585465E+02  0.10763722025E+02 -0.23854340974E+02  0.54367089844E+02  0.40000012917E+02 0.  0.
        -12    1    3    3    0    0  0.25901585465E+02 -0.10763722025E+02  0.23854340974E+02  0.36820910156E+02  0.00000000000E+00 0.  1.
         11    1    4    4    0    0 -0.20027234014E+02  0.88042258233E+01 -0.17248876041E+02  0.27859077866E+02  0.51100000000E-03 0. -1.
        -11    1    4    4    0    0 -0.12357926502E+02  0.16409227760E+01 -0.12561997925E+02  0.17697874649E+02  0.51100000000E-03 0.  1.
        -12    1    4    4    0    0  0.64835750511E+01  0.31857342524E+00  0.59565329916E+01  0.88101373287E+01  0.00000000000E+00 0.  1.
</event>
<event>
 8    1  0.2402194E-006  0.9118800E+02  0.7816164E-02  0.1184000E+00
        -11   -1    0    0    0    0  0.00000000000E+00  0.00000000000E+00  0.45593999997E+02  0.45594000000E+02  0.51100000000E-03 0. -1.
         11   -1    0    0    0    0 -0.00000000000E+00 -0.00000000000E+00 -0.45593999997E+02  0.45594000000E+02  0.51100000000E-03 0.  1.
         23    2    1    2    0    0 -0.35527136788E-14  0.00000000000E+00  0.00000000000E+00  0.91188000000E+02  0.91188000000E+02 0.  0.
    9900012    2    3    3    0    0  0.30160047249E+02 -0.83839986157E+01 -0.19387117790E+02  0.54367079057E+02  0.39999988327E+02 0.  0.
         12    1    3    3    0    0 -0.30160047249E+02  0.83839986157E+01  0.19387117790E+02  0.36820920943E+02  0.00000000000E+00 0. -1.
         11    1    4    4    0    0  0.15149831244E+02  0.96516665102E+01  0.51965933002E+01  0.18699642652E+02  0.51100000000E-03 0. -1.
        -11    1    4    4    0    0  0.10264912517E+02 -0.17487604814E+02 -0.15944628156E+02  0.25795656968E+02  0.51100000000E-03 0.  1.
         12    1    4    4    0    0  0.47453034884E+01 -0.54806031149E+00 -0.86390829348E+01  0.98717794372E+01  0.00000000000E+00 0. -1.
</event>
<event>
 8    1  0.2402194E-006  0.9118800E+02  0.7816164E-02  0.1184000E+00
        -11   -1    0    0    0    0  0.00000000000E+00  0.00000000000E+00  0.45593999997E+02  0.45594000000E+02  0.51100000000E-03 0.  1.
         11   -1    0    0    0    0 -0.00000000000E+00 -0.00000000000E+00 -0.45593999997E+02  0.45594000000E+02  0.51100000000E-03 0. -1.
         23    2    1    2    0    0  0.00000000000E+00  0.88817841970E-15 -0.35527136788E-14  0.91188000000E+02  0.91188000000E+02 0.  0.
    9900012    2    3    3    0    0  0.22168925982E+02 -0.63243151304E+01 -0.28711012920E+02  0.54367075189E+02  0.39999979507E+02 0.  0.
        -12    1    3    3    0    0 -0.22168925982E+02  0.63243151304E+01  0.28711012920E+02  0.36820924811E+02  0.00000000000E+00 0.  1.
         11    1    4    4    0    0  0.26487489563E-01  0.95429084456E+01 -0.10365337614E+02  0.14089287679E+02  0.51100000000E-03 0. -1.
        -11    1    4    4    0    0  0.24784346916E+01 -0.64550545944E+00  0.53482968470E+01  0.59298899858E+01  0.51100000000E-03 0.  1.
         12    1    4    4    0    0  0.19664003801E+02 -0.15221718117E+02 -0.23693972153E+02  0.34347897524E+02  0.00000000000E+00 0. -1.
</event>
<event>
 8    1  0.2402194E-006  0.9118800E+02  0.7816164E-02  0.1184000E+00
        -11   -1    0    0    0    0  0.00000000000E+00  0.00000000000E+00  0.45593999997E+02  0.45594000000E+02  0.51100000000E-03 0.  1.
         11   -1    0    0    0    0 -0.00000000000E+00 -0.00000000000E+00 -0.45593999997E+02  0.45594000000E+02  0.51100000000E-03 0. -1.
         23    2    1    2    0    0  0.26645352591E-14  0.00000000000E+00  0.00000000000E+00  0.91188000000E+02  0.91188000000E+02 0.  0.
    9900012    2    3    3    0    0  0.16601356956E+01  0.30205747571E+02 -0.20991281126E+02  0.54367121138E+02  0.40000084258E+02 0.  0.
        -12    1    3    3    0    0 -0.16601356956E+01 -0.30205747571E+02  0.20991281126E+02  0.36820878862E+02  0.00000000000E+00 0.  1.
         11    1    4    4    0    0 -0.84017507439E+01  0.65844493556E+01  0.84047862384E+01  0.13586199647E+02  0.51100000000E-03 0. -1.
        -11    1    4    4    0    0  0.10162207425E+02  0.10637162190E+02 -0.11510949251E+02  0.18679444106E+02  0.51100000000E-03 0.  1.
         12    1    4    4    0    0 -0.10032098519E+00  0.12984136025E+02 -0.17885118114E+02  0.22101477384E+02  0.00000000000E+00 0. -1.
</event>
<event>
 8    1  0.2402194E-006  0.9118800E+02  0.7816164E-02  0.1184000E+00
        -11   -1    0    0    0    0  0.00000000000E+00  0.00000000000E+00  0.45593999997E+02  0.45594000000E+02  0.51100000000E-03 0.  1.
         11   -1    0    0    0    0 -0.00000000000E+00 -0.00000000000E+00 -0.45593999997E+02  0.45594000000E+02  0.51100000000E-03 0. -1.
         23    2    1    2    0    0 -0.26645352591E-14  0.00000000000E+00  0.00000000000E+00  0.91188000000E+02  0.91188000000E+02 0.  0.
    9900012    2    3    3    0    0  0.11849996566E+01 -0.36754765810E+02  0.18609693488E+01  0.54367078761E+02  0.39999987652E+02 0.  0.
        -12    1    3    3    0    0 -0.11849996566E+01  0.36754765810E+02 -0.18609693488E+01  0.36820921239E+02  0.00000000000E+00 0.  1.
         11    1    4    4    0    0  0.17025594580E+01 -0.17364287596E+02 -0.36200175555E+01  0.17819139142E+02  0.51100000000E-03 0. -1.
        -11    1    4    4    0    0  0.12170859849E+02 -0.14667553253E+02  0.10909853369E+02  0.21961144066E+02  0.51100000000E-03 0.  1.
        -12    1    4    4    0    0 -0.12688419650E+02 -0.47229249621E+01 -0.54288664651E+01  0.14586795553E+02  0.00000000000E+00 0.  1.
</event>
<event>
 8    1  0.2402194E-006  0.9118800E+02  0.7816164E-02  0.1184000E+00
        -11   -1    0    0    0    0  0.00000000000E+00  0.00000000000E+00  0.45593999997E+02  0.45594000000E+02  0.51100000000E-03 0.  1.
         11   -1    0    0    0    0 -0.00000000000E+00 -0.00000000000E+00 -0.45593999997E+02  0.45594000000E+02  0.51100000000E-03 0. -1.
         23    2    1    2    0    0 -0.11102230246E-15  0.88817841970E-15  0.00000000000E+00  0.91188000000E+02  0.91188000000E+02 0.  0.
    9900012    2    3    3    0    0 -0.21262728507E+00  0.43228776266E+01  0.36565654819E+02  0.54367087549E+02  0.40000007686E+02 0.  0.
         12    1    3    3    0    0  0.21262728507E+00 -0.43228776266E+01 -0.36565654819E+02  0.36820912451E+02  0.00000000000E+00 0. -1.
         11    1    4    4    0    0  0.25980204778E+01  0.11839022657E+02  0.40338494700E+01  0.12774353592E+02  0.51100000000E-03 0. -1.
        -11    1    4    4    0    0 -0.11980222381E+01 -0.99887915383E+00  0.34547628055E+02  0.34582822634E+02  0.51100000000E-03 0.  1.
        -12    1    4    4    0    0 -0.16126255248E+01 -0.65172658766E+01 -0.20158227053E+01  0.70099113239E+01  0.00000000000E+00 0.  1.
</event>
<event>
 8    1  0.2402194E-006  0.9118800E+02  0.7816164E-02  0.1184000E+00
        -11   -1    0    0    0    0  0.00000000000E+00  0.00000000000E+00  0.45593999997E+02  0.45594000000E+02  0.51100000000E-03 0.  1.
         11   -1    0    0    0    0 -0.00000000000E+00 -0.00000000000E+00 -0.45593999997E+02  0.45594000000E+02  0.51100000000E-03 0. -1.
         23    2    1    2    0    0  0.44408920985E-15  0.35527136788E-14  0.00000000000E+00  0.91188000000E+02  0.91188000000E+02 0.  0.
    9900012    2    3    3    0    0 -0.38625731471E+01  0.19616839641E+02  0.30919885235E+02  0.54367093279E+02  0.40000020748E+02 0.  0.
         12    1    3    3    0    0  0.38625731471E+01 -0.19616839641E+02 -0.30919885235E+02  0.36820906721E+02  0.00000000000E+00 0. -1.
         11    1    4    4    0    0  0.23884712656E+01  0.19667909581E+02  0.31649899409E+02  0.37339625000E+02  0.51100000000E-03 0. -1.
        -11    1    4    4    0    0 -0.53412866000E+01 -0.36714758593E+01  0.63183808118E+01  0.90515752150E+01  0.51100000000E-03 0.  1.
         12    1    4    4    0    0 -0.90975781270E+00  0.36204059195E+01 -0.70483949858E+01  0.79758930644E+01  0.00000000000E+00 0. -1.
</event>
<event>
 8    1  0.2402194E-006  0.9118800E+02  0.7816164E-02  0.1184000E+00
        -11   -1    0    0    0    0  0.00000000000E+00  0.00000000000E+00  0.45593999997E+02  0.45594000000E+02  0.51100000000E-03 0.  1.
         11   -1    0    0    0    0 -0.00000000000E+00 -0.00000000000E+00 -0.45593999997E+02  0.45594000000E+02  0.51100000000E-03 0. -1.
         23    2    1    2    0    0 -0.35527136788E-14 -0.35527136788E-14 -0.22204460493E-15  0.91188000000E+02  0.91188000000E+02 0.  0.
    9900012    2    3    3    0    0  0.30611727565E+02  0.20453672151E+02  0.59053916168E+00  0.54367091463E+02  0.40000016607E+02 0.  0.
         12    1    3    3    0    0 -0.30611727565E+02 -0.20453672151E+02 -0.59053916168E+00  0.36820908537E+02  0.00000000000E+00 0. -1.
         11    1    4    4    0    0 -0.40454633305E+01  0.25603501710E+00  0.33514871330E+01  0.52596381769E+01  0.51100000000E-03 0. -1.
        -11    1    4    4    0    0 -0.24291038523E+01  0.10387673724E+02 -0.63119634855E+00  0.10686567270E+02  0.51100000000E-03 0.  1.
         12    1    4    4    0    0  0.37086294748E+02  0.98099634098E+01 -0.21297516227E+01  0.38420886016E+02  0.00000000000E+00 0. -1.
</event>
<event>
 8    1  0.2402194E-006  0.9118800E+02  0.7816164E-02  0.1184000E+00
        -11   -1    0    0    0    0  0.00000000000E+00  0.00000000000E+00  0.45593999997E+02  0.45594000000E+02  0.51100000000E-03 0.  1.
         11   -1    0    0    0    0 -0.00000000000E+00 -0.00000000000E+00 -0.45593999997E+02  0.45594000000E+02  0.51100000000E-03 0. -1.
         23    2    1    2    0    0 -0.35527136788E-14 -0.35527136788E-14 -0.10658141036E-13  0.91188000000E+02  0.91188000000E+02 0.  0.
    9900012    2    3    3    0    0 -0.12828785144E+02 -0.13666759701E+02 -0.31692606956E+02  0.54367090388E+02  0.40000014158E+02 0.  0.
        -12    1    3    3    0    0  0.12828785144E+02  0.13666759701E+02  0.31692606956E+02  0.36820909612E+02  0.00000000000E+00 0.  1.
         11    1    4    4    0    0  0.12189621168E+01 -0.78741476951E+01 -0.16223095134E+01  0.81314180180E+01  0.51100000000E-03 0. -1.
        -11    1    4    4    0    0 -0.54359758008E+01 -0.12056851648E+02  0.11244344385E+01  0.13273351409E+02  0.51100000000E-03 0.  1.
         12    1    4    4    0    0 -0.86117714602E+01  0.62642396423E+01 -0.31194731881E+02  0.32962320961E+02  0.00000000000E+00 0. -1.
</event>
<event>
 8    1  0.2402194E-006  0.9118800E+02  0.7816164E-02  0.1184000E+00
        -11   -1    0    0    0    0  0.00000000000E+00  0.00000000000E+00  0.45593999997E+02  0.45594000000E+02  0.51100000000E-03 0. -1.
         11   -1    0    0    0    0 -0.00000000000E+00 -0.00000000000E+00 -0.45593999997E+02  0.45594000000E+02  0.51100000000E-03 0.  1.
         23    2    1    2    0    0 -0.88817841970E-15  0.35527136788E-14  0.00000000000E+00  0.91188000000E+02  0.91188000000E+02 0.  0.
    9900012    2    3    3    0    0  0.35295706114E+01 -0.23365114034E+02 -0.28238187835E+02  0.54367059291E+02  0.39999943265E+02 0.  0.
         12    1    3    3    0    0 -0.35295706114E+01  0.23365114034E+02  0.28238187835E+02  0.36820940709E+02  0.00000000000E+00 0. -1.
         11    1    4    4    0    0 -0.51710274009E+01 -0.65357596005E+00 -0.23474403576E+02  0.24046087196E+02  0.51100000000E-03 0. -1.
        -11    1    4    4    0    0  0.71180716206E+01 -0.12664338183E+02 -0.11148217288E+02  0.18312158643E+02  0.51100000000E-03 0.  1.
         12    1    4    4    0    0  0.15825263917E+01 -0.10047199891E+02  0.63844330290E+01  0.12008813452E+02  0.00000000000E+00 0. -1.
</event>
<event>
 8    1  0.2402194E-006  0.9118800E+02  0.7816164E-02  0.1184000E+00
        -11   -1    0    0    0    0  0.00000000000E+00  0.00000000000E+00  0.45593999997E+02  0.45594000000E+02  0.51100000000E-03 0.  1.
         11   -1    0    0    0    0 -0.00000000000E+00 -0.00000000000E+00 -0.45593999997E+02  0.45594000000E+02  0.51100000000E-03 0. -1.
         23    2    1    2    0    0  0.00000000000E+00 -0.88817841970E-15  0.00000000000E+00  0.91188000000E+02  0.91188000000E+02 0.  0.
    9900012    2    3    3    0    0 -0.36717731470E+02  0.27505656006E+01 -0.15119227335E+00  0.54367078305E+02  0.39999986611E+02 0.  0.
         12    1    3    3    0    0  0.36717731470E+02 -0.27505656006E+01  0.15119227335E+00  0.36820921695E+02  0.00000000000E+00 0. -1.
         11    1    4    4    0    0 -0.36970578198E+02  0.89325184134E+01 -0.63677268605E+01  0.38563732744E+02  0.51100000000E-03 0. -1.
        -11    1    4    4    0    0  0.20431327253E+01  0.33453081253E+01 -0.58219748205E+00  0.39628817741E+01  0.51100000000E-03 0.  1.
         12    1    4    4    0    0 -0.17902859967E+01 -0.95272609381E+01  0.67987320692E+01  0.11840463787E+02  0.00000000000E+00 0. -1.
</event>
<event>
 8    1  0.2402194E-006  0.9118800E+02  0.7816164E-02  0.1184000E+00
        -11   -1    0    0    0    0  0.00000000000E+00  0.00000000000E+00  0.45593999997E+02  0.45594000000E+02  0.51100000000E-03 0. -1.
         11   -1    0    0    0    0 -0.00000000000E+00 -0.00000000000E+00 -0.45593999997E+02  0.45594000000E+02  0.51100000000E-03 0.  1.
         23    2    1    2    0    0  0.00000000000E+00 -0.26645352591E-14 -0.35527136788E-14  0.91188000000E+02  0.91188000000E+02 0.  0.
    9900012    2    3    3    0    0 -0.29707248697E+02  0.43527133188E+01  0.21314612887E+02  0.54367089353E+02  0.40000011798E+02 0.  0.
        -12    1    3    3    0    0  0.29707248697E+02 -0.43527133188E+01 -0.21314612887E+02  0.36820910647E+02  0.00000000000E+00 0.  1.
         11    1    4    4    0    0 -0.10444207649E+02  0.43305864081E+01  0.84577777258E+01  0.14119824941E+02  0.51100000000E-03 0. -1.
        -11    1    4    4    0    0 -0.22343483534E+02 -0.11101264114E+02  0.31140321046E+01  0.25142921818E+02  0.51100000000E-03 0.  1.
        -12    1    4    4    0    0  0.30804424863E+01  0.11123391024E+02  0.97428030562E+01  0.15104342594E+02  0.00000000000E+00 0.  1.
</event>
<event>
 8    1  0.2402194E-006  0.9118800E+02  0.7816164E-02  0.1184000E+00
        -11   -1    0    0    0    0  0.00000000000E+00  0.00000000000E+00  0.45593999997E+02  0.45594000000E+02  0.51100000000E-03 0. -1.
         11   -1    0    0    0    0 -0.00000000000E+00 -0.00000000000E+00 -0.45593999997E+02  0.45594000000E+02  0.51100000000E-03 0.  1.
         23    2    1    2    0    0 -0.17763568394E-14 -0.71054273576E-14  0.00000000000E+00  0.91188000000E+02  0.91188000000E+02 0.  0.
    9900012    2    3    3    0    0  0.15723521259E+02  0.28254708923E+02  0.17613099269E+02  0.54367096114E+02  0.40000027212E+02 0.  0.
         12    1    3    3    0    0 -0.15723521259E+02 -0.28254708923E+02 -0.17613099269E+02  0.36820903886E+02  0.00000000000E+00 0. -1.
         11    1    4    4    0    0  0.25694024885E+01 -0.70045326449E+01  0.80054321424E+01  0.10943137154E+02  0.51100000000E-03 0. -1.
        -11    1    4    4    0    0  0.11106968227E+01  0.15332305588E+00  0.60348336149E+01  0.61381082111E+01  0.51100000000E-03 0.  1.
        -12    1    4    4    0    0  0.12043421948E+02  0.35105918512E+02  0.35728335118E+01  0.37285850749E+02  0.00000000000E+00 0.  1.
</event>
<event>
 8    1  0.2402194E-006  0.9118800E+02  0.7816164E-02  0.1184000E+00
        -11   -1    0    0    0    0  0.00000000000E+00  0.00000000000E+00  0.45593999997E+02  0.45594000000E+02  0.51100000000E-03 0. -1.
         11   -1    0    0    0    0 -0.00000000000E+00 -0.00000000000E+00 -0.45593999997E+02  0.45594000000E+02  0.51100000000E-03 0.  1.
         23    2    1    2    0    0  0.00000000000E+00  0.35527136788E-14 -0.35527136788E-14  0.91188000000E+02  0.91188000000E+02 0.  0.
    9900012    2    3    3    0    0  0.12286015471E+02  0.14091579506E+02 -0.31721558946E+02  0.54367135112E+02  0.40000116115E+02 0.  0.
        -12    1    3    3    0    0 -0.12286015471E+02 -0.14091579506E+02  0.31721558946E+02  0.36820864888E+02  0.00000000000E+00 0.  1.
         11    1    4    4    0    0  0.15528798224E+02  0.95553063334E-01 -0.22234949855E+02  0.27120945780E+02  0.51100000000E-03 0. -1.
        -11    1    4    4    0    0 -0.51418321364E+00 -0.53131183500E+01 -0.48257944247E+01  0.71959643599E+01  0.51100000000E-03 0.  1.
         12    1    4    4    0    0 -0.27285995401E+01  0.19309144792E+02 -0.46608146662E+01  0.20050224972E+02  0.00000000000E+00 0. -1.
</event>
<event>
 8    1  0.2402194E-006  0.9118800E+02  0.7816164E-02  0.1184000E+00
        -11   -1    0    0    0    0  0.00000000000E+00  0.00000000000E+00  0.45593999997E+02  0.45594000000E+02  0.51100000000E-03 0.  1.
         11   -1    0    0    0    0 -0.00000000000E+00 -0.00000000000E+00 -0.45593999997E+02  0.45594000000E+02  0.51100000000E-03 0. -1.
         23    2    1    2    0    0  0.00000000000E+00  0.00000000000E+00  0.00000000000E+00  0.91188000000E+02  0.91188000000E+02 0.  0.
    9900012    2    3    3    0    0 -0.94340731909E+01 -0.26272439281E+02 -0.24011082236E+02  0.54367151654E+02  0.40000153826E+02 0.  0.
        -12    1    3    3    0    0  0.94340731909E+01  0.26272439281E+02  0.24011082236E+02  0.36820848346E+02  0.00000000000E+00 0.  1.
         11    1    4    4    0    0 -0.11475081163E+02 -0.19091219465E+02 -0.14064822069E+02  0.26343336320E+02  0.51100000000E-03 0. -1.
        -11    1    4    4    0    0  0.82790503041E+01 -0.10303029952E+02  0.27843919235E+01  0.13507329076E+02  0.51100000000E-03 0.  1.
         12    1    4    4    0    0 -0.62380423316E+01  0.31218101356E+01 -0.12730652090E+02  0.14516486258E+02  0.00000000000E+00 0. -1.
</event>
<event>
 8    1  0.2402194E-006  0.9118800E+02  0.7816164E-02  0.1184000E+00
        -11   -1    0    0    0    0  0.00000000000E+00  0.00000000000E+00  0.45593999997E+02  0.45594000000E+02  0.51100000000E-03 0.  1.
         11   -1    0    0    0    0 -0.00000000000E+00 -0.00000000000E+00 -0.45593999997E+02  0.45594000000E+02  0.51100000000E-03 0. -1.
         23    2    1    2    0    0 -0.71054273576E-14  0.00000000000E+00  0.00000000000E+00  0.91188000000E+02  0.91188000000E+02 0.  0.
    9900012    2    3    3    0    0 -0.34660546193E+02 -0.10726562112E+02  0.62741063789E+01  0.54367122661E+02  0.40000087731E+02 0.  0.
         12    1    3    3    0    0  0.34660546193E+02  0.10726562112E+02 -0.62741063789E+01  0.36820877339E+02  0.00000000000E+00 0. -1.
         11    1    4    4    0    0  0.35115662819E+01  0.29051450561E+01  0.10554802972E+02  0.11496731343E+02  0.51100000000E-03 0.  1.
        -11    1    4    4    0    0 -0.24430623042E+02 -0.64220731093E+01  0.35155690435E+01  0.25504070091E+02  0.51100000000E-03 0. -1.
         12    1    4    4    0    0 -0.13741489433E+02 -0.72096340583E+01 -0.77962656363E+01  0.17366321227E+02  0.00000000000E+00 0. -1.
</event>
<event>
 8    1  0.2402194E-006  0.9118800E+02  0.7816164E-02  0.1184000E+00
        -11   -1    0    0    0    0  0.00000000000E+00  0.00000000000E+00  0.45593999997E+02  0.45594000000E+02  0.51100000000E-03 0.  1.
         11   -1    0    0    0    0 -0.00000000000E+00 -0.00000000000E+00 -0.45593999997E+02  0.45594000000E+02  0.51100000000E-03 0. -1.
         23    2    1    2    0    0  0.35527136788E-14  0.00000000000E+00 -0.35527136788E-14  0.91188000000E+02  0.91188000000E+02 0.  0.
    9900012    2    3    3    0    0 -0.26013568683E+02 -0.12551040682E+02  0.22837284334E+02  0.54367137251E+02  0.40000120990E+02 0.  0.
         12    1    3    3    0    0  0.26013568683E+02  0.12551040682E+02 -0.22837284334E+02  0.36820862749E+02  0.00000000000E+00 0. -1.
         11    1    4    4    0    0 -0.98801886705E+01 -0.41168142314E+00 -0.42638658181E+01  0.10768851458E+02  0.51100000000E-03 0.  1.
        -11    1    4    4    0    0  0.22804830074E+01 -0.14250295438E+02  0.63264167206E+01  0.15757381496E+02  0.51100000000E-03 0. -1.
        -12    1    4    4    0    0 -0.18413863020E+02  0.21109361796E+01  0.20774733432E+02  0.27840904296E+02  0.00000000000E+00 0.  1.
</event>
<event>
 8    1  0.2402194E-006  0.9118800E+02  0.7816164E-02  0.1184000E+00
        -11   -1    0    0    0    0  0.00000000000E+00  0.00000000000E+00  0.45593999997E+02  0.45594000000E+02  0.51100000000E-03 0.  1.
         11   -1    0    0    0    0 -0.00000000000E+00 -0.00000000000E+00 -0.45593999997E+02  0.45594000000E+02  0.51100000000E-03 0. -1.
         23    2    1    2    0    0  0.71054273576E-14  0.17763568394E-14  0.00000000000E+00  0.91188000000E+02  0.91188000000E+02 0.  0.
    9900012    2    3    3    0    0  0.33527579708E+02  0.77600790558E+01  0.13094372076E+02  0.54367081922E+02  0.39999994859E+02 0.  0.
         12    1    3    3    0    0 -0.33527579708E+02 -0.77600790558E+01 -0.13094372076E+02  0.36820918078E+02  0.00000000000E+00 0. -1.
         11    1    4    4    0    0 -0.53417101748E+00  0.14546341969E+01  0.37377274769E+00  0.15940532145E+01  0.51100000000E-03 0.  1.
        -11    1    4    4    0    0  0.41884831548E+02  0.76871294755E+01  0.74282487497E+01  0.43227421310E+02  0.51100000000E-03 0. -1.
         12    1    4    4    0    0 -0.78230808230E+01 -0.13816846165E+01  0.52923505785E+01  0.95456073976E+01  0.00000000000E+00 0. -1.
</event>
<event>
 8    1  0.2402194E-006  0.9118800E+02  0.7816164E-02  0.1184000E+00
        -11   -1    0    0    0    0  0.00000000000E+00  0.00000000000E+00  0.45593999997E+02  0.45594000000E+02  0.51100000000E-03 0.  1.
         11   -1    0    0    0    0 -0.00000000000E+00 -0.00000000000E+00 -0.45593999997E+02  0.45594000000E+02  0.51100000000E-03 0. -1.
         23    2    1    2    0    0  0.71054273576E-14  0.35527136788E-14  0.35527136788E-14  0.91188000000E+02  0.91188000000E+02 0.  0.
    9900012    2    3    3    0    0  0.19479330618E+02  0.16127702879E+02  0.26762528228E+02  0.54367081508E+02  0.39999993914E+02 0.  0.
         12    1    3    3    0    0 -0.19479330618E+02 -0.16127702879E+02 -0.26762528228E+02  0.36820918492E+02  0.00000000000E+00 0. -1.
         11    1    4    4    0    0  0.24108997622E+01  0.13425442246E+01  0.78561190123E+01  0.83266721356E+01  0.51100000000E-03 0. -1.
        -11    1    4    4    0    0  0.20991610370E+02 -0.31192380712E+00  0.21700482255E+02  0.30193640601E+02  0.51100000000E-03 0.  1.
         12    1    4    4    0    0 -0.39231795140E+01  0.15097082461E+02 -0.27940730397E+01  0.15846768771E+02  0.00000000000E+00 0. -1.
</event>
<event>
 8    1  0.2402194E-006  0.9118800E+02  0.7816164E-02  0.1184000E+00
        -11   -1    0    0    0    0  0.00000000000E+00  0.00000000000E+00  0.45593999997E+02  0.45594000000E+02  0.51100000000E-03 0.  1.
         11   -1    0    0    0    0 -0.00000000000E+00 -0.00000000000E+00 -0.45593999997E+02  0.45594000000E+02  0.51100000000E-03 0. -1.
         23    2    1    2    0    0  0.00000000000E+00 -0.71054273576E-14  0.17763568394E-14  0.91188000000E+02  0.91188000000E+02 0.  0.
    9900012    2    3    3    0    0  0.67117727322E+01 -0.34343649644E+02 -0.11456272263E+02  0.54367077439E+02  0.39999984638E+02 0.  0.
        -12    1    3    3    0    0 -0.67117727322E+01  0.34343649644E+02  0.11456272263E+02  0.36820922561E+02  0.00000000000E+00 0.  1.
         11    1    4    4    0    0  0.43809242837E+01  0.28722113305E+01 -0.10345547535E+02  0.11596225661E+02  0.51100000000E-03 0. -1.
        -11    1    4    4    0    0  0.10456004934E+02 -0.10997299526E+02  0.12188327175E+01  0.15223474949E+02  0.51100000000E-03 0.  1.
         12    1    4    4    0    0 -0.81251564859E+01 -0.26218561448E+02 -0.23295574451E+01  0.27547376830E+02  0.00000000000E+00 0. -1.
</event>
<event>
 8    1  0.2402194E-006  0.9118800E+02  0.7816164E-02  0.1184000E+00
        -11   -1    0    0    0    0  0.00000000000E+00  0.00000000000E+00  0.45593999997E+02  0.45594000000E+02  0.51100000000E-03 0. -1.
         11   -1    0    0    0    0 -0.00000000000E+00 -0.00000000000E+00 -0.45593999997E+02  0.45594000000E+02  0.51100000000E-03 0.  1.
         23    2    1    2    0    0 -0.35527136788E-14  0.88817841970E-15  0.00000000000E+00  0.91188000000E+02  0.91188000000E+02 0.  0.
    9900012    2    3    3    0    0  0.27656417581E+02 -0.59651137760E+01 -0.23565236153E+02  0.54367076998E+02  0.39999983633E+02 0.  0.
         12    1    3    3    0    0 -0.27656417581E+02  0.59651137760E+01  0.23565236153E+02  0.36820923002E+02  0.00000000000E+00 0. -1.
         11    1    4    4    0    0  0.35946465428E+02 -0.75383702447E+01 -0.16425904100E+02  0.40234136358E+02  0.51100000000E-03 0. -1.
        -11    1    4    4    0    0 -0.34287012238E+01  0.49626847426E+01 -0.49916838613E+01  0.78295044523E+01  0.51100000000E-03 0.  1.
         12    1    4    4    0    0 -0.48613466236E+01 -0.33894282740E+01 -0.21476481914E+01  0.63034361878E+01  0.00000000000E+00 0. -1.
</event>
<event>
 8    1  0.2402194E-006  0.9118800E+02  0.7816164E-02  0.1184000E+00
        -11   -1    0    0    0    0  0.00000000000E+00  0.00000000000E+00  0.45593999997E+02  0.45594000000E+02  0.51100000000E-03 0.  1.
         11   -1    0    0    0    0 -0.00000000000E+00 -0.00000000000E+00 -0.45593999997E+02  0.45594000000E+02  0.51100000000E-03 0. -1.
         23    2    1    2    0    0  0.88817841970E-15  0.00000000000E+00  0.00000000000E+00  0.91188000000E+02  0.91188000000E+02 0.  0.
    9900012    2    3    3    0    0  0.28610872840E+01 -0.30065449533E+02  0.21063318581E+02  0.54367075708E+02  0.39999980692E+02 0.  0.
         12    1    3    3    0    0 -0.28610872840E+01  0.30065449533E+02 -0.21063318581E+02  0.36820924292E+02  0.00000000000E+00 0. -1.
         11    1    4    4    0    0 -0.10950047366E+01  0.23461037971E+01 -0.33964647324E+01  0.42707389688E+01  0.51100000000E-03 0. -1.
        -11    1    4    4    0    0  0.14486370221E+02 -0.29359079845E+02  0.18921463087E+02  0.37813122816E+02  0.51100000000E-03 0.  1.
        -12    1    4    4    0    0 -0.10530278200E+02 -0.30524734850E+01  0.55383202263E+01  0.12283213923E+02  0.00000000000E+00 0.  1.
</event>
<event>
 8    1  0.2402194E-006  0.9118800E+02  0.7816164E-02  0.1184000E+00
        -11   -1    0    0    0    0  0.00000000000E+00  0.00000000000E+00  0.45593999997E+02  0.45594000000E+02  0.51100000000E-03 0. -1.
         11   -1    0    0    0    0 -0.00000000000E+00 -0.00000000000E+00 -0.45593999997E+02  0.45594000000E+02  0.51100000000E-03 0.  1.
         23    2    1    2    0    0  0.88817841970E-15  0.88817841970E-15  0.00000000000E+00  0.91188000000E+02  0.91188000000E+02 0.  0.
    9900012    2    3    3    0    0  0.24596676839E+01 -0.76623496768E+01 -0.35930739595E+02  0.54367087253E+02  0.40000007011E+02 0.  0.
         12    1    3    3    0    0 -0.24596676839E+01  0.76623496768E+01  0.35930739595E+02  0.36820912747E+02  0.00000000000E+00 0. -1.
         11    1    4    4    0    0  0.11415458043E+02 -0.20720130647E+01  0.64186923183E+00  0.11619721031E+02  0.51100000000E-03 0. -1.
        -11    1    4    4    0    0 -0.50724923797E+01  0.19263307044E+01 -0.33198295374E+02  0.33638783345E+02  0.51100000000E-03 0.  1.
        -12    1    4    4    0    0 -0.38832979795E+01 -0.75166673164E+01 -0.33743134527E+01  0.91085828766E+01  0.00000000000E+00 0.  1.
</event>
<event>
 8    1  0.2402194E-006  0.9118800E+02  0.7816164E-02  0.1184000E+00
        -11   -1    0    0    0    0  0.00000000000E+00  0.00000000000E+00  0.45593999997E+02  0.45594000000E+02  0.51100000000E-03 0.  1.
         11   -1    0    0    0    0 -0.00000000000E+00 -0.00000000000E+00 -0.45593999997E+02  0.45594000000E+02  0.51100000000E-03 0. -1.
         23    2    1    2    0    0  0.00000000000E+00  0.17763568394E-14  0.00000000000E+00  0.91188000000E+02  0.91188000000E+02 0.  0.
    9900012    2    3    3    0    0 -0.25723546765E+02 -0.84596791334E+01 -0.24950164861E+02  0.54367112506E+02  0.40000064581E+02 0.  0.
        -12    1    3    3    0    0  0.25723546765E+02  0.84596791334E+01  0.24950164861E+02  0.36820887494E+02  0.00000000000E+00 0.  1.
         11    1    4    4    0    0 -0.32086035306E+01 -0.55413760651E+01 -0.17210856855E+01  0.66305445862E+01  0.51100000000E-03 0. -1.
        -11    1    4    4    0    0 -0.15026818150E+00 -0.36853911712E+01  0.82945755321E+01  0.90777019189E+01  0.51100000000E-03 0.  1.
         12    1    4    4    0    0 -0.22364675053E+02  0.76708810291E+00 -0.31523654708E+02  0.38658866001E+02  0.00000000000E+00 0. -1.
</event>
<event>
 8    1  0.2402194E-006  0.9118800E+02  0.7816164E-02  0.1184000E+00
        -11   -1    0    0    0    0  0.00000000000E+00  0.00000000000E+00  0.45593999997E+02  0.45594000000E+02  0.51100000000E-03 0.  1.
         11   -1    0    0    0    0 -0.00000000000E+00 -0.00000000000E+00 -0.45593999997E+02  0.45594000000E+02  0.51100000000E-03 0. -1.
         23    2    1    2    0    0  0.35527136788E-14  0.00000000000E+00  0.00000000000E+00  0.91188000000E+02  0.91188000000E+02 0.  0.
    9900012    2    3    3    0    0 -0.12255057579E+02 -0.84521755525E+01  0.33677197432E+02  0.54367091066E+02  0.40000015703E+02 0.  0.
         12    1    3    3    0    0  0.12255057579E+02  0.84521755525E+01 -0.33677197432E+02  0.36820908934E+02  0.00000000000E+00 0. -1.
         11    1    4    4    0    0 -0.76923262539E+01  0.11769434058E+02  0.22649535942E+01  0.14241540517E+02  0.51100000000E-03 0. -1.
        -11    1    4    4    0    0 -0.89017952573E+01 -0.84352303821E+01  0.13374424132E+02  0.18145806445E+02  0.51100000000E-03 0.  1.
        -12    1    4    4    0    0  0.43390639320E+01 -0.11786379229E+02  0.18037819706E+02  0.21979744104E+02  0.00000000000E+00 0.  1.
</event>
<event>
 8    1  0.2402194E-006  0.9118800E+02  0.7816164E-02  0.1184000E+00
        -11   -1    0    0    0    0  0.00000000000E+00  0.00000000000E+00  0.45593999997E+02  0.45594000000E+02  0.51100000000E-03 0. -1.
         11   -1    0    0    0    0 -0.00000000000E+00 -0.00000000000E+00 -0.45593999997E+02  0.45594000000E+02  0.51100000000E-03 0.  1.
         23    2    1    2    0    0  0.17763568394E-14 -0.71054273576E-14  0.77715611724E-15  0.91188000000E+02  0.91188000000E+02 0.  0.
    9900012    2    3    3    0    0  0.60242875045E+01 -0.36323359056E+02  0.31742167662E+00  0.54367092766E+02  0.40000019578E+02 0.  0.
        -12    1    3    3    0    0 -0.60242875045E+01  0.36323359056E+02 -0.31742167662E+00  0.36820907234E+02  0.00000000000E+00 0.  1.
         11    1    4    4    0    0  0.41984758264E+01 -0.22890155119E+02  0.15829140938E+02  0.28145125755E+02  0.51100000000E-03 0. -1.
        -11    1    4    4    0    0 -0.55872368882E+01 -0.45769801642E+01 -0.12250387039E+02  0.14221038863E+02  0.51100000000E-03 0.  1.
        -12    1    4    4    0    0  0.74130485663E+01 -0.88562237724E+01 -0.32613322226E+01  0.12000928148E+02  0.00000000000E+00 0.  1.
</event>
<event>
 8    1  0.2402194E-006  0.9118800E+02  0.7816164E-02  0.1184000E+00
        -11   -1    0    0    0    0  0.00000000000E+00  0.00000000000E+00  0.45593999997E+02  0.45594000000E+02  0.51100000000E-03 0.  1.
         11   -1    0    0    0    0 -0.00000000000E+00 -0.00000000000E+00 -0.45593999997E+02  0.45594000000E+02  0.51100000000E-03 0. -1.
         23    2    1    2    0    0  0.00000000000E+00  0.00000000000E+00 -0.35527136788E-14  0.91188000000E+02  0.91188000000E+02 0.  0.
    9900012    2    3    3    0    0  0.25489505473E+01  0.27193690411E+02 -0.24693828364E+02  0.54367094168E+02  0.40000022774E+02 0.  0.
        -12    1    3    3    0    0 -0.25489505473E+01 -0.27193690411E+02  0.24693828364E+02  0.36820905832E+02  0.00000000000E+00 0.  1.
         11    1    4    4    0    0  0.27761449038E+00  0.13076220745E+02 -0.27735011751E+02  0.30664238061E+02  0.51100000000E-03 0. -1.
        -11    1    4    4    0    0 -0.21443836014E+00  0.18195895040E+02  0.44302948066E+01  0.18728697030E+02  0.51100000000E-03 0.  1.
         12    1    4    4    0    0  0.24857744170E+01 -0.40784253743E+01 -0.13891114197E+01  0.49741590769E+01  0.00000000000E+00 0. -1.
</event>
<event>
 8    1  0.2402194E-006  0.9118800E+02  0.7816164E-02  0.1184000E+00
        -11   -1    0    0    0    0  0.00000000000E+00  0.00000000000E+00  0.45593999997E+02  0.45594000000E+02  0.51100000000E-03 0. -1.
         11   -1    0    0    0    0 -0.00000000000E+00 -0.00000000000E+00 -0.45593999997E+02  0.45594000000E+02  0.51100000000E-03 0.  1.
         23    2    1    2    0    0  0.35527136788E-14  0.35527136788E-14  0.44408920985E-15  0.91188000000E+02  0.91188000000E+02 0.  0.
    9900012    2    3    3    0    0  0.29998294828E+02  0.21192287855E+02 -0.26017313494E+01  0.54367085249E+02  0.40000002441E+02 0.  0.
         12    1    3    3    0    0 -0.29998294828E+02 -0.21192287855E+02  0.26017313494E+01  0.36820914751E+02  0.00000000000E+00 0. -1.
         11    1    4    4    0    0  0.11724076318E+02 -0.40826997361E+01 -0.24555425802E+01  0.12655121187E+02  0.51100000000E-03 0. -1.
        -11    1    4    4    0    0  0.17715840103E+02  0.23296891501E+01  0.41919491694E+01  0.18353497764E+02  0.51100000000E-03 0.  1.
         12    1    4    4    0    0  0.55837840776E+00  0.22945298441E+02 -0.43381379386E+01  0.23358466297E+02  0.00000000000E+00 0. -1.
</event>
<event>
 8    1  0.2402194E-006  0.9118800E+02  0.7816164E-02  0.1184000E+00
        -11   -1    0    0    0    0  0.00000000000E+00  0.00000000000E+00  0.45593999997E+02  0.45594000000E+02  0.51100000000E-03 0.  1.
         11   -1    0    0    0    0 -0.00000000000E+00 -0.00000000000E+00 -0.45593999997E+02  0.45594000000E+02  0.51100000000E-03 0. -1.
         23    2    1    2    0    0  0.00000000000E+00  0.00000000000E+00  0.00000000000E+00  0.91188000000E+02  0.91188000000E+02 0.  0.
    9900012    2    3    3    0    0  0.19073770409E+02  0.22453067302E+02  0.22086995469E+02  0.54367023401E+02  0.39999861447E+02 0.  0.
         12    1    3    3    0    0 -0.19073770409E+02 -0.22453067302E+02 -0.22086995469E+02  0.36820976599E+02  0.00000000000E+00 0. -1.
         11    1    4    4    0    0  0.16415340705E+02  0.19110323057E+02  0.87022096932E+01  0.26653260806E+02  0.51100000000E-03 0. -1.
        -11    1    4    4    0    0  0.40471206526E+01  0.13448443374E+02  0.71638084708E+01  0.15765784688E+02  0.51100000000E-03 0.  1.
         12    1    4    4    0    0 -0.13886909479E+01 -0.10105699129E+02  0.62209773046E+01  0.11947977907E+02  0.00000000000E+00 0. -1.
</event>
<event>
 8    1  0.2402194E-006  0.9118800E+02  0.7816164E-02  0.1184000E+00
        -11   -1    0    0    0    0  0.00000000000E+00  0.00000000000E+00  0.45593999997E+02  0.45594000000E+02  0.51100000000E-03 0. -1.
         11   -1    0    0    0    0 -0.00000000000E+00 -0.00000000000E+00 -0.45593999997E+02  0.45594000000E+02  0.51100000000E-03 0.  1.
         23    2    1    2    0    0  0.28865798640E-14  0.17763568394E-14  0.00000000000E+00  0.91188000000E+02  0.91188000000E+02 0.  0.
    9900012    2    3    3    0    0  0.71617228426E+00 -0.77259676939E+01  0.35994126015E+02  0.54367074059E+02  0.39999976933E+02 0.  0.
        -12    1    3    3    0    0 -0.71617228426E+00  0.77259676939E+01 -0.35994126015E+02  0.36820925941E+02  0.00000000000E+00 0.  1.
         11    1    4    4    0    0 -0.15310442607E+01 -0.89443956261E+01  0.10369268074E+02  0.13779260876E+02  0.51100000000E-03 0. -1.
        -11    1    4    4    0    0  0.14003178965E+02 -0.80818662110E+01  0.16162564123E+02  0.22861191173E+02  0.51100000000E-03 0.  1.
        -12    1    4    4    0    0 -0.11755962420E+02  0.93002941432E+01  0.94622938182E+01  0.17726622010E+02  0.00000000000E+00 0.  1.
</event>
<event>
 8    1  0.2402194E-006  0.9118800E+02  0.7816164E-02  0.1184000E+00
        -11   -1    0    0    0    0  0.00000000000E+00  0.00000000000E+00  0.45593999997E+02  0.45594000000E+02  0.51100000000E-03 0. -1.
         11   -1    0    0    0    0 -0.00000000000E+00 -0.00000000000E+00 -0.45593999997E+02  0.45594000000E+02  0.51100000000E-03 0.  1.
         23    2    1    2    0    0  0.71054273576E-14 -0.88817841970E-15  0.00000000000E+00  0.91188000000E+02  0.91188000000E+02 0.  0.
    9900012    2    3    3    0    0  0.25965759745E+02  0.66570600777E+01  0.25243685451E+02  0.54367071397E+02  0.39999970865E+02 0.  0.
        -12    1    3    3    0    0 -0.25965759745E+02 -0.66570600777E+01 -0.25243685451E+02  0.36820928603E+02  0.00000000000E+00 0.  1.
         11    1    4    4    0    0 -0.37670885646E+00 -0.36142372198E+01 -0.94909118377E-01  0.36350554667E+01  0.51100000000E-03 0.  1.
        -11    1    4    4    0    0  0.21217832625E+02  0.13663297828E+02  0.60226044334E+00  0.25243709053E+02  0.51100000000E-03 0. -1.
         12    1    4    4    0    0  0.51246359761E+01 -0.33920005309E+01  0.24736334126E+02  0.25488306878E+02  0.00000000000E+00 0. -1.
</event>
<event>
 8    1  0.2402194E-006  0.9118800E+02  0.7816164E-02  0.1184000E+00
        -11   -1    0    0    0    0  0.00000000000E+00  0.00000000000E+00  0.45593999997E+02  0.45594000000E+02  0.51100000000E-03 0.  1.
         11   -1    0    0    0    0 -0.00000000000E+00 -0.00000000000E+00 -0.45593999997E+02  0.45594000000E+02  0.51100000000E-03 0. -1.
         23    2    1    2    0    0  0.00000000000E+00 -0.44408920985E-15  0.88817841970E-15  0.91188000000E+02  0.91188000000E+02 0.  0.
    9900012    2    3    3    0    0 -0.36216390642E+02  0.52922538839E+00 -0.66236012491E+01  0.54367093925E+02  0.40000022221E+02 0.  0.
        -12    1    3    3    0    0  0.36216390642E+02 -0.52922538839E+00  0.66236012491E+01  0.36820906075E+02  0.00000000000E+00 0.  1.
         11    1    4    4    0    0 -0.27704211377E+02  0.14530242507E+02 -0.69314419483E+01  0.32042099854E+02  0.51100000000E-03 0. -1.
        -11    1    4    4    0    0 -0.74438515149E+01 -0.30228733051E+01  0.58908907344E+01  0.99624937792E+01  0.51100000000E-03 0.  1.
         12    1    4    4    0    0 -0.10683277509E+01 -0.10978143814E+02 -0.55830500353E+01  0.12362500292E+02  0.00000000000E+00 0. -1.
</event>
<event>
 8    1  0.2402194E-006  0.9118800E+02  0.7816164E-02  0.1184000E+00
        -11   -1    0    0    0    0  0.00000000000E+00  0.00000000000E+00  0.45593999997E+02  0.45594000000E+02  0.51100000000E-03 0.  1.
         11   -1    0    0    0    0 -0.00000000000E+00 -0.00000000000E+00 -0.45593999997E+02  0.45594000000E+02  0.51100000000E-03 0. -1.
         23    2    1    2    0    0  0.00000000000E+00  0.71054273576E-14 -0.88817841970E-15  0.91188000000E+02  0.91188000000E+02 0.  0.
    9900012    2    3    3    0    0  0.13380592092E+02 -0.33517004270E+02 -0.73039754827E+01  0.54367110850E+02  0.40000060804E+02 0.  0.
        -12    1    3    3    0    0 -0.13380592092E+02  0.33517004270E+02  0.73039754827E+01  0.36820889150E+02  0.00000000000E+00 0.  1.
         11    1    4    4    0    0 -0.24267669782E+01  0.46616396540E+01 -0.15324464789E+01  0.54743469658E+01  0.51100000000E-03 0.  1.
        -11    1    4    4    0    0  0.16731939292E+02 -0.33702796855E+02  0.42611634568E+01  0.37868110892E+02  0.51100000000E-03 0. -1.
         12    1    4    4    0    0 -0.92458022155E+00 -0.44758470696E+01 -0.10032692461E+02  0.11024652992E+02  0.00000000000E+00 0. -1.
</event>
<event>
 8    1  0.2402194E-006  0.9118800E+02  0.7816164E-02  0.1184000E+00
        -11   -1    0    0    0    0  0.00000000000E+00  0.00000000000E+00  0.45593999997E+02  0.45594000000E+02  0.51100000000E-03 0. -1.
         11   -1    0    0    0    0 -0.00000000000E+00 -0.00000000000E+00 -0.45593999997E+02  0.45594000000E+02  0.51100000000E-03 0.  1.
         23    2    1    2    0    0 -0.44408920985E-15  0.00000000000E+00 -0.71054273576E-14  0.91188000000E+02  0.91188000000E+02 0.  0.
    9900012    2    3    3    0    0 -0.28770118746E+01  0.84879334020E+01 -0.35713553223E+02  0.54367080748E+02  0.39999992180E+02 0.  0.
         12    1    3    3    0    0  0.28770118746E+01 -0.84879334020E+01  0.35713553223E+02  0.36820919252E+02  0.00000000000E+00 0. -1.
         11    1    4    4    0    0  0.23006038497E+00  0.94671415105E+01 -0.61554395022E+01  0.11294650587E+02  0.51100000000E-03 0. -1.
        -11    1    4    4    0    0 -0.93124144955E+00  0.12765013050E+02 -0.30859821761E+01  0.13165715137E+02  0.51100000000E-03 0.  1.
        -12    1    4    4    0    0 -0.21758308100E+01 -0.13744221159E+02 -0.26472131545E+02  0.29906715024E+02  0.00000000000E+00 0.  1.
</event>
<event>
 8    1  0.2402194E-006  0.9118800E+02  0.7816164E-02  0.1184000E+00
        -11   -1    0    0    0    0  0.00000000000E+00  0.00000000000E+00  0.45593999997E+02  0.45594000000E+02  0.51100000000E-03 0. -1.
         11   -1    0    0    0    0 -0.00000000000E+00 -0.00000000000E+00 -0.45593999997E+02  0.45594000000E+02  0.51100000000E-03 0.  1.
         23    2    1    2    0    0  0.00000000000E+00 -0.35527136788E-14  0.00000000000E+00  0.91188000000E+02  0.91188000000E+02 0.  0.
    9900012    2    3    3    0    0  0.10813321352E+02 -0.16454624840E+02  0.31114260533E+02  0.54367084669E+02  0.40000001121E+02 0.  0.
        -12    1    3    3    0    0 -0.10813321352E+02  0.16454624840E+02 -0.31114260533E+02  0.36820915331E+02  0.00000000000E+00 0.  1.
         11    1    4    4    0    0  0.15791610033E+02 -0.78993616177E+01  0.21279066725E+02  0.27650922993E+02  0.51100000000E-03 0. -1.
        -11    1    4    4    0    0  0.68622462137E+01  0.36091015566E+01  0.42708103864E+01  0.88518844751E+01  0.51100000000E-03 0.  1.
        -12    1    4    4    0    0 -0.11840534895E+02 -0.12164364779E+02  0.55643834211E+01  0.17864277201E+02  0.00000000000E+00 0.  1.
</event>
<event>
 8    1  0.2402194E-006  0.9118800E+02  0.7816164E-02  0.1184000E+00
        -11   -1    0    0    0    0  0.00000000000E+00  0.00000000000E+00  0.45593999997E+02  0.45594000000E+02  0.51100000000E-03 0. -1.
         11   -1    0    0    0    0 -0.00000000000E+00 -0.00000000000E+00 -0.45593999997E+02  0.45594000000E+02  0.51100000000E-03 0.  1.
         23    2    1    2    0    0  0.17763568394E-14 -0.71054273576E-14  0.00000000000E+00  0.91188000000E+02  0.91188000000E+02 0.  0.
    9900012    2    3    3    0    0  0.10024950357E+02 -0.33040212367E+02 -0.12791585874E+02  0.54367082954E+02  0.39999997210E+02 0.  0.
         12    1    3    3    0    0 -0.10024950357E+02  0.33040212367E+02  0.12791585874E+02  0.36820917046E+02  0.00000000000E+00 0. -1.
         11    1    4    4    0    0  0.85228648138E+01 -0.32471477404E+02 -0.70213904874E+00  0.33578699631E+02  0.51100000000E-03 0. -1.
        -11    1    4    4    0    0 -0.74200624955E+01 -0.18427709556E+01 -0.73503928561E+01  0.10605725229E+02  0.51100000000E-03 0.  1.
         12    1    4    4    0    0  0.89221480382E+01  0.12740359919E+01 -0.47390539697E+01  0.10182658094E+02  0.00000000000E+00 0. -1.
</event>
<event>
 8    1  0.2402194E-006  0.9118800E+02  0.7816164E-02  0.1184000E+00
        -11   -1    0    0    0    0  0.00000000000E+00  0.00000000000E+00  0.45593999997E+02  0.45594000000E+02  0.51100000000E-03 0.  1.
         11   -1    0    0    0    0 -0.00000000000E+00 -0.00000000000E+00 -0.45593999997E+02  0.45594000000E+02  0.51100000000E-03 0. -1.
         23    2    1    2    0    0  0.00000000000E+00  0.00000000000E+00 -0.88817841970E-15  0.91188000000E+02  0.91188000000E+02 0.  0.
    9900012    2    3    3    0    0 -0.16294370562E+02 -0.32725343390E+02 -0.43960273164E+01  0.54367086538E+02  0.40000005380E+02 0.  0.
        -12    1    3    3    0    0  0.16294370562E+02  0.32725343390E+02  0.43960273164E+01  0.36820913462E+02  0.00000000000E+00 0.  1.
         11    1    4    4    0    0 -0.14144178351E+02 -0.59765720434E-01 -0.64396014501E+01  0.15541229690E+02  0.51100000000E-03 0. -1.
        -11    1    4    4    0    0  0.75802712455E+01 -0.18671530660E+02  0.65611763636E+01  0.21192819654E+02  0.51100000000E-03 0.  1.
        -12    1    4    4    0    0 -0.97304634561E+01 -0.13994047010E+02 -0.45176022299E+01  0.17633037194E+02  0.00000000000E+00 0.  1.
</event>
<event>
 8    1  0.2402194E-006  0.9118800E+02  0.7816164E-02  0.1184000E+00
        -11   -1    0    0    0    0  0.00000000000E+00  0.00000000000E+00  0.45593999997E+02  0.45594000000E+02  0.51100000000E-03 0.  1.
         11   -1    0    0    0    0 -0.00000000000E+00 -0.00000000000E+00 -0.45593999997E+02  0.45594000000E+02  0.51100000000E-03 0. -1.
         23    2    1    2    0    0  0.35527136788E-14  0.00000000000E+00 -0.61062266354E-15  0.91188000000E+02  0.91188000000E+02 0.  0.
    9900012    2    3    3    0    0 -0.24464049505E+02  0.27515382911E+02  0.43807980400E+00  0.54367110157E+02  0.40000059226E+02 0.  0.
         12    1    3    3    0    0  0.24464049505E+02 -0.27515382911E+02 -0.43807980400E+00  0.36820889843E+02  0.00000000000E+00 0. -1.
         11    1    4    4    0    0  0.18202993217E+01  0.19655364175E+01  0.16059978518E+01  0.31234680069E+01  0.51100000000E-03 0. -1.
        -11    1    4    4    0    0 -0.20279105475E+02 -0.30173151889E+01 -0.66255186332E+01  0.21546317718E+02  0.51100000000E-03 0.  1.
        -12    1    4    4    0    0 -0.60052433519E+01  0.28567161682E+02  0.54576005853E+01  0.29697324432E+02  0.00000000000E+00 0.  1.
</event>
<event>
 8    1  0.2402194E-006  0.9118800E+02  0.7816164E-02  0.1184000E+00
        -11   -1    0    0    0    0  0.00000000000E+00  0.00000000000E+00  0.45593999997E+02  0.45594000000E+02  0.51100000000E-03 0. -1.
         11   -1    0    0    0    0 -0.00000000000E+00 -0.00000000000E+00 -0.45593999997E+02  0.45594000000E+02  0.51100000000E-03 0.  1.
         23    2    1    2    0    0  0.00000000000E+00  0.00000000000E+00 -0.17763568394E-14  0.91188000000E+02  0.91188000000E+02 0.  0.
    9900012    2    3    3    0    0  0.27225725520E+02  0.20984460855E+02  0.13198185122E+02  0.54367084504E+02  0.40000000745E+02 0.  0.
        -12    1    3    3    0    0 -0.27225725520E+02 -0.20984460855E+02 -0.13198185122E+02  0.36820915496E+02  0.00000000000E+00 0.  1.
         11    1    4    4    0    0  0.41506714157E+01  0.22609475101E+02 -0.10006969502E+01  0.23009081515E+02  0.51100000000E-03 0. -1.
        -11    1    4    4    0    0  0.18821206150E+02 -0.71497160471E+01  0.13730395425E+02  0.24369653245E+02  0.51100000000E-03 0.  1.
        -12    1    4    4    0    0  0.42538479539E+01  0.55247018009E+01  0.46848664676E+00  0.69883497438E+01  0.00000000000E+00 0.  1.
</event>
<event>
 8    1  0.2402194E-006  0.9118800E+02  0.7816164E-02  0.1184000E+00
        -11   -1    0    0    0    0  0.00000000000E+00  0.00000000000E+00  0.45593999997E+02  0.45594000000E+02  0.51100000000E-03 0.  1.
         11   -1    0    0    0    0 -0.00000000000E+00 -0.00000000000E+00 -0.45593999997E+02  0.45594000000E+02  0.51100000000E-03 0. -1.
         23    2    1    2    0    0  0.17763568394E-14 -0.88817841970E-15  0.71054273576E-14  0.91188000000E+02  0.91188000000E+02 0.  0.
    9900012    2    3    3    0    0  0.45851407233E+01  0.18606942625E+01  0.36486930361E+02  0.54367057783E+02  0.39999939828E+02 0.  0.
         12    1    3    3    0    0 -0.45851407233E+01 -0.18606942625E+01 -0.36486930361E+02  0.36820942217E+02  0.00000000000E+00 0. -1.
         11    1    4    4    0    0 -0.77317931078E+00 -0.59823429948E+00 -0.34915734495E+01  0.36258483060E+01  0.51100000000E-03 0. -1.
        -11    1    4    4    0    0  0.11414385866E+02 -0.11246937612E+02  0.23777178224E+02  0.28672914308E+02  0.51100000000E-03 0.  1.
         12    1    4    4    0    0 -0.60560658316E+01  0.13705866174E+02  0.16201325586E+02  0.22068295169E+02  0.00000000000E+00 0. -1.
</event>
<event>
 8    1  0.2402194E-006  0.9118800E+02  0.7816164E-02  0.1184000E+00
        -11   -1    0    0    0    0  0.00000000000E+00  0.00000000000E+00  0.45593999997E+02  0.45594000000E+02  0.51100000000E-03 0. -1.
         11   -1    0    0    0    0 -0.00000000000E+00 -0.00000000000E+00 -0.45593999997E+02  0.45594000000E+02  0.51100000000E-03 0.  1.
         23    2    1    2    0    0  0.44408920985E-15  0.00000000000E+00  0.00000000000E+00  0.91188000000E+02  0.91188000000E+02 0.  0.
    9900012    2    3    3    0    0 -0.26619416840E+01 -0.28054999498E+02  0.23698361629E+02  0.54367064728E+02  0.39999955661E+02 0.  0.
        -12    1    3    3    0    0  0.26619416840E+01  0.28054999498E+02 -0.23698361629E+02  0.36820935272E+02  0.00000000000E+00 0.  1.
         11    1    4    4    0    0 -0.36322771446E+01 -0.26833709954E+02  0.31813785215E+02  0.41777486247E+02  0.51100000000E-03 0. -1.
        -11    1    4    4    0    0  0.32246775962E+01 -0.44830615817E+01 -0.57510632327E+01  0.79731496482E+01  0.51100000000E-03 0.  1.
         12    1    4    4    0    0 -0.22543421355E+01  0.32617720377E+01 -0.23643603529E+01  0.46164288328E+01  0.00000000000E+00 0. -1.
</event>
<event>
 8    1  0.2402194E-006  0.9118800E+02  0.7816164E-02  0.1184000E+00
        -11   -1    0    0    0    0  0.00000000000E+00  0.00000000000E+00  0.45593999997E+02  0.45594000000E+02  0.51100000000E-03 0. -1.
         11   -1    0    0    0    0 -0.00000000000E+00 -0.00000000000E+00 -0.45593999997E+02  0.45594000000E+02  0.51100000000E-03 0.  1.
         23    2    1    2    0    0  0.35527136788E-14  0.35527136788E-14  0.00000000000E+00  0.91188000000E+02  0.91188000000E+02 0.  0.
    9900012    2    3    3    0    0  0.17959795987E+02  0.30794730893E+02 -0.92147593612E+01  0.54367061491E+02  0.39999948280E+02 0.  0.
        -12    1    3    3    0    0 -0.17959795987E+02 -0.30794730893E+02  0.92147593612E+01  0.36820938509E+02  0.00000000000E+00 0.  1.
         11    1    4    4    0    0  0.11215831310E+02  0.19313130836E+02 -0.74602507480E+01  0.23546703297E+02  0.51100000000E-03 0. -1.
        -11    1    4    4    0    0 -0.93662459959E+01 -0.13196414285E+01 -0.36890182345E+01  0.10152678137E+02  0.51100000000E-03 0.  1.
        -12    1    4    4    0    0  0.16110210672E+02  0.12801241485E+02  0.19345096213E+01  0.20667680057E+02  0.00000000000E+00 0.  1.
</event>
<event>
 8    1  0.2402194E-006  0.9118800E+02  0.7816164E-02  0.1184000E+00
        -11   -1    0    0    0    0  0.00000000000E+00  0.00000000000E+00  0.45593999997E+02  0.45594000000E+02  0.51100000000E-03 0.  1.
         11   -1    0    0    0    0 -0.00000000000E+00 -0.00000000000E+00 -0.45593999997E+02  0.45594000000E+02  0.51100000000E-03 0. -1.
         23    2    1    2    0    0  0.17763568394E-14  0.00000000000E+00  0.00000000000E+00  0.91188000000E+02  0.91188000000E+02 0.  0.
    9900012    2    3    3    0    0 -0.57359863624E+01 -0.30985796208E+01  0.36239169039E+02  0.54367080568E+02  0.39999991770E+02 0.  0.
         12    1    3    3    0    0  0.57359863624E+01  0.30985796208E+01 -0.36239169039E+02  0.36820919432E+02  0.00000000000E+00 0. -1.
         11    1    4    4    0    0 -0.10016921555E+02  0.53016875530E+01 -0.33338546143E+01  0.11813602126E+02  0.51100000000E-03 0. -1.
        -11    1    4    4    0    0  0.83256353240E+01 -0.36311768440E+01  0.19156766454E+02  0.21201022382E+02  0.51100000000E-03 0.  1.
         12    1    4    4    0    0 -0.40447001317E+01 -0.47690903299E+01  0.20416257200E+02  0.21352456059E+02  0.00000000000E+00 0. -1.
</event>
<event>
 8    1  0.2402194E-006  0.9118800E+02  0.7816164E-02  0.1184000E+00
        -11   -1    0    0    0    0  0.00000000000E+00  0.00000000000E+00  0.45593999997E+02  0.45594000000E+02  0.51100000000E-03 0.  1.
         11   -1    0    0    0    0 -0.00000000000E+00 -0.00000000000E+00 -0.45593999997E+02  0.45594000000E+02  0.51100000000E-03 0. -1.
         23    2    1    2    0    0  0.00000000000E+00 -0.17763568394E-14  0.00000000000E+00  0.91188000000E+02  0.91188000000E+02 0.  0.
    9900012    2    3    3    0    0  0.21729884076E+02  0.13330751162E+02 -0.26568463947E+02  0.54367081149E+02  0.39999993096E+02 0.  0.
        -12    1    3    3    0    0 -0.21729884076E+02 -0.13330751162E+02  0.26568463947E+02  0.36820918851E+02  0.00000000000E+00 0.  1.
         11    1    4    4    0    0 -0.34224151755E+01  0.43240552493E+01 -0.51722341543E+01  0.75605810518E+01  0.51100000000E-03 0. -1.
        -11    1    4    4    0    0  0.31810376001E+02  0.80116779084E+01 -0.22774935355E+02  0.39934755351E+02  0.51100000000E-03 0.  1.
         12    1    4    4    0    0 -0.66580767497E+01  0.99501800469E+00  0.13787055621E+01  0.68717447465E+01  0.00000000000E+00 0. -1.
</event>
<event>
 8    1  0.2402194E-006  0.9118800E+02  0.7816164E-02  0.1184000E+00
        -11   -1    0    0    0    0  0.00000000000E+00  0.00000000000E+00  0.45593999997E+02  0.45594000000E+02  0.51100000000E-03 0.  1.
         11   -1    0    0    0    0 -0.00000000000E+00 -0.00000000000E+00 -0.45593999997E+02  0.45594000000E+02  0.51100000000E-03 0. -1.
         23    2    1    2    0    0  0.00000000000E+00  0.00000000000E+00  0.00000000000E+00  0.91188000000E+02  0.91188000000E+02 0.  0.
    9900012    2    3    3    0    0 -0.21627245856E+02 -0.29025783616E+02  0.67487696484E+01  0.54367085160E+02  0.40000002240E+02 0.  0.
         12    1    3    3    0    0  0.21627245856E+02  0.29025783616E+02 -0.67487696484E+01  0.36820914840E+02  0.00000000000E+00 0. -1.
         11    1    4    4    0    0 -0.23678537922E+02 -0.14158690304E+02  0.14461505238E+02  0.31149266496E+02  0.51100000000E-03 0. -1.
        -11    1    4    4    0    0  0.58778905748E+01 -0.35669702548E+01  0.26958196412E+01  0.73851417188E+01  0.51100000000E-03 0.  1.
        -12    1    4    4    0    0 -0.38265985091E+01 -0.11300123057E+02 -0.10408555230E+02  0.15832676945E+02  0.00000000000E+00 0.  1.
</event>
<event>
 8    1  0.2402194E-006  0.9118800E+02  0.7816164E-02  0.1184000E+00
        -11   -1    0    0    0    0  0.00000000000E+00  0.00000000000E+00  0.45593999997E+02  0.45594000000E+02  0.51100000000E-03 0. -1.
         11   -1    0    0    0    0 -0.00000000000E+00 -0.00000000000E+00 -0.45593999997E+02  0.45594000000E+02  0.51100000000E-03 0.  1.
         23    2    1    2    0    0  0.00000000000E+00  0.17763568394E-14 -0.17763568394E-14  0.91188000000E+02  0.91188000000E+02 0.  0.
    9900012    2    3    3    0    0  0.33238119467E+02  0.12208212681E+02 -0.10098182923E+02  0.54366995927E+02  0.39999798814E+02 0.  0.
         12    1    3    3    0    0 -0.33238119467E+02 -0.12208212681E+02  0.10098182923E+02  0.36821004073E+02  0.00000000000E+00 0. -1.
         11    1    4    4    0    0  0.47970089445E+01 -0.11667995220E+02 -0.60333209705E+01  0.13984075567E+02  0.51100000000E-03 0. -1.
        -11    1    4    4    0    0  0.27163291485E+02  0.15494007086E+02 -0.75465409729E+00  0.31280635591E+02  0.51100000000E-03 0.  1.
        -12    1    4    4    0    0  0.12778190376E+01  0.83822008140E+01 -0.33102078556E+01  0.91022847696E+01  0.00000000000E+00 0.  1.
</event>
<event>
 8    1  0.2402194E-006  0.9118800E+02  0.7816164E-02  0.1184000E+00
        -11   -1    0    0    0    0  0.00000000000E+00  0.00000000000E+00  0.45593999997E+02  0.45594000000E+02  0.51100000000E-03 0.  1.
         11   -1    0    0    0    0 -0.00000000000E+00 -0.00000000000E+00 -0.45593999997E+02  0.45594000000E+02  0.51100000000E-03 0. -1.
         23    2    1    2    0    0  0.00000000000E+00  0.00000000000E+00  0.88817841970E-15  0.91188000000E+02  0.91188000000E+02 0.  0.
    9900012    2    3    3    0    0  0.12168719010E+02  0.34632834594E+02 -0.28755526418E+01  0.54367085327E+02  0.40000002621E+02 0.  0.
        -12    1    3    3    0    0 -0.12168719010E+02 -0.34632834594E+02  0.28755526418E+01  0.36820914673E+02  0.00000000000E+00 0.  1.
         11    1    4    4    0    0  0.16689117253E+02  0.32389864445E+02 -0.17562559034E+01  0.36478958161E+02  0.51100000000E-03 0. -1.
        -11    1    4    4    0    0  0.95118813447E+00  0.20580602891E+01  0.74121570517E+01  0.77511575549E+01  0.51100000000E-03 0.  1.
         12    1    4    4    0    0 -0.54715863772E+01  0.18490985973E+00 -0.85314537900E+01  0.10136969612E+02  0.00000000000E+00 0. -1.
</event>
<event>
 8    1  0.2402194E-006  0.9118800E+02  0.7816164E-02  0.1184000E+00
        -11   -1    0    0    0    0  0.00000000000E+00  0.00000000000E+00  0.45593999997E+02  0.45594000000E+02  0.51100000000E-03 0.  1.
         11   -1    0    0    0    0 -0.00000000000E+00 -0.00000000000E+00 -0.45593999997E+02  0.45594000000E+02  0.51100000000E-03 0. -1.
         23    2    1    2    0    0  0.00000000000E+00  0.44408920985E-15  0.00000000000E+00  0.91188000000E+02  0.91188000000E+02 0.  0.
    9900012    2    3    3    0    0 -0.23304312320E+02 -0.21470734119E+01 -0.28426643949E+02  0.54367150157E+02  0.40000150413E+02 0.  0.
        -12    1    3    3    0    0  0.23304312320E+02  0.21470734119E+01  0.28426643949E+02  0.36820849843E+02  0.00000000000E+00 0.  1.
         11    1    4    4    0    0 -0.14708004697E+02  0.75484489672E+01 -0.99105849667E+01  0.19274962480E+02  0.51100000000E-03 0. -1.
        -11    1    4    4    0    0  0.95338848150E+01 -0.59627965463E+01 -0.59797189272E+01  0.12736048878E+02  0.51100000000E-03 0.  1.
         12    1    4    4    0    0 -0.18130192439E+02 -0.37327258328E+01 -0.12536340055E+02  0.22356138799E+02  0.00000000000E+00 0. -1.
</event>
<event>
 8    1  0.2402194E-006  0.9118800E+02  0.7816164E-02  0.1184000E+00
        -11   -1    0    0    0    0  0.00000000000E+00  0.00000000000E+00  0.45593999997E+02  0.45594000000E+02  0.51100000000E-03 0.  1.
         11   -1    0    0    0    0 -0.00000000000E+00 -0.00000000000E+00 -0.45593999997E+02  0.45594000000E+02  0.51100000000E-03 0. -1.
         23    2    1    2    0    0 -0.17763568394E-14  0.35527136788E-14 -0.35527136788E-14  0.91188000000E+02  0.91188000000E+02 0.  0.
    9900012    2    3    3    0    0 -0.97326119821E+01  0.16636684949E+02  0.31373188827E+02  0.54367082042E+02  0.39999995132E+02 0.  0.
         12    1    3    3    0    0  0.97326119821E+01 -0.16636684949E+02 -0.31373188827E+02  0.36820917958E+02  0.00000000000E+00 0. -1.
         11    1    4    4    0    0 -0.66097540588E+01  0.30511775029E+01  0.25920475873E+00  0.72846221755E+01  0.51100000000E-03 0. -1.
        -11    1    4    4    0    0 -0.15383790573E+02  0.16679971984E+02  0.19900825467E+02  0.30181539595E+02  0.51100000000E-03 0.  1.
         12    1    4    4    0    0  0.12260932650E+02 -0.30944645376E+01  0.11213158601E+02  0.16900920272E+02  0.00000000000E+00 0. -1.
</event>
<event>
 8    1  0.2402194E-006  0.9118800E+02  0.7816164E-02  0.1184000E+00
        -11   -1    0    0    0    0  0.00000000000E+00  0.00000000000E+00  0.45593999997E+02  0.45594000000E+02  0.51100000000E-03 0.  1.
         11   -1    0    0    0    0 -0.00000000000E+00 -0.00000000000E+00 -0.45593999997E+02  0.45594000000E+02  0.51100000000E-03 0. -1.
         23    2    1    2    0    0 -0.35527136788E-14  0.00000000000E+00  0.17763568394E-14  0.91188000000E+02  0.91188000000E+02 0.  0.
    9900012    2    3    3    0    0 -0.16817300518E+02  0.29862861050E+02  0.13459929074E+02  0.54367058167E+02  0.39999940702E+02 0.  0.
         12    1    3    3    0    0  0.16817300518E+02 -0.29862861050E+02 -0.13459929074E+02  0.36820941833E+02  0.00000000000E+00 0. -1.
         11    1    4    4    0    0 -0.13776542510E+02  0.26014836636E+02  0.59840193494E+01  0.30039529567E+02  0.51100000000E-03 0. -1.
        -11    1    4    4    0    0  0.42023649169E+01 -0.73982427597E+01 -0.88232954399E+00  0.85540851359E+01  0.51100000000E-03 0.  1.
        -12    1    4    4    0    0 -0.72431229244E+01  0.11246267174E+02  0.83582392683E+01  0.15773443464E+02  0.00000000000E+00 0.  1.
</event>
<event>
 8    1  0.2402194E-006  0.9118800E+02  0.7816164E-02  0.1184000E+00
        -11   -1    0    0    0    0  0.00000000000E+00  0.00000000000E+00  0.45593999997E+02  0.45594000000E+02  0.51100000000E-03 0.  1.
         11   -1    0    0    0    0 -0.00000000000E+00 -0.00000000000E+00 -0.45593999997E+02  0.45594000000E+02  0.51100000000E-03 0. -1.
         23    2    1    2    0    0  0.00000000000E+00 -0.53290705182E-14  0.00000000000E+00  0.91188000000E+02  0.91188000000E+02 0.  0.
    9900012    2    3    3    0    0 -0.34287634031E+02  0.12979068356E+02 -0.34180327242E+01  0.54367068310E+02  0.39999963826E+02 0.  0.
         12    1    3    3    0    0  0.34287634031E+02 -0.12979068356E+02  0.34180327242E+01  0.36820931690E+02  0.00000000000E+00 0. -1.
         11    1    4    4    0    0 -0.21387523739E+01  0.88402097632E+01 -0.49270799657E+01  0.10344065334E+02  0.51100000000E-03 0. -1.
        -11    1    4    4    0    0 -0.15566043911E+02 -0.12752069556E+02  0.28045433810E+01  0.20317048626E+02  0.51100000000E-03 0.  1.
        -12    1    4    4    0    0 -0.16582837745E+02  0.16890928149E+02 -0.12954961395E+01  0.23705954351E+02  0.00000000000E+00 0.  1.
</event>
<event>
 8    1  0.2402194E-006  0.9118800E+02  0.7816164E-02  0.1184000E+00
        -11   -1    0    0    0    0  0.00000000000E+00  0.00000000000E+00  0.45593999997E+02  0.45594000000E+02  0.51100000000E-03 0.  1.
         11   -1    0    0    0    0 -0.00000000000E+00 -0.00000000000E+00 -0.45593999997E+02  0.45594000000E+02  0.51100000000E-03 0. -1.
         23    2    1    2    0    0  0.00000000000E+00  0.22204460493E-15 -0.17763568394E-14  0.91188000000E+02  0.91188000000E+02 0.  0.
    9900012    2    3    3    0    0 -0.33419747397E+02 -0.19530667890E+01  0.15332478815E+02  0.54367097070E+02  0.40000029389E+02 0.  0.
         12    1    3    3    0    0  0.33419747397E+02  0.19530667890E+01 -0.15332478815E+02  0.36820902930E+02  0.00000000000E+00 0. -1.
         11    1    4    4    0    0  0.40019240129E+01  0.13711236663E+01  0.38607644261E+01  0.57272050887E+01  0.51100000000E-03 0. -1.
        -11    1    4    4    0    0 -0.18288894279E+02  0.29878350194E+01  0.19546702524E+02  0.26934817465E+02  0.51100000000E-03 0.  1.
        -12    1    4    4    0    0 -0.19132777132E+02 -0.63120254747E+01 -0.80749881349E+01  0.21705074516E+02  0.00000000000E+00 0.  1.
</event>
<event>
 8    1  0.2402194E-006  0.9118800E+02  0.7816164E-02  0.1184000E+00
        -11   -1    0    0    0    0  0.00000000000E+00  0.00000000000E+00  0.45593999997E+02  0.45594000000E+02  0.51100000000E-03 0. -1.
         11   -1    0    0    0    0 -0.00000000000E+00 -0.00000000000E+00 -0.45593999997E+02  0.45594000000E+02  0.51100000000E-03 0.  1.
         23    2    1    2    0    0  0.00000000000E+00  0.00000000000E+00 -0.17763568394E-14  0.91188000000E+02  0.91188000000E+02 0.  0.
    9900012    2    3    3    0    0 -0.26516153611E+02 -0.21419872853E+02 -0.13923446598E+02  0.54367085827E+02  0.40000003760E+02 0.  0.
         12    1    3    3    0    0  0.26516153611E+02  0.21419872853E+02  0.13923446598E+02  0.36820914173E+02  0.00000000000E+00 0. -1.
         11    1    4    4    0    0 -0.72423978221E+01 -0.42036828429E+01  0.44148269795E+01  0.94664657173E+01  0.51100000000E-03 0.  1.
        -11    1    4    4    0    0 -0.28100529655E+02 -0.12112891055E+02 -0.11844454240E+02  0.32812390848E+02  0.51100000000E-03 0. -1.
         12    1    4    4    0    0  0.88267738664E+01 -0.51032989551E+01 -0.64938193369E+01  0.12088229262E+02  0.00000000000E+00 0. -1.
</event>
<event>
 8    1  0.2402194E-006  0.9118800E+02  0.7816164E-02  0.1184000E+00
        -11   -1    0    0    0    0  0.00000000000E+00  0.00000000000E+00  0.45593999997E+02  0.45594000000E+02  0.51100000000E-03 0.  1.
         11   -1    0    0    0    0 -0.00000000000E+00 -0.00000000000E+00 -0.45593999997E+02  0.45594000000E+02  0.51100000000E-03 0. -1.
         23    2    1    2    0    0 -0.35527136788E-14  0.00000000000E+00 -0.88817841970E-15  0.91188000000E+02  0.91188000000E+02 0.  0.
    9900012    2    3    3    0    0 -0.27309582637E+02  0.24313666186E+02  0.43374607064E+01  0.54367065294E+02  0.39999956952E+02 0.  0.
        -12    1    3    3    0    0  0.27309582637E+02 -0.24313666186E+02 -0.43374607064E+01  0.36820934706E+02  0.00000000000E+00 0.  1.
         11    1    4    4    0    0 -0.15435806047E+02  0.18889495817E+02 -0.28462731297E+00  0.24395863861E+02  0.51100000000E-03 0. -1.
        -11    1    4    4    0    0 -0.19335110601E+02  0.44455048471E+01  0.84074990935E+01  0.21547506969E+02  0.51100000000E-03 0.  1.
        -12    1    4    4    0    0  0.74613340113E+01  0.97866552165E+00 -0.37854110741E+01  0.84236944645E+01  0.00000000000E+00 0.  1.
</event>
<event>
 8    1  0.2402194E-006  0.9118800E+02  0.7816164E-02  0.1184000E+00
        -11   -1    0    0    0    0  0.00000000000E+00  0.00000000000E+00  0.45593999997E+02  0.45594000000E+02  0.51100000000E-03 0.  1.
         11   -1    0    0    0    0 -0.00000000000E+00 -0.00000000000E+00 -0.45593999997E+02  0.45594000000E+02  0.51100000000E-03 0. -1.
         23    2    1    2    0    0 -0.71054273576E-14 -0.88817841970E-15 -0.44408920985E-15  0.91188000000E+02  0.91188000000E+02 0.  0.
    9900012    2    3    3    0    0  0.35930319251E+02 -0.72110695672E+01 -0.35760871919E+01  0.54367139535E+02  0.40000126197E+02 0.  0.
        -12    1    3    3    0    0 -0.35930319251E+02  0.72110695672E+01  0.35760871919E+01  0.36820860465E+02  0.00000000000E+00 0.  1.
         11    1    4    4    0    0  0.13952983972E+01  0.53664056242E+01 -0.57521218997E+01  0.79894977033E+01  0.51100000000E-03 0. -1.
        -11    1    4    4    0    0  0.13087338887E+01 -0.55303987765E+01 -0.89798283190E+01  0.10627107411E+02  0.51100000000E-03 0.  1.
        -12    1    4    4    0    0  0.33226286965E+02 -0.70470764149E+01  0.11155863027E+02  0.35750534421E+02  0.00000000000E+00 0.  1.
</event>
<event>
 8    1  0.2402194E-006  0.9118800E+02  0.7816164E-02  0.1184000E+00
        -11   -1    0    0    0    0  0.00000000000E+00  0.00000000000E+00  0.45593999997E+02  0.45594000000E+02  0.51100000000E-03 0. -1.
         11   -1    0    0    0    0 -0.00000000000E+00 -0.00000000000E+00 -0.45593999997E+02  0.45594000000E+02  0.51100000000E-03 0.  1.
         23    2    1    2    0    0  0.00000000000E+00  0.35527136788E-14 -0.17763568394E-14  0.91188000000E+02  0.91188000000E+02 0.  0.
    9900012    2    3    3    0    0  0.28622445458E+02 -0.18661713644E+02 -0.13721345345E+02  0.54367092105E+02  0.40000018073E+02 0.  0.
         12    1    3    3    0    0 -0.28622445458E+02  0.18661713644E+02  0.13721345345E+02  0.36820907895E+02  0.00000000000E+00 0. -1.
         11    1    4    4    0    0 -0.88231714116E+01  0.16014925231E+01 -0.32101030114E+01  0.95245941470E+01  0.51100000000E-03 0. -1.
        -11    1    4    4    0    0  0.22979074171E+02 -0.15663319418E+02 -0.31994561773E+01  0.27993105313E+02  0.51100000000E-03 0.  1.
         12    1    4    4    0    0  0.14466542698E+02 -0.45998867490E+01 -0.73117861562E+01  0.16849392646E+02  0.00000000000E+00 0. -1.
</event>
<event>
 8    1  0.2402194E-006  0.9118800E+02  0.7816164E-02  0.1184000E+00
        -11   -1    0    0    0    0  0.00000000000E+00  0.00000000000E+00  0.45593999997E+02  0.45594000000E+02  0.51100000000E-03 0.  1.
         11   -1    0    0    0    0 -0.00000000000E+00 -0.00000000000E+00 -0.45593999997E+02  0.45594000000E+02  0.51100000000E-03 0. -1.
         23    2    1    2    0    0  0.35527136788E-14  0.22204460493E-14  0.00000000000E+00  0.91188000000E+02  0.91188000000E+02 0.  0.
    9900012    2    3    3    0    0 -0.27359060959E+02  0.28406535663E+01 -0.24478467206E+02  0.54367042842E+02  0.39999905767E+02 0.  0.
        -12    1    3    3    0    0  0.27359060959E+02 -0.28406535663E+01  0.24478467206E+02  0.36820957158E+02  0.00000000000E+00 0.  1.
         11    1    4    4    0    0 -0.10735684644E+02  0.61136123899E+01 -0.10916271840E+02  0.16486241912E+02  0.51100000000E-03 0. -1.
        -11    1    4    4    0    0  0.22324140541E+01  0.10164153250E+02 -0.10040992060E+02  0.14460816215E+02  0.51100000000E-03 0.  1.
        -12    1    4    4    0    0 -0.18855790369E+02 -0.13437112074E+02 -0.35212033060E+01  0.23419984715E+02  0.00000000000E+00 0.  1.
</event>
<event>
 8    1  0.2402194E-006  0.9118800E+02  0.7816164E-02  0.1184000E+00
        -11   -1    0    0    0    0  0.00000000000E+00  0.00000000000E+00  0.45593999997E+02  0.45594000000E+02  0.51100000000E-03 0.  1.
         11   -1    0    0    0    0 -0.00000000000E+00 -0.00000000000E+00 -0.45593999997E+02  0.45594000000E+02  0.51100000000E-03 0. -1.
         23    2    1    2    0    0  0.00000000000E+00 -0.35527136788E-14  0.00000000000E+00  0.91188000000E+02  0.91188000000E+02 0.  0.
    9900012    2    3    3    0    0  0.25068756549E+02  0.21710274707E+02 -0.16000040908E+02  0.54367083501E+02  0.39999998457E+02 0.  0.
        -12    1    3    3    0    0 -0.25068756549E+02 -0.21710274707E+02  0.16000040908E+02  0.36820916499E+02  0.00000000000E+00 0.  1.
         11    1    4    4    0    0 -0.59758339862E+01  0.44653330987E+01 -0.16621910430E+01  0.76428182523E+01  0.51100000000E-03 0. -1.
        -11    1    4    4    0    0  0.24157707541E+02  0.19358818481E+02 -0.31476418176E+00  0.30958969029E+02  0.51100000000E-03 0.  1.
         12    1    4    4    0    0  0.68868829947E+01 -0.21138768722E+01 -0.14023085683E+02  0.15765296219E+02  0.00000000000E+00 0. -1.
</event>
<event>
 8    1  0.2402194E-006  0.9118800E+02  0.7816164E-02  0.1184000E+00
        -11   -1    0    0    0    0  0.00000000000E+00  0.00000000000E+00  0.45593999997E+02  0.45594000000E+02  0.51100000000E-03 0. -1.
         11   -1    0    0    0    0 -0.00000000000E+00 -0.00000000000E+00 -0.45593999997E+02  0.45594000000E+02  0.51100000000E-03 0.  1.
         23    2    1    2    0    0  0.00000000000E+00 -0.44408920985E-15  0.00000000000E+00  0.91188000000E+02  0.91188000000E+02 0.  0.
    9900012    2    3    3    0    0  0.35769107610E+02 -0.34973813543E+01 -0.80075069497E+01  0.54367069769E+02  0.39999967152E+02 0.  0.
         12    1    3    3    0    0 -0.35769107610E+02  0.34973813543E+01  0.80075069497E+01  0.36820930231E+02  0.00000000000E+00 0. -1.
         11    1    4    4    0    0  0.62317328748E+01  0.43587979460E+01  0.40554668040E+01  0.86186092507E+01  0.51100000000E-03 0.  1.
        -11    1    4    4    0    0  0.50090475051E+01 -0.60929738126E+01  0.99820324218E+01  0.12722258381E+02  0.51100000000E-03 0. -1.
         12    1    4    4    0    0  0.24528327230E+02 -0.17632054878E+01 -0.22045006175E+02  0.33026202137E+02  0.00000000000E+00 0. -1.
</event>
<event>
 8    1  0.2402194E-006  0.9118800E+02  0.7816164E-02  0.1184000E+00
        -11   -1    0    0    0    0  0.00000000000E+00  0.00000000000E+00  0.45593999997E+02  0.45594000000E+02  0.51100000000E-03 0.  1.
         11   -1    0    0    0    0 -0.00000000000E+00 -0.00000000000E+00 -0.45593999997E+02  0.45594000000E+02  0.51100000000E-03 0. -1.
         23    2    1    2    0    0  0.00000000000E+00  0.35527136788E-14  0.88817841970E-15  0.91188000000E+02  0.91188000000E+02 0.  0.
    9900012    2    3    3    0    0 -0.33626371802E+02 -0.14931961265E+02  0.14430209151E+01  0.54367100267E+02  0.40000036678E+02 0.  0.
         12    1    3    3    0    0  0.33626371802E+02  0.14931961265E+02 -0.14430209151E+01  0.36820899733E+02  0.00000000000E+00 0. -1.
         11    1    4    4    0    0 -0.10980971701E+02 -0.82635438872E+01 -0.16071737091E+02  0.21146362109E+02  0.51100000000E-03 0. -1.
        -11    1    4    4    0    0 -0.21418510602E+02 -0.72596512075E+01  0.85886374304E+01  0.24191317145E+02  0.51100000000E-03 0.  1.
         12    1    4    4    0    0 -0.12268894998E+01  0.59123382994E+00  0.89261205756E+01  0.90294210123E+01  0.00000000000E+00 0. -1.
</event>
<event>
 8    1  0.2402194E-006  0.9118800E+02  0.7816164E-02  0.1184000E+00
        -11   -1    0    0    0    0  0.00000000000E+00  0.00000000000E+00  0.45593999997E+02  0.45594000000E+02  0.51100000000E-03 0.  1.
         11   -1    0    0    0    0 -0.00000000000E+00 -0.00000000000E+00 -0.45593999997E+02  0.45594000000E+02  0.51100000000E-03 0. -1.
         23    2    1    2    0    0 -0.88817841970E-15  0.00000000000E+00  0.00000000000E+00  0.91188000000E+02  0.91188000000E+02 0.  0.
    9900012    2    3    3    0    0  0.76118709231E+01 -0.45720789055E+01  0.35734248058E+02  0.54367068877E+02  0.39999965119E+02 0.  0.
         12    1    3    3    0    0 -0.76118709231E+01  0.45720789055E+01 -0.35734248058E+02  0.36820931123E+02  0.00000000000E+00 0. -1.
         11    1    4    4    0    0 -0.10203290912E+02 -0.32431480650E+01  0.15611130176E+02  0.18929673543E+02  0.51100000000E-03 0. -1.
        -11    1    4    4    0    0  0.61654526004E-01 -0.14197698677E+01  0.17421395738E+02  0.17479261354E+02  0.51100000000E-03 0.  1.
        -12    1    4    4    0    0  0.17753507309E+02  0.90839027144E-01  0.27017221440E+01  0.17958133980E+02  0.00000000000E+00 0.  1.
</event>
<event>
 8    1  0.2402194E-006  0.9118800E+02  0.7816164E-02  0.1184000E+00
        -11   -1    0    0    0    0  0.00000000000E+00  0.00000000000E+00  0.45593999997E+02  0.45594000000E+02  0.51100000000E-03 0.  1.
         11   -1    0    0    0    0 -0.00000000000E+00 -0.00000000000E+00 -0.45593999997E+02  0.45594000000E+02  0.51100000000E-03 0. -1.
         23    2    1    2    0    0 -0.99920072216E-15  0.00000000000E+00  0.00000000000E+00  0.91188000000E+02  0.91188000000E+02 0.  0.
    9900012    2    3    3    0    0 -0.35123729860E+00 -0.23567700892E+02  0.28288143629E+02  0.54367096114E+02  0.40000027212E+02 0.  0.
         12    1    3    3    0    0  0.35123729860E+00  0.23567700892E+02 -0.28288143629E+02  0.36820903886E+02  0.00000000000E+00 0. -1.
         11    1    4    4    0    0  0.39243585477E+01 -0.24570193115E+02  0.15323532971E+02  0.29221663928E+02  0.51100000000E-03 0. -1.
        -11    1    4    4    0    0 -0.10746159232E+02 -0.48829365183E+01  0.36205878096E+01  0.12346321866E+02  0.51100000000E-03 0.  1.
         12    1    4    4    0    0  0.64705633855E+01  0.58854287416E+01  0.93440228487E+01  0.12799110320E+02  0.00000000000E+00 0. -1.
</event>
<event>
 8    1  0.2402194E-006  0.9118800E+02  0.7816164E-02  0.1184000E+00
        -11   -1    0    0    0    0  0.00000000000E+00  0.00000000000E+00  0.45593999997E+02  0.45594000000E+02  0.51100000000E-03 0. -1.
         11   -1    0    0    0    0 -0.00000000000E+00 -0.00000000000E+00 -0.45593999997E+02  0.45594000000E+02  0.51100000000E-03 0.  1.
         23    2    1    2    0    0  0.35527136788E-14 -0.88817841970E-15  0.00000000000E+00  0.91188000000E+02  0.91188000000E+02 0.  0.
    9900012    2    3    3    0    0 -0.28216435856E+02  0.66377947799E+01  0.22705803156E+02  0.54367067517E+02  0.39999962019E+02 0.  0.
        -12    1    3    3    0    0  0.28216435856E+02 -0.66377947799E+01 -0.22705803156E+02  0.36820932483E+02  0.00000000000E+00 0.  1.
         11    1    4    4    0    0 -0.17520457348E+02  0.25282978966E+01  0.16971752986E+02  0.24523440126E+02  0.51100000000E-03 0. -1.
        -11    1    4    4    0    0  0.83866315068E+01  0.13045605464E+01 -0.25352386264E+01  0.88580416235E+01  0.51100000000E-03 0.  1.
         12    1    4    4    0    0 -0.19082610014E+02  0.28049363368E+01  0.82692887962E+01  0.20985585767E+02  0.00000000000E+00 0. -1.
</event>
<event>
 8    1  0.2402194E-006  0.9118800E+02  0.7816164E-02  0.1184000E+00
        -11   -1    0    0    0    0  0.00000000000E+00  0.00000000000E+00  0.45593999997E+02  0.45594000000E+02  0.51100000000E-03 0. -1.
         11   -1    0    0    0    0 -0.00000000000E+00 -0.00000000000E+00 -0.45593999997E+02  0.45594000000E+02  0.51100000000E-03 0.  1.
         23    2    1    2    0    0  0.17763568394E-14  0.17763568394E-14  0.00000000000E+00  0.91188000000E+02  0.91188000000E+02 0.  0.
    9900012    2    3    3    0    0  0.10145746073E+02  0.87970209763E+01 -0.34284923155E+02  0.54367086144E+02  0.40000004482E+02 0.  0.
         12    1    3    3    0    0 -0.10145746073E+02 -0.87970209763E+01  0.34284923155E+02  0.36820913856E+02  0.00000000000E+00 0. -1.
         11    1    4    4    0    0  0.49422426206E+01 -0.76663844462E+01 -0.15760193480E+01  0.92565139143E+01  0.51100000000E-03 0. -1.
        -11    1    4    4    0    0 -0.27675898063E+01 -0.38227312278E+01 -0.18499202858E+02  0.19091708515E+02  0.51100000000E-03 0.  1.
        -12    1    4    4    0    0  0.79710932586E+01  0.20286136650E+02 -0.14209700949E+02  0.26018863714E+02  0.00000000000E+00 0.  1.
</event>
<event>
 8    1  0.2402194E-006  0.9118800E+02  0.7816164E-02  0.1184000E+00
        -11   -1    0    0    0    0  0.00000000000E+00  0.00000000000E+00  0.45593999997E+02  0.45594000000E+02  0.51100000000E-03 0. -1.
         11   -1    0    0    0    0 -0.00000000000E+00 -0.00000000000E+00 -0.45593999997E+02  0.45594000000E+02  0.51100000000E-03 0.  1.
         23    2    1    2    0    0  0.00000000000E+00  0.17763568394E-14  0.35527136788E-14  0.91188000000E+02  0.91188000000E+02 0.  0.
    9900012    2    3    3    0    0  0.10194047372E+02  0.15656300393E+02 -0.31728959943E+02  0.54367282423E+02  0.40000451937E+02 0.  0.
         12    1    3    3    0    0 -0.10194047372E+02 -0.15656300393E+02  0.31728959943E+02  0.36820717577E+02  0.00000000000E+00 0. -1.
         11    1    4    4    0    0  0.63037891016E+01 -0.10814616170E+02 -0.15998877062E+02  0.20313979114E+02  0.51100000000E-03 0.  1.
        -11    1    4    4    0    0  0.70466712057E+01  0.17189322317E+02 -0.44400421925E+01  0.19100846885E+02  0.51100000000E-03 0. -1.
         12    1    4    4    0    0 -0.31564129356E+01  0.92815942455E+01 -0.11290040689E+02  0.14952456424E+02  0.00000000000E+00 0. -1.
</event>
<event>
 8    1  0.2402194E-006  0.9118800E+02  0.7816164E-02  0.1184000E+00
        -11   -1    0    0    0    0  0.00000000000E+00  0.00000000000E+00  0.45593999997E+02  0.45594000000E+02  0.51100000000E-03 0. -1.
         11   -1    0    0    0    0 -0.00000000000E+00 -0.00000000000E+00 -0.45593999997E+02  0.45594000000E+02  0.51100000000E-03 0.  1.
         23    2    1    2    0    0 -0.35527136788E-14 -0.35527136788E-14 -0.17763568394E-14  0.91188000000E+02  0.91188000000E+02 0.  0.
    9900012    2    3    3    0    0 -0.28436286345E+02 -0.20048339599E+02  0.12050749726E+02  0.54367097367E+02  0.40000030067E+02 0.  0.
        -12    1    3    3    0    0  0.28436286345E+02  0.20048339599E+02 -0.12050749726E+02  0.36820902633E+02  0.00000000000E+00 0.  1.
         11    1    4    4    0    0 -0.65901534180E+01 -0.75031449660E+01  0.82602973513E+01  0.12959931290E+02  0.51100000000E-03 0. -1.
        -11    1    4    4    0    0 -0.26265113366E+02 -0.12242756305E+02 -0.69406506509E+01  0.29797884049E+02  0.51100000000E-03 0.  1.
        -12    1    4    4    0    0  0.44189804392E+01 -0.30243832867E+00  0.10731103025E+02  0.11609282028E+02  0.00000000000E+00 0.  1.
</event>
<event>
 8    1  0.2402194E-006  0.9118800E+02  0.7816164E-02  0.1184000E+00
        -11   -1    0    0    0    0  0.00000000000E+00  0.00000000000E+00  0.45593999997E+02  0.45594000000E+02  0.51100000000E-03 0.  1.
         11   -1    0    0    0    0 -0.00000000000E+00 -0.00000000000E+00 -0.45593999997E+02  0.45594000000E+02  0.51100000000E-03 0. -1.
         23    2    1    2    0    0  0.88817841970E-15 -0.71054273576E-14 -0.19984014443E-14  0.91188000000E+02  0.91188000000E+02 0.  0.
    9900012    2    3    3    0    0 -0.73855873662E+01  0.36029491352E+02 -0.17662323399E+01  0.54366936401E+02  0.39999663113E+02 0.  0.
        -12    1    3    3    0    0  0.73855873662E+01 -0.36029491352E+02  0.17662323399E+01  0.36821063599E+02  0.00000000000E+00 0.  1.
         11    1    4    4    0    0 -0.11309067668E+02  0.19010819496E+01  0.29607902481E+00  0.11471564286E+02  0.51100000000E-03 0.  1.
        -11    1    4    4    0    0 -0.39772109331E+01  0.18548898441E+02 -0.12337135530E+02  0.22629289726E+02  0.51100000000E-03 0. -1.
        -12    1    4    4    0    0  0.79006912352E+01  0.15579510962E+02  0.10274824165E+02  0.20266082390E+02  0.00000000000E+00 0.  1.
</event>
<event>
 8    1  0.2402194E-006  0.9118800E+02  0.7816164E-02  0.1184000E+00
        -11   -1    0    0    0    0  0.00000000000E+00  0.00000000000E+00  0.45593999997E+02  0.45594000000E+02  0.51100000000E-03 0.  1.
         11   -1    0    0    0    0 -0.00000000000E+00 -0.00000000000E+00 -0.45593999997E+02  0.45594000000E+02  0.51100000000E-03 0. -1.
         23    2    1    2    0    0  0.00000000000E+00  0.00000000000E+00 -0.71054273576E-14  0.91188000000E+02  0.91188000000E+02 0.  0.
    9900012    2    3    3    0    0  0.25648544457E+01 -0.56343313795E+01 -0.36296779806E+02  0.54367076700E+02  0.39999982952E+02 0.  0.
        -12    1    3    3    0    0 -0.25648544457E+01  0.56343313795E+01  0.36296779806E+02  0.36820923300E+02  0.00000000000E+00 0.  1.
         11    1    4    4    0    0 -0.47840391176E+00  0.75016513419E+01 -0.27493920821E+02  0.28502970468E+02  0.51100000000E-03 0. -1.
        -11    1    4    4    0    0 -0.26603408098E+01 -0.14885377901E+00  0.52560775577E+01  0.58928704572E+01  0.51100000000E-03 0.  1.
        -12    1    4    4    0    0  0.57035991673E+01 -0.12987128942E+02 -0.14058936543E+02  0.19971235774E+02  0.00000000000E+00 0.  1.
</event>
<event>
 8    1  0.2402194E-006  0.9118800E+02  0.7816164E-02  0.1184000E+00
        -11   -1    0    0    0    0  0.00000000000E+00  0.00000000000E+00  0.45593999997E+02  0.45594000000E+02  0.51100000000E-03 0. -1.
         11   -1    0    0    0    0 -0.00000000000E+00 -0.00000000000E+00 -0.45593999997E+02  0.45594000000E+02  0.51100000000E-03 0.  1.
         23    2    1    2    0    0 -0.17763568394E-14  0.00000000000E+00  0.00000000000E+00  0.91188000000E+02  0.91188000000E+02 0.  0.
    9900012    2    3    3    0    0 -0.65039752677E+01 -0.36016622591E+02 -0.40349852056E+01  0.54367083353E+02  0.39999998119E+02 0.  0.
         12    1    3    3    0    0  0.65039752677E+01  0.36016622591E+02  0.40349852056E+01  0.36820916647E+02  0.00000000000E+00 0. -1.
         11    1    4    4    0    0 -0.12186810915E+02 -0.34769953779E+01  0.11608130158E+02  0.17185940276E+02  0.51100000000E-03 0. -1.
        -11    1    4    4    0    0  0.15009844027E+01 -0.77280925009E+00 -0.84949891566E+00  0.18899304175E+01  0.51100000000E-03 0.  1.
        -12    1    4    4    0    0  0.41818512445E+01 -0.31766817963E+02 -0.14793616448E+02  0.35291212659E+02  0.00000000000E+00 0.  1.
</event>
<event>
 8    1  0.2402194E-006  0.9118800E+02  0.7816164E-02  0.1184000E+00
        -11   -1    0    0    0    0  0.00000000000E+00  0.00000000000E+00  0.45593999997E+02  0.45594000000E+02  0.51100000000E-03 0. -1.
         11   -1    0    0    0    0 -0.00000000000E+00 -0.00000000000E+00 -0.45593999997E+02  0.45594000000E+02  0.51100000000E-03 0.  1.
         23    2    1    2    0    0  0.00000000000E+00  0.35527136788E-14  0.88817841970E-15  0.91188000000E+02  0.91188000000E+02 0.  0.
    9900012    2    3    3    0    0  0.30292458615E+02  0.19401326492E+02 -0.78568570285E+01  0.54367153717E+02  0.40000158529E+02 0.  0.
         12    1    3    3    0    0 -0.30292458615E+02 -0.19401326492E+02  0.78568570285E+01  0.36820846283E+02  0.00000000000E+00 0. -1.
         11    1    4    4    0    0 -0.22398689273E+01  0.89880768447E+01  0.56024271162E+01  0.10825420455E+02  0.51100000000E-03 0. -1.
        -11    1    4    4    0    0  0.12391441731E+02  0.74149705085E+01 -0.17596080464E+02  0.22762944971E+02  0.51100000000E-03 0.  1.
        -12    1    4    4    0    0  0.20140885812E+02  0.29982791392E+01  0.41367963189E+01  0.20778788291E+02  0.00000000000E+00 0.  1.
</event>
<event>
 8    1  0.2402194E-006  0.9118800E+02  0.7816164E-02  0.1184000E+00
        -11   -1    0    0    0    0  0.00000000000E+00  0.00000000000E+00  0.45593999997E+02  0.45594000000E+02  0.51100000000E-03 0.  1.
         11   -1    0    0    0    0 -0.00000000000E+00 -0.00000000000E+00 -0.45593999997E+02  0.45594000000E+02  0.51100000000E-03 0. -1.
         23    2    1    2    0    0  0.35527136788E-14  0.44408920985E-15  0.00000000000E+00  0.91188000000E+02  0.91188000000E+02 0.  0.
    9900012    2    3    3    0    0  0.26105009153E+02 -0.26621824980E+01 -0.25830629567E+02  0.54367080099E+02  0.39999990702E+02 0.  0.
        -12    1    3    3    0    0 -0.26105009153E+02  0.26621824980E+01  0.25830629567E+02  0.36820919901E+02  0.00000000000E+00 0.  1.
         11    1    4    4    0    0  0.57554127283E+00  0.10083853766E+02 -0.13457774457E+02  0.16826379531E+02  0.51100000000E-03 0. -1.
        -11    1    4    4    0    0  0.24624669626E+02 -0.81487820345E+01 -0.18286285749E+01  0.26002324618E+02  0.51100000000E-03 0.  1.
        -12    1    4    4    0    0  0.90479825448E+00 -0.45972542294E+01 -0.10544226535E+02  0.11538375950E+02  0.00000000000E+00 0.  1.
</event>
<event>
 8    1  0.2402194E-006  0.9118800E+02  0.7816164E-02  0.1184000E+00
        -11   -1    0    0    0    0  0.00000000000E+00  0.00000000000E+00  0.45593999997E+02  0.45594000000E+02  0.51100000000E-03 0.  1.
         11   -1    0    0    0    0 -0.00000000000E+00 -0.00000000000E+00 -0.45593999997E+02  0.45594000000E+02  0.51100000000E-03 0. -1.
         23    2    1    2    0    0  0.15543122345E-14  0.00000000000E+00  0.00000000000E+00  0.91188000000E+02  0.91188000000E+02 0.  0.
    9900012    2    3    3    0    0 -0.14619254722E+01  0.30453852828E+02 -0.20644734567E+02  0.54367089589E+02  0.40000012335E+02 0.  0.
        -12    1    3    3    0    0  0.14619254722E+01 -0.30453852828E+02  0.20644734567E+02  0.36820910411E+02  0.00000000000E+00 0.  1.
         11    1    4    4    0    0 -0.10445391887E+02  0.11762395702E+02 -0.15535689345E+01  0.15807395137E+02  0.51100000000E-03 0. -1.
        -11    1    4    4    0    0  0.62684028236E+01 -0.58747411356E+01 -0.67992250808E+01  0.10956044876E+02  0.51100000000E-03 0.  1.
        -12    1    4    4    0    0  0.27150635910E+01  0.24566198262E+02 -0.12291940552E+02  0.27603649575E+02  0.00000000000E+00 0.  1.
</event>
<event>
 8    1  0.2402194E-006  0.9118800E+02  0.7816164E-02  0.1184000E+00
        -11   -1    0    0    0    0  0.00000000000E+00  0.00000000000E+00  0.45593999997E+02  0.45594000000E+02  0.51100000000E-03 0. -1.
         11   -1    0    0    0    0 -0.00000000000E+00 -0.00000000000E+00 -0.45593999997E+02  0.45594000000E+02  0.51100000000E-03 0.  1.
         23    2    1    2    0    0  0.35527136788E-14  0.35527136788E-14  0.17763568394E-14  0.91188000000E+02  0.91188000000E+02 0.  0.
    9900012    2    3    3    0    0  0.22471895379E+02  0.25173625054E+02  0.14733780418E+02  0.54367058055E+02  0.39999940448E+02 0.  0.
        -12    1    3    3    0    0 -0.22471895379E+02 -0.25173625054E+02 -0.14733780418E+02  0.36820941945E+02  0.00000000000E+00 0.  1.
         11    1    4    4    0    0  0.10292226973E+02  0.15862725183E+02  0.16252234823E+01  0.18978865560E+02  0.51100000000E-03 0. -1.
        -11    1    4    4    0    0  0.18133116024E+02  0.12720297091E+02  0.18798311989E+01  0.22229476386E+02  0.51100000000E-03 0.  1.
         12    1    4    4    0    0 -0.59534476185E+01 -0.34093972200E+01  0.11228725737E+02  0.13158716109E+02  0.00000000000E+00 0. -1.
</event>
<event>
 8    1  0.2402194E-006  0.9118800E+02  0.7816164E-02  0.1184000E+00
        -11   -1    0    0    0    0  0.00000000000E+00  0.00000000000E+00  0.45593999997E+02  0.45594000000E+02  0.51100000000E-03 0. -1.
         11   -1    0    0    0    0 -0.00000000000E+00 -0.00000000000E+00 -0.45593999997E+02  0.45594000000E+02  0.51100000000E-03 0.  1.
         23    2    1    2    0    0  0.00000000000E+00  0.00000000000E+00  0.88817841970E-15  0.91188000000E+02  0.91188000000E+02 0.  0.
    9900012    2    3    3    0    0  0.18363218483E+02  0.31538672011E+02  0.48872006177E+01  0.54367077210E+02  0.39999984115E+02 0.  0.
        -12    1    3    3    0    0 -0.18363218483E+02 -0.31538672011E+02 -0.48872006177E+01  0.36820922790E+02  0.00000000000E+00 0.  1.
         11    1    4    4    0    0  0.45155799366E+01  0.62505026321E+01  0.82192522032E+01  0.11270108800E+02  0.51100000000E-03 0. -1.
        -11    1    4    4    0    0  0.19569357022E+02  0.35284796218E+01 -0.50991398526E+01  0.20528300714E+02  0.51100000000E-03 0.  1.
         12    1    4    4    0    0 -0.57217184756E+01  0.21759689757E+02  0.17670882672E+01  0.22568667696E+02  0.00000000000E+00 0. -1.
</event>
<event>
 8    1  0.2402194E-006  0.9118800E+02  0.7816164E-02  0.1184000E+00
        -11   -1    0    0    0    0  0.00000000000E+00  0.00000000000E+00  0.45593999997E+02  0.45594000000E+02  0.51100000000E-03 0. -1.
         11   -1    0    0    0    0 -0.00000000000E+00 -0.00000000000E+00 -0.45593999997E+02  0.45594000000E+02  0.51100000000E-03 0.  1.
         23    2    1    2    0    0 -0.35527136788E-14  0.00000000000E+00  0.35527136788E-14  0.91188000000E+02  0.91188000000E+02 0.  0.
    9900012    2    3    3    0    0 -0.26819722630E+02 -0.71060191528E+01  0.24207163924E+02  0.54367084539E+02  0.40000000823E+02 0.  0.
        -12    1    3    3    0    0  0.26819722630E+02  0.71060191528E+01 -0.24207163924E+02  0.36820915461E+02  0.00000000000E+00 0.  1.
         11    1    4    4    0    0 -0.15849592236E+02 -0.25810019499E+01 -0.12869850059E+01  0.16109856479E+02  0.51100000000E-03 0. -1.
        -11    1    4    4    0    0 -0.16862995278E+02 -0.66284592671E+01  0.82419928125E+01  0.19905464772E+02  0.51100000000E-03 0.  1.
         12    1    4    4    0    0  0.58928648837E+01  0.21034420642E+01  0.17252156118E+02  0.18351763288E+02  0.00000000000E+00 0. -1.
</event>
<event>
 8    1  0.2402194E-006  0.9118800E+02  0.7816164E-02  0.1184000E+00
        -11   -1    0    0    0    0  0.00000000000E+00  0.00000000000E+00  0.45593999997E+02  0.45594000000E+02  0.51100000000E-03 0. -1.
         11   -1    0    0    0    0 -0.00000000000E+00 -0.00000000000E+00 -0.45593999997E+02  0.45594000000E+02  0.51100000000E-03 0.  1.
         23    2    1    2    0    0  0.00000000000E+00  0.35527136788E-14  0.35527136788E-14  0.91188000000E+02  0.91188000000E+02 0.  0.
    9900012    2    3    3    0    0  0.10964190787E+02  0.17577470186E+02 -0.30440085887E+02  0.54367085202E+02  0.40000002335E+02 0.  0.
         12    1    3    3    0    0 -0.10964190787E+02 -0.17577470186E+02  0.30440085887E+02  0.36820914798E+02  0.00000000000E+00 0. -1.
         11    1    4    4    0    0 -0.61416506648E+01  0.22151242291E+02 -0.86915763350E+01  0.24575209203E+02  0.51100000000E-03 0. -1.
        -11    1    4    4    0    0  0.62778659192E+01 -0.47595535069E+01 -0.36087340344E+01  0.86653281344E+01  0.51100000000E-03 0.  1.
         12    1    4    4    0    0  0.10827975533E+02  0.18578140192E+00 -0.18139775517E+02  0.21126547865E+02  0.00000000000E+00 0. -1.
</event>
<event>
 8    1  0.2402194E-006  0.9118800E+02  0.7816164E-02  0.1184000E+00
        -11   -1    0    0    0    0  0.00000000000E+00  0.00000000000E+00  0.45593999997E+02  0.45594000000E+02  0.51100000000E-03 0.  1.
         11   -1    0    0    0    0 -0.00000000000E+00 -0.00000000000E+00 -0.45593999997E+02  0.45594000000E+02  0.51100000000E-03 0. -1.
         23    2    1    2    0    0  0.00000000000E+00  0.00000000000E+00  0.35527136788E-14  0.91188000000E+02  0.91188000000E+02 0.  0.
    9900012    2    3    3    0    0 -0.54467188491E+01 -0.35532024740E+02  0.79742622666E+01  0.54367076776E+02  0.39999983127E+02 0.  0.
        -12    1    3    3    0    0  0.54467188491E+01  0.35532024740E+02 -0.79742622666E+01  0.36820923224E+02  0.00000000000E+00 0.  1.
         11    1    4    4    0    0 -0.16021898267E+02 -0.21731972228E+02  0.17201646632E+02  0.32013692197E+02  0.51100000000E-03 0.  1.
        -11    1    4    4    0    0  0.97530768155E+01 -0.59523932786E+01 -0.88521598932E+01  0.14453865509E+02  0.51100000000E-03 0. -1.
         12    1    4    4    0    0  0.82210260189E+00 -0.78476592335E+01 -0.37522447235E+00  0.78995190701E+01  0.00000000000E+00 0. -1.
</event>
<event>
 8    1  0.2402194E-006  0.9118800E+02  0.7816164E-02  0.1184000E+00
        -11   -1    0    0    0    0  0.00000000000E+00  0.00000000000E+00  0.45593999997E+02  0.45594000000E+02  0.51100000000E-03 0. -1.
         11   -1    0    0    0    0 -0.00000000000E+00 -0.00000000000E+00 -0.45593999997E+02  0.45594000000E+02  0.51100000000E-03 0.  1.
         23    2    1    2    0    0 -0.71054273576E-14 -0.22204460493E-15 -0.17763568394E-14  0.91188000000E+02  0.91188000000E+02 0.  0.
    9900012    2    3    3    0    0  0.33698455622E+02 -0.16579144159E+01  0.14746024544E+02  0.54367084322E+02  0.40000000328E+02 0.  0.
        -12    1    3    3    0    0 -0.33698455622E+02  0.16579144159E+01 -0.14746024544E+02  0.36820915678E+02  0.00000000000E+00 0.  1.
         11    1    4    4    0    0  0.90461470250E+01 -0.10973678742E+02 -0.72659277672E+01  0.15970225663E+02  0.51100000000E-03 0. -1.
        -11    1    4    4    0    0  0.29912997620E+01  0.78653490960E+01  0.15350514356E+01  0.85538280226E+01  0.51100000000E-03 0.  1.
         12    1    4    4    0    0  0.21661008835E+02  0.14504152303E+01  0.20476900875E+02  0.29843030636E+02  0.00000000000E+00 0. -1.
</event>
<event>
 8    1  0.2402194E-006  0.9118800E+02  0.7816164E-02  0.1184000E+00
        -11   -1    0    0    0    0  0.00000000000E+00  0.00000000000E+00  0.45593999997E+02  0.45594000000E+02  0.51100000000E-03 0. -1.
         11   -1    0    0    0    0 -0.00000000000E+00 -0.00000000000E+00 -0.45593999997E+02  0.45594000000E+02  0.51100000000E-03 0.  1.
         23    2    1    2    0    0  0.44408920985E-15 -0.71054273576E-14  0.44408920985E-15  0.91188000000E+02  0.91188000000E+02 0.  0.
    9900012    2    3    3    0    0 -0.49820306309E+00  0.36709798644E+02 -0.28146995032E+01  0.54367081271E+02  0.39999993373E+02 0.  0.
        -12    1    3    3    0    0  0.49820306309E+00 -0.36709798644E+02  0.28146995032E+01  0.36820918729E+02  0.00000000000E+00 0.  1.
         11    1    4    4    0    0  0.37078634461E+01  0.14469034300E+02 -0.67026271262E-02  0.14936574243E+02  0.51100000000E-03 0. -1.
        -11    1    4    4    0    0  0.11164732959E+02 -0.19753486938E+00 -0.48108500690E+01  0.12158723647E+02  0.51100000000E-03 0.  1.
         12    1    4    4    0    0 -0.15370799469E+02  0.22438299213E+02  0.20028531929E+01  0.27271783381E+02  0.00000000000E+00 0. -1.
</event>
<event>
 8    1  0.2402194E-006  0.9118800E+02  0.7816164E-02  0.1184000E+00
        -11   -1    0    0    0    0  0.00000000000E+00  0.00000000000E+00  0.45593999997E+02  0.45594000000E+02  0.51100000000E-03 0.  1.
         11   -1    0    0    0    0 -0.00000000000E+00 -0.00000000000E+00 -0.45593999997E+02  0.45594000000E+02  0.51100000000E-03 0. -1.
         23    2    1    2    0    0  0.00000000000E+00  0.35527136788E-14 -0.17763568394E-14  0.91188000000E+02  0.91188000000E+02 0.  0.
    9900012    2    3    3    0    0 -0.23159674913E+02  0.25400335642E+02 -0.13199722029E+02  0.54367078577E+02  0.39999987232E+02 0.  0.
         12    1    3    3    0    0  0.23159674913E+02 -0.25400335642E+02  0.13199722029E+02  0.36820921423E+02  0.00000000000E+00 0. -1.
         11    1    4    4    0    0 -0.21557016565E+01  0.74832875675E+01 -0.67091679760E+01  0.10279084475E+02  0.51100000000E-03 0. -1.
        -11    1    4    4    0    0  0.15400260075E+01  0.78978598993E+01 -0.15791005110E+02  0.17722971357E+02  0.51100000000E-03 0.  1.
         12    1    4    4    0    0 -0.22543999264E+02  0.10019188175E+02  0.93004510565E+01  0.26365022745E+02  0.00000000000E+00 0. -1.
</event>
<event>
 8    1  0.2402194E-006  0.9118800E+02  0.7816164E-02  0.1184000E+00
        -11   -1    0    0    0    0  0.00000000000E+00  0.00000000000E+00  0.45593999997E+02  0.45594000000E+02  0.51100000000E-03 0.  1.
         11   -1    0    0    0    0 -0.00000000000E+00 -0.00000000000E+00 -0.45593999997E+02  0.45594000000E+02  0.51100000000E-03 0. -1.
         23    2    1    2    0    0 -0.55511151231E-15  0.88817841970E-15  0.00000000000E+00  0.91188000000E+02  0.91188000000E+02 0.  0.
    9900012    2    3    3    0    0  0.96526117093E+00 -0.14815742539E+01 -0.36778432337E+02  0.54367083708E+02  0.39999998930E+02 0.  0.
        -12    1    3    3    0    0 -0.96526117093E+00  0.14815742539E+01  0.36778432337E+02  0.36820916292E+02  0.00000000000E+00 0.  1.
         11    1    4    4    0    0 -0.74976841041E+01 -0.64671941103E+01 -0.66063755527E+01  0.11903111559E+02  0.51100000000E-03 0. -1.
        -11    1    4    4    0    0  0.14934093949E+02 -0.65442640130E+01 -0.19863602076E+02  0.25698584421E+02  0.51100000000E-03 0.  1.
        -12    1    4    4    0    0 -0.64711486742E+01  0.11529883869E+02 -0.10308454709E+02  0.16765387728E+02  0.00000000000E+00 0.  1.
</event>
<event>
 8    1  0.2402194E-006  0.9118800E+02  0.7816164E-02  0.1184000E+00
        -11   -1    0    0    0    0  0.00000000000E+00  0.00000000000E+00  0.45593999997E+02  0.45594000000E+02  0.51100000000E-03 0. -1.
         11   -1    0    0    0    0 -0.00000000000E+00 -0.00000000000E+00 -0.45593999997E+02  0.45594000000E+02  0.51100000000E-03 0.  1.
         23    2    1    2    0    0 -0.13322676296E-14  0.00000000000E+00 -0.13686968225E-14  0.91188000000E+02  0.91188000000E+02 0.  0.
    9900012    2    3    3    0    0 -0.25281689450E+01 -0.36734009954E+02 -0.80390741833E-02  0.54367093029E+02  0.40000020178E+02 0.  0.
         12    1    3    3    0    0  0.25281689450E+01  0.36734009954E+02  0.80390741833E-02  0.36820906971E+02  0.00000000000E+00 0. -1.
         11    1    4    4    0    0 -0.10652034186E+02 -0.24009563784E+02 -0.84009746681E+01  0.27577189143E+02  0.51100000000E-03 0. -1.
        -11    1    4    4    0    0  0.74703816319E+01 -0.27582720447E+00 -0.46053235189E+01  0.87801872046E+01  0.51100000000E-03 0.  1.
         12    1    4    4    0    0  0.65348360865E+00 -0.12448618966E+02  0.12998259113E+02  0.18009716682E+02  0.00000000000E+00 0. -1.
</event>
<event>
 8    1  0.2402194E-006  0.9118800E+02  0.7816164E-02  0.1184000E+00
        -11   -1    0    0    0    0  0.00000000000E+00  0.00000000000E+00  0.45593999997E+02  0.45594000000E+02  0.51100000000E-03 0.  1.
         11   -1    0    0    0    0 -0.00000000000E+00 -0.00000000000E+00 -0.45593999997E+02  0.45594000000E+02  0.51100000000E-03 0. -1.
         23    2    1    2    0    0  0.35527136788E-14  0.17763568394E-14  0.35527136788E-14  0.91188000000E+02  0.91188000000E+02 0.  0.
    9900012    2    3    3    0    0 -0.30679263172E+02 -0.84883890484E+01 -0.18507051839E+02  0.54367069741E+02  0.39999967087E+02 0.  0.
        -12    1    3    3    0    0  0.30679263172E+02  0.84883890484E+01  0.18507051839E+02  0.36820930259E+02  0.00000000000E+00 0.  1.
         11    1    4    4    0    0 -0.28983902907E+02 -0.21655198869E+02 -0.14332963755E+02  0.38915910834E+02  0.51100000000E-03 0. -1.
        -11    1    4    4    0    0  0.36711885248E+00  0.55048406266E+01 -0.50358459802E+01  0.74697919364E+01  0.51100000000E-03 0.  1.
        -12    1    4    4    0    0 -0.20624791174E+01  0.76619691941E+01  0.86175789606E+00  0.79813669702E+01  0.00000000000E+00 0.  1.
</event>
<event>
 8    1  0.2402194E-006  0.9118800E+02  0.7816164E-02  0.1184000E+00
        -11   -1    0    0    0    0  0.00000000000E+00  0.00000000000E+00  0.45593999997E+02  0.45594000000E+02  0.51100000000E-03 0.  1.
         11   -1    0    0    0    0 -0.00000000000E+00 -0.00000000000E+00 -0.45593999997E+02  0.45594000000E+02  0.51100000000E-03 0. -1.
         23    2    1    2    0    0 -0.13322676296E-14 -0.71054273576E-14  0.00000000000E+00  0.91188000000E+02  0.91188000000E+02 0.  0.
    9900012    2    3    3    0    0  0.19227452143E+01 -0.33805063366E+02 -0.14467230899E+02  0.54367081649E+02  0.39999994235E+02 0.  0.
        -12    1    3    3    0    0 -0.19227452143E+01  0.33805063366E+02  0.14467230899E+02  0.36820918351E+02  0.00000000000E+00 0.  1.
         11    1    4    4    0    0 -0.96507411452E+01 -0.49093678632E-02 -0.11854617847E+01  0.97232786989E+01  0.51100000000E-03 0. -1.
        -11    1    4    4    0    0 -0.20173481996E+01  0.35323540831E+00 -0.70747568744E+01  0.73652327937E+01  0.51100000000E-03 0.  1.
         12    1    4    4    0    0  0.13590834559E+02 -0.34153389406E+02 -0.62070122394E+01  0.37278570156E+02  0.00000000000E+00 0. -1.
</event>
<event>
 8    1  0.2402194E-006  0.9118800E+02  0.7816164E-02  0.1184000E+00
        -11   -1    0    0    0    0  0.00000000000E+00  0.00000000000E+00  0.45593999997E+02  0.45594000000E+02  0.51100000000E-03 0.  1.
         11   -1    0    0    0    0 -0.00000000000E+00 -0.00000000000E+00 -0.45593999997E+02  0.45594000000E+02  0.51100000000E-03 0. -1.
         23    2    1    2    0    0  0.00000000000E+00  0.35527136788E-14  0.00000000000E+00  0.91188000000E+02  0.91188000000E+02 0.  0.
    9900012    2    3    3    0    0  0.31501223950E+02  0.16598149498E+02  0.93784718239E+01  0.54367062874E+02  0.39999951434E+02 0.  0.
         12    1    3    3    0    0 -0.31501223950E+02 -0.16598149498E+02 -0.93784718239E+01  0.36820937126E+02  0.00000000000E+00 0. -1.
         11    1    4    4    0    0  0.17144351486E+01 -0.89172006206E+01 -0.29855470634E+01  0.95587261869E+01  0.51100000000E-03 0. -1.
        -11    1    4    4    0    0  0.64280051420E+01  0.37362863436E+01  0.10435656768E+02  0.12813353121E+02  0.51100000000E-03 0.  1.
        -12    1    4    4    0    0  0.23358783659E+02  0.21779063775E+02  0.19283621190E+01  0.31994983566E+02  0.00000000000E+00 0.  1.
</event>
<event>
 8    1  0.2402194E-006  0.9118800E+02  0.7816164E-02  0.1184000E+00
        -11   -1    0    0    0    0  0.00000000000E+00  0.00000000000E+00  0.45593999997E+02  0.45594000000E+02  0.51100000000E-03 0. -1.
         11   -1    0    0    0    0 -0.00000000000E+00 -0.00000000000E+00 -0.45593999997E+02  0.45594000000E+02  0.51100000000E-03 0.  1.
         23    2    1    2    0    0 -0.35527136788E-14 -0.88817841970E-15  0.00000000000E+00  0.91188000000E+02  0.91188000000E+02 0.  0.
    9900012    2    3    3    0    0 -0.80044173211E+01  0.45723387962E+01 -0.35648347694E+02  0.54367059327E+02  0.39999943348E+02 0.  0.
         12    1    3    3    0    0  0.80044173211E+01 -0.45723387962E+01  0.35648347694E+02  0.36820940673E+02  0.00000000000E+00 0. -1.
         11    1    4    4    0    0 -0.40798391028E+01 -0.78331966575E+01 -0.90274867754E+01  0.12629314103E+02  0.51100000000E-03 0. -1.
        -11    1    4    4    0    0  0.11119260584E+02 -0.15105658123E+01 -0.12785337453E+02  0.17011308564E+02  0.51100000000E-03 0.  1.
        -12    1    4    4    0    0 -0.15043838802E+02  0.13916101266E+02 -0.13835523466E+02  0.24726436660E+02  0.00000000000E+00 0.  1.
</event>
<event>
 8    1  0.2402194E-006  0.9118800E+02  0.7816164E-02  0.1184000E+00
        -11   -1    0    0    0    0  0.00000000000E+00  0.00000000000E+00  0.45593999997E+02  0.45594000000E+02  0.51100000000E-03 0.  1.
         11   -1    0    0    0    0 -0.00000000000E+00 -0.00000000000E+00 -0.45593999997E+02  0.45594000000E+02  0.51100000000E-03 0. -1.
         23    2    1    2    0    0  0.22204460493E-15 -0.88817841970E-15  0.00000000000E+00  0.91188000000E+02  0.91188000000E+02 0.  0.
    9900012    2    3    3    0    0 -0.86570747665E+00  0.69701761036E+01 -0.36144810566E+02  0.54367080196E+02  0.39999990924E+02 0.  0.
        -12    1    3    3    0    0  0.86570747665E+00 -0.69701761036E+01  0.36144810566E+02  0.36820919804E+02  0.00000000000E+00 0.  1.
         11    1    4    4    0    0 -0.11871817372E+00  0.65947694060E+00 -0.83034939192E+01  0.83304871027E+01  0.51100000000E-03 0. -1.
        -11    1    4    4    0    0 -0.22847232754E+01  0.19400519174E+02 -0.26308492503E+02  0.32767924602E+02  0.51100000000E-03 0.  1.
         12    1    4    4    0    0  0.15377339725E+01 -0.13089820011E+02 -0.15328241431E+01  0.13268668492E+02  0.00000000000E+00 0. -1.
</event>
<event>
 8    1  0.2402194E-006  0.9118800E+02  0.7816164E-02  0.1184000E+00
        -11   -1    0    0    0    0  0.00000000000E+00  0.00000000000E+00  0.45593999997E+02  0.45594000000E+02  0.51100000000E-03 0.  1.
         11   -1    0    0    0    0 -0.00000000000E+00 -0.00000000000E+00 -0.45593999997E+02  0.45594000000E+02  0.51100000000E-03 0. -1.
         23    2    1    2    0    0  0.00000000000E+00  0.22204460493E-15 -0.35527136788E-14  0.91188000000E+02  0.91188000000E+02 0.  0.
    9900012    2    3    3    0    0 -0.22072106667E+02 -0.10047814327E+01 -0.29454919802E+02  0.54367085033E+02  0.40000001950E+02 0.  0.
        -12    1    3    3    0    0  0.22072106667E+02  0.10047814327E+01  0.29454919802E+02  0.36820914967E+02  0.00000000000E+00 0.  1.
         11    1    4    4    0    0 -0.10633985838E+02 -0.57736981461E+01 -0.10447308036E+02  0.15986353260E+02  0.51100000000E-03 0. -1.
        -11    1    4    4    0    0  0.51340023756E+01  0.62210161431E+01 -0.20151525240E+02  0.21705828527E+02  0.51100000000E-03 0.  1.
        -12    1    4    4    0    0 -0.16572123204E+02 -0.14520994297E+01  0.11439134739E+01  0.16674903247E+02  0.00000000000E+00 0.  1.
</event>
<event>
 8    1  0.2402194E-006  0.9118800E+02  0.7816164E-02  0.1184000E+00
        -11   -1    0    0    0    0  0.00000000000E+00  0.00000000000E+00  0.45593999997E+02  0.45594000000E+02  0.51100000000E-03 0. -1.
         11   -1    0    0    0    0 -0.00000000000E+00 -0.00000000000E+00 -0.45593999997E+02  0.45594000000E+02  0.51100000000E-03 0.  1.
         23    2    1    2    0    0  0.00000000000E+00 -0.35527136788E-14 -0.88817841970E-15  0.91188000000E+02  0.91188000000E+02 0.  0.
    9900012    2    3    3    0    0  0.24930998416E+02 -0.26033773559E+02 -0.75144833424E+01  0.54367088718E+02  0.40000010350E+02 0.  0.
         12    1    3    3    0    0 -0.24930998416E+02  0.26033773559E+02  0.75144833424E+01  0.36820911282E+02  0.00000000000E+00 0. -1.
         11    1    4    4    0    0  0.11264959824E+01 -0.14204544662E+01  0.67697443205E+01  0.70082895570E+01  0.51100000000E-03 0. -1.
        -11    1    4    4    0    0  0.25384960891E+02 -0.18886619459E+02 -0.21318100414E+02  0.38151828784E+02  0.51100000000E-03 0.  1.
        -12    1    4    4    0    0 -0.15804584571E+01 -0.57266996337E+01  0.70338727515E+01  0.92069703765E+01  0.00000000000E+00 0.  1.
</event>
<event>
 8    1  0.2402194E-006  0.9118800E+02  0.7816164E-02  0.1184000E+00
        -11   -1    0    0    0    0  0.00000000000E+00  0.00000000000E+00  0.45593999997E+02  0.45594000000E+02  0.51100000000E-03 0.  1.
         11   -1    0    0    0    0 -0.00000000000E+00 -0.00000000000E+00 -0.45593999997E+02  0.45594000000E+02  0.51100000000E-03 0. -1.
         23    2    1    2    0    0  0.00000000000E+00  0.00000000000E+00 -0.16653345369E-15  0.91188000000E+02  0.91188000000E+02 0.  0.
    9900012    2    3    3    0    0  0.28311370107E+02 -0.23539830096E+02  0.35546513151E+00  0.54367032689E+02  0.39999882621E+02 0.  0.
        -12    1    3    3    0    0 -0.28311370107E+02  0.23539830096E+02 -0.35546513151E+00  0.36820967311E+02  0.00000000000E+00 0.  1.
         11    1    4    4    0    0  0.27982111392E+02 -0.64831777045E+01  0.98366031721E+01  0.30360976818E+02  0.51100000000E-03 0. -1.
        -11    1    4    4    0    0 -0.27951669644E+01 -0.14691354161E+01  0.25583856342E+01  0.40640687179E+01  0.51100000000E-03 0.  1.
         12    1    4    4    0    0  0.31244256785E+01 -0.15587516976E+02 -0.12039523675E+02  0.19941987153E+02  0.00000000000E+00 0. -1.
</event>
<event>
 8    1  0.2402194E-006  0.9118800E+02  0.7816164E-02  0.1184000E+00
        -11   -1    0    0    0    0  0.00000000000E+00  0.00000000000E+00  0.45593999997E+02  0.45594000000E+02  0.51100000000E-03 0.  1.
         11   -1    0    0    0    0 -0.00000000000E+00 -0.00000000000E+00 -0.45593999997E+02  0.45594000000E+02  0.51100000000E-03 0. -1.
         23    2    1    2    0    0  0.00000000000E+00  0.35527136788E-14  0.00000000000E+00  0.91188000000E+02  0.91188000000E+02 0.  0.
    9900012    2    3    3    0    0  0.11725096729E+02 -0.24148769646E+02  0.25202007793E+02  0.54367052626E+02  0.39999928072E+02 0.  0.
         12    1    3    3    0    0 -0.11725096729E+02  0.24148769646E+02 -0.25202007793E+02  0.36820947374E+02  0.00000000000E+00 0. -1.
         11    1    4    4    0    0 -0.12370387209E+01  0.57661430761E+01  0.91819137712E+00  0.59683956334E+01  0.51100000000E-03 0. -1.
        -11    1    4    4    0    0  0.12769338384E+02 -0.13330106700E+01  0.43662498043E+01  0.13560864936E+02  0.51100000000E-03 0.  1.
        -12    1    4    4    0    0  0.19279706565E+00 -0.28581902052E+02  0.19917566611E+02  0.34837792056E+02  0.00000000000E+00 0.  1.
</event>
<event>
 8    1  0.2402194E-006  0.9118800E+02  0.7816164E-02  0.1184000E+00
        -11   -1    0    0    0    0  0.00000000000E+00  0.00000000000E+00  0.45593999997E+02  0.45594000000E+02  0.51100000000E-03 0.  1.
         11   -1    0    0    0    0 -0.00000000000E+00 -0.00000000000E+00 -0.45593999997E+02  0.45594000000E+02  0.51100000000E-03 0. -1.
         23    2    1    2    0    0  0.00000000000E+00  0.88817841970E-15  0.71054273576E-14  0.91188000000E+02  0.91188000000E+02 0.  0.
    9900012    2    3    3    0    0 -0.10580087196E+02 -0.69447686754E+01 -0.34577529705E+02  0.54367168701E+02  0.40000192688E+02 0.  0.
        -12    1    3    3    0    0  0.10580087196E+02  0.69447686754E+01  0.34577529705E+02  0.36820831299E+02  0.00000000000E+00 0.  1.
         11    1    4    4    0    0  0.63526693759E+01  0.81081564658E+01 -0.22421328558E+02  0.24674168356E+02  0.51100000000E-03 0. -1.
        -11    1    4    4    0    0 -0.65075365948E+01 -0.85907092673E+01  0.20010287635E+01  0.10961406599E+02  0.51100000000E-03 0.  1.
         12    1    4    4    0    0 -0.10425219977E+02 -0.64622158738E+01 -0.14157229910E+02  0.18731593747E+02  0.00000000000E+00 0. -1.
</event>
<event>
 8    1  0.2402194E-006  0.9118800E+02  0.7816164E-02  0.1184000E+00
        -11   -1    0    0    0    0  0.00000000000E+00  0.00000000000E+00  0.45593999997E+02  0.45594000000E+02  0.51100000000E-03 0.  1.
         11   -1    0    0    0    0 -0.00000000000E+00 -0.00000000000E+00 -0.45593999997E+02  0.45594000000E+02  0.51100000000E-03 0. -1.
         23    2    1    2    0    0  0.35527136788E-14  0.00000000000E+00 -0.14432899320E-14  0.91188000000E+02  0.91188000000E+02 0.  0.
    9900012    2    3    3    0    0 -0.28667948430E+02  0.23105326434E+02 -0.27076939830E+00  0.54367072623E+02  0.39999973659E+02 0.  0.
        -12    1    3    3    0    0  0.28667948430E+02 -0.23105326434E+02  0.27076939830E+00  0.36820927377E+02  0.00000000000E+00 0.  1.
         11    1    4    4    0    0 -0.34179652671E+01  0.14458705579E+02 -0.67689770565E+01  0.16326533749E+02  0.51100000000E-03 0. -1.
        -11    1    4    4    0    0  0.26789524608E+01  0.11289861949E+00  0.83582151076E+01  0.87777726350E+01  0.51100000000E-03 0.  1.
        -12    1    4    4    0    0 -0.27928935624E+02  0.85337222348E+01 -0.18600074494E+01  0.29262766239E+02  0.00000000000E+00 0.  1.
</event>
<event>
 8    1  0.2402194E-006  0.9118800E+02  0.7816164E-02  0.1184000E+00
        -11   -1    0    0    0    0  0.00000000000E+00  0.00000000000E+00  0.45593999997E+02  0.45594000000E+02  0.51100000000E-03 0.  1.
         11   -1    0    0    0    0 -0.00000000000E+00 -0.00000000000E+00 -0.45593999997E+02  0.45594000000E+02  0.51100000000E-03 0. -1.
         23    2    1    2    0    0  0.35527136788E-14  0.00000000000E+00  0.13322676296E-14  0.91188000000E+02  0.91188000000E+02 0.  0.
    9900012    2    3    3    0    0 -0.26517624559E+02  0.25538255026E+02  0.62725009182E+00  0.54367077623E+02  0.39999985056E+02 0.  0.
        -12    1    3    3    0    0  0.26517624559E+02 -0.25538255026E+02 -0.62725009182E+00  0.36820922377E+02  0.00000000000E+00 0.  1.
         11    1    4    4    0    0 -0.10265357993E+01  0.30832793812E+01  0.25477824978E+01  0.41293562945E+01  0.51100000000E-03 0. -1.
        -11    1    4    4    0    0 -0.16016769019E+01  0.22242892953E+01  0.14590447478E+02  0.14845672421E+02  0.51100000000E-03 0.  1.
         12    1    4    4    0    0 -0.23889411858E+02  0.20230686350E+02 -0.16510979884E+02  0.35392048907E+02  0.00000000000E+00 0. -1.
</event>
<event>
 8    1  0.2402194E-006  0.9118800E+02  0.7816164E-02  0.1184000E+00
        -11   -1    0    0    0    0  0.00000000000E+00  0.00000000000E+00  0.45593999997E+02  0.45594000000E+02  0.51100000000E-03 0.  1.
         11   -1    0    0    0    0 -0.00000000000E+00 -0.00000000000E+00 -0.45593999997E+02  0.45594000000E+02  0.51100000000E-03 0. -1.
         23    2    1    2    0    0  0.00000000000E+00  0.00000000000E+00  0.00000000000E+00  0.91188000000E+02  0.91188000000E+02 0.  0.
    9900012    2    3    3    0    0  0.24067983400E+02  0.10567779760E+02 -0.25784375661E+02  0.54367084446E+02  0.40000000612E+02 0.  0.
        -12    1    3    3    0    0 -0.24067983400E+02 -0.10567779760E+02  0.25784375661E+02  0.36820915554E+02  0.00000000000E+00 0.  1.
         11    1    4    4    0    0 -0.44240961564E+00 -0.56516310999E+01 -0.54547773569E+01  0.78670996328E+01  0.51100000000E-03 0. -1.
        -11    1    4    4    0    0  0.48039455005E+01 -0.19919758264E-01  0.73881553386E+01  0.88126686501E+01  0.51100000000E-03 0.  1.
         12    1    4    4    0    0  0.19706447515E+02  0.16239330618E+02 -0.27717753643E+02  0.37687316163E+02  0.00000000000E+00 0. -1.
</event>
<event>
 8    1  0.2402194E-006  0.9118800E+02  0.7816164E-02  0.1184000E+00
        -11   -1    0    0    0    0  0.00000000000E+00  0.00000000000E+00  0.45593999997E+02  0.45594000000E+02  0.51100000000E-03 0.  1.
         11   -1    0    0    0    0 -0.00000000000E+00 -0.00000000000E+00 -0.45593999997E+02  0.45594000000E+02  0.51100000000E-03 0. -1.
         23    2    1    2    0    0  0.00000000000E+00  0.17763568394E-14  0.00000000000E+00  0.91188000000E+02  0.91188000000E+02 0.  0.
    9900012    2    3    3    0    0 -0.16635542567E+02  0.15647933393E+02 -0.28882178932E+02  0.54367090779E+02  0.40000015049E+02 0.  0.
        -12    1    3    3    0    0  0.16635542567E+02 -0.15647933393E+02  0.28882178932E+02  0.36820909221E+02  0.00000000000E+00 0.  1.
         11    1    4    4    0    0 -0.21271200330E+01  0.20598571265E+02 -0.24414061916E+02  0.32013625182E+02  0.51100000000E-03 0. -1.
        -11    1    4    4    0    0  0.10671782288E+01  0.37342526970E+01  0.29526889997E+00  0.38949578382E+01  0.51100000000E-03 0.  1.
         12    1    4    4    0    0 -0.15575600763E+02 -0.86848905687E+01 -0.47633859162E+01  0.18458507759E+02  0.00000000000E+00 0. -1.
</event>
<event>
 8    1  0.2402194E-006  0.9118800E+02  0.7816164E-02  0.1184000E+00
        -11   -1    0    0    0    0  0.00000000000E+00  0.00000000000E+00  0.45593999997E+02  0.45594000000E+02  0.51100000000E-03 0.  1.
         11   -1    0    0    0    0 -0.00000000000E+00 -0.00000000000E+00 -0.45593999997E+02  0.45594000000E+02  0.51100000000E-03 0. -1.
         23    2    1    2    0    0  0.35527136788E-14 -0.35527136788E-14  0.00000000000E+00  0.91188000000E+02  0.91188000000E+02 0.  0.
    9900012    2    3    3    0    0 -0.29544933772E+02 -0.18021017835E+02 -0.12574494715E+02  0.54367107660E+02  0.40000053532E+02 0.  0.
        -12    1    3    3    0    0  0.29544933772E+02  0.18021017835E+02  0.12574494715E+02  0.36820892340E+02  0.00000000000E+00 0.  1.
         11    1    4    4    0    0 -0.21581732410E+02 -0.41451025329E+00 -0.55433651317E+01  0.22286136718E+02  0.51100000000E-03 0. -1.
        -11    1    4    4    0    0 -0.69055751496E-01 -0.21790259441E+02 -0.77265167019E+01  0.23119672053E+02  0.51100000000E-03 0.  1.
        -12    1    4    4    0    0 -0.78941456096E+01  0.41837518593E+01  0.69538711814E+00  0.89612988885E+01  0.00000000000E+00 0.  1.
</event>
<event>
 8    1  0.2402194E-006  0.9118800E+02  0.7816164E-02  0.1184000E+00
        -11   -1    0    0    0    0  0.00000000000E+00  0.00000000000E+00  0.45593999997E+02  0.45594000000E+02  0.51100000000E-03 0.  1.
         11   -1    0    0    0    0 -0.00000000000E+00 -0.00000000000E+00 -0.45593999997E+02  0.45594000000E+02  0.51100000000E-03 0. -1.
         23    2    1    2    0    0  0.00000000000E+00 -0.17763568394E-14  0.17763568394E-14  0.91188000000E+02  0.91188000000E+02 0.  0.
    9900012    2    3    3    0    0  0.33623705358E+02  0.10823759702E+02 -0.10395821101E+02  0.54367076160E+02  0.39999981722E+02 0.  0.
        -12    1    3    3    0    0 -0.33623705358E+02 -0.10823759702E+02  0.10395821101E+02  0.36820923840E+02  0.00000000000E+00 0.  1.
         11    1    4    4    0    0  0.24776568141E+02  0.27754380198E+01 -0.75158489979E+01  0.26039765197E+02  0.51100000000E-03 0. -1.
        -11    1    4    4    0    0  0.11087798689E+02  0.14113908017E+02 -0.84080951714E+01  0.19820134812E+02  0.51100000000E-03 0.  1.
        -12    1    4    4    0    0 -0.22406614722E+01 -0.60655863346E+01  0.55281230687E+01  0.85071761518E+01  0.00000000000E+00 0.  1.
</event>
<event>
 8    1  0.2402194E-006  0.9118800E+02  0.7816164E-02  0.1184000E+00
        -11   -1    0    0    0    0  0.00000000000E+00  0.00000000000E+00  0.45593999997E+02  0.45594000000E+02  0.51100000000E-03 0.  1.
         11   -1    0    0    0    0 -0.00000000000E+00 -0.00000000000E+00 -0.45593999997E+02  0.45594000000E+02  0.51100000000E-03 0. -1.
         23    2    1    2    0    0  0.00000000000E+00 -0.35527136788E-14 -0.44408920985E-15  0.91188000000E+02  0.91188000000E+02 0.  0.
    9900012    2    3    3    0    0  0.32197726469E+02  0.17844454653E+02  0.81269542792E+00  0.54367100697E+02  0.40000037659E+02 0.  0.
        -12    1    3    3    0    0 -0.32197726469E+02 -0.17844454653E+02 -0.81269542792E+00  0.36820899303E+02  0.00000000000E+00 0.  1.
         11    1    4    4    0    0  0.28100835043E+02  0.24430645375E+02 -0.87116433150E+01  0.38241418555E+02  0.51100000000E-03 0. -1.
        -11    1    4    4    0    0 -0.23570223444E+01 -0.17450099149E+01  0.71307424413E+01  0.77102595262E+01  0.51100000000E-03 0.  1.
        -12    1    4    4    0    0  0.64539137700E+01 -0.48411808068E+01  0.23935963017E+01  0.84154226162E+01  0.00000000000E+00 0.  1.
</event>
<event>
 8    1  0.2402194E-006  0.9118800E+02  0.7816164E-02  0.1184000E+00
        -11   -1    0    0    0    0  0.00000000000E+00  0.00000000000E+00  0.45593999997E+02  0.45594000000E+02  0.51100000000E-03 0. -1.
         11   -1    0    0    0    0 -0.00000000000E+00 -0.00000000000E+00 -0.45593999997E+02  0.45594000000E+02  0.51100000000E-03 0.  1.
         23    2    1    2    0    0  0.71054273576E-14  0.00000000000E+00 -0.55511151231E-15  0.91188000000E+02  0.91188000000E+02 0.  0.
    9900012    2    3    3    0    0  0.36654442640E+02  0.34169626262E+01 -0.74523394444E+00  0.54367093270E+02  0.40000020727E+02 0.  0.
         12    1    3    3    0    0 -0.36654442640E+02 -0.34169626262E+01  0.74523394444E+00  0.36820906730E+02  0.00000000000E+00 0. -1.
         11    1    4    4    0    0 -0.49866236783E+01 -0.55696743782E+01 -0.37891611785E+01  0.83812547442E+01  0.51100000000E-03 0. -1.
        -11    1    4    4    0    0  0.12670873746E+02  0.18337412478E+01 -0.68855254536E+01  0.14536991074E+02  0.51100000000E-03 0.  1.
        -12    1    4    4    0    0  0.28970192572E+02  0.71528957565E+01  0.99294526877E+01  0.31448847451E+02  0.00000000000E+00 0.  1.
</event>
<event>
 8    1  0.2402194E-006  0.9118800E+02  0.7816164E-02  0.1184000E+00
        -11   -1    0    0    0    0  0.00000000000E+00  0.00000000000E+00  0.45593999997E+02  0.45594000000E+02  0.51100000000E-03 0.  1.
         11   -1    0    0    0    0 -0.00000000000E+00 -0.00000000000E+00 -0.45593999997E+02  0.45594000000E+02  0.51100000000E-03 0. -1.
         23    2    1    2    0    0  0.00000000000E+00 -0.44408920985E-15 -0.35527136788E-14  0.91188000000E+02  0.91188000000E+02 0.  0.
    9900012    2    3    3    0    0  0.18603199677E+02 -0.24304880699E+01  0.31682709672E+02  0.54367076565E+02  0.39999982645E+02 0.  0.
         12    1    3    3    0    0 -0.18603199677E+02  0.24304880699E+01 -0.31682709672E+02  0.36820923435E+02  0.00000000000E+00 0. -1.
         11    1    4    4    0    0  0.58566859518E+01  0.39466310743E+01 -0.59311056645E+01  0.92225095196E+01  0.51100000000E-03 0. -1.
        -11    1    4    4    0    0 -0.24366396743E+01 -0.89573025355E+01  0.17524017630E+02  0.19830826402E+02  0.51100000000E-03 0.  1.
        -12    1    4    4    0    0  0.15183153399E+02  0.25801833913E+01  0.20089797706E+02  0.25313740643E+02  0.00000000000E+00 0.  1.
</event>
<event>
 8    1  0.2402194E-006  0.9118800E+02  0.7816164E-02  0.1184000E+00
        -11   -1    0    0    0    0  0.00000000000E+00  0.00000000000E+00  0.45593999997E+02  0.45594000000E+02  0.51100000000E-03 0. -1.
         11   -1    0    0    0    0 -0.00000000000E+00 -0.00000000000E+00 -0.45593999997E+02  0.45594000000E+02  0.51100000000E-03 0.  1.
         23    2    1    2    0    0  0.00000000000E+00  0.00000000000E+00  0.00000000000E+00  0.91188000000E+02  0.91188000000E+02 0.  0.
    9900012    2    3    3    0    0 -0.29975371031E+02 -0.20641985571E+02  0.55826433120E+01  0.54367077373E+02  0.39999984488E+02 0.  0.
        -12    1    3    3    0    0  0.29975371031E+02  0.20641985571E+02 -0.55826433120E+01  0.36820922627E+02  0.00000000000E+00 0.  1.
         11    1    4    4    0    0 -0.28245407669E+02 -0.11845824963E+02 -0.14878473942E+01  0.30664968834E+02  0.51100000000E-03 0. -1.
        -11    1    4    4    0    0  0.84762754792E+00 -0.13876387338E+02 -0.87004906944E+00  0.13929450229E+02  0.51100000000E-03 0.  1.
        -12    1    4    4    0    0 -0.25775909098E+01  0.50802267306E+01  0.79405397757E+01  0.97726583109E+01  0.00000000000E+00 0.  1.
</event>
<event>
 8    1  0.2402194E-006  0.9118800E+02  0.7816164E-02  0.1184000E+00
        -11   -1    0    0    0    0  0.00000000000E+00  0.00000000000E+00  0.45593999997E+02  0.45594000000E+02  0.51100000000E-03 0. -1.
         11   -1    0    0    0    0 -0.00000000000E+00 -0.00000000000E+00 -0.45593999997E+02  0.45594000000E+02  0.51100000000E-03 0.  1.
         23    2    1    2    0    0 -0.35527136788E-14 -0.35527136788E-14 -0.71054273576E-14  0.91188000000E+02  0.91188000000E+02 0.  0.
    9900012    2    3    3    0    0  0.18368598244E+02  0.16330361650E+02  0.27417025102E+02  0.54367090472E+02  0.40000014349E+02 0.  0.
        -12    1    3    3    0    0 -0.18368598244E+02 -0.16330361650E+02 -0.27417025102E+02  0.36820909528E+02  0.00000000000E+00 0.  1.
         11    1    4    4    0    0  0.15072569425E+02 -0.83965642265E+01  0.39382388115E+01  0.17697298243E+02  0.51100000000E-03 0. -1.
        -11    1    4    4    0    0  0.56808600209E+01  0.11731865525E+02  0.18324998410E+02  0.22488094767E+02  0.51100000000E-03 0.  1.
        -12    1    4    4    0    0 -0.23848312024E+01  0.12995060351E+02  0.51537878800E+01  0.14181697462E+02  0.00000000000E+00 0.  1.
</event>
<event>
 8    1  0.2402194E-006  0.9118800E+02  0.7816164E-02  0.1184000E+00
        -11   -1    0    0    0    0  0.00000000000E+00  0.00000000000E+00  0.45593999997E+02  0.45594000000E+02  0.51100000000E-03 0. -1.
         11   -1    0    0    0    0 -0.00000000000E+00 -0.00000000000E+00 -0.45593999997E+02  0.45594000000E+02  0.51100000000E-03 0.  1.
         23    2    1    2    0    0  0.35527136788E-14  0.35527136788E-14  0.00000000000E+00  0.91188000000E+02  0.91188000000E+02 0.  0.
    9900012    2    3    3    0    0 -0.23198267228E+02 -0.19140900153E+02 -0.21242585592E+02  0.54367067045E+02  0.39999960942E+02 0.  0.
         12    1    3    3    0    0  0.23198267228E+02  0.19140900153E+02  0.21242585592E+02  0.36820932955E+02  0.00000000000E+00 0. -1.
         11    1    4    4    0    0 -0.13440556453E+02  0.51314545617E+01 -0.54310691376E+01  0.15377805303E+02  0.51100000000E-03 0. -1.
        -11    1    4    4    0    0 -0.77089212529E+01 -0.54622080880E+01  0.51422475644E+01  0.10756667437E+02  0.51100000000E-03 0.  1.
         12    1    4    4    0    0 -0.20487895221E+01 -0.18810146627E+02 -0.20953764019E+02  0.28232594305E+02  0.00000000000E+00 0. -1.
</event>
<event>
 8    1  0.2402194E-006  0.9118800E+02  0.7816164E-02  0.1184000E+00
        -11   -1    0    0    0    0  0.00000000000E+00  0.00000000000E+00  0.45593999997E+02  0.45594000000E+02  0.51100000000E-03 0. -1.
         11   -1    0    0    0    0 -0.00000000000E+00 -0.00000000000E+00 -0.45593999997E+02  0.45594000000E+02  0.51100000000E-03 0.  1.
         23    2    1    2    0    0  0.00000000000E+00 -0.35527136788E-14 -0.44408920985E-15  0.91188000000E+02  0.91188000000E+02 0.  0.
    9900012    2    3    3    0    0 -0.23441674139E+02 -0.28164522437E+02 -0.36096585589E+01  0.54367054256E+02  0.39999931787E+02 0.  0.
        -12    1    3    3    0    0  0.23441674139E+02  0.28164522437E+02  0.36096585589E+01  0.36820945744E+02  0.00000000000E+00 0.  1.
         11    1    4    4    0    0 -0.20398972605E+02 -0.18501640593E+02 -0.61743447889E+01  0.28223240810E+02  0.51100000000E-03 0. -1.
        -11    1    4    4    0    0  0.51585477137E+01  0.20280282662E+01  0.89286937073E+01  0.10509285644E+02  0.51100000000E-03 0.  1.
         12    1    4    4    0    0 -0.82012492479E+01 -0.11690910110E+02 -0.63640074773E+01  0.15634527803E+02  0.00000000000E+00 0. -1.
</event>
<event>
 8    1  0.2402194E-006  0.9118800E+02  0.7816164E-02  0.1184000E+00
        -11   -1    0    0    0    0  0.00000000000E+00  0.00000000000E+00  0.45593999997E+02  0.45594000000E+02  0.51100000000E-03 0.  1.
         11   -1    0    0    0    0 -0.00000000000E+00 -0.00000000000E+00 -0.45593999997E+02  0.45594000000E+02  0.51100000000E-03 0. -1.
         23    2    1    2    0    0 -0.17763568394E-14 -0.35527136788E-14  0.00000000000E+00  0.91188000000E+02  0.91188000000E+02 0.  0.
    9900012    2    3    3    0    0 -0.34710040807E+01 -0.29745622584E+02 -0.21422652978E+02  0.54367082130E+02  0.39999995331E+02 0.  0.
        -12    1    3    3    0    0  0.34710040807E+01  0.29745622584E+02  0.21422652978E+02  0.36820917870E+02  0.00000000000E+00 0.  1.
         11    1    4    4    0    0  0.13007863478E+02 -0.16874028001E+02  0.26080442646E+01  0.21464837022E+02  0.51100000000E-03 0. -1.
        -11    1    4    4    0    0 -0.29766394059E+01 -0.10861724421E+00 -0.66854761209E+00  0.30527259997E+01  0.51100000000E-03 0.  1.
         12    1    4    4    0    0 -0.13502228152E+02 -0.12762977338E+02 -0.23362149630E+02  0.29849519108E+02  0.00000000000E+00 0. -1.
</event>
<event>
 8    1  0.2402194E-006  0.9118800E+02  0.7816164E-02  0.1184000E+00
        -11   -1    0    0    0    0  0.00000000000E+00  0.00000000000E+00  0.45593999997E+02  0.45594000000E+02  0.51100000000E-03 0. -1.
         11   -1    0    0    0    0 -0.00000000000E+00 -0.00000000000E+00 -0.45593999997E+02  0.45594000000E+02  0.51100000000E-03 0.  1.
         23    2    1    2    0    0 -0.88817841970E-15  0.71054273576E-14  0.88817841970E-15  0.91188000000E+02  0.91188000000E+02 0.  0.
    9900012    2    3    3    0    0  0.28643657241E+01 -0.36269857856E+02 -0.56632286593E+01  0.54367091011E+02  0.40000015578E+02 0.  0.
         12    1    3    3    0    0 -0.28643657241E+01  0.36269857856E+02  0.56632286593E+01  0.36820908989E+02  0.00000000000E+00 0. -1.
         11    1    4    4    0    0  0.37058190923E+00  0.50775829257E+00 -0.10996883514E+02  0.11014835301E+02  0.51100000000E-03 0. -1.
        -11    1    4    4    0    0  0.12344502865E+02 -0.18984671095E+02  0.18773921498E+01  0.22722875899E+02  0.51100000000E-03 0.  1.
         12    1    4    4    0    0 -0.98507190500E+01 -0.17792945054E+02  0.34562627049E+01  0.20629379811E+02  0.00000000000E+00 0. -1.
</event>
<event>
 8    1  0.2402194E-006  0.9118800E+02  0.7816164E-02  0.1184000E+00
        -11   -1    0    0    0    0  0.00000000000E+00  0.00000000000E+00  0.45593999997E+02  0.45594000000E+02  0.51100000000E-03 0.  1.
         11   -1    0    0    0    0 -0.00000000000E+00 -0.00000000000E+00 -0.45593999997E+02  0.45594000000E+02  0.51100000000E-03 0. -1.
         23    2    1    2    0    0  0.17763568394E-14  0.35527136788E-14  0.00000000000E+00  0.91188000000E+02  0.91188000000E+02 0.  0.
    9900012    2    3    3    0    0  0.11372580906E+02  0.30500550686E+02 -0.17209308787E+02  0.54367088855E+02  0.40000010662E+02 0.  0.
         12    1    3    3    0    0 -0.11372580906E+02 -0.30500550686E+02  0.17209308787E+02  0.36820911145E+02  0.00000000000E+00 0. -1.
         11    1    4    4    0    0 -0.86888930791E+01  0.83247649288E+01  0.16913254888E+01  0.12151508393E+02  0.51100000000E-03 0. -1.
        -11    1    4    4    0    0  0.35061092170E+01  0.19164987648E+02 -0.15846461236E+02  0.25113739016E+02  0.51100000000E-03 0.  1.
        -12    1    4    4    0    0  0.16555364768E+02  0.30107981094E+01 -0.30541730404E+01  0.17101841446E+02  0.00000000000E+00 0.  1.
</event>
<event>
 8    1  0.2402194E-006  0.9118800E+02  0.7816164E-02  0.1184000E+00
        -11   -1    0    0    0    0  0.00000000000E+00  0.00000000000E+00  0.45593999997E+02  0.45594000000E+02  0.51100000000E-03 0.  1.
         11   -1    0    0    0    0 -0.00000000000E+00 -0.00000000000E+00 -0.45593999997E+02  0.45594000000E+02  0.51100000000E-03 0. -1.
         23    2    1    2    0    0  0.00000000000E+00  0.35527136788E-14  0.00000000000E+00  0.91188000000E+02  0.91188000000E+02 0.  0.
    9900012    2    3    3    0    0 -0.17096611343E+02  0.25940159903E+02 -0.19763335481E+02  0.54367143892E+02  0.40000136131E+02 0.  0.
        -12    1    3    3    0    0  0.17096611343E+02 -0.25940159903E+02  0.19763335481E+02  0.36820856108E+02  0.00000000000E+00 0.  1.
         11    1    4    4    0    0 -0.86447118316E+01  0.35012971016E+01  0.26187666664E+01  0.96875210018E+01  0.51100000000E-03 0. -1.
        -11    1    4    4    0    0  0.48838178915E+01  0.13556521558E+02  0.29472677399E+01  0.14707730666E+02  0.51100000000E-03 0.  1.
         12    1    4    4    0    0 -0.13335717402E+02  0.88823412426E+01 -0.25329369888E+02  0.29971892224E+02  0.00000000000E+00 0. -1.
</event>
<event>
 8    1  0.2402194E-006  0.9118800E+02  0.7816164E-02  0.1184000E+00
        -11   -1    0    0    0    0  0.00000000000E+00  0.00000000000E+00  0.45593999997E+02  0.45594000000E+02  0.51100000000E-03 0.  1.
         11   -1    0    0    0    0 -0.00000000000E+00 -0.00000000000E+00 -0.45593999997E+02  0.45594000000E+02  0.51100000000E-03 0. -1.
         23    2    1    2    0    0  0.17763568394E-14 -0.71054273576E-14  0.44408920985E-15  0.91188000000E+02  0.91188000000E+02 0.  0.
    9900012    2    3    3    0    0  0.85927891674E+01  0.35700063787E+02 -0.27293343492E+01  0.54367084123E+02  0.39999999875E+02 0.  0.
        -12    1    3    3    0    0 -0.85927891674E+01 -0.35700063787E+02  0.27293343492E+01  0.36820915877E+02  0.00000000000E+00 0.  1.
         11    1    4    4    0    0  0.78088638171E+01  0.25037351776E+02  0.29989262014E+01  0.26397744160E+02  0.51100000000E-03 0. -1.
        -11    1    4    4    0    0 -0.72696894004E+01  0.11074872921E+02 -0.11905386748E+02  0.17811216356E+02  0.51100000000E-03 0.  1.
        -12    1    4    4    0    0  0.80536147507E+01 -0.41216091086E+00  0.61771261973E+01  0.10158123608E+02  0.00000000000E+00 0.  1.
</event>
<event>
 8    1  0.2402194E-006  0.9118800E+02  0.7816164E-02  0.1184000E+00
        -11   -1    0    0    0    0  0.00000000000E+00  0.00000000000E+00  0.45593999997E+02  0.45594000000E+02  0.51100000000E-03 0.  1.
         11   -1    0    0    0    0 -0.00000000000E+00 -0.00000000000E+00 -0.45593999997E+02  0.45594000000E+02  0.51100000000E-03 0. -1.
         23    2    1    2    0    0  0.22204460493E-15  0.00000000000E+00  0.00000000000E+00  0.91188000000E+02  0.91188000000E+02 0.  0.
    9900012    2    3    3    0    0 -0.15828509325E+01 -0.35270360113E+02 -0.10453465314E+02  0.54367100274E+02  0.40000036695E+02 0.  0.
        -12    1    3    3    0    0  0.15828509325E+01  0.35270360113E+02  0.10453465314E+02  0.36820899726E+02  0.00000000000E+00 0.  1.
         11    1    4    4    0    0  0.29151443261E+01 -0.41558667571E+02 -0.11920891869E+02  0.43332765662E+02  0.51100000000E-03 0. -1.
        -11    1    4    4    0    0 -0.31761077588E+00  0.19450696432E+00 -0.25813164241E+01  0.26080460706E+01  0.51100000000E-03 0.  1.
         12    1    4    4    0    0 -0.41803844827E+01  0.60938004936E+01  0.40487429786E+01  0.84262885416E+01  0.00000000000E+00 0. -1.
</event>
<event>
 8    1  0.2402194E-006  0.9118800E+02  0.7816164E-02  0.1184000E+00
        -11   -1    0    0    0    0  0.00000000000E+00  0.00000000000E+00  0.45593999997E+02  0.45594000000E+02  0.51100000000E-03 0.  1.
         11   -1    0    0    0    0 -0.00000000000E+00 -0.00000000000E+00 -0.45593999997E+02  0.45594000000E+02  0.51100000000E-03 0. -1.
         23    2    1    2    0    0  0.11379786002E-14  0.00000000000E+00  0.00000000000E+00  0.91188000000E+02  0.91188000000E+02 0.  0.
    9900012    2    3    3    0    0 -0.13806725759E+00  0.24514904409E+02 -0.27473250194E+02  0.54367094566E+02  0.40000023681E+02 0.  0.
        -12    1    3    3    0    0  0.13806725759E+00 -0.24514904409E+02  0.27473250194E+02  0.36820905434E+02  0.00000000000E+00 0.  1.
         11    1    4    4    0    0  0.12561797700E+02  0.19749519824E+02 -0.25353352429E+02  0.34505575990E+02  0.51100000000E-03 0. -1.
        -11    1    4    4    0    0  0.48450361918E+00 -0.24359767309E+01  0.30867814475E+01  0.39619371974E+01  0.51100000000E-03 0.  1.
        -12    1    4    4    0    0 -0.13184368577E+02  0.72013613165E+01 -0.52066792124E+01  0.15899581378E+02  0.00000000000E+00 0.  1.
</event>
<event>
 8    1  0.2402194E-006  0.9118800E+02  0.7816164E-02  0.1184000E+00
        -11   -1    0    0    0    0  0.00000000000E+00  0.00000000000E+00  0.45593999997E+02  0.45594000000E+02  0.51100000000E-03 0.  1.
         11   -1    0    0    0    0 -0.00000000000E+00 -0.00000000000E+00 -0.45593999997E+02  0.45594000000E+02  0.51100000000E-03 0. -1.
         23    2    1    2    0    0  0.33306690739E-15  0.00000000000E+00  0.00000000000E+00  0.91188000000E+02  0.91188000000E+02 0.  0.
    9900012    2    3    3    0    0  0.47629689140E+00  0.36724032895E+02 -0.26265942797E+01  0.54367075945E+02  0.39999981231E+02 0.  0.
         12    1    3    3    0    0 -0.47629689140E+00 -0.36724032895E+02  0.26265942797E+01  0.36820924055E+02  0.00000000000E+00 0. -1.
         11    1    4    4    0    0  0.64792995357E+01  0.26348638539E+02 -0.22831313902E-01  0.27133606411E+02  0.51100000000E-03 0.  1.
        -11    1    4    4    0    0  0.75199700733E+01 -0.29569836544E+01 -0.14400540074E+01  0.82077681522E+01  0.51100000000E-03 0. -1.
         12    1    4    4    0    0 -0.13522972718E+02  0.13332378010E+02 -0.11637089584E+01  0.19025701382E+02  0.00000000000E+00 0. -1.
</event>
<event>
 8    1  0.2402194E-006  0.9118800E+02  0.7816164E-02  0.1184000E+00
        -11   -1    0    0    0    0  0.00000000000E+00  0.00000000000E+00  0.45593999997E+02  0.45594000000E+02  0.51100000000E-03 0. -1.
         11   -1    0    0    0    0 -0.00000000000E+00 -0.00000000000E+00 -0.45593999997E+02  0.45594000000E+02  0.51100000000E-03 0.  1.
         23    2    1    2    0    0 -0.44408920985E-15  0.00000000000E+00 -0.17763568394E-14  0.91188000000E+02  0.91188000000E+02 0.  0.
    9900012    2    3    3    0    0  0.36927264909E+01  0.34857238413E+02 -0.11274631667E+02  0.54367073641E+02  0.39999975979E+02 0.  0.
         12    1    3    3    0    0 -0.36927264909E+01 -0.34857238413E+02  0.11274631667E+02  0.36820926359E+02  0.00000000000E+00 0. -1.
         11    1    4    4    0    0 -0.46549800580E+01  0.10500554041E+02  0.74287721850E+01  0.13679076393E+02  0.51100000000E-03 0. -1.
        -11    1    4    4    0    0  0.51315778701E+01 -0.46029691101E+01 -0.48222032663E+01  0.84127320573E+01  0.51100000000E-03 0.  1.
        -12    1    4    4    0    0  0.32161286788E+01  0.28959653482E+02 -0.13881200585E+02  0.32275265191E+02  0.00000000000E+00 0.  1.
</event>
<event>
 8    1  0.2402194E-006  0.9118800E+02  0.7816164E-02  0.1184000E+00
        -11   -1    0    0    0    0  0.00000000000E+00  0.00000000000E+00  0.45593999997E+02  0.45594000000E+02  0.51100000000E-03 0. -1.
         11   -1    0    0    0    0 -0.00000000000E+00 -0.00000000000E+00 -0.45593999997E+02  0.45594000000E+02  0.51100000000E-03 0.  1.
         23    2    1    2    0    0  0.00000000000E+00  0.00000000000E+00  0.00000000000E+00  0.91188000000E+02  0.91188000000E+02 0.  0.
    9900012    2    3    3    0    0  0.23854381675E+02 -0.22770130418E+02 -0.16378964051E+02  0.54367070792E+02  0.39999969485E+02 0.  0.
         12    1    3    3    0    0 -0.23854381675E+02  0.22770130418E+02  0.16378964051E+02  0.36820929208E+02  0.00000000000E+00 0. -1.
         11    1    4    4    0    0  0.22258555417E+02 -0.11910969363E+02 -0.19732533558E+02  0.32041962506E+02  0.51100000000E-03 0.  1.
        -11    1    4    4    0    0  0.21660475038E+01 -0.12387175078E+02  0.96308479522E+01  0.15839416048E+02  0.51100000000E-03 0. -1.
        -12    1    4    4    0    0 -0.57022124589E+00  0.15280140222E+01 -0.62772784456E+01  0.64856922379E+01  0.00000000000E+00 0.  1.
</event>
<event>
 8    1  0.2402194E-006  0.9118800E+02  0.7816164E-02  0.1184000E+00
        -11   -1    0    0    0    0  0.00000000000E+00  0.00000000000E+00  0.45593999997E+02  0.45594000000E+02  0.51100000000E-03 0. -1.
         11   -1    0    0    0    0 -0.00000000000E+00 -0.00000000000E+00 -0.45593999997E+02  0.45594000000E+02  0.51100000000E-03 0.  1.
         23    2    1    2    0    0  0.00000000000E+00  0.00000000000E+00  0.00000000000E+00  0.91188000000E+02  0.91188000000E+02 0.  0.
    9900012    2    3    3    0    0  0.21529856390E+02 -0.18458261843E+02 -0.23484834563E+02  0.54367087452E+02  0.40000007464E+02 0.  0.
         12    1    3    3    0    0 -0.21529856390E+02  0.18458261843E+02  0.23484834563E+02  0.36820912548E+02  0.00000000000E+00 0. -1.
         11    1    4    4    0    0  0.10240619503E+02 -0.18126369695E+02 -0.17627803517E+02  0.27279571536E+02  0.51100000000E-03 0.  1.
        -11    1    4    4    0    0 -0.70317338714E+01  0.24531070225E+01  0.58007980346E+00  0.74699068362E+01  0.51100000000E-03 0. -1.
         12    1    4    4    0    0  0.18320970758E+02 -0.27849991707E+01 -0.64371108494E+01  0.19617609079E+02  0.00000000000E+00 0. -1.
</event>
<event>
 8    1  0.2402194E-006  0.9118800E+02  0.7816164E-02  0.1184000E+00
        -11   -1    0    0    0    0  0.00000000000E+00  0.00000000000E+00  0.45593999997E+02  0.45594000000E+02  0.51100000000E-03 0. -1.
         11   -1    0    0    0    0 -0.00000000000E+00 -0.00000000000E+00 -0.45593999997E+02  0.45594000000E+02  0.51100000000E-03 0.  1.
         23    2    1    2    0    0 -0.17763568394E-14  0.35527136788E-14  0.00000000000E+00  0.91188000000E+02  0.91188000000E+02 0.  0.
    9900012    2    3    3    0    0 -0.28383993982E+01  0.27045335583E+02  0.24824850917E+02  0.54367083241E+02  0.39999997864E+02 0.  0.
        -12    1    3    3    0    0  0.28383993982E+01 -0.27045335583E+02 -0.24824850917E+02  0.36820916759E+02  0.00000000000E+00 0.  1.
         11    1    4    4    0    0 -0.69081598568E+01  0.16461928589E+02 -0.54416671731E+01  0.18663587741E+02  0.51100000000E-03 0. -1.
        -11    1    4    4    0    0 -0.48733243980E+01  0.11493752636E+01  0.40455236766E+01  0.64371279515E+01  0.51100000000E-03 0.  1.
         12    1    4    4    0    0  0.89430848567E+01  0.94340317300E+01  0.26220994413E+02  0.29266367548E+02  0.00000000000E+00 0. -1.
</event>
<event>
 8    1  0.2402194E-006  0.9118800E+02  0.7816164E-02  0.1184000E+00
        -11   -1    0    0    0    0  0.00000000000E+00  0.00000000000E+00  0.45593999997E+02  0.45594000000E+02  0.51100000000E-03 0.  1.
         11   -1    0    0    0    0 -0.00000000000E+00 -0.00000000000E+00 -0.45593999997E+02  0.45594000000E+02  0.51100000000E-03 0. -1.
         23    2    1    2    0    0  0.00000000000E+00 -0.44408920985E-15  0.17763568394E-14  0.91188000000E+02  0.91188000000E+02 0.  0.
    9900012    2    3    3    0    0 -0.33567038454E+02  0.56975510288E+00  0.15123080627E+02  0.54367105672E+02  0.40000049001E+02 0.  0.
         12    1    3    3    0    0  0.33567038454E+02 -0.56975510288E+00 -0.15123080627E+02  0.36820894328E+02  0.00000000000E+00 0. -1.
         11    1    4    4    0    0  0.32341646555E+01  0.48323105113E+01 -0.15876349296E+01  0.60275725484E+01  0.51100000000E-03 0. -1.
        -11    1    4    4    0    0 -0.30103552505E+01  0.65510554718E+01  0.98447047497E+01  0.12202326762E+02  0.51100000000E-03 0.  1.
        -12    1    4    4    0    0 -0.33790847859E+02 -0.10813610880E+02  0.68660108072E+01  0.36137206362E+02  0.00000000000E+00 0.  1.
</event>
<event>
 8    1  0.2402194E-006  0.9118800E+02  0.7816164E-02  0.1184000E+00
        -11   -1    0    0    0    0  0.00000000000E+00  0.00000000000E+00  0.45593999997E+02  0.45594000000E+02  0.51100000000E-03 0.  1.
         11   -1    0    0    0    0 -0.00000000000E+00 -0.00000000000E+00 -0.45593999997E+02  0.45594000000E+02  0.51100000000E-03 0. -1.
         23    2    1    2    0    0 -0.35527136788E-14 -0.35527136788E-14  0.00000000000E+00  0.91188000000E+02  0.91188000000E+02 0.  0.
    9900012    2    3    3    0    0  0.24426800875E+02  0.25440103069E+02 -0.10578199611E+02  0.54367275507E+02  0.40000436171E+02 0.  0.
        -12    1    3    3    0    0 -0.24426800875E+02 -0.25440103069E+02  0.10578199611E+02  0.36820724493E+02  0.00000000000E+00 0.  1.
         11    1    4    4    0    0  0.22840835759E+01 -0.95947989298E+01 -0.65218769422E+01  0.11824215974E+02  0.51100000000E-03 0. -1.
        -11    1    4    4    0    0  0.12803670953E+02  0.27540592175E+02 -0.26572576012E+01  0.30487361733E+02  0.51100000000E-03 0.  1.
         12    1    4    4    0    0  0.93390463456E+01  0.74943098244E+01 -0.13990650677E+01  0.12055697800E+02  0.00000000000E+00 0. -1.
</event>
<event>
 8    1  0.2402194E-006  0.9118800E+02  0.7816164E-02  0.1184000E+00
        -11   -1    0    0    0    0  0.00000000000E+00  0.00000000000E+00  0.45593999997E+02  0.45594000000E+02  0.51100000000E-03 0.  1.
         11   -1    0    0    0    0 -0.00000000000E+00 -0.00000000000E+00 -0.45593999997E+02  0.45594000000E+02  0.51100000000E-03 0. -1.
         23    2    1    2    0    0  0.00000000000E+00  0.00000000000E+00 -0.35527136788E-14  0.91188000000E+02  0.91188000000E+02 0.  0.
    9900012    2    3    3    0    0  0.29185873026E+01  0.18933751123E+02  0.31444782696E+02  0.54367089606E+02  0.40000012376E+02 0.  0.
         12    1    3    3    0    0 -0.29185873026E+01 -0.18933751123E+02 -0.31444782696E+02  0.36820910394E+02  0.00000000000E+00 0. -1.
         11    1    4    4    0    0 -0.73838137463E+01  0.21890017190E+02  0.66762520544E+01  0.24047159911E+02  0.51100000000E-03 0. -1.
        -11    1    4    4    0    0  0.85440381819E-01 -0.32133309394E+01  0.17464934500E+02  0.17758286323E+02  0.51100000000E-03 0.  1.
         12    1    4    4    0    0  0.10216960667E+02  0.25706487249E+00  0.73035961416E+01  0.12561643373E+02  0.00000000000E+00 0. -1.
</event>
<event>
 8    1  0.2402194E-006  0.9118800E+02  0.7816164E-02  0.1184000E+00
        -11   -1    0    0    0    0  0.00000000000E+00  0.00000000000E+00  0.45593999997E+02  0.45594000000E+02  0.51100000000E-03 0.  1.
         11   -1    0    0    0    0 -0.00000000000E+00 -0.00000000000E+00 -0.45593999997E+02  0.45594000000E+02  0.51100000000E-03 0. -1.
         23    2    1    2    0    0  0.17763568394E-14 -0.88817841970E-15  0.71054273576E-14  0.91188000000E+02  0.91188000000E+02 0.  0.
    9900012    2    3    3    0    0 -0.14949136860E+02  0.53619819809E+01  0.33219813005E+02  0.54367034237E+02  0.39999886150E+02 0.  0.
         12    1    3    3    0    0  0.14949136860E+02 -0.53619819809E+01 -0.33219813005E+02  0.36820965763E+02  0.00000000000E+00 0. -1.
         11    1    4    4    0    0 -0.11259122493E+02 -0.90776910176E+01 -0.21945358261E+01  0.14628338979E+02  0.51100000000E-03 0. -1.
        -11    1    4    4    0    0  0.14634511156E+01  0.11772382398E+02  0.19811044878E+02  0.23091300870E+02  0.51100000000E-03 0.  1.
        -12    1    4    4    0    0 -0.51534654825E+01  0.26672906010E+01  0.15603303954E+02  0.16647394388E+02  0.00000000000E+00 0.  1.
</event>
<event>
 8    1  0.2402194E-006  0.9118800E+02  0.7816164E-02  0.1184000E+00
        -11   -1    0    0    0    0  0.00000000000E+00  0.00000000000E+00  0.45593999997E+02  0.45594000000E+02  0.51100000000E-03 0.  1.
         11   -1    0    0    0    0 -0.00000000000E+00 -0.00000000000E+00 -0.45593999997E+02  0.45594000000E+02  0.51100000000E-03 0. -1.
         23    2    1    2    0    0  0.00000000000E+00  0.00000000000E+00  0.00000000000E+00  0.91188000000E+02  0.91188000000E+02 0.  0.
    9900012    2    3    3    0    0  0.79432336433E+01  0.33606494903E+02  0.12778469727E+02  0.54367071862E+02  0.39999971923E+02 0.  0.
        -12    1    3    3    0    0 -0.79432336433E+01 -0.33606494903E+02 -0.12778469727E+02  0.36820928138E+02  0.00000000000E+00 0.  1.
         11    1    4    4    0    0  0.35940437263E+01  0.79022453910E+01  0.13052529001E+02  0.15675814050E+02  0.51100000000E-03 0. -1.
        -11    1    4    4    0    0 -0.13829956171E+01 -0.58376638966E+01  0.25287599916E+01  0.65104242568E+01  0.51100000000E-03 0.  1.
         12    1    4    4    0    0  0.57321855342E+01  0.31541913409E+02 -0.28028192659E+01  0.32180833555E+02  0.00000000000E+00 0. -1.
</event>
<event>
 8    1  0.2402194E-006  0.9118800E+02  0.7816164E-02  0.1184000E+00
        -11   -1    0    0    0    0  0.00000000000E+00  0.00000000000E+00  0.45593999997E+02  0.45594000000E+02  0.51100000000E-03 0. -1.
         11   -1    0    0    0    0 -0.00000000000E+00 -0.00000000000E+00 -0.45593999997E+02  0.45594000000E+02  0.51100000000E-03 0.  1.
         23    2    1    2    0    0  0.88817841970E-15 -0.35527136788E-14  0.00000000000E+00  0.91188000000E+02  0.91188000000E+02 0.  0.
    9900012    2    3    3    0    0 -0.44898175699E+01  0.29619951094E+02 -0.21407477645E+02  0.54367081167E+02  0.39999993135E+02 0.  0.
         12    1    3    3    0    0  0.44898175699E+01 -0.29619951094E+02  0.21407477645E+02  0.36820918833E+02  0.00000000000E+00 0. -1.
         11    1    4    4    0    0 -0.64287691265E+01  0.59572084379E-01 -0.11495674696E+02  0.13171300555E+02  0.51100000000E-03 0. -1.
        -11    1    4    4    0    0  0.42774539272E+01  0.68944792639E+01 -0.15711721112E+02  0.17683004185E+02  0.51100000000E-03 0.  1.
         12    1    4    4    0    0 -0.23385023705E+01  0.22665899746E+02  0.57999181636E+01  0.23512776427E+02  0.00000000000E+00 0. -1.
</event>
<event>
 8    1  0.2402194E-006  0.9118800E+02  0.7816164E-02  0.1184000E+00
        -11   -1    0    0    0    0  0.00000000000E+00  0.00000000000E+00  0.45593999997E+02  0.45594000000E+02  0.51100000000E-03 0.  1.
         11   -1    0    0    0    0 -0.00000000000E+00 -0.00000000000E+00 -0.45593999997E+02  0.45594000000E+02  0.51100000000E-03 0. -1.
         23    2    1    2    0    0 -0.44408920985E-15  0.35527136788E-14 -0.71054273576E-14  0.91188000000E+02  0.91188000000E+02 0.  0.
    9900012    2    3    3    0    0  0.29882251213E+01  0.26016281729E+02 -0.25884412084E+02  0.54367092986E+02  0.40000020081E+02 0.  0.
        -12    1    3    3    0    0 -0.29882251213E+01 -0.26016281729E+02  0.25884412084E+02  0.36820907014E+02  0.00000000000E+00 0.  1.
         11    1    4    4    0    0 -0.21000816509E+01 -0.13617733223E+01  0.18497983184E+01  0.31123180432E+01  0.51100000000E-03 0. -1.
        -11    1    4    4    0    0 -0.99471776522E+01  0.18380408720E+02 -0.26415277499E+02  0.33683121197E+02  0.51100000000E-03 0.  1.
         12    1    4    4    0    0  0.15035484424E+02  0.89976463315E+01 -0.13189329034E+01  0.17571653747E+02  0.00000000000E+00 0. -1.
</event>
<event>
 8    1  0.2402194E-006  0.9118800E+02  0.7816164E-02  0.1184000E+00
        -11   -1    0    0    0    0  0.00000000000E+00  0.00000000000E+00  0.45593999997E+02  0.45594000000E+02  0.51100000000E-03 0. -1.
         11   -1    0    0    0    0 -0.00000000000E+00 -0.00000000000E+00 -0.45593999997E+02  0.45594000000E+02  0.51100000000E-03 0.  1.
         23    2    1    2    0    0  0.71054273576E-14 -0.17763568394E-14  0.00000000000E+00  0.91188000000E+02  0.91188000000E+02 0.  0.
    9900012    2    3    3    0    0  0.33086139855E+02 -0.13878333358E+02 -0.82752248744E+01  0.54367080212E+02  0.39999990959E+02 0.  0.
         12    1    3    3    0    0 -0.33086139855E+02  0.13878333358E+02  0.82752248744E+01  0.36820919788E+02  0.00000000000E+00 0. -1.
         11    1    4    4    0    0  0.12623213797E+02 -0.58137700130E+01 -0.14717890988E+01  0.13975393080E+02  0.51100000000E-03 0. -1.
        -11    1    4    4    0    0  0.58860502510E+01 -0.70770956822E+01 -0.19160209358E+02  0.21256634112E+02  0.51100000000E-03 0.  1.
         12    1    4    4    0    0  0.14576875807E+02 -0.98746766272E+00  0.12356773583E+02  0.19135053020E+02  0.00000000000E+00 0. -1.
</event>
<event>
 8    1  0.2402194E-006  0.9118800E+02  0.7816164E-02  0.1184000E+00
        -11   -1    0    0    0    0  0.00000000000E+00  0.00000000000E+00  0.45593999997E+02  0.45594000000E+02  0.51100000000E-03 0. -1.
         11   -1    0    0    0    0 -0.00000000000E+00 -0.00000000000E+00 -0.45593999997E+02  0.45594000000E+02  0.51100000000E-03 0.  1.
         23    2    1    2    0    0 -0.53290705182E-14  0.00000000000E+00  0.35527136788E-14  0.91188000000E+02  0.91188000000E+02 0.  0.
    9900012    2    3    3    0    0 -0.15529855880E+02 -0.22926222426E+02 -0.24269148259E+02  0.54367086709E+02  0.40000005770E+02 0.  0.
         12    1    3    3    0    0  0.15529855880E+02  0.22926222426E+02  0.24269148259E+02  0.36820913291E+02  0.00000000000E+00 0. -1.
         11    1    4    4    0    0  0.54546764701E+00 -0.18106816179E+02 -0.27372776079E+01  0.18320671823E+02  0.51100000000E-03 0. -1.
        -11    1    4    4    0    0  0.45937484677E+01 -0.63660345217E+01 -0.84627141892E+01  0.11543242708E+02  0.51100000000E-03 0.  1.
        -12    1    4    4    0    0 -0.20669071995E+02  0.15466282744E+01 -0.13069156462E+02  0.24503172178E+02  0.00000000000E+00 0.  1.
</event>
<event>
 8    1  0.2402194E-006  0.9118800E+02  0.7816164E-02  0.1184000E+00
        -11   -1    0    0    0    0  0.00000000000E+00  0.00000000000E+00  0.45593999997E+02  0.45594000000E+02  0.51100000000E-03 0.  1.
         11   -1    0    0    0    0 -0.00000000000E+00 -0.00000000000E+00 -0.45593999997E+02  0.45594000000E+02  0.51100000000E-03 0. -1.
         23    2    1    2    0    0 -0.35527136788E-14  0.00000000000E+00 -0.71054273576E-14  0.91188000000E+02  0.91188000000E+02 0.  0.
    9900012    2    3    3    0    0 -0.19644961579E+01  0.17979787223E+02 -0.32072535525E+02  0.54367088431E+02  0.40000009697E+02 0.  0.
        -12    1    3    3    0    0  0.19644961579E+01 -0.17979787223E+02  0.32072535525E+02  0.36820911569E+02  0.00000000000E+00 0.  1.
         11    1    4    4    0    0  0.98679267675E+01  0.68426401045E+01 -0.23650138962E+02  0.26524079164E+02  0.51100000000E-03 0. -1.
        -11    1    4    4    0    0 -0.16663053590E+02  0.27939789139E+01 -0.55345525840E+01  0.17779059190E+02  0.51100000000E-03 0.  1.
        -12    1    4    4    0    0  0.48306306647E+01  0.83431682052E+01 -0.28878439789E+01  0.10063950078E+02  0.00000000000E+00 0.  1.
</event>
<event>
 8    1  0.2402194E-006  0.9118800E+02  0.7816164E-02  0.1184000E+00
        -11   -1    0    0    0    0  0.00000000000E+00  0.00000000000E+00  0.45593999997E+02  0.45594000000E+02  0.51100000000E-03 0.  1.
         11   -1    0    0    0    0 -0.00000000000E+00 -0.00000000000E+00 -0.45593999997E+02  0.45594000000E+02  0.51100000000E-03 0. -1.
         23    2    1    2    0    0  0.00000000000E+00  0.44408920985E-15  0.00000000000E+00  0.91188000000E+02  0.91188000000E+02 0.  0.
    9900012    2    3    3    0    0  0.13652769698E+02  0.29035182077E+01  0.34072732692E+02  0.54367086764E+02  0.40000005896E+02 0.  0.
         12    1    3    3    0    0 -0.13652769698E+02 -0.29035182077E+01 -0.34072732692E+02  0.36820913236E+02  0.00000000000E+00 0. -1.
         11    1    4    4    0    0 -0.76083358296E+01  0.98831586024E+01  0.21382445622E+01  0.12654473048E+02  0.51100000000E-03 0. -1.
        -11    1    4    4    0    0  0.13543432924E+01 -0.53044086706E+00  0.14224979901E+02  0.14299149161E+02  0.51100000000E-03 0.  1.
         12    1    4    4    0    0  0.19906762235E+02 -0.64491995277E+01  0.17709508229E+02  0.27413464556E+02  0.00000000000E+00 0. -1.
</event>
<event>
 8    1  0.2402194E-006  0.9118800E+02  0.7816164E-02  0.1184000E+00
        -11   -1    0    0    0    0  0.00000000000E+00  0.00000000000E+00  0.45593999997E+02  0.45594000000E+02  0.51100000000E-03 0.  1.
         11   -1    0    0    0    0 -0.00000000000E+00 -0.00000000000E+00 -0.45593999997E+02  0.45594000000E+02  0.51100000000E-03 0. -1.
         23    2    1    2    0    0  0.00000000000E+00  0.88817841970E-15 -0.35527136788E-14  0.91188000000E+02  0.91188000000E+02 0.  0.
    9900012    2    3    3    0    0 -0.23895409338E+02  0.25031476907E+01  0.27902047039E+02  0.54367074363E+02  0.39999977625E+02 0.  0.
         12    1    3    3    0    0  0.23895409338E+02 -0.25031476907E+01 -0.27902047039E+02  0.36820925637E+02  0.00000000000E+00 0. -1.
         11    1    4    4    0    0 -0.96522459518E+01  0.13785605845E+02  0.13862804089E+01  0.16885809251E+02  0.51100000000E-03 0. -1.
        -11    1    4    4    0    0 -0.50901615082E+01 -0.89200140639E+01  0.26067483601E+02  0.28017674718E+02  0.51100000000E-03 0.  1.
        -12    1    4    4    0    0 -0.91530018780E+01 -0.23624440905E+01  0.44828302961E+00  0.94635903934E+01  0.00000000000E+00 0.  1.
</event>
<event>
 8    1  0.2402194E-006  0.9118800E+02  0.7816164E-02  0.1184000E+00
        -11   -1    0    0    0    0  0.00000000000E+00  0.00000000000E+00  0.45593999997E+02  0.45594000000E+02  0.51100000000E-03 0. -1.
         11   -1    0    0    0    0 -0.00000000000E+00 -0.00000000000E+00 -0.45593999997E+02  0.45594000000E+02  0.51100000000E-03 0.  1.
         23    2    1    2    0    0 -0.17763568394E-14  0.17763568394E-14  0.00000000000E+00  0.91188000000E+02  0.91188000000E+02 0.  0.
    9900012    2    3    3    0    0  0.12838486497E+02  0.12582489921E+02 -0.32134689253E+02  0.54367027151E+02  0.39999869996E+02 0.  0.
         12    1    3    3    0    0 -0.12838486497E+02 -0.12582489921E+02  0.32134689253E+02  0.36820972849E+02  0.00000000000E+00 0. -1.
         11    1    4    4    0    0  0.11162183016E+02 -0.96987720393E+01 -0.72041118805E+01  0.16448700161E+02  0.51100000000E-03 0. -1.
        -11    1    4    4    0    0 -0.39603887288E+01  0.78166075872E+00 -0.10926138944E+02  0.11648012058E+02  0.51100000000E-03 0.  1.
        -12    1    4    4    0    0  0.56366922106E+01  0.21499601201E+02 -0.14004438429E+02  0.26270314931E+02  0.00000000000E+00 0.  1.
</event>
<event>
 8    1  0.2402194E-006  0.9118800E+02  0.7816164E-02  0.1184000E+00
        -11   -1    0    0    0    0  0.00000000000E+00  0.00000000000E+00  0.45593999997E+02  0.45594000000E+02  0.51100000000E-03 0.  1.
         11   -1    0    0    0    0 -0.00000000000E+00 -0.00000000000E+00 -0.45593999997E+02  0.45594000000E+02  0.51100000000E-03 0. -1.
         23    2    1    2    0    0  0.00000000000E+00  0.88817841970E-15  0.00000000000E+00  0.91188000000E+02  0.91188000000E+02 0.  0.
    9900012    2    3    3    0    0 -0.30060537791E+02 -0.23716224409E+01  0.21130999649E+02  0.54367086494E+02  0.40000005280E+02 0.  0.
         12    1    3    3    0    0  0.30060537791E+02  0.23716224409E+01 -0.21130999649E+02  0.36820913506E+02  0.00000000000E+00 0. -1.
         11    1    4    4    0    0 -0.22125962324E+02  0.11082494809E+02  0.10298647225E+02  0.26803769042E+02  0.51100000000E-03 0. -1.
        -11    1    4    4    0    0 -0.46856903309E+01  0.46763291345E+01  0.10345381520E+01  0.67002998067E+01  0.51100000000E-03 0.  1.
        -12    1    4    4    0    0 -0.32488851364E+01 -0.18130446385E+02  0.97978142722E+01  0.20863017645E+02  0.00000000000E+00 0.  1.
</event>
<event>
 8    1  0.2402194E-006  0.9118800E+02  0.7816164E-02  0.1184000E+00
        -11   -1    0    0    0    0  0.00000000000E+00  0.00000000000E+00  0.45593999997E+02  0.45594000000E+02  0.51100000000E-03 0. -1.
         11   -1    0    0    0    0 -0.00000000000E+00 -0.00000000000E+00 -0.45593999997E+02  0.45594000000E+02  0.51100000000E-03 0.  1.
         23    2    1    2    0    0  0.00000000000E+00  0.35527136788E-14 -0.35527136788E-14  0.91188000000E+02  0.91188000000E+02 0.  0.
    9900012    2    3    3    0    0  0.12757200082E+02  0.21313293468E+02 -0.27180463378E+02  0.54367079020E+02  0.39999988243E+02 0.  0.
         12    1    3    3    0    0 -0.12757200082E+02 -0.21313293468E+02  0.27180463378E+02  0.36820920980E+02  0.00000000000E+00 0. -1.
         11    1    4    4    0    0  0.59774787932E+00 -0.89621498535E+01 -0.26261922638E+01  0.93581151196E+01  0.51100000000E-03 0. -1.
        -11    1    4    4    0    0  0.12218418545E+02  0.13713836154E+02 -0.21308787813E+02  0.28132250037E+02  0.51100000000E-03 0.  1.
         12    1    4    4    0    0 -0.58966342327E-01  0.16561607167E+02 -0.32454833007E+01  0.16876713864E+02  0.00000000000E+00 0. -1.
</event>
<event>
 8    1  0.2402194E-006  0.9118800E+02  0.7816164E-02  0.1184000E+00
        -11   -1    0    0    0    0  0.00000000000E+00  0.00000000000E+00  0.45593999997E+02  0.45594000000E+02  0.51100000000E-03 0. -1.
         11   -1    0    0    0    0 -0.00000000000E+00 -0.00000000000E+00 -0.45593999997E+02  0.45594000000E+02  0.51100000000E-03 0.  1.
         23    2    1    2    0    0  0.00000000000E+00  0.66613381478E-15 -0.17763568394E-14  0.91188000000E+02  0.91188000000E+02 0.  0.
    9900012    2    3    3    0    0  0.33732280088E+02  0.18347076111E+01 -0.14647433849E+02  0.54367079448E+02  0.39999989217E+02 0.  0.
         12    1    3    3    0    0 -0.33732280088E+02 -0.18347076111E+01  0.14647433849E+02  0.36820920552E+02  0.00000000000E+00 0. -1.
         11    1    4    4    0    0  0.20588923222E+02  0.50997368673E+01  0.87424363291E+01  0.22942128689E+02  0.51100000000E-03 0. -1.
        -11    1    4    4    0    0  0.10241960048E+02  0.55698848658E+01 -0.12186890489E+02  0.16865398397E+02  0.51100000000E-03 0.  1.
         12    1    4    4    0    0  0.29013968178E+01 -0.88349141220E+01 -0.11202979689E+02  0.14559552361E+02  0.00000000000E+00 0. -1.
</event>
<event>
 8    1  0.2402194E-006  0.9118800E+02  0.7816164E-02  0.1184000E+00
        -11   -1    0    0    0    0  0.00000000000E+00  0.00000000000E+00  0.45593999997E+02  0.45594000000E+02  0.51100000000E-03 0.  1.
         11   -1    0    0    0    0 -0.00000000000E+00 -0.00000000000E+00 -0.45593999997E+02  0.45594000000E+02  0.51100000000E-03 0. -1.
         23    2    1    2    0    0  0.35527136788E-14  0.00000000000E+00  0.00000000000E+00  0.91188000000E+02  0.91188000000E+02 0.  0.
    9900012    2    3    3    0    0 -0.19989520027E+02 -0.29814058577E+02  0.82048853040E+01  0.54367093676E+02  0.40000021652E+02 0.  0.
         12    1    3    3    0    0  0.19989520027E+02  0.29814058577E+02 -0.82048853040E+01  0.36820906324E+02  0.00000000000E+00 0. -1.
         11    1    4    4    0    0  0.72018049846E+01 -0.23802498847E+02  0.48438974728E+01  0.25335514390E+02  0.51100000000E-03 0. -1.
        -11    1    4    4    0    0 -0.20202949776E+02 -0.14829339867E+01  0.41117725136E+01  0.20670388151E+02  0.51100000000E-03 0.  1.
         12    1    4    4    0    0 -0.69883752355E+01 -0.45286257428E+01 -0.75078468240E+00  0.83611911346E+01  0.00000000000E+00 0. -1.
</event>
<event>
 8    1  0.2402194E-006  0.9118800E+02  0.7816164E-02  0.1184000E+00
        -11   -1    0    0    0    0  0.00000000000E+00  0.00000000000E+00  0.45593999997E+02  0.45594000000E+02  0.51100000000E-03 0. -1.
         11   -1    0    0    0    0 -0.00000000000E+00 -0.00000000000E+00 -0.45593999997E+02  0.45594000000E+02  0.51100000000E-03 0.  1.
         23    2    1    2    0    0  0.35527136788E-14  0.35527136788E-14 -0.17763568394E-14  0.91188000000E+02  0.91188000000E+02 0.  0.
    9900012    2    3    3    0    0  0.23375239350E+02  0.26089592737E+02 -0.11345099884E+02  0.54367082640E+02  0.39999996494E+02 0.  0.
        -12    1    3    3    0    0 -0.23375239350E+02 -0.26089592737E+02  0.11345099884E+02  0.36820917360E+02  0.00000000000E+00 0.  1.
         11    1    4    4    0    0  0.12820866446E+02  0.21348219532E+02 -0.23180355532E+01  0.25009885700E+02  0.51100000000E-03 0. -1.
        -11    1    4    4    0    0  0.20485680037E+01  0.62903555892E+01 -0.16596321873E+02  0.17866256023E+02  0.51100000000E-03 0.  1.
         12    1    4    4    0    0  0.85058049007E+01 -0.15489823843E+01  0.75692575422E+01  0.11490940918E+02  0.00000000000E+00 0. -1.
</event>
<event>
 8    1  0.2402194E-006  0.9118800E+02  0.7816164E-02  0.1184000E+00
        -11   -1    0    0    0    0  0.00000000000E+00  0.00000000000E+00  0.45593999997E+02  0.45594000000E+02  0.51100000000E-03 0. -1.
         11   -1    0    0    0    0 -0.00000000000E+00 -0.00000000000E+00 -0.45593999997E+02  0.45594000000E+02  0.51100000000E-03 0.  1.
         23    2    1    2    0    0  0.71054273576E-14  0.00000000000E+00  0.30878077872E-15  0.91188000000E+02  0.91188000000E+02 0.  0.
    9900012    2    3    3    0    0 -0.32756387350E+02 -0.16816639933E+02 -0.22076652366E-01  0.54367071464E+02  0.39999971016E+02 0.  0.
         12    1    3    3    0    0  0.32756387350E+02  0.16816639933E+02  0.22076652366E-01  0.36820928536E+02  0.00000000000E+00 0. -1.
         11    1    4    4    0    0  0.84836704025E+00  0.13843706144E+01  0.31001188874E+00  0.16529719494E+01  0.51100000000E-03 0. -1.
        -11    1    4    4    0    0 -0.27835167835E+02  0.48019912677E+01 -0.45974829255E+01  0.28618045672E+02  0.51100000000E-03 0.  1.
         12    1    4    4    0    0 -0.57695865551E+01 -0.23003001815E+02  0.42653943844E+01  0.24096053843E+02  0.00000000000E+00 0. -1.
</event>
<event>
 8    1  0.2402194E-006  0.9118800E+02  0.7816164E-02  0.1184000E+00
        -11   -1    0    0    0    0  0.00000000000E+00  0.00000000000E+00  0.45593999997E+02  0.45594000000E+02  0.51100000000E-03 0.  1.
         11   -1    0    0    0    0 -0.00000000000E+00 -0.00000000000E+00 -0.45593999997E+02  0.45594000000E+02  0.51100000000E-03 0. -1.
         23    2    1    2    0    0  0.00000000000E+00  0.17763568394E-14 -0.17763568394E-14  0.91188000000E+02  0.91188000000E+02 0.  0.
    9900012    2    3    3    0    0 -0.33403401789E+02 -0.52494206562E+01  0.14575164409E+02  0.54367094445E+02  0.40000023407E+02 0.  0.
         12    1    3    3    0    0  0.33403401789E+02  0.52494206562E+01 -0.14575164409E+02  0.36820905555E+02  0.00000000000E+00 0. -1.
         11    1    4    4    0    0  0.42901866447E+01 -0.39642789875E+01 -0.13075980265E+01  0.59859019535E+01  0.51100000000E-03 0. -1.
        -11    1    4    4    0    0 -0.40964702324E+01  0.84770808248E+01 -0.11208092053E+01  0.94814651405E+01  0.51100000000E-03 0.  1.
        -12    1    4    4    0    0 -0.33597118202E+02 -0.97622224936E+01  0.17003571641E+02  0.38899727351E+02  0.00000000000E+00 0.  1.
</event>
<event>
 8    1  0.2402194E-006  0.9118800E+02  0.7816164E-02  0.1184000E+00
        -11   -1    0    0    0    0  0.00000000000E+00  0.00000000000E+00  0.45593999997E+02  0.45594000000E+02  0.51100000000E-03 0. -1.
         11   -1    0    0    0    0 -0.00000000000E+00 -0.00000000000E+00 -0.45593999997E+02  0.45594000000E+02  0.51100000000E-03 0.  1.
         23    2    1    2    0    0  0.00000000000E+00  0.00000000000E+00  0.00000000000E+00  0.91188000000E+02  0.91188000000E+02 0.  0.
    9900012    2    3    3    0    0 -0.18298011747E+02  0.16756434553E+02  0.27206340517E+02  0.54367077997E+02  0.39999985910E+02 0.  0.
        -12    1    3    3    0    0  0.18298011747E+02 -0.16756434553E+02 -0.27206340517E+02  0.36820922003E+02  0.00000000000E+00 0.  1.
         11    1    4    4    0    0 -0.17954703150E+02  0.74228453725E+01  0.75975576382E+01  0.20861277069E+02  0.51100000000E-03 0. -1.
        -11    1    4    4    0    0 -0.84709467928E+01  0.50887974512E+01  0.21924445972E+02  0.24048578554E+02  0.51100000000E-03 0.  1.
        -12    1    4    4    0    0  0.81276381955E+01  0.42447917293E+01 -0.23156630928E+01  0.94572223735E+01  0.00000000000E+00 0.  1.
</event>
<event>
 8    1  0.2402194E-006  0.9118800E+02  0.7816164E-02  0.1184000E+00
        -11   -1    0    0    0    0  0.00000000000E+00  0.00000000000E+00  0.45593999997E+02  0.45594000000E+02  0.51100000000E-03 0. -1.
         11   -1    0    0    0    0 -0.00000000000E+00 -0.00000000000E+00 -0.45593999997E+02  0.45594000000E+02  0.51100000000E-03 0.  1.
         23    2    1    2    0    0 -0.35527136788E-14  0.17763568394E-14 -0.35527136788E-14  0.91188000000E+02  0.91188000000E+02 0.  0.
    9900012    2    3    3    0    0 -0.20599056306E+02  0.67603328989E+01 -0.29761668358E+02  0.54367080334E+02  0.39999991237E+02 0.  0.
         12    1    3    3    0    0  0.20599056306E+02 -0.67603328989E+01  0.29761668358E+02  0.36820919666E+02  0.00000000000E+00 0. -1.
         11    1    4    4    0    0 -0.66703878881E+01  0.60304925768E+01 -0.13495297186E+02  0.16216780251E+02  0.51100000000E-03 0.  1.
        -11    1    4    4    0    0 -0.85089008072E+01  0.15704601967E+02 -0.47051984062E+01  0.18470917903E+02  0.51100000000E-03 0. -1.
         12    1    4    4    0    0 -0.54197676110E+01 -0.14974761645E+02 -0.11561172765E+02  0.19679382180E+02  0.00000000000E+00 0. -1.
</event>
<event>
 8    1  0.2402194E-006  0.9118800E+02  0.7816164E-02  0.1184000E+00
        -11   -1    0    0    0    0  0.00000000000E+00  0.00000000000E+00  0.45593999997E+02  0.45594000000E+02  0.51100000000E-03 0.  1.
         11   -1    0    0    0    0 -0.00000000000E+00 -0.00000000000E+00 -0.45593999997E+02  0.45594000000E+02  0.51100000000E-03 0. -1.
         23    2    1    2    0    0 -0.88817841970E-15  0.00000000000E+00  0.00000000000E+00  0.91188000000E+02  0.91188000000E+02 0.  0.
    9900012    2    3    3    0    0  0.73412710097E+01  0.99777435030E+01 -0.34674633942E+02  0.54367083873E+02  0.39999999305E+02 0.  0.
        -12    1    3    3    0    0 -0.73412710097E+01 -0.99777435030E+01  0.34674633942E+02  0.36820916127E+02  0.00000000000E+00 0.  1.
         11    1    4    4    0    0 -0.12080435922E+01 -0.69376653639E+01 -0.15434122508E+02  0.16964748978E+02  0.51100000000E-03 0. -1.
        -11    1    4    4    0    0  0.71271979269E+01  0.11951366400E+02  0.32807381156E+01  0.14296690245E+02  0.51100000000E-03 0.  1.
        -12    1    4    4    0    0  0.14221166751E+01  0.49640424668E+01 -0.22521249549E+02  0.23105644650E+02  0.00000000000E+00 0.  1.
</event>
<event>
 8    1  0.2402194E-006  0.9118800E+02  0.7816164E-02  0.1184000E+00
        -11   -1    0    0    0    0  0.00000000000E+00  0.00000000000E+00  0.45593999997E+02  0.45594000000E+02  0.51100000000E-03 0.  1.
         11   -1    0    0    0    0 -0.00000000000E+00 -0.00000000000E+00 -0.45593999997E+02  0.45594000000E+02  0.51100000000E-03 0. -1.
         23    2    1    2    0    0  0.35527136788E-14  0.00000000000E+00  0.00000000000E+00  0.91188000000E+02  0.91188000000E+02 0.  0.
    9900012    2    3    3    0    0 -0.23314271781E+02  0.41804987916E+01 -0.28191272368E+02  0.54367086425E+02  0.40000005122E+02 0.  0.
        -12    1    3    3    0    0  0.23314271781E+02 -0.41804987916E+01  0.28191272368E+02  0.36820913575E+02  0.00000000000E+00 0.  1.
         11    1    4    4    0    0  0.56864995660E+01 -0.43076902317E+01 -0.53900171227E+01  0.89411832153E+01  0.51100000000E-03 0.  1.
        -11    1    4    4    0    0 -0.19751509367E+02 -0.40518226114E+01 -0.32471357552E+01  0.20422616865E+02  0.51100000000E-03 0. -1.
         12    1    4    4    0    0 -0.92492619793E+01  0.12540011635E+02 -0.19554119490E+02  0.25003286344E+02  0.00000000000E+00 0. -1.
</event>
<event>
 8    1  0.2402194E-006  0.9118800E+02  0.7816164E-02  0.1184000E+00
        -11   -1    0    0    0    0  0.00000000000E+00  0.00000000000E+00  0.45593999997E+02  0.45594000000E+02  0.51100000000E-03 0. -1.
         11   -1    0    0    0    0 -0.00000000000E+00 -0.00000000000E+00 -0.45593999997E+02  0.45594000000E+02  0.51100000000E-03 0.  1.
         23    2    1    2    0    0  0.35527136788E-14 -0.35527136788E-14 -0.17763568394E-14  0.91188000000E+02  0.91188000000E+02 0.  0.
    9900012    2    3    3    0    0  0.18922255675E+02  0.29239818637E+02 -0.11948251296E+02  0.54367089327E+02  0.40000011740E+02 0.  0.
         12    1    3    3    0    0 -0.18922255675E+02 -0.29239818637E+02  0.11948251296E+02  0.36820910673E+02  0.00000000000E+00 0. -1.
         11    1    4    4    0    0 -0.55995928150E+01  0.86989934266E+01  0.52759520870E+01  0.11613078705E+02  0.51100000000E-03 0. -1.
        -11    1    4    4    0    0  0.17391805498E+02  0.31075788915E+01 -0.16071894177E+02  0.23883838213E+02  0.51100000000E-03 0.  1.
         12    1    4    4    0    0  0.71300429916E+01  0.17433246319E+02 -0.11523092053E+01  0.18870172410E+02  0.00000000000E+00 0. -1.
</event>
<event>
 8    1  0.2402194E-006  0.9118800E+02  0.7816164E-02  0.1184000E+00
        -11   -1    0    0    0    0  0.00000000000E+00  0.00000000000E+00  0.45593999997E+02  0.45594000000E+02  0.51100000000E-03 0. -1.
         11   -1    0    0    0    0 -0.00000000000E+00 -0.00000000000E+00 -0.45593999997E+02  0.45594000000E+02  0.51100000000E-03 0.  1.
         23    2    1    2    0    0  0.00000000000E+00  0.35527136788E-14  0.00000000000E+00  0.91188000000E+02  0.91188000000E+02 0.  0.
    9900012    2    3    3    0    0  0.11216255357E+02  0.17091625160E+02 -0.30624373944E+02  0.54367077764E+02  0.39999985378E+02 0.  0.
         12    1    3    3    0    0 -0.11216255357E+02 -0.17091625160E+02  0.30624373944E+02  0.36820922236E+02  0.00000000000E+00 0. -1.
         11    1    4    4    0    0  0.14571383908E+02  0.21105781036E+02 -0.27683408355E+02  0.37737916219E+02  0.51100000000E-03 0. -1.
        -11    1    4    4    0    0 -0.25083211691E+01  0.53819762745E+01  0.16135122657E+01  0.61531102541E+01  0.51100000000E-03 0.  1.
        -12    1    4    4    0    0 -0.84680738270E+00 -0.93961321495E+01 -0.45544778549E+01  0.10476051291E+02  0.00000000000E+00 0.  1.
</event>
<event>
 8    1  0.2402194E-006  0.9118800E+02  0.7816164E-02  0.1184000E+00
        -11   -1    0    0    0    0  0.00000000000E+00  0.00000000000E+00  0.45593999997E+02  0.45594000000E+02  0.51100000000E-03 0. -1.
         11   -1    0    0    0    0 -0.00000000000E+00 -0.00000000000E+00 -0.45593999997E+02  0.45594000000E+02  0.51100000000E-03 0.  1.
         23    2    1    2    0    0  0.00000000000E+00  0.17763568394E-14 -0.71054273576E-14  0.91188000000E+02  0.91188000000E+02 0.  0.
    9900012    2    3    3    0    0  0.97753615014E+01  0.53398019045E+01  0.35095745182E+02  0.54367047993E+02  0.39999917508E+02 0.  0.
        -12    1    3    3    0    0 -0.97753615014E+01 -0.53398019045E+01 -0.35095745182E+02  0.36820952007E+02  0.00000000000E+00 0.  1.
         11    1    4    4    0    0  0.62692374410E+01  0.84571107394E+01  0.12891151889E+02  0.16643553029E+02  0.51100000000E-03 0. -1.
        -11    1    4    4    0    0 -0.13295771596E+01  0.86497120771E+01  0.23363695357E+02  0.24948898882E+02  0.51100000000E-03 0.  1.
        -12    1    4    4    0    0  0.48357012199E+01 -0.11767020912E+02 -0.11591020643E+01  0.12774596081E+02  0.00000000000E+00 0.  1.
</event>
<event>
 8    1  0.2402194E-006  0.9118800E+02  0.7816164E-02  0.1184000E+00
        -11   -1    0    0    0    0  0.00000000000E+00  0.00000000000E+00  0.45593999997E+02  0.45594000000E+02  0.51100000000E-03 0.  1.
         11   -1    0    0    0    0 -0.00000000000E+00 -0.00000000000E+00 -0.45593999997E+02  0.45594000000E+02  0.51100000000E-03 0. -1.
         23    2    1    2    0    0 -0.23314683517E-14  0.17763568394E-14  0.00000000000E+00  0.91188000000E+02  0.91188000000E+02 0.  0.
    9900012    2    3    3    0    0 -0.50802982492E+00 -0.51091186437E+01  0.36461200924E+02  0.54367077138E+02  0.39999983951E+02 0.  0.
         12    1    3    3    0    0  0.50802982492E+00  0.51091186437E+01 -0.36461200924E+02  0.36820922862E+02  0.00000000000E+00 0. -1.
         11    1    4    4    0    0  0.77040695549E+01  0.44511272757E+01 -0.40844720319E+01  0.97902060127E+01  0.51100000000E-03 0. -1.
        -11    1    4    4    0    0  0.27754660173E+00 -0.98875786096E+01  0.24484562467E+02  0.26407102119E+02  0.51100000000E-03 0.  1.
         12    1    4    4    0    0 -0.84896459816E+01  0.32733269022E+00  0.16061110489E+02  0.18169769006E+02  0.00000000000E+00 0. -1.
</event>
<event>
 8    1  0.2402194E-006  0.9118800E+02  0.7816164E-02  0.1184000E+00
        -11   -1    0    0    0    0  0.00000000000E+00  0.00000000000E+00  0.45593999997E+02  0.45594000000E+02  0.51100000000E-03 0.  1.
         11   -1    0    0    0    0 -0.00000000000E+00 -0.00000000000E+00 -0.45593999997E+02  0.45594000000E+02  0.51100000000E-03 0. -1.
         23    2    1    2    0    0 -0.35527136788E-14  0.00000000000E+00  0.00000000000E+00  0.91188000000E+02  0.91188000000E+02 0.  0.
    9900012    2    3    3    0    0  0.26567165017E+02  0.16227959360E+02  0.19662635346E+02  0.54367079984E+02  0.39999990440E+02 0.  0.
         12    1    3    3    0    0 -0.26567165017E+02 -0.16227959360E+02 -0.19662635346E+02  0.36820920016E+02  0.00000000000E+00 0. -1.
         11    1    4    4    0    0 -0.57331150045E+01  0.54829761536E+01  0.84059807729E+01  0.11558206962E+02  0.51100000000E-03 0. -1.
        -11    1    4    4    0    0  0.28984278424E+02  0.87403545105E+01 -0.65734576746E+00  0.30280592737E+02  0.51100000000E-03 0.  1.
         12    1    4    4    0    0  0.33160015973E+01  0.20046286959E+01  0.11914000341E+02  0.12528280286E+02  0.00000000000E+00 0. -1.
</event>
<event>
 8    1  0.2402194E-006  0.9118800E+02  0.7816164E-02  0.1184000E+00
        -11   -1    0    0    0    0  0.00000000000E+00  0.00000000000E+00  0.45593999997E+02  0.45594000000E+02  0.51100000000E-03 0.  1.
         11   -1    0    0    0    0 -0.00000000000E+00 -0.00000000000E+00 -0.45593999997E+02  0.45594000000E+02  0.51100000000E-03 0. -1.
         23    2    1    2    0    0  0.35527136788E-14 -0.35527136788E-14  0.00000000000E+00  0.91188000000E+02  0.91188000000E+02 0.  0.
    9900012    2    3    3    0    0  0.30600203237E+02 -0.17021216243E+02 -0.11388039295E+02  0.54367059226E+02  0.39999943117E+02 0.  0.
        -12    1    3    3    0    0 -0.30600203237E+02  0.17021216243E+02  0.11388039295E+02  0.36820940774E+02  0.00000000000E+00 0.  1.
         11    1    4    4    0    0  0.31559677237E+02 -0.17837956731E+02 -0.11252826511E+02  0.37958293328E+02  0.51100000000E-03 0. -1.
        -11    1    4    4    0    0 -0.13674163112E+01  0.31271861631E+00  0.80634258608E+01  0.81845254704E+01  0.51100000000E-03 0.  1.
         12    1    4    4    0    0  0.40794231130E+00  0.50402187142E+00 -0.81986386454E+01  0.82242404278E+01  0.00000000000E+00 0. -1.
</event>
<event>
 8    1  0.2402194E-006  0.9118800E+02  0.7816164E-02  0.1184000E+00
        -11   -1    0    0    0    0  0.00000000000E+00  0.00000000000E+00  0.45593999997E+02  0.45594000000E+02  0.51100000000E-03 0. -1.
         11   -1    0    0    0    0 -0.00000000000E+00 -0.00000000000E+00 -0.45593999997E+02  0.45594000000E+02  0.51100000000E-03 0.  1.
         23    2    1    2    0    0  0.22204460493E-14 -0.35527136788E-14  0.00000000000E+00  0.91188000000E+02  0.91188000000E+02 0.  0.
    9900012    2    3    3    0    0 -0.13445094160E+01 -0.17627224782E+02  0.32299422064E+02  0.54367089844E+02  0.40000012917E+02 0.  0.
        -12    1    3    3    0    0  0.13445094160E+01  0.17627224782E+02 -0.32299422064E+02  0.36820910156E+02  0.00000000000E+00 0.  1.
         11    1    4    4    0    0  0.11734371334E+02 -0.23077398337E+02  0.17620935934E+02  0.31317074705E+02  0.51100000000E-03 0. -1.
        -11    1    4    4    0    0 -0.11268792945E+02  0.55635982378E+01  0.16323910390E+02  0.20601198278E+02  0.51100000000E-03 0.  1.
        -12    1    4    4    0    0 -0.18100878053E+01 -0.11342468253E+00 -0.16454242607E+01  0.24488168611E+01  0.00000000000E+00 0.  1.
</event>
<event>
 8    1  0.2402194E-006  0.9118800E+02  0.7816164E-02  0.1184000E+00
        -11   -1    0    0    0    0  0.00000000000E+00  0.00000000000E+00  0.45593999997E+02  0.45594000000E+02  0.51100000000E-03 0. -1.
         11   -1    0    0    0    0 -0.00000000000E+00 -0.00000000000E+00 -0.45593999997E+02  0.45594000000E+02  0.51100000000E-03 0.  1.
         23    2    1    2    0    0  0.35527136788E-14  0.00000000000E+00  0.00000000000E+00  0.91188000000E+02  0.91188000000E+02 0.  0.
    9900012    2    3    3    0    0 -0.24518662006E+02  0.15974551953E+02  0.22347904482E+02  0.54367082964E+02  0.39999997232E+02 0.  0.
        -12    1    3    3    0    0  0.24518662006E+02 -0.15974551953E+02 -0.22347904482E+02  0.36820917036E+02  0.00000000000E+00 0.  1.
         11    1    4    4    0    0 -0.16750325483E+02 -0.11799039844E-01  0.10986664399E+02  0.20031982874E+02  0.51100000000E-03 0. -1.
        -11    1    4    4    0    0 -0.10209754117E+02  0.20439627155E+02  0.15645199214E+02  0.27690967770E+02  0.51100000000E-03 0.  1.
         12    1    4    4    0    0  0.24414175938E+01 -0.44532761622E+01 -0.42839591306E+01  0.66441323193E+01  0.00000000000E+00 0. -1.
</event>
<event>
 8    1  0.2402194E-006  0.9118800E+02  0.7816164E-02  0.1184000E+00
        -11   -1    0    0    0    0  0.00000000000E+00  0.00000000000E+00  0.45593999997E+02  0.45594000000E+02  0.51100000000E-03 0. -1.
         11   -1    0    0    0    0 -0.00000000000E+00 -0.00000000000E+00 -0.45593999997E+02  0.45594000000E+02  0.51100000000E-03 0.  1.
         23    2    1    2    0    0  0.17763568394E-14  0.00000000000E+00  0.00000000000E+00  0.91188000000E+02  0.91188000000E+02 0.  0.
    9900012    2    3    3    0    0  0.93764829283E+01  0.26225528031E+02 -0.24084871546E+02  0.54367112043E+02  0.40000063524E+02 0.  0.
         12    1    3    3    0    0 -0.93764829283E+01 -0.26225528031E+02  0.24084871546E+02  0.36820887957E+02  0.00000000000E+00 0. -1.
         11    1    4    4    0    0  0.13760402121E+02  0.85129696150E+00 -0.87306430479E+01  0.16318624370E+02  0.51100000000E-03 0. -1.
        -11    1    4    4    0    0  0.64772378943E+01  0.19084749827E+02 -0.15614504205E+02  0.25495000069E+02  0.51100000000E-03 0.  1.
        -12    1    4    4    0    0 -0.10861157087E+02  0.62894812425E+01  0.26027570739E+00  0.12553487603E+02  0.00000000000E+00 0.  1.
</event>
<event>
 8    1  0.2402194E-006  0.9118800E+02  0.7816164E-02  0.1184000E+00
        -11   -1    0    0    0    0  0.00000000000E+00  0.00000000000E+00  0.45593999997E+02  0.45594000000E+02  0.51100000000E-03 0.  1.
         11   -1    0    0    0    0 -0.00000000000E+00 -0.00000000000E+00 -0.45593999997E+02  0.45594000000E+02  0.51100000000E-03 0. -1.
         23    2    1    2    0    0 -0.35527136788E-14 -0.35527136788E-14  0.35527136788E-14  0.91188000000E+02  0.91188000000E+02 0.  0.
    9900012    2    3    3    0    0 -0.19086803664E+02  0.18552129010E+02 -0.25441918335E+02  0.54367098687E+02  0.40000033077E+02 0.  0.
        -12    1    3    3    0    0  0.19086803664E+02 -0.18552129010E+02  0.25441918335E+02  0.36820901313E+02  0.00000000000E+00 0.  1.
         11    1    4    4    0    0 -0.54043012483E+01 -0.62497629706E+00 -0.96437473822E+01  0.11072440164E+02  0.51100000000E-03 0. -1.
        -11    1    4    4    0    0 -0.24336075820E+02  0.13165099013E+02 -0.13730213857E+02  0.30888237101E+02  0.51100000000E-03 0.  1.
        -12    1    4    4    0    0  0.10653573405E+02  0.60120062938E+01 -0.20679570961E+01  0.12406421423E+02  0.00000000000E+00 0.  1.
</event>
<event>
 8    1  0.2402194E-006  0.9118800E+02  0.7816164E-02  0.1184000E+00
        -11   -1    0    0    0    0  0.00000000000E+00  0.00000000000E+00  0.45593999997E+02  0.45594000000E+02  0.51100000000E-03 0.  1.
         11   -1    0    0    0    0 -0.00000000000E+00 -0.00000000000E+00 -0.45593999997E+02  0.45594000000E+02  0.51100000000E-03 0. -1.
         23    2    1    2    0    0 -0.71054273576E-14 -0.88817841970E-15  0.35527136788E-14  0.91188000000E+02  0.91188000000E+02 0.  0.
    9900012    2    3    3    0    0  0.29059612672E+02  0.52119525001E+01 -0.22003511267E+02  0.54367081413E+02  0.39999993698E+02 0.  0.
        -12    1    3    3    0    0 -0.29059612672E+02 -0.52119525001E+01  0.22003511267E+02  0.36820918587E+02  0.00000000000E+00 0.  1.
         11    1    4    4    0    0  0.10392212210E+02 -0.50740104841E+01 -0.58419972823E+01  0.12956565499E+02  0.51100000000E-03 0.  1.
        -11    1    4    4    0    0  0.16137215496E+01 -0.67190234103E+01  0.56442163185E+01  0.89222503293E+01  0.51100000000E-03 0. -1.
         12    1    4    4    0    0  0.17053678912E+02  0.17004986394E+02 -0.21805730303E+02  0.32488265585E+02  0.00000000000E+00 0. -1.
</event>
<event>
 8    1  0.2402194E-006  0.9118800E+02  0.7816164E-02  0.1184000E+00
        -11   -1    0    0    0    0  0.00000000000E+00  0.00000000000E+00  0.45593999997E+02  0.45594000000E+02  0.51100000000E-03 0.  1.
         11   -1    0    0    0    0 -0.00000000000E+00 -0.00000000000E+00 -0.45593999997E+02  0.45594000000E+02  0.51100000000E-03 0. -1.
         23    2    1    2    0    0 -0.35527136788E-14  0.00000000000E+00  0.00000000000E+00  0.91188000000E+02  0.91188000000E+02 0.  0.
    9900012    2    3    3    0    0 -0.21216823134E+02  0.28719792382E+02  0.89887084807E+01  0.54367123605E+02  0.40000089882E+02 0.  0.
        -12    1    3    3    0    0  0.21216823134E+02 -0.28719792382E+02 -0.89887084807E+01  0.36820876395E+02  0.00000000000E+00 0.  1.
         11    1    4    4    0    0 -0.16962937203E+02  0.24755949943E+02  0.69060153261E+01  0.30794339481E+02  0.51100000000E-03 0. -1.
        -11    1    4    4    0    0  0.31929050693E+01  0.59549909500E+01  0.10291897600E+02  0.12311771459E+02  0.51100000000E-03 0.  1.
         12    1    4    4    0    0 -0.74467910002E+01 -0.19911485113E+01 -0.82092044454E+01  0.11261012664E+02  0.00000000000E+00 0. -1.
</event>
<event>
 8    1  0.2402194E-006  0.9118800E+02  0.7816164E-02  0.1184000E+00
        -11   -1    0    0    0    0  0.00000000000E+00  0.00000000000E+00  0.45593999997E+02  0.45594000000E+02  0.51100000000E-03 0. -1.
         11   -1    0    0    0    0 -0.00000000000E+00 -0.00000000000E+00 -0.45593999997E+02  0.45594000000E+02  0.51100000000E-03 0.  1.
         23    2    1    2    0    0  0.00000000000E+00  0.00000000000E+00  0.00000000000E+00  0.91188000000E+02  0.91188000000E+02 0.  0.
    9900012    2    3    3    0    0  0.58798470291E+01 -0.22369920015E+02 -0.28649491332E+02  0.54367091861E+02  0.40000017516E+02 0.  0.
         12    1    3    3    0    0 -0.58798470291E+01  0.22369920015E+02  0.28649491332E+02  0.36820908139E+02  0.00000000000E+00 0. -1.
         11    1    4    4    0    0 -0.95386501598E+01  0.26327658550E+01 -0.21684066409E+01  0.10130117992E+02  0.51100000000E-03 0. -1.
        -11    1    4    4    0    0  0.16007319290E+02 -0.19232584009E+02 -0.28655306782E+02  0.38042780729E+02  0.51100000000E-03 0.  1.
        -12    1    4    4    0    0 -0.58882210140E+00 -0.57701018607E+01  0.21742220911E+01  0.61941931397E+01  0.00000000000E+00 0.  1.
</event>
<event>
 8    1  0.2402194E-006  0.9118800E+02  0.7816164E-02  0.1184000E+00
        -11   -1    0    0    0    0  0.00000000000E+00  0.00000000000E+00  0.45593999997E+02  0.45594000000E+02  0.51100000000E-03 0.  1.
         11   -1    0    0    0    0 -0.00000000000E+00 -0.00000000000E+00 -0.45593999997E+02  0.45594000000E+02  0.51100000000E-03 0. -1.
         23    2    1    2    0    0 -0.35527136788E-14  0.00000000000E+00  0.00000000000E+00  0.91188000000E+02  0.91188000000E+02 0.  0.
    9900012    2    3    3    0    0  0.29613843796E+02  0.22890052267E+01 -0.21761399694E+02  0.54367111826E+02  0.40000063030E+02 0.  0.
        -12    1    3    3    0    0 -0.29613843796E+02 -0.22890052267E+01  0.21761399694E+02  0.36820888174E+02  0.00000000000E+00 0.  1.
         11    1    4    4    0    0  0.10277947387E+02  0.11909819572E+02 -0.13338405515E+02  0.20625059192E+02  0.51100000000E-03 0. -1.
        -11    1    4    4    0    0 -0.27369207547E+01  0.25529944026E+01  0.41370460112E+01  0.55788588078E+01  0.51100000000E-03 0.  1.
        -12    1    4    4    0    0  0.22072817163E+02 -0.12173808747E+02 -0.12560040190E+02  0.28163193826E+02  0.00000000000E+00 0.  1.
</event>
<event>
 8    1  0.2402194E-006  0.9118800E+02  0.7816164E-02  0.1184000E+00
        -11   -1    0    0    0    0  0.00000000000E+00  0.00000000000E+00  0.45593999997E+02  0.45594000000E+02  0.51100000000E-03 0.  1.
         11   -1    0    0    0    0 -0.00000000000E+00 -0.00000000000E+00 -0.45593999997E+02  0.45594000000E+02  0.51100000000E-03 0. -1.
         23    2    1    2    0    0  0.00000000000E+00  0.17763568394E-14  0.35527136788E-14  0.91188000000E+02  0.91188000000E+02 0.  0.
    9900012    2    3    3    0    0  0.27382717382E+02 -0.95137474548E+01 -0.22703673750E+02  0.54367062973E+02  0.39999951659E+02 0.  0.
         12    1    3    3    0    0 -0.27382717382E+02  0.95137474548E+01  0.22703673750E+02  0.36820937027E+02  0.00000000000E+00 0. -1.
         11    1    4    4    0    0  0.38329367736E+01  0.18565512912E+01 -0.19725447805E+02  0.20179977165E+02  0.51100000000E-03 0. -1.
        -11    1    4    4    0    0  0.21793280144E+02 -0.56216276706E+00 -0.63903659485E+01  0.22717831402E+02  0.51100000000E-03 0.  1.
        -12    1    4    4    0    0  0.17565004639E+01 -0.10808135979E+02  0.34121400036E+01  0.11469254406E+02  0.00000000000E+00 0.  1.
</event>
<event>
 8    1  0.2402194E-006  0.9118800E+02  0.7816164E-02  0.1184000E+00
        -11   -1    0    0    0    0  0.00000000000E+00  0.00000000000E+00  0.45593999997E+02  0.45594000000E+02  0.51100000000E-03 0.  1.
         11   -1    0    0    0    0 -0.00000000000E+00 -0.00000000000E+00 -0.45593999997E+02  0.45594000000E+02  0.51100000000E-03 0. -1.
         23    2    1    2    0    0  0.35527136788E-14  0.71054273576E-14  0.88817841970E-15  0.91188000000E+02  0.91188000000E+02 0.  0.
    9900012    2    3    3    0    0 -0.16432161176E+02 -0.32407006935E+02 -0.59624248509E+01  0.54367074842E+02  0.39999978717E+02 0.  0.
        -12    1    3    3    0    0  0.16432161176E+02  0.32407006935E+02  0.59624248509E+01  0.36820925158E+02  0.00000000000E+00 0.  1.
         11    1    4    4    0    0  0.39245529070E+01 -0.25749392693E+02 -0.18907376051E+01  0.26115287257E+02  0.51100000000E-03 0. -1.
        -11    1    4    4    0    0 -0.14182852245E+02 -0.89599131402E+01  0.45674405533E+01  0.17386628620E+02  0.51100000000E-03 0.  1.
        -12    1    4    4    0    0 -0.61738618378E+01  0.23022988984E+01 -0.86391277991E+01  0.10865158965E+02  0.00000000000E+00 0.  1.
</event>
<event>
 8    1  0.2402194E-006  0.9118800E+02  0.7816164E-02  0.1184000E+00
        -11   -1    0    0    0    0  0.00000000000E+00  0.00000000000E+00  0.45593999997E+02  0.45594000000E+02  0.51100000000E-03 0. -1.
         11   -1    0    0    0    0 -0.00000000000E+00 -0.00000000000E+00 -0.45593999997E+02  0.45594000000E+02  0.51100000000E-03 0.  1.
         23    2    1    2    0    0  0.00000000000E+00  0.35527136788E-14  0.35527136788E-14  0.91188000000E+02  0.91188000000E+02 0.  0.
    9900012    2    3    3    0    0 -0.10452659284E+02 -0.25292368795E+02 -0.24633688164E+02  0.54367073912E+02  0.39999976597E+02 0.  0.
         12    1    3    3    0    0  0.10452659284E+02  0.25292368795E+02  0.24633688164E+02  0.36820926088E+02  0.00000000000E+00 0. -1.
         11    1    4    4    0    0 -0.15213074955E+02 -0.12305729895E+02 -0.57541384526E+01  0.20395557051E+02  0.51100000000E-03 0. -1.
        -11    1    4    4    0    0 -0.81712233111E+01 -0.12464525125E+02 -0.72588410927E+01  0.16577818049E+02  0.51100000000E-03 0.  1.
        -12    1    4    4    0    0  0.12931638982E+02 -0.52211377568E+00 -0.11620708619E+02  0.17393698812E+02  0.00000000000E+00 0.  1.
</event>
<event>
 8    1  0.2402194E-006  0.9118800E+02  0.7816164E-02  0.1184000E+00
        -11   -1    0    0    0    0  0.00000000000E+00  0.00000000000E+00  0.45593999997E+02  0.45594000000E+02  0.51100000000E-03 0.  1.
         11   -1    0    0    0    0 -0.00000000000E+00 -0.00000000000E+00 -0.45593999997E+02  0.45594000000E+02  0.51100000000E-03 0. -1.
         23    2    1    2    0    0 -0.17763568394E-14  0.00000000000E+00  0.71054273576E-14  0.91188000000E+02  0.91188000000E+02 0.  0.
    9900012    2    3    3    0    0  0.12040352122E+01  0.12798795114E+02 -0.34503990457E+02  0.54367024801E+02  0.39999864639E+02 0.  0.
        -12    1    3    3    0    0 -0.12040352122E+01 -0.12798795114E+02  0.34503990457E+02  0.36820975199E+02  0.00000000000E+00 0.  1.
         11    1    4    4    0    0  0.10375151136E+01  0.28825544033E+01 -0.12191266803E+02  0.12570304055E+02  0.51100000000E-03 0. -1.
        -11    1    4    4    0    0 -0.98836590241E+01  0.18523395972E+02 -0.18610927605E+02  0.28056541851E+02  0.51100000000E-03 0.  1.
        -12    1    4    4    0    0  0.10050179123E+02 -0.86071552616E+01 -0.37017960485E+01  0.13740178895E+02  0.00000000000E+00 0.  1.
</event>
<event>
 8    1  0.2402194E-006  0.9118800E+02  0.7816164E-02  0.1184000E+00
        -11   -1    0    0    0    0  0.00000000000E+00  0.00000000000E+00  0.45593999997E+02  0.45594000000E+02  0.51100000000E-03 0. -1.
         11   -1    0    0    0    0 -0.00000000000E+00 -0.00000000000E+00 -0.45593999997E+02  0.45594000000E+02  0.51100000000E-03 0.  1.
         23    2    1    2    0    0  0.00000000000E+00 -0.88817841970E-15 -0.35527136788E-14  0.91188000000E+02  0.91188000000E+02 0.  0.
    9900012    2    3    3    0    0  0.18715370944E+02 -0.42915621519E+01 -0.31418100656E+02  0.54367086593E+02  0.40000005507E+02 0.  0.
         12    1    3    3    0    0 -0.18715370944E+02  0.42915621519E+01  0.31418100656E+02  0.36820913407E+02  0.00000000000E+00 0. -1.
         11    1    4    4    0    0  0.22902835385E+01 -0.80714369662E+01  0.50854067455E+01  0.98109558869E+01  0.51100000000E-03 0. -1.
        -11    1    4    4    0    0  0.13639464042E+02 -0.58474089368E+01 -0.16563116835E+02  0.22238795160E+02  0.51100000000E-03 0.  1.
        -12    1    4    4    0    0  0.27856233643E+01  0.96272837511E+01 -0.19940390566E+02  0.22317335546E+02  0.00000000000E+00 0.  1.
</event>
<event>
 8    1  0.2402194E-006  0.9118800E+02  0.7816164E-02  0.1184000E+00
        -11   -1    0    0    0    0  0.00000000000E+00  0.00000000000E+00  0.45593999997E+02  0.45594000000E+02  0.51100000000E-03 0.  1.
         11   -1    0    0    0    0 -0.00000000000E+00 -0.00000000000E+00 -0.45593999997E+02  0.45594000000E+02  0.51100000000E-03 0. -1.
         23    2    1    2    0    0  0.00000000000E+00  0.00000000000E+00  0.35527136788E-14  0.91188000000E+02  0.91188000000E+02 0.  0.
    9900012    2    3    3    0    0 -0.15224309082E+02 -0.19728899349E+02  0.27106648477E+02  0.54367089525E+02  0.40000012190E+02 0.  0.
         12    1    3    3    0    0  0.15224309082E+02  0.19728899349E+02 -0.27106648477E+02  0.36820910475E+02  0.00000000000E+00 0. -1.
         11    1    4    4    0    0 -0.72911448053E+01 -0.19522794173E+02  0.14038793241E+02  0.25127435222E+02  0.51100000000E-03 0. -1.
        -11    1    4    4    0    0 -0.88998338318E+01 -0.96057748642E+01  0.14660348720E+02  0.19657155894E+02  0.51100000000E-03 0.  1.
         12    1    4    4    0    0  0.96666955504E+00  0.93996696883E+01 -0.15924934839E+01  0.95824984098E+01  0.00000000000E+00 0. -1.
</event>
<event>
 8    1  0.2402194E-006  0.9118800E+02  0.7816164E-02  0.1184000E+00
        -11   -1    0    0    0    0  0.00000000000E+00  0.00000000000E+00  0.45593999997E+02  0.45594000000E+02  0.51100000000E-03 0.  1.
         11   -1    0    0    0    0 -0.00000000000E+00 -0.00000000000E+00 -0.45593999997E+02  0.45594000000E+02  0.51100000000E-03 0. -1.
         23    2    1    2    0    0  0.24980018054E-15  0.35527136788E-14  0.35527136788E-14  0.91188000000E+02  0.91188000000E+02 0.  0.
    9900012    2    3    3    0    0  0.13800212151E+00 -0.28987533821E+02 -0.22704304273E+02  0.54367060385E+02  0.39999945760E+02 0.  0.
        -12    1    3    3    0    0 -0.13800212151E+00  0.28987533821E+02  0.22704304273E+02  0.36820939615E+02  0.00000000000E+00 0.  1.
         11    1    4    4    0    0 -0.39523833653E+01 -0.34706026946E+02 -0.19778425778E+02  0.40141197879E+02  0.51100000000E-03 0. -1.
        -11    1    4    4    0    0  0.52406347486E+01  0.68243763856E+01  0.21801350483E+01  0.88763367844E+01  0.51100000000E-03 0.  1.
        -12    1    4    4    0    0 -0.11502492618E+01 -0.11058832608E+01 -0.51060135429E+01  0.53495257220E+01  0.00000000000E+00 0.  1.
</event>
<event>
 8    1  0.2402194E-006  0.9118800E+02  0.7816164E-02  0.1184000E+00
        -11   -1    0    0    0    0  0.00000000000E+00  0.00000000000E+00  0.45593999997E+02  0.45594000000E+02  0.51100000000E-03 0.  1.
         11   -1    0    0    0    0 -0.00000000000E+00 -0.00000000000E+00 -0.45593999997E+02  0.45594000000E+02  0.51100000000E-03 0. -1.
         23    2    1    2    0    0  0.35527136788E-14  0.00000000000E+00  0.00000000000E+00  0.91188000000E+02  0.91188000000E+02 0.  0.
    9900012    2    3    3    0    0 -0.23573574020E+02  0.26617788308E+02 -0.95686956110E+01  0.54367082274E+02  0.39999995660E+02 0.  0.
        -12    1    3    3    0    0  0.23573574020E+02 -0.26617788308E+02  0.95686956110E+01  0.36820917726E+02  0.00000000000E+00 0.  1.
         11    1    4    4    0    0  0.70842062569E+01  0.11920035030E+02 -0.10067770120E+02  0.17135729014E+02  0.51100000000E-03 0. -1.
        -11    1    4    4    0    0 -0.20381116333E+01  0.19438071557E+01  0.48394040979E+01  0.55992961676E+01  0.51100000000E-03 0.  1.
         12    1    4    4    0    0 -0.28619668643E+02  0.12753946123E+02 -0.43403295891E+01  0.31632057092E+02  0.00000000000E+00 0. -1.
</event>
<event>
 8    1  0.2402194E-006  0.9118800E+02  0.7816164E-02  0.1184000E+00
        -11   -1    0    0    0    0  0.00000000000E+00  0.00000000000E+00  0.45593999997E+02  0.45594000000E+02  0.51100000000E-03 0.  1.
         11   -1    0    0    0    0 -0.00000000000E+00 -0.00000000000E+00 -0.45593999997E+02  0.45594000000E+02  0.51100000000E-03 0. -1.
         23    2    1    2    0    0  0.00000000000E+00  0.66613381478E-15 -0.35527136788E-14  0.91188000000E+02  0.91188000000E+02 0.  0.
    9900012    2    3    3    0    0 -0.24313849347E+02 -0.97112865609E+00 -0.27634649354E+02  0.54367079236E+02  0.39999988735E+02 0.  0.
        -12    1    3    3    0    0  0.24313849347E+02  0.97112865609E+00  0.27634649354E+02  0.36820920764E+02  0.00000000000E+00 0.  1.
         11    1    4    4    0    0 -0.89174368941E+01 -0.12658987699E+02 -0.57439458206E+01  0.16515555218E+02  0.51100000000E-03 0. -1.
        -11    1    4    4    0    0 -0.31974702347E+01  0.12651869253E+02 -0.22040075178E+02  0.25613639445E+02  0.51100000000E-03 0.  1.
         12    1    4    4    0    0 -0.12198942218E+02 -0.96401021035E+00  0.14937164460E+00  0.12237884573E+02  0.00000000000E+00 0. -1.
</event>
<event>
 8    1  0.2402194E-006  0.9118800E+02  0.7816164E-02  0.1184000E+00
        -11   -1    0    0    0    0  0.00000000000E+00  0.00000000000E+00  0.45593999997E+02  0.45594000000E+02  0.51100000000E-03 0. -1.
         11   -1    0    0    0    0 -0.00000000000E+00 -0.00000000000E+00 -0.45593999997E+02  0.45594000000E+02  0.51100000000E-03 0.  1.
         23    2    1    2    0    0  0.00000000000E+00  0.00000000000E+00  0.00000000000E+00  0.91188000000E+02  0.91188000000E+02 0.  0.
    9900012    2    3    3    0    0  0.93704591394E+01  0.10951644786E+02 -0.33882687962E+02  0.54367074271E+02  0.39999977415E+02 0.  0.
         12    1    3    3    0    0 -0.93704591394E+01 -0.10951644786E+02  0.33882687962E+02  0.36820925729E+02  0.00000000000E+00 0. -1.
         11    1    4    4    0    0  0.11168167102E+02  0.84986921931E+01 -0.18214364304E+02  0.22993885985E+02  0.51100000000E-03 0.  1.
        -11    1    4    4    0    0 -0.26844033315E+01 -0.11920047582E+02 -0.40562054192E+01  0.12874251756E+02  0.51100000000E-03 0. -1.
        -12    1    4    4    0    0  0.88669536847E+00  0.14373000176E+02 -0.11612118239E+02  0.18498936530E+02  0.00000000000E+00 0.  1.
</event>
<event>
 8    1  0.2402194E-006  0.9118800E+02  0.7816164E-02  0.1184000E+00
        -11   -1    0    0    0    0  0.00000000000E+00  0.00000000000E+00  0.45593999997E+02  0.45594000000E+02  0.51100000000E-03 0. -1.
         11   -1    0    0    0    0 -0.00000000000E+00 -0.00000000000E+00 -0.45593999997E+02  0.45594000000E+02  0.51100000000E-03 0.  1.
         23    2    1    2    0    0  0.00000000000E+00  0.17763568394E-14  0.00000000000E+00  0.91188000000E+02  0.91188000000E+02 0.  0.
    9900012    2    3    3    0    0  0.34112395657E+02  0.68445423616E+01 -0.12052797613E+02  0.54367173992E+02  0.40000204748E+02 0.  0.
         12    1    3    3    0    0 -0.34112395657E+02 -0.68445423616E+01  0.12052797613E+02  0.36820826008E+02  0.00000000000E+00 0. -1.
         11    1    4    4    0    0  0.16800319044E+02  0.88539622716E+01 -0.12713178558E+02  0.22853189650E+02  0.51100000000E-03 0. -1.
        -11    1    4    4    0    0  0.11141090033E+02  0.41209665099E+01 -0.11519426270E+02  0.16547006797E+02  0.51100000000E-03 0.  1.
         12    1    4    4    0    0  0.61709865802E+01 -0.61303864198E+01  0.12179807214E+02  0.14966977544E+02  0.00000000000E+00 0. -1.
</event>
<event>
 8    1  0.2402194E-006  0.9118800E+02  0.7816164E-02  0.1184000E+00
        -11   -1    0    0    0    0  0.00000000000E+00  0.00000000000E+00  0.45593999997E+02  0.45594000000E+02  0.51100000000E-03 0.  1.
         11   -1    0    0    0    0 -0.00000000000E+00 -0.00000000000E+00 -0.45593999997E+02  0.45594000000E+02  0.51100000000E-03 0. -1.
         23    2    1    2    0    0  0.00000000000E+00 -0.17763568394E-14 -0.35527136788E-14  0.91188000000E+02  0.91188000000E+02 0.  0.
    9900012    2    3    3    0    0 -0.19584041945E+02 -0.10751126722E+02  0.29268720472E+02  0.54367089870E+02  0.40000012977E+02 0.  0.
        -12    1    3    3    0    0  0.19584041945E+02  0.10751126722E+02 -0.29268720472E+02  0.36820910130E+02  0.00000000000E+00 0.  1.
         11    1    4    4    0    0 -0.12354331846E+02 -0.24585610384E+02  0.12732358951E+02  0.30318224190E+02  0.51100000000E-03 0. -1.
        -11    1    4    4    0    0 -0.85366407007E+01  0.13098185153E+02  0.16195246766E+02  0.22510502145E+02  0.51100000000E-03 0.  1.
         12    1    4    4    0    0  0.13069306013E+01  0.73629850851E+00  0.34111475479E+00  0.15383635352E+01  0.00000000000E+00 0. -1.
</event>
<event>
 8    1  0.2402194E-006  0.9118800E+02  0.7816164E-02  0.1184000E+00
        -11   -1    0    0    0    0  0.00000000000E+00  0.00000000000E+00  0.45593999997E+02  0.45594000000E+02  0.51100000000E-03 0.  1.
         11   -1    0    0    0    0 -0.00000000000E+00 -0.00000000000E+00 -0.45593999997E+02  0.45594000000E+02  0.51100000000E-03 0. -1.
         23    2    1    2    0    0  0.00000000000E+00  0.00000000000E+00  0.00000000000E+00  0.91188000000E+02  0.91188000000E+02 0.  0.
    9900012    2    3    3    0    0  0.22610756683E+02  0.25904067168E+02  0.13172389936E+02  0.54367097373E+02  0.40000030082E+02 0.  0.
         12    1    3    3    0    0 -0.22610756683E+02 -0.25904067168E+02 -0.13172389936E+02  0.36820902627E+02  0.00000000000E+00 0. -1.
         11    1    4    4    0    0  0.13706656523E+02 -0.60669084319E+01  0.91604650670E+01  0.17566841818E+02  0.51100000000E-03 0. -1.
        -11    1    4    4    0    0  0.66098328257E+01  0.18664751282E+02  0.98195064862E+01  0.22101708945E+02  0.51100000000E-03 0.  1.
         12    1    4    4    0    0  0.22942673337E+01  0.13306224318E+02 -0.58075816173E+01  0.14698546610E+02  0.00000000000E+00 0. -1.
</event>
<event>
 8    1  0.2402194E-006  0.9118800E+02  0.7816164E-02  0.1184000E+00
        -11   -1    0    0    0    0  0.00000000000E+00  0.00000000000E+00  0.45593999997E+02  0.45594000000E+02  0.51100000000E-03 0. -1.
         11   -1    0    0    0    0 -0.00000000000E+00 -0.00000000000E+00 -0.45593999997E+02  0.45594000000E+02  0.51100000000E-03 0.  1.
         23    2    1    2    0    0  0.00000000000E+00  0.00000000000E+00 -0.44408920985E-15  0.91188000000E+02  0.91188000000E+02 0.  0.
    9900012    2    3    3    0    0  0.19199506707E+02  0.31193502440E+02 -0.37595943809E+01  0.54366943495E+02  0.39999679283E+02 0.  0.
        -12    1    3    3    0    0 -0.19199506707E+02 -0.31193502440E+02  0.37595943809E+01  0.36821056505E+02  0.00000000000E+00 0.  1.
         11    1    4    4    0    0  0.11281543637E+02  0.15632975575E+02 -0.84833124708E+01  0.21062519861E+02  0.51100000000E-03 0. -1.
        -11    1    4    4    0    0  0.11626613709E+02  0.14783883642E+02 -0.76944293748E+01  0.20321063101E+02  0.51100000000E-03 0.  1.
         12    1    4    4    0    0 -0.37086506394E+01  0.77664322278E+00  0.12418147465E+02  0.12983360532E+02  0.00000000000E+00 0. -1.
</event>
<event>
 8    1  0.2402194E-006  0.9118800E+02  0.7816164E-02  0.1184000E+00
        -11   -1    0    0    0    0  0.00000000000E+00  0.00000000000E+00  0.45593999997E+02  0.45594000000E+02  0.51100000000E-03 0.  1.
         11   -1    0    0    0    0 -0.00000000000E+00 -0.00000000000E+00 -0.45593999997E+02  0.45594000000E+02  0.51100000000E-03 0. -1.
         23    2    1    2    0    0  0.44408920985E-15 -0.17763568394E-14 -0.71054273576E-14  0.91188000000E+02  0.91188000000E+02 0.  0.
    9900012    2    3    3    0    0 -0.35520273083E+01 -0.88896152702E+01 -0.35554716783E+02  0.54367081446E+02  0.39999993773E+02 0.  0.
        -12    1    3    3    0    0  0.35520273083E+01  0.88896152702E+01  0.35554716783E+02  0.36820918554E+02  0.00000000000E+00 0.  1.
         11    1    4    4    0    0  0.54052008891E+01 -0.71324120423E+01 -0.40439155540E+01  0.98204252179E+01  0.51100000000E-03 0. -1.
        -11    1    4    4    0    0  0.28388839014E+01  0.20446481758E+01  0.49360861886E+01  0.60501896739E+01  0.51100000000E-03 0.  1.
         12    1    4    4    0    0 -0.11796112099E+02 -0.38018514037E+01 -0.36446887417E+02  0.38496466554E+02  0.00000000000E+00 0. -1.
</event>
<event>
 8    1  0.2402194E-006  0.9118800E+02  0.7816164E-02  0.1184000E+00
        -11   -1    0    0    0    0  0.00000000000E+00  0.00000000000E+00  0.45593999997E+02  0.45594000000E+02  0.51100000000E-03 0. -1.
         11   -1    0    0    0    0 -0.00000000000E+00 -0.00000000000E+00 -0.45593999997E+02  0.45594000000E+02  0.51100000000E-03 0.  1.
         23    2    1    2    0    0  0.00000000000E+00  0.88817841970E-15  0.17763568394E-14  0.91188000000E+02  0.91188000000E+02 0.  0.
    9900012    2    3    3    0    0  0.33068229960E+02 -0.54945091561E+01 -0.15234235890E+02  0.54367090089E+02  0.40000013476E+02 0.  0.
         12    1    3    3    0    0 -0.33068229960E+02  0.54945091561E+01  0.15234235890E+02  0.36820909911E+02  0.00000000000E+00 0. -1.
         11    1    4    4    0    0  0.47530309980E+01 -0.27619624580E+01  0.97377164238E+01  0.11182256557E+02  0.51100000000E-03 0. -1.
        -11    1    4    4    0    0  0.21241867338E+02  0.15777632404E+01 -0.54622951522E+01  0.21989609670E+02  0.51100000000E-03 0.  1.
        -12    1    4    4    0    0  0.70733316242E+01 -0.43103099385E+01 -0.19509657161E+02  0.21195223863E+02  0.00000000000E+00 0.  1.
</event>
<event>
 8    1  0.2402194E-006  0.9118800E+02  0.7816164E-02  0.1184000E+00
        -11   -1    0    0    0    0  0.00000000000E+00  0.00000000000E+00  0.45593999997E+02  0.45594000000E+02  0.51100000000E-03 0. -1.
         11   -1    0    0    0    0 -0.00000000000E+00 -0.00000000000E+00 -0.45593999997E+02  0.45594000000E+02  0.51100000000E-03 0.  1.
         23    2    1    2    0    0  0.66613381478E-15  0.00000000000E+00 -0.35527136788E-14  0.91188000000E+02  0.91188000000E+02 0.  0.
    9900012    2    3    3    0    0 -0.17695039083E+01 -0.29464704174E+02 -0.22010907141E+02  0.54367082449E+02  0.39999996058E+02 0.  0.
         12    1    3    3    0    0  0.17695039083E+01  0.29464704174E+02  0.22010907141E+02  0.36820917551E+02  0.00000000000E+00 0. -1.
         11    1    4    4    0    0 -0.27417982974E+01 -0.24163390279E+02  0.53094126994E+00  0.24324242775E+02  0.51100000000E-03 0. -1.
        -11    1    4    4    0    0 -0.39022340990E+01  0.27629693535E+01 -0.19594777357E+02  0.20169698325E+02  0.51100000000E-03 0.  1.
        -12    1    4    4    0    0  0.48745284881E+01 -0.80642832487E+01 -0.29470710543E+01  0.98731413489E+01  0.00000000000E+00 0.  1.
</event>
<event>
 8    1  0.2402194E-006  0.9118800E+02  0.7816164E-02  0.1184000E+00
        -11   -1    0    0    0    0  0.00000000000E+00  0.00000000000E+00  0.45593999997E+02  0.45594000000E+02  0.51100000000E-03 0.  1.
         11   -1    0    0    0    0 -0.00000000000E+00 -0.00000000000E+00 -0.45593999997E+02  0.45594000000E+02  0.51100000000E-03 0. -1.
         23    2    1    2    0    0 -0.17763568394E-14 -0.35527136788E-14 -0.35527136788E-14  0.91188000000E+02  0.91188000000E+02 0.  0.
    9900012    2    3    3    0    0  0.15648636743E+02  0.27013202281E+02  0.19523987121E+02  0.54367095577E+02  0.40000025987E+02 0.  0.
        -12    1    3    3    0    0 -0.15648636743E+02 -0.27013202281E+02 -0.19523987121E+02  0.36820904423E+02  0.00000000000E+00 0.  1.
         11    1    4    4    0    0  0.13662246998E+02  0.29341892427E+02  0.10165045232E+02  0.33925385614E+02  0.51100000000E-03 0. -1.
        -11    1    4    4    0    0  0.17775634869E+01  0.24685884431E+01  0.13660398184E+02  0.13995004097E+02  0.51100000000E-03 0.  1.
         12    1    4    4    0    0  0.20882625873E+00 -0.47972785895E+01 -0.43014562947E+01  0.64467058664E+01  0.00000000000E+00 0. -1.
</event>
<event>
 8    1  0.2402194E-006  0.9118800E+02  0.7816164E-02  0.1184000E+00
        -11   -1    0    0    0    0  0.00000000000E+00  0.00000000000E+00  0.45593999997E+02  0.45594000000E+02  0.51100000000E-03 0. -1.
         11   -1    0    0    0    0 -0.00000000000E+00 -0.00000000000E+00 -0.45593999997E+02  0.45594000000E+02  0.51100000000E-03 0.  1.
         23    2    1    2    0    0 -0.17763568394E-14 -0.35527136788E-14  0.35527136788E-14  0.91188000000E+02  0.91188000000E+02 0.  0.
    9900012    2    3    3    0    0 -0.11502348292E+02 -0.19812576484E+02 -0.28825951691E+02  0.54367113345E+02  0.40000066492E+02 0.  0.
         12    1    3    3    0    0  0.11502348292E+02  0.19812576484E+02  0.28825951691E+02  0.36820886655E+02  0.00000000000E+00 0. -1.
         11    1    4    4    0    0 -0.10793013129E+02 -0.88566559082E+01  0.40368951812E+01  0.14533616524E+02  0.51100000000E-03 0. -1.
        -11    1    4    4    0    0 -0.47412210873E+01  0.34735518291E+01 -0.34254862064E+01  0.68028446785E+01  0.51100000000E-03 0.  1.
         12    1    4    4    0    0  0.40318859247E+01 -0.14429472405E+02 -0.29437360666E+02  0.33030652143E+02  0.00000000000E+00 0. -1.
</event>
<event>
 8    1  0.2402194E-006  0.9118800E+02  0.7816164E-02  0.1184000E+00
        -11   -1    0    0    0    0  0.00000000000E+00  0.00000000000E+00  0.45593999997E+02  0.45594000000E+02  0.51100000000E-03 0.  1.
         11   -1    0    0    0    0 -0.00000000000E+00 -0.00000000000E+00 -0.45593999997E+02  0.45594000000E+02  0.51100000000E-03 0. -1.
         23    2    1    2    0    0 -0.35527136788E-14  0.44408920985E-14 -0.71054273576E-14  0.91188000000E+02  0.91188000000E+02 0.  0.
    9900012    2    3    3    0    0 -0.22103056480E+02  0.61004989576E+01 -0.28810017779E+02  0.54367104876E+02  0.40000047187E+02 0.  0.
        -12    1    3    3    0    0  0.22103056480E+02 -0.61004989576E+01  0.28810017779E+02  0.36820895124E+02  0.00000000000E+00 0.  1.
         11    1    4    4    0    0 -0.14473183269E+02 -0.10826511706E+02 -0.10392049561E+02  0.20849006787E+02  0.51100000000E-03 0.  1.
        -11    1    4    4    0    0  0.14916071236E+01  0.17255428908E+02 -0.64837262516E+01  0.18493604975E+02  0.51100000000E-03 0. -1.
         12    1    4    4    0    0 -0.91214803350E+01 -0.32841824439E+00 -0.11934241966E+02  0.15024493114E+02  0.00000000000E+00 0. -1.
</event>
<event>
 8    1  0.2402194E-006  0.9118800E+02  0.7816164E-02  0.1184000E+00
        -11   -1    0    0    0    0  0.00000000000E+00  0.00000000000E+00  0.45593999997E+02  0.45594000000E+02  0.51100000000E-03 0.  1.
         11   -1    0    0    0    0 -0.00000000000E+00 -0.00000000000E+00 -0.45593999997E+02  0.45594000000E+02  0.51100000000E-03 0. -1.
         23    2    1    2    0    0  0.00000000000E+00  0.00000000000E+00  0.00000000000E+00  0.91188000000E+02  0.91188000000E+02 0.  0.
    9900012    2    3    3    0    0  0.68437766865E+01  0.34828377648E+02 -0.97942178692E+01  0.54367083762E+02  0.39999999052E+02 0.  0.
        -12    1    3    3    0    0 -0.68437766865E+01 -0.34828377648E+02  0.97942178692E+01  0.36820916238E+02  0.00000000000E+00 0.  1.
         11    1    4    4    0    0  0.86267912820E+00 -0.36684045752E+01 -0.43217069262E+01  0.57339827714E+01  0.51100000000E-03 0. -1.
        -11    1    4    4    0    0  0.50595324069E+01  0.59106126091E+01  0.98997704786E+01  0.12591253527E+02  0.51100000000E-03 0.  1.
         12    1    4    4    0    0  0.92156515140E+00  0.32586169614E+02 -0.15372281422E+02  0.36041847463E+02  0.00000000000E+00 0. -1.
</event>
<event>
 8    1  0.2402194E-006  0.9118800E+02  0.7816164E-02  0.1184000E+00
        -11   -1    0    0    0    0  0.00000000000E+00  0.00000000000E+00  0.45593999997E+02  0.45594000000E+02  0.51100000000E-03 0. -1.
         11   -1    0    0    0    0 -0.00000000000E+00 -0.00000000000E+00 -0.45593999997E+02  0.45594000000E+02  0.51100000000E-03 0.  1.
         23    2    1    2    0    0  0.00000000000E+00  0.00000000000E+00 -0.71054273576E-14  0.91188000000E+02  0.91188000000E+02 0.  0.
    9900012    2    3    3    0    0 -0.82712530404E+01  0.13087506532E+02  0.33407841689E+02  0.54367077410E+02  0.39999984571E+02 0.  0.
        -12    1    3    3    0    0  0.82712530404E+01 -0.13087506532E+02 -0.33407841689E+02  0.36820922590E+02  0.00000000000E+00 0.  1.
         11    1    4    4    0    0 -0.35553452748E+01  0.15266341805E+02 -0.31465674227E+01  0.15987575142E+02  0.51100000000E-03 0. -1.
        -11    1    4    4    0    0 -0.32295340515E+00 -0.57203937285E+01  0.13935404315E+02  0.15067272381E+02  0.51100000000E-03 0.  1.
         12    1    4    4    0    0 -0.43929543604E+01  0.35415584562E+01  0.22619004796E+02  0.23312229886E+02  0.00000000000E+00 0. -1.
</event>
<event>
 8    1  0.2402194E-006  0.9118800E+02  0.7816164E-02  0.1184000E+00
        -11   -1    0    0    0    0  0.00000000000E+00  0.00000000000E+00  0.45593999997E+02  0.45594000000E+02  0.51100000000E-03 0.  1.
         11   -1    0    0    0    0 -0.00000000000E+00 -0.00000000000E+00 -0.45593999997E+02  0.45594000000E+02  0.51100000000E-03 0. -1.
         23    2    1    2    0    0  0.00000000000E+00  0.00000000000E+00  0.00000000000E+00  0.91188000000E+02  0.91188000000E+02 0.  0.
    9900012    2    3    3    0    0  0.13546025464E+02  0.38054631405E+01 -0.34026501550E+02  0.54367093394E+02  0.40000021009E+02 0.  0.
        -12    1    3    3    0    0 -0.13546025464E+02 -0.38054631405E+01  0.34026501550E+02  0.36820906606E+02  0.00000000000E+00 0.  1.
         11    1    4    4    0    0  0.11478556675E+02  0.54312311729E+01 -0.16589481359E+02  0.20891778943E+02  0.51100000000E-03 0. -1.
        -11    1    4    4    0    0  0.12410948993E+02 -0.27732159272E+01 -0.19089954904E+02  0.22937932775E+02  0.51100000000E-03 0.  1.
        -12    1    4    4    0    0 -0.10343480204E+02  0.11474478948E+01  0.16529347135E+01  0.10537381675E+02  0.00000000000E+00 0.  1.
</event>
<event>
 8    1  0.2402194E-006  0.9118800E+02  0.7816164E-02  0.1184000E+00
        -11   -1    0    0    0    0  0.00000000000E+00  0.00000000000E+00  0.45593999997E+02  0.45594000000E+02  0.51100000000E-03 0. -1.
         11   -1    0    0    0    0 -0.00000000000E+00 -0.00000000000E+00 -0.45593999997E+02  0.45594000000E+02  0.51100000000E-03 0.  1.
         23    2    1    2    0    0  0.00000000000E+00 -0.35527136788E-14 -0.35527136788E-14  0.91188000000E+02  0.91188000000E+02 0.  0.
    9900012    2    3    3    0    0 -0.24386895909E+02  0.18581049507E+02  0.20391259210E+02  0.54367088210E+02  0.40000009192E+02 0.  0.
        -12    1    3    3    0    0  0.24386895909E+02 -0.18581049507E+02 -0.20391259210E+02  0.36820911790E+02  0.00000000000E+00 0.  1.
         11    1    4    4    0    0  0.36529621742E+01  0.25886016636E+01  0.38168119647E+01  0.58832852263E+01  0.51100000000E-03 0. -1.
        -11    1    4    4    0    0 -0.12856707143E+02 -0.93702643996E+01  0.72922067048E+01  0.17500658626E+02  0.51100000000E-03 0.  1.
        -12    1    4    4    0    0 -0.15183150941E+02  0.25362712243E+02  0.92822405407E+01  0.30983144357E+02  0.00000000000E+00 0.  1.
</event>
<event>
 8    1  0.2402194E-006  0.9118800E+02  0.7816164E-02  0.1184000E+00
        -11   -1    0    0    0    0  0.00000000000E+00  0.00000000000E+00  0.45593999997E+02  0.45594000000E+02  0.51100000000E-03 0. -1.
         11   -1    0    0    0    0 -0.00000000000E+00 -0.00000000000E+00 -0.45593999997E+02  0.45594000000E+02  0.51100000000E-03 0.  1.
         23    2    1    2    0    0  0.35527136788E-14  0.00000000000E+00 -0.17763568394E-14  0.91188000000E+02  0.91188000000E+02 0.  0.
    9900012    2    3    3    0    0  0.27609976926E+02 -0.21368902657E+02 -0.11697807280E+02  0.54367088526E+02  0.40000009912E+02 0.  0.
         12    1    3    3    0    0 -0.27609976926E+02  0.21368902657E+02  0.11697807280E+02  0.36820911474E+02  0.00000000000E+00 0. -1.
         11    1    4    4    0    0  0.71763017239E+01  0.84234727812E+01 -0.76757125004E+01  0.13467396288E+02  0.51100000000E-03 0. -1.
        -11    1    4    4    0    0  0.99820988069E+01 -0.12387354146E+02 -0.11100969819E+02  0.19398978595E+02  0.51100000000E-03 0.  1.
         12    1    4    4    0    0  0.10451576395E+02 -0.17405021292E+02  0.70788750395E+01  0.21500713643E+02  0.00000000000E+00 0. -1.
</event>
<event>
 8    1  0.2402194E-006  0.9118800E+02  0.7816164E-02  0.1184000E+00
        -11   -1    0    0    0    0  0.00000000000E+00  0.00000000000E+00  0.45593999997E+02  0.45594000000E+02  0.51100000000E-03 0. -1.
         11   -1    0    0    0    0 -0.00000000000E+00 -0.00000000000E+00 -0.45593999997E+02  0.45594000000E+02  0.51100000000E-03 0.  1.
         23    2    1    2    0    0  0.00000000000E+00  0.00000000000E+00  0.00000000000E+00  0.91188000000E+02  0.91188000000E+02 0.  0.
    9900012    2    3    3    0    0 -0.16572836159E+02  0.22037634570E+02  0.24402121998E+02  0.54367084832E+02  0.40000001491E+02 0.  0.
        -12    1    3    3    0    0  0.16572836159E+02 -0.22037634570E+02 -0.24402121998E+02  0.36820915168E+02  0.00000000000E+00 0.  1.
         11    1    4    4    0    0 -0.89271163972E+01  0.71855844605E+01  0.21585851868E+02  0.24439210960E+02  0.51100000000E-03 0. -1.
        -11    1    4    4    0    0  0.15776851653E+01  0.19136032161E+02 -0.56929566997E+00  0.19209396533E+02  0.51100000000E-03 0.  1.
         12    1    4    4    0    0 -0.92234049269E+01 -0.42839820514E+01  0.33855658001E+01  0.10718477338E+02  0.00000000000E+00 0. -1.
</event>
<event>
 8    1  0.2402194E-006  0.9118800E+02  0.7816164E-02  0.1184000E+00
        -11   -1    0    0    0    0  0.00000000000E+00  0.00000000000E+00  0.45593999997E+02  0.45594000000E+02  0.51100000000E-03 0. -1.
         11   -1    0    0    0    0 -0.00000000000E+00 -0.00000000000E+00 -0.45593999997E+02  0.45594000000E+02  0.51100000000E-03 0.  1.
         23    2    1    2    0    0 -0.35527136788E-14  0.00000000000E+00  0.00000000000E+00  0.91188000000E+02  0.91188000000E+02 0.  0.
    9900012    2    3    3    0    0 -0.27243919165E+02  0.33174990794E+01 -0.24546809305E+02  0.54367044300E+02  0.39999909090E+02 0.  0.
         12    1    3    3    0    0  0.27243919165E+02 -0.33174990794E+01  0.24546809305E+02  0.36820955700E+02  0.00000000000E+00 0. -1.
         11    1    4    4    0    0  0.52174880201E+00  0.60159533878E+00 -0.12690781512E+02  0.12715741206E+02  0.51100000000E-03 0. -1.
        -11    1    4    4    0    0 -0.33002624182E+02  0.53795609370E+01 -0.73235807396E+01  0.34230800661E+02  0.51100000000E-03 0.  1.
         12    1    4    4    0    0  0.52369562154E+01 -0.26636571964E+01 -0.45324470535E+01  0.74205024327E+01  0.00000000000E+00 0. -1.
</event>
<event>
 8    1  0.2402194E-006  0.9118800E+02  0.7816164E-02  0.1184000E+00
        -11   -1    0    0    0    0  0.00000000000E+00  0.00000000000E+00  0.45593999997E+02  0.45594000000E+02  0.51100000000E-03 0. -1.
         11   -1    0    0    0    0 -0.00000000000E+00 -0.00000000000E+00 -0.45593999997E+02  0.45594000000E+02  0.51100000000E-03 0.  1.
         23    2    1    2    0    0  0.00000000000E+00 -0.35527136788E-14  0.17763568394E-14  0.91188000000E+02  0.91188000000E+02 0.  0.
    9900012    2    3    3    0    0  0.23493477357E+02 -0.24673908967E+02  0.13965477455E+02  0.54367084442E+02  0.40000000601E+02 0.  0.
        -12    1    3    3    0    0 -0.23493477357E+02  0.24673908967E+02 -0.13965477455E+02  0.36820915558E+02  0.00000000000E+00 0.  1.
         11    1    4    4    0    0  0.34932245229E+01  0.86849171606E+01 -0.24249176463E+01  0.96700894259E+01  0.51100000000E-03 0. -1.
        -11    1    4    4    0    0  0.13563263255E+02 -0.15722733124E+02  0.16543776060E+01  0.20830348354E+02  0.51100000000E-03 0.  1.
         12    1    4    4    0    0  0.64369895787E+01 -0.17636093004E+02  0.14736017495E+02  0.23866646662E+02  0.00000000000E+00 0. -1.
</event>
<event>
 8    1  0.2402194E-006  0.9118800E+02  0.7816164E-02  0.1184000E+00
        -11   -1    0    0    0    0  0.00000000000E+00  0.00000000000E+00  0.45593999997E+02  0.45594000000E+02  0.51100000000E-03 0.  1.
         11   -1    0    0    0    0 -0.00000000000E+00 -0.00000000000E+00 -0.45593999997E+02  0.45594000000E+02  0.51100000000E-03 0. -1.
         23    2    1    2    0    0  0.00000000000E+00  0.00000000000E+00  0.88817841970E-15  0.91188000000E+02  0.91188000000E+02 0.  0.
    9900012    2    3    3    0    0  0.19857271958E+02 -0.30604316252E+02 -0.49846147939E+01  0.54367057488E+02  0.39999939155E+02 0.  0.
        -12    1    3    3    0    0 -0.19857271958E+02  0.30604316252E+02  0.49846147939E+01  0.36820942512E+02  0.00000000000E+00 0.  1.
         11    1    4    4    0    0 -0.81595498205E+00 -0.31909904754E+02 -0.14246637362E+01  0.31952112152E+02  0.51100000000E-03 0. -1.
        -11    1    4    4    0    0  0.20088305640E+02  0.23619696250E+01 -0.18355552240E+01  0.20309805200E+02  0.51100000000E-03 0.  1.
        -12    1    4    4    0    0  0.58492129944E+00 -0.10563811231E+01 -0.17243958337E+01  0.21051401367E+01  0.00000000000E+00 0.  1.
</event>
<event>
 8    1  0.2402194E-006  0.9118800E+02  0.7816164E-02  0.1184000E+00
        -11   -1    0    0    0    0  0.00000000000E+00  0.00000000000E+00  0.45593999997E+02  0.45594000000E+02  0.51100000000E-03 0. -1.
         11   -1    0    0    0    0 -0.00000000000E+00 -0.00000000000E+00 -0.45593999997E+02  0.45594000000E+02  0.51100000000E-03 0.  1.
         23    2    1    2    0    0  0.00000000000E+00  0.35527136788E-14  0.00000000000E+00  0.91188000000E+02  0.91188000000E+02 0.  0.
    9900012    2    3    3    0    0 -0.19256633774E+02  0.20433160241E+02 -0.23821182047E+02  0.54367072583E+02  0.39999973567E+02 0.  0.
         12    1    3    3    0    0  0.19256633774E+02 -0.20433160241E+02  0.23821182047E+02  0.36820927417E+02  0.00000000000E+00 0. -1.
         11    1    4    4    0    0 -0.39191621160E+01  0.12020568841E+02 -0.24636748185E+00  0.12645734623E+02  0.51100000000E-03 0. -1.
        -11    1    4    4    0    0 -0.22625586755E+02  0.12697108738E+02 -0.18433928333E+02  0.31826772698E+02  0.51100000000E-03 0.  1.
         12    1    4    4    0    0  0.72881150964E+01 -0.42845173377E+01 -0.51408862320E+01  0.98945652621E+01  0.00000000000E+00 0. -1.
</event>
<event>
 8    1  0.2402194E-006  0.9118800E+02  0.7816164E-02  0.1184000E+00
        -11   -1    0    0    0    0  0.00000000000E+00  0.00000000000E+00  0.45593999997E+02  0.45594000000E+02  0.51100000000E-03 0.  1.
         11   -1    0    0    0    0 -0.00000000000E+00 -0.00000000000E+00 -0.45593999997E+02  0.45594000000E+02  0.51100000000E-03 0. -1.
         23    2    1    2    0    0  0.00000000000E+00 -0.88817841970E-15  0.17763568394E-14  0.91188000000E+02  0.91188000000E+02 0.  0.
    9900012    2    3    3    0    0  0.35803272289E+02 -0.54791871817E+01  0.66244321209E+01  0.54367096973E+02  0.40000029169E+02 0.  0.
         12    1    3    3    0    0 -0.35803272289E+02  0.54791871817E+01 -0.66244321209E+01  0.36820903027E+02  0.00000000000E+00 0. -1.
         11    1    4    4    0    0  0.30013873722E+02 -0.96388419918E+01 -0.44157204748E+01  0.31831407105E+02  0.51100000000E-03 0. -1.
        -11    1    4    4    0    0  0.71486357718E+01 -0.21783579180E+01 -0.22031010041E+01  0.77911418234E+01  0.51100000000E-03 0.  1.
         12    1    4    4    0    0 -0.13592372042E+01  0.63380127281E+01  0.13243253600E+02  0.14744548044E+02  0.00000000000E+00 0. -1.
</event>
<event>
 8    1  0.2402194E-006  0.9118800E+02  0.7816164E-02  0.1184000E+00
        -11   -1    0    0    0    0  0.00000000000E+00  0.00000000000E+00  0.45593999997E+02  0.45594000000E+02  0.51100000000E-03 0.  1.
         11   -1    0    0    0    0 -0.00000000000E+00 -0.00000000000E+00 -0.45593999997E+02  0.45594000000E+02  0.51100000000E-03 0. -1.
         23    2    1    2    0    0 -0.26645352591E-14  0.00000000000E+00  0.35527136788E-14  0.91188000000E+02  0.91188000000E+02 0.  0.
    9900012    2    3    3    0    0 -0.74565230230E+01  0.17053937161E+02  0.31770156825E+02  0.54367090547E+02  0.40000014520E+02 0.  0.
         12    1    3    3    0    0  0.74565230230E+01 -0.17053937161E+02 -0.31770156825E+02  0.36820909453E+02  0.00000000000E+00 0. -1.
         11    1    4    4    0    0 -0.18676919834E+02  0.59278181976E+01  0.15117652915E+02  0.24748935189E+02  0.51100000000E-03 0. -1.
        -11    1    4    4    0    0  0.36525854953E+01  0.31119231991E+01  0.17893611124E+02  0.18525840497E+02  0.51100000000E-03 0.  1.
         12    1    4    4    0    0  0.75678113158E+01  0.80141957639E+01 -0.12411072143E+01  0.11092314861E+02  0.00000000000E+00 0. -1.
</event>
<event>
 8    1  0.2402194E-006  0.9118800E+02  0.7816164E-02  0.1184000E+00
        -11   -1    0    0    0    0  0.00000000000E+00  0.00000000000E+00  0.45593999997E+02  0.45594000000E+02  0.51100000000E-03 0.  1.
         11   -1    0    0    0    0 -0.00000000000E+00 -0.00000000000E+00 -0.45593999997E+02  0.45594000000E+02  0.51100000000E-03 0. -1.
         23    2    1    2    0    0  0.00000000000E+00 -0.44408920985E-15  0.55511151231E-16  0.91188000000E+02  0.91188000000E+02 0.  0.
    9900012    2    3    3    0    0 -0.36683864560E+02 -0.31573992377E+01  0.32431483519E+00  0.54367078378E+02  0.39999986778E+02 0.  0.
        -12    1    3    3    0    0  0.36683864560E+02  0.31573992377E+01 -0.32431483519E+00  0.36820921622E+02  0.00000000000E+00 0.  1.
         11    1    4    4    0    0 -0.23835625781E+02  0.75476632768E+01  0.88613444136E+01  0.26525981648E+02  0.51100000000E-03 0. -1.
        -11    1    4    4    0    0  0.50694250584E+01 -0.11420268892E+01 -0.50269753084E+01  0.72300606395E+01  0.51100000000E-03 0.  1.
        -12    1    4    4    0    0 -0.17917663837E+02 -0.95630356253E+01 -0.35100542700E+01  0.20611036091E+02  0.00000000000E+00 0.  1.
</event>
<event>
 8    1  0.2402194E-006  0.9118800E+02  0.7816164E-02  0.1184000E+00
        -11   -1    0    0    0    0  0.00000000000E+00  0.00000000000E+00  0.45593999997E+02  0.45594000000E+02  0.51100000000E-03 0. -1.
         11   -1    0    0    0    0 -0.00000000000E+00 -0.00000000000E+00 -0.45593999997E+02  0.45594000000E+02  0.51100000000E-03 0.  1.
         23    2    1    2    0    0  0.00000000000E+00  0.00000000000E+00  0.88817841970E-15  0.91188000000E+02  0.91188000000E+02 0.  0.
    9900012    2    3    3    0    0  0.11459838563E+02  0.34652441685E+02 -0.48641682637E+01  0.54367085461E+02  0.40000002924E+02 0.  0.
        -12    1    3    3    0    0 -0.11459838563E+02 -0.34652441685E+02  0.48641682637E+01  0.36820914539E+02  0.00000000000E+00 0.  1.
         11    1    4    4    0    0  0.63415045482E+01 -0.56695756606E+01  0.38402798450E+01  0.93330872521E+01  0.51100000000E-03 0. -1.
        -11    1    4    4    0    0  0.10667145145E+02  0.16782934416E+02 -0.55420605119E+01  0.20643868536E+02  0.51100000000E-03 0.  1.
         12    1    4    4    0    0 -0.55488111299E+01  0.23539082930E+02 -0.31623875968E+01  0.24390129672E+02  0.00000000000E+00 0. -1.
</event>
<event>
 8    1  0.2402194E-006  0.9118800E+02  0.7816164E-02  0.1184000E+00
        -11   -1    0    0    0    0  0.00000000000E+00  0.00000000000E+00  0.45593999997E+02  0.45594000000E+02  0.51100000000E-03 0.  1.
         11   -1    0    0    0    0 -0.00000000000E+00 -0.00000000000E+00 -0.45593999997E+02  0.45594000000E+02  0.51100000000E-03 0. -1.
         23    2    1    2    0    0  0.00000000000E+00  0.88817841970E-15  0.00000000000E+00  0.91188000000E+02  0.91188000000E+02 0.  0.
    9900012    2    3    3    0    0 -0.28853848078E+02  0.37167766581E+01 -0.22570278456E+02  0.54367130276E+02  0.40000105090E+02 0.  0.
        -12    1    3    3    0    0  0.28853848078E+02 -0.37167766581E+01  0.22570278456E+02  0.36820869724E+02  0.00000000000E+00 0.  1.
         11    1    4    4    0    0 -0.52843329965E+01 -0.51385377023E+01 -0.85674329959E+01  0.11301754436E+02  0.51100000000E-03 0. -1.
        -11    1    4    4    0    0 -0.15188932861E+02  0.20504051097E+02 -0.13109055268E+02  0.28687403562E+02  0.51100000000E-03 0.  1.
        -12    1    4    4    0    0 -0.83805822203E+01 -0.11648736737E+02 -0.89379019204E+00  0.14377972278E+02  0.00000000000E+00 0.  1.
</event>
<event>
 8    1  0.2402194E-006  0.9118800E+02  0.7816164E-02  0.1184000E+00
        -11   -1    0    0    0    0  0.00000000000E+00  0.00000000000E+00  0.45593999997E+02  0.45594000000E+02  0.51100000000E-03 0.  1.
         11   -1    0    0    0    0 -0.00000000000E+00 -0.00000000000E+00 -0.45593999997E+02  0.45594000000E+02  0.51100000000E-03 0. -1.
         23    2    1    2    0    0 -0.61062266354E-15  0.00000000000E+00  0.00000000000E+00  0.91188000000E+02  0.91188000000E+02 0.  0.
    9900012    2    3    3    0    0 -0.24726405994E+00  0.21165327015E+02 -0.30128852435E+02  0.54367082626E+02  0.39999996463E+02 0.  0.
        -12    1    3    3    0    0  0.24726405994E+00 -0.21165327015E+02  0.30128852435E+02  0.36820917374E+02  0.00000000000E+00 0.  1.
         11    1    4    4    0    0  0.64719477542E+01  0.19796927170E+02 -0.37100357357E+02  0.42546926439E+02  0.51100000000E-03 0. -1.
        -11    1    4    4    0    0 -0.89920639944E+00 -0.61947485255E+00 -0.11807342304E+01  0.16082458847E+01  0.51100000000E-03 0.  1.
         12    1    4    4    0    0 -0.58200054147E+01  0.19878746977E+01  0.81522391521E+01  0.10211910303E+02  0.00000000000E+00 0. -1.
</event>
<event>
 8    1  0.2402194E-006  0.9118800E+02  0.7816164E-02  0.1184000E+00
        -11   -1    0    0    0    0  0.00000000000E+00  0.00000000000E+00  0.45593999997E+02  0.45594000000E+02  0.51100000000E-03 0. -1.
         11   -1    0    0    0    0 -0.00000000000E+00 -0.00000000000E+00 -0.45593999997E+02  0.45594000000E+02  0.51100000000E-03 0.  1.
         23    2    1    2    0    0  0.88817841970E-15  0.00000000000E+00  0.00000000000E+00  0.91188000000E+02  0.91188000000E+02 0.  0.
    9900012    2    3    3    0    0  0.71779665815E+01 -0.34027179476E+02 -0.12099977682E+02  0.54367060207E+02  0.39999945354E+02 0.  0.
        -12    1    3    3    0    0 -0.71779665815E+01  0.34027179476E+02  0.12099977682E+02  0.36820939793E+02  0.00000000000E+00 0.  1.
         11    1    4    4    0    0  0.33425547919E+01 -0.22655453446E+02  0.60783341354E+01  0.23693636055E+02  0.51100000000E-03 0. -1.
        -11    1    4    4    0    0 -0.79530862176E+01 -0.78355073473E+01 -0.13471803925E+02  0.17496749899E+02  0.51100000000E-03 0.  1.
         12    1    4    4    0    0  0.11788498007E+02 -0.35362186827E+01 -0.47065078926E+01  0.13176674253E+02  0.00000000000E+00 0. -1.
</event>
<event>
 8    1  0.2402194E-006  0.9118800E+02  0.7816164E-02  0.1184000E+00
        -11   -1    0    0    0    0  0.00000000000E+00  0.00000000000E+00  0.45593999997E+02  0.45594000000E+02  0.51100000000E-03 0. -1.
         11   -1    0    0    0    0 -0.00000000000E+00 -0.00000000000E+00 -0.45593999997E+02  0.45594000000E+02  0.51100000000E-03 0.  1.
         23    2    1    2    0    0  0.35527136788E-14  0.00000000000E+00  0.17763568394E-14  0.91188000000E+02  0.91188000000E+02 0.  0.
    9900012    2    3    3    0    0 -0.18251665350E+02 -0.28563476133E+02  0.14380030007E+02  0.54367072258E+02  0.39999972826E+02 0.  0.
        -12    1    3    3    0    0  0.18251665350E+02  0.28563476133E+02 -0.14380030007E+02  0.36820927742E+02  0.00000000000E+00 0.  1.
         11    1    4    4    0    0 -0.20317027427E+02 -0.18245742883E+02 -0.17758214564E+01  0.27364982714E+02  0.51100000000E-03 0. -1.
        -11    1    4    4    0    0  0.41236183120E+01  0.48234280541E+01  0.43813052366E+01  0.77113891105E+01  0.51100000000E-03 0.  1.
         12    1    4    4    0    0 -0.20582562346E+01 -0.15141161304E+02  0.11774546226E+02  0.19290700433E+02  0.00000000000E+00 0. -1.
</event>
<event>
 8    1  0.2402194E-006  0.9118800E+02  0.7816164E-02  0.1184000E+00
        -11   -1    0    0    0    0  0.00000000000E+00  0.00000000000E+00  0.45593999997E+02  0.45594000000E+02  0.51100000000E-03 0. -1.
         11   -1    0    0    0    0 -0.00000000000E+00 -0.00000000000E+00 -0.45593999997E+02  0.45594000000E+02  0.51100000000E-03 0.  1.
         23    2    1    2    0    0  0.00000000000E+00  0.17763568394E-14 -0.66613381478E-15  0.91188000000E+02  0.91188000000E+02 0.  0.
    9900012    2    3    3    0    0  0.36128554534E+02  0.69240893544E+01 -0.16020668974E+01  0.54367053727E+02  0.39999930581E+02 0.  0.
        -12    1    3    3    0    0 -0.36128554534E+02 -0.69240893544E+01  0.16020668974E+01  0.36820946273E+02  0.00000000000E+00 0.  1.
         11    1    4    4    0    0  0.20731315494E+02  0.29191637258E+01 -0.33235764767E+01  0.21197998015E+02  0.51100000000E-03 0. -1.
        -11    1    4    4    0    0  0.15758177985E+02 -0.79985447665E+01 -0.62619960021E+01  0.18748586239E+02  0.51100000000E-03 0.  1.
         12    1    4    4    0    0 -0.36093894461E+00  0.12003470395E+02  0.79835055814E+01  0.14420469473E+02  0.00000000000E+00 0. -1.
</event>
<event>
 8    1  0.2402194E-006  0.9118800E+02  0.7816164E-02  0.1184000E+00
        -11   -1    0    0    0    0  0.00000000000E+00  0.00000000000E+00  0.45593999997E+02  0.45594000000E+02  0.51100000000E-03 0.  1.
         11   -1    0    0    0    0 -0.00000000000E+00 -0.00000000000E+00 -0.45593999997E+02  0.45594000000E+02  0.51100000000E-03 0. -1.
         23    2    1    2    0    0  0.88817841970E-15  0.35527136788E-14  0.35527136788E-14  0.91188000000E+02  0.91188000000E+02 0.  0.
    9900012    2    3    3    0    0  0.13424999009E+01 -0.29751626185E+02  0.21652222629E+02  0.54367077803E+02  0.39999985467E+02 0.  0.
         12    1    3    3    0    0 -0.13424999009E+01  0.29751626185E+02 -0.21652222629E+02  0.36820922197E+02  0.00000000000E+00 0. -1.
         11    1    4    4    0    0  0.99549941037E+01 -0.32545693633E+02  0.14394190033E+02  0.36952899597E+02  0.51100000000E-03 0. -1.
        -11    1    4    4    0    0  0.17870815056E+01 -0.33073614358E+01  0.20280358616E+01  0.42714435138E+01  0.51100000000E-03 0.  1.
        -12    1    4    4    0    0 -0.10399575708E+02  0.61014288835E+01  0.52299967344E+01  0.13142734692E+02  0.00000000000E+00 0.  1.
</event>
<event>
 8    1  0.2402194E-006  0.9118800E+02  0.7816164E-02  0.1184000E+00
        -11   -1    0    0    0    0  0.00000000000E+00  0.00000000000E+00  0.45593999997E+02  0.45594000000E+02  0.51100000000E-03 0. -1.
         11   -1    0    0    0    0 -0.00000000000E+00 -0.00000000000E+00 -0.45593999997E+02  0.45594000000E+02  0.51100000000E-03 0.  1.
         23    2    1    2    0    0 -0.17763568394E-14  0.00000000000E+00  0.00000000000E+00  0.91188000000E+02  0.91188000000E+02 0.  0.
    9900012    2    3    3    0    0  0.10281720982E+02  0.22186408064E+02 -0.27528732922E+02  0.54367059960E+02  0.39999944791E+02 0.  0.
         12    1    3    3    0    0 -0.10281720982E+02 -0.22186408064E+02  0.27528732922E+02  0.36820940040E+02  0.00000000000E+00 0. -1.
         11    1    4    4    0    0  0.43559818771E+01  0.11991512965E+02 -0.12347385079E+02  0.17754686138E+02  0.51100000000E-03 0. -1.
        -11    1    4    4    0    0  0.25635831944E+01  0.20641269033E+02 -0.44647276342E+01  0.21273639538E+02  0.51100000000E-03 0.  1.
         12    1    4    4    0    0  0.33621559106E+01 -0.10446373934E+02 -0.10716620208E+02  0.15338734284E+02  0.00000000000E+00 0. -1.
</event>
<event>
 8    1  0.2402194E-006  0.9118800E+02  0.7816164E-02  0.1184000E+00
        -11   -1    0    0    0    0  0.00000000000E+00  0.00000000000E+00  0.45593999997E+02  0.45594000000E+02  0.51100000000E-03 0.  1.
         11   -1    0    0    0    0 -0.00000000000E+00 -0.00000000000E+00 -0.45593999997E+02  0.45594000000E+02  0.51100000000E-03 0. -1.
         23    2    1    2    0    0  0.00000000000E+00 -0.35527136788E-14 -0.17763568394E-14  0.91188000000E+02  0.91188000000E+02 0.  0.
    9900012    2    3    3    0    0  0.23564515495E+02  0.24924205985E+02  0.13389453926E+02  0.54367083242E+02  0.39999997866E+02 0.  0.
         12    1    3    3    0    0 -0.23564515495E+02 -0.24924205985E+02 -0.13389453926E+02  0.36820916758E+02  0.00000000000E+00 0. -1.
         11    1    4    4    0    0  0.14549807875E+02  0.17678171275E+02 -0.94695686064E+00  0.22915308777E+02  0.51100000000E-03 0. -1.
        -11    1    4    4    0    0  0.17168846654E+02  0.93638503974E+01  0.10461668384E+02  0.22178762259E+02  0.51100000000E-03 0.  1.
         12    1    4    4    0    0 -0.81541390340E+01 -0.21178156873E+01  0.38747424030E+01  0.92730122053E+01  0.00000000000E+00 0. -1.
</event>
<event>
 8    1  0.2402194E-006  0.9118800E+02  0.7816164E-02  0.1184000E+00
        -11   -1    0    0    0    0  0.00000000000E+00  0.00000000000E+00  0.45593999997E+02  0.45594000000E+02  0.51100000000E-03 0.  1.
         11   -1    0    0    0    0 -0.00000000000E+00 -0.00000000000E+00 -0.45593999997E+02  0.45594000000E+02  0.51100000000E-03 0. -1.
         23    2    1    2    0    0  0.00000000000E+00  0.00000000000E+00  0.00000000000E+00  0.91188000000E+02  0.91188000000E+02 0.  0.
    9900012    2    3    3    0    0  0.12539096543E+02  0.45299034033E+01 -0.34322475530E+02  0.54367064468E+02  0.39999955068E+02 0.  0.
        -12    1    3    3    0    0 -0.12539096543E+02 -0.45299034033E+01  0.34322475530E+02  0.36820935532E+02  0.00000000000E+00 0.  1.
         11    1    4    4    0    0  0.60518647332E+01  0.10636674549E+02 -0.27361077816E+02  0.29973196222E+02  0.51100000000E-03 0. -1.
        -11    1    4    4    0    0  0.40510759874E+01  0.16194764686E+01  0.70023501515E+01  0.82502623348E+01  0.51100000000E-03 0.  1.
         12    1    4    4    0    0  0.24361558220E+01 -0.77262476142E+01 -0.13963747865E+02  0.16143605912E+02  0.00000000000E+00 0. -1.
</event>
<event>
 8    1  0.2402194E-006  0.9118800E+02  0.7816164E-02  0.1184000E+00
        -11   -1    0    0    0    0  0.00000000000E+00  0.00000000000E+00  0.45593999997E+02  0.45594000000E+02  0.51100000000E-03 0. -1.
         11   -1    0    0    0    0 -0.00000000000E+00 -0.00000000000E+00 -0.45593999997E+02  0.45594000000E+02  0.51100000000E-03 0.  1.
         23    2    1    2    0    0  0.00000000000E+00  0.35527136788E-14  0.00000000000E+00  0.91188000000E+02  0.91188000000E+02 0.  0.
    9900012    2    3    3    0    0  0.20609988056E+02  0.20487296315E+02  0.22611493699E+02  0.54367074356E+02  0.39999977610E+02 0.  0.
        -12    1    3    3    0    0 -0.20609988056E+02 -0.20487296315E+02 -0.22611493699E+02  0.36820925644E+02  0.00000000000E+00 0.  1.
         11    1    4    4    0    0  0.11449667499E+02  0.21661887328E+02  0.20277749279E+02  0.31804392221E+02  0.51100000000E-03 0. -1.
        -11    1    4    4    0    0  0.15475534665E+02 -0.30171208293E+01  0.69036784135E+00  0.15782008721E+02  0.51100000000E-03 0.  1.
        -12    1    4    4    0    0 -0.63152141087E+01  0.18425298161E+01  0.16433765788E+01  0.67806734136E+01  0.00000000000E+00 0.  1.
</event>
<event>
 8    1  0.2402194E-006  0.9118800E+02  0.7816164E-02  0.1184000E+00
        -11   -1    0    0    0    0  0.00000000000E+00  0.00000000000E+00  0.45593999997E+02  0.45594000000E+02  0.51100000000E-03 0.  1.
         11   -1    0    0    0    0 -0.00000000000E+00 -0.00000000000E+00 -0.45593999997E+02  0.45594000000E+02  0.51100000000E-03 0. -1.
         23    2    1    2    0    0  0.00000000000E+00  0.00000000000E+00  0.00000000000E+00  0.91188000000E+02  0.91188000000E+02 0.  0.
    9900012    2    3    3    0    0 -0.12477639657E+02 -0.31909266591E+02  0.13486559521E+02  0.54367081034E+02  0.39999992832E+02 0.  0.
         12    1    3    3    0    0  0.12477639657E+02  0.31909266591E+02 -0.13486559521E+02  0.36820918966E+02  0.00000000000E+00 0. -1.
         11    1    4    4    0    0 -0.23924394726E+02 -0.12137510309E+02  0.56260054581E+01  0.27410723398E+02  0.51100000000E-03 0. -1.
        -11    1    4    4    0    0  0.10145470094E+01 -0.13508431269E+02  0.51332992442E+01  0.14486468941E+02  0.51100000000E-03 0.  1.
         12    1    4    4    0    0  0.10432208059E+02 -0.62633250128E+01  0.27272548187E+01  0.12469888695E+02  0.00000000000E+00 0. -1.
</event>
<event>
 8    1  0.2402194E-006  0.9118800E+02  0.7816164E-02  0.1184000E+00
        -11   -1    0    0    0    0  0.00000000000E+00  0.00000000000E+00  0.45593999997E+02  0.45594000000E+02  0.51100000000E-03 0.  1.
         11   -1    0    0    0    0 -0.00000000000E+00 -0.00000000000E+00 -0.45593999997E+02  0.45594000000E+02  0.51100000000E-03 0. -1.
         23    2    1    2    0    0  0.00000000000E+00 -0.17763568394E-14  0.00000000000E+00  0.91188000000E+02  0.91188000000E+02 0.  0.
    9900012    2    3    3    0    0 -0.34161531354E+02  0.10087211322E+02 -0.93283079654E+01  0.54367090367E+02  0.40000014111E+02 0.  0.
        -12    1    3    3    0    0  0.34161531354E+02 -0.10087211322E+02  0.93283079654E+01  0.36820909633E+02  0.00000000000E+00 0.  1.
         11    1    4    4    0    0 -0.18354269992E+02  0.94672882278E+01 -0.10405228428E+02  0.23125257885E+02  0.51100000000E-03 0. -1.
        -11    1    4    4    0    0 -0.94708635204E+01 -0.12974284456E+02  0.21428486214E+01  0.16205588957E+02  0.51100000000E-03 0.  1.
        -12    1    4    4    0    0 -0.63363978410E+01  0.13594207550E+02 -0.10659281584E+01  0.15036243525E+02  0.00000000000E+00 0.  1.
</event>
<event>
 8    1  0.2402194E-006  0.9118800E+02  0.7816164E-02  0.1184000E+00
        -11   -1    0    0    0    0  0.00000000000E+00  0.00000000000E+00  0.45593999997E+02  0.45594000000E+02  0.51100000000E-03 0. -1.
         11   -1    0    0    0    0 -0.00000000000E+00 -0.00000000000E+00 -0.45593999997E+02  0.45594000000E+02  0.51100000000E-03 0.  1.
         23    2    1    2    0    0  0.35527136788E-14 -0.35527136788E-14  0.35527136788E-14  0.91188000000E+02  0.91188000000E+02 0.  0.
    9900012    2    3    3    0    0  0.24665263990E+02 -0.10835512495E+02  0.25099788566E+02  0.54367041773E+02  0.39999903329E+02 0.  0.
        -12    1    3    3    0    0 -0.24665263990E+02  0.10835512495E+02 -0.25099788566E+02  0.36820958227E+02  0.00000000000E+00 0.  1.
         11    1    4    4    0    0  0.79646564681E+01  0.47565814563E+00  0.32233117341E+01  0.86053321913E+01  0.51100000000E-03 0. -1.
        -11    1    4    4    0    0  0.26191722986E+02 -0.10553682639E+01  0.13852172026E+02  0.29647981807E+02  0.51100000000E-03 0.  1.
         12    1    4    4    0    0 -0.94911154646E+01 -0.10255802376E+02  0.80243048065E+01  0.16113727774E+02  0.00000000000E+00 0. -1.
</event>
<event>
 8    1  0.2402194E-006  0.9118800E+02  0.7816164E-02  0.1184000E+00
        -11   -1    0    0    0    0  0.00000000000E+00  0.00000000000E+00  0.45593999997E+02  0.45594000000E+02  0.51100000000E-03 0. -1.
         11   -1    0    0    0    0 -0.00000000000E+00 -0.00000000000E+00 -0.45593999997E+02  0.45594000000E+02  0.51100000000E-03 0.  1.
         23    2    1    2    0    0  0.00000000000E+00  0.00000000000E+00 -0.35527136788E-14  0.91188000000E+02  0.91188000000E+02 0.  0.
    9900012    2    3    3    0    0 -0.90002415017E+01 -0.23246732870E+02 -0.27099165684E+02  0.54367085875E+02  0.40000003869E+02 0.  0.
         12    1    3    3    0    0  0.90002415017E+01  0.23246732870E+02  0.27099165684E+02  0.36820914125E+02  0.00000000000E+00 0. -1.
         11    1    4    4    0    0 -0.29631272272E+01  0.79973820777E+01 -0.15836515301E+02  0.17987035892E+02  0.51100000000E-03 0. -1.
        -11    1    4    4    0    0 -0.89385576301E+01 -0.24034387145E+02 -0.44109536266E+01  0.26019340693E+02  0.51100000000E-03 0.  1.
         12    1    4    4    0    0  0.29014433556E+01 -0.72097278032E+01 -0.68516967568E+01  0.10360709290E+02  0.00000000000E+00 0. -1.
</event>
<event>
 8    1  0.2402194E-006  0.9118800E+02  0.7816164E-02  0.1184000E+00
        -11   -1    0    0    0    0  0.00000000000E+00  0.00000000000E+00  0.45593999997E+02  0.45594000000E+02  0.51100000000E-03 0. -1.
         11   -1    0    0    0    0 -0.00000000000E+00 -0.00000000000E+00 -0.45593999997E+02  0.45594000000E+02  0.51100000000E-03 0.  1.
         23    2    1    2    0    0 -0.17763568394E-14  0.00000000000E+00  0.00000000000E+00  0.91188000000E+02  0.91188000000E+02 0.  0.
    9900012    2    3    3    0    0 -0.11661361463E+02  0.33651006159E+01 -0.34763017249E+02  0.54367100750E+02  0.40000037780E+02 0.  0.
         12    1    3    3    0    0  0.11661361463E+02 -0.33651006159E+01  0.34763017249E+02  0.36820899250E+02  0.00000000000E+00 0. -1.
         11    1    4    4    0    0  0.90064742312E+01 -0.34505177873E+01 -0.15399682787E+01  0.97669930705E+01  0.51100000000E-03 0. -1.
        -11    1    4    4    0    0 -0.71323991106E+01  0.63535123267E+01 -0.28815876633E+02  0.30357749955E+02  0.51100000000E-03 0.  1.
        -12    1    4    4    0    0 -0.13535436584E+02  0.46210607662E+00 -0.44071723372E+01  0.14242357724E+02  0.00000000000E+00 0.  1.
</event>
<event>
 8    1  0.2402194E-006  0.9118800E+02  0.7816164E-02  0.1184000E+00
        -11   -1    0    0    0    0  0.00000000000E+00  0.00000000000E+00  0.45593999997E+02  0.45594000000E+02  0.51100000000E-03 0.  1.
         11   -1    0    0    0    0 -0.00000000000E+00 -0.00000000000E+00 -0.45593999997E+02  0.45594000000E+02  0.51100000000E-03 0. -1.
         23    2    1    2    0    0  0.00000000000E+00  0.71054273576E-14 -0.17763568394E-14  0.91188000000E+02  0.91188000000E+02 0.  0.
    9900012    2    3    3    0    0 -0.71456327693E+01  0.35560359985E+02 -0.63387334077E+01  0.54367098176E+02  0.40000031911E+02 0.  0.
         12    1    3    3    0    0  0.71456327693E+01 -0.35560359985E+02  0.63387334077E+01  0.36820901824E+02  0.00000000000E+00 0. -1.
         11    1    4    4    0    0 -0.46704148297E+00 -0.11603365625E+01  0.68815249729E+00  0.14276073710E+01  0.51100000000E-03 0. -1.
        -11    1    4    4    0    0 -0.36649629097E+01 -0.72741282849E+01  0.67845696497E+00  0.81734447786E+01  0.51100000000E-03 0.  1.
        -12    1    4    4    0    0 -0.30136283766E+01  0.43994824833E+02 -0.77053428700E+01  0.44766046026E+02  0.00000000000E+00 0.  1.
</event>
<event>
 8    1  0.2402194E-006  0.9118800E+02  0.7816164E-02  0.1184000E+00
        -11   -1    0    0    0    0  0.00000000000E+00  0.00000000000E+00  0.45593999997E+02  0.45594000000E+02  0.51100000000E-03 0.  1.
         11   -1    0    0    0    0 -0.00000000000E+00 -0.00000000000E+00 -0.45593999997E+02  0.45594000000E+02  0.51100000000E-03 0. -1.
         23    2    1    2    0    0 -0.52735593670E-15  0.00000000000E+00  0.35527136788E-14  0.91188000000E+02  0.91188000000E+02 0.  0.
    9900012    2    3    3    0    0  0.22583802654E+00 -0.28410816669E+02  0.23421235540E+02  0.54367085008E+02  0.40000001892E+02 0.  0.
         12    1    3    3    0    0 -0.22583802654E+00  0.28410816669E+02 -0.23421235540E+02  0.36820914992E+02  0.00000000000E+00 0. -1.
         11    1    4    4    0    0 -0.32303054825E+00 -0.20601894491E+01 -0.65305152990E+01  0.68553890942E+01  0.51100000000E-03 0. -1.
        -11    1    4    4    0    0  0.30431561348E+01 -0.66534956401E+01 -0.38820864127E+01  0.82825357633E+01  0.51100000000E-03 0.  1.
        -12    1    4    4    0    0 -0.24942875600E+01 -0.19697131580E+02  0.33833837252E+02  0.39229160150E+02  0.00000000000E+00 0.  1.
</event>
<event>
 8    1  0.2402194E-006  0.9118800E+02  0.7816164E-02  0.1184000E+00
        -11   -1    0    0    0    0  0.00000000000E+00  0.00000000000E+00  0.45593999997E+02  0.45594000000E+02  0.51100000000E-03 0.  1.
         11   -1    0    0    0    0 -0.00000000000E+00 -0.00000000000E+00 -0.45593999997E+02  0.45594000000E+02  0.51100000000E-03 0. -1.
         23    2    1    2    0    0  0.00000000000E+00  0.00000000000E+00  0.00000000000E+00  0.91188000000E+02  0.91188000000E+02 0.  0.
    9900012    2    3    3    0    0  0.26867709664E+02 -0.22442307138E+02 -0.11412772117E+02  0.54367050262E+02  0.39999922681E+02 0.  0.
        -12    1    3    3    0    0 -0.26867709664E+02  0.22442307138E+02  0.11412772117E+02  0.36820949738E+02  0.00000000000E+00 0.  1.
         11    1    4    4    0    0 -0.42294849907E+01  0.69303061797E+01  0.59717323626E+00  0.81409030928E+01  0.51100000000E-03 0. -1.
        -11    1    4    4    0    0  0.29831562425E+02 -0.30077716794E+02 -0.96355086243E+01  0.43444610609E+02  0.51100000000E-03 0.  1.
        -12    1    4    4    0    0  0.12656322297E+01  0.70510347660E+00 -0.23744367291E+01  0.27815365599E+01  0.00000000000E+00 0.  1.
</event>
<event>
 8    1  0.2402194E-006  0.9118800E+02  0.7816164E-02  0.1184000E+00
        -11   -1    0    0    0    0  0.00000000000E+00  0.00000000000E+00  0.45593999997E+02  0.45594000000E+02  0.51100000000E-03 0.  1.
         11   -1    0    0    0    0 -0.00000000000E+00 -0.00000000000E+00 -0.45593999997E+02  0.45594000000E+02  0.51100000000E-03 0. -1.
         23    2    1    2    0    0  0.00000000000E+00  0.35527136788E-14  0.35527136788E-14  0.91188000000E+02  0.91188000000E+02 0.  0.
    9900012    2    3    3    0    0 -0.22231269147E+02  0.23324051050E+02  0.17820002712E+02  0.54366903032E+02  0.39999587041E+02 0.  0.
         12    1    3    3    0    0  0.22231269147E+02 -0.23324051050E+02 -0.17820002712E+02  0.36821096968E+02  0.00000000000E+00 0. -1.
         11    1    4    4    0    0 -0.16891936212E+02  0.89780024236E+01  0.30284539949E+00  0.19132008574E+02  0.51100000000E-03 0. -1.
        -11    1    4    4    0    0 -0.14824745180E+02  0.21178571615E+01  0.10180723979E+02  0.18108161961E+02  0.51100000000E-03 0.  1.
        -12    1    4    4    0    0  0.94854122452E+01  0.12228191465E+02  0.73364333343E+01  0.17126732497E+02  0.00000000000E+00 0.  1.
</event>
<event>
 8    1  0.2402194E-006  0.9118800E+02  0.7816164E-02  0.1184000E+00
        -11   -1    0    0    0    0  0.00000000000E+00  0.00000000000E+00  0.45593999997E+02  0.45594000000E+02  0.51100000000E-03 0.  1.
         11   -1    0    0    0    0 -0.00000000000E+00 -0.00000000000E+00 -0.45593999997E+02  0.45594000000E+02  0.51100000000E-03 0. -1.
         23    2    1    2    0    0  0.00000000000E+00  0.17763568394E-14  0.35527136788E-14  0.91188000000E+02  0.91188000000E+02 0.  0.
    9900012    2    3    3    0    0  0.11622111362E+02 -0.15333951622E+02 -0.31393883841E+02  0.54367088992E+02  0.40000010974E+02 0.  0.
        -12    1    3    3    0    0 -0.11622111362E+02  0.15333951622E+02  0.31393883841E+02  0.36820911008E+02  0.00000000000E+00 0.  1.
         11    1    4    4    0    0 -0.10344039193E+02 -0.80201991397E+01 -0.62191374848E+01  0.14491390975E+02  0.51100000000E-03 0. -1.
        -11    1    4    4    0    0  0.25213154220E+02 -0.43678347132E+01 -0.24524764486E+02  0.35443549472E+02  0.51100000000E-03 0.  1.
        -12    1    4    4    0    0 -0.32470036645E+01 -0.29459177689E+01 -0.64998187013E+00  0.44321485455E+01  0.00000000000E+00 0.  1.
</event>
<event>
 8    1  0.2402194E-006  0.9118800E+02  0.7816164E-02  0.1184000E+00
        -11   -1    0    0    0    0  0.00000000000E+00  0.00000000000E+00  0.45593999997E+02  0.45594000000E+02  0.51100000000E-03 0. -1.
         11   -1    0    0    0    0 -0.00000000000E+00 -0.00000000000E+00 -0.45593999997E+02  0.45594000000E+02  0.51100000000E-03 0.  1.
         23    2    1    2    0    0  0.35527136788E-14  0.00000000000E+00  0.00000000000E+00  0.91188000000E+02  0.91188000000E+02 0.  0.
    9900012    2    3    3    0    0 -0.24311121729E+02  0.26878951223E+02  0.65016212473E+01  0.54367085598E+02  0.40000003238E+02 0.  0.
         12    1    3    3    0    0  0.24311121729E+02 -0.26878951223E+02 -0.65016212473E+01  0.36820914402E+02  0.00000000000E+00 0. -1.
         11    1    4    4    0    0 -0.60701241943E+01  0.75200336276E+00  0.61646202322E+01  0.86841499100E+01  0.51100000000E-03 0. -1.
        -11    1    4    4    0    0  0.24366955810E+01  0.12234475077E+02 -0.12499045591E+02  0.17659162118E+02  0.51100000000E-03 0.  1.
         12    1    4    4    0    0 -0.20677693115E+02  0.13892472784E+02  0.12836046607E+02  0.28023773570E+02  0.00000000000E+00 0. -1.
</event>
<event>
 8    1  0.2402194E-006  0.9118800E+02  0.7816164E-02  0.1184000E+00
        -11   -1    0    0    0    0  0.00000000000E+00  0.00000000000E+00  0.45593999997E+02  0.45594000000E+02  0.51100000000E-03 0.  1.
         11   -1    0    0    0    0 -0.00000000000E+00 -0.00000000000E+00 -0.45593999997E+02  0.45594000000E+02  0.51100000000E-03 0. -1.
         23    2    1    2    0    0  0.00000000000E+00  0.00000000000E+00 -0.35527136788E-14  0.91188000000E+02  0.91188000000E+02 0.  0.
    9900012    2    3    3    0    0  0.24068196598E+02  0.22784731571E+02 -0.16042347015E+02  0.54367095911E+02  0.40000026748E+02 0.  0.
         12    1    3    3    0    0 -0.24068196598E+02 -0.22784731571E+02  0.16042347015E+02  0.36820904089E+02  0.00000000000E+00 0. -1.
         11    1    4    4    0    0 -0.72788833329E+00 -0.12843118492E+01 -0.10718052881E+02  0.10819239167E+02  0.51100000000E-03 0. -1.
        -11    1    4    4    0    0  0.10818333025E+02 -0.21452839647E+01  0.49831271146E+01  0.12102484407E+02  0.51100000000E-03 0.  1.
        -12    1    4    4    0    0  0.13977751906E+02  0.26214327384E+02 -0.10307421249E+02  0.31445372336E+02  0.00000000000E+00 0.  1.
</event>
<event>
 8    1  0.2402194E-006  0.9118800E+02  0.7816164E-02  0.1184000E+00
        -11   -1    0    0    0    0  0.00000000000E+00  0.00000000000E+00  0.45593999997E+02  0.45594000000E+02  0.51100000000E-03 0.  1.
         11   -1    0    0    0    0 -0.00000000000E+00 -0.00000000000E+00 -0.45593999997E+02  0.45594000000E+02  0.51100000000E-03 0. -1.
         23    2    1    2    0    0 -0.35527136788E-14  0.00000000000E+00 -0.35527136788E-14  0.91188000000E+02  0.91188000000E+02 0.  0.
    9900012    2    3    3    0    0  0.27262141408E+02  0.11003385044E+02 -0.22169374968E+02  0.54367081719E+02  0.39999994395E+02 0.  0.
        -12    1    3    3    0    0 -0.27262141408E+02 -0.11003385044E+02  0.22169374968E+02  0.36820918281E+02  0.00000000000E+00 0.  1.
         11    1    4    4    0    0  0.18204343021E+02  0.63989942718E+01  0.40241800733E+01  0.19711399190E+02  0.51100000000E-03 0. -1.
        -11    1    4    4    0    0  0.12319883132E+01  0.87563320486E+01 -0.22479174756E+01  0.91238303024E+01  0.51100000000E-03 0.  1.
         12    1    4    4    0    0  0.78258100738E+01 -0.41519412765E+01 -0.23945637566E+02  0.25531852226E+02  0.00000000000E+00 0. -1.
</event>
<event>
 8    1  0.2402194E-006  0.9118800E+02  0.7816164E-02  0.1184000E+00
        -11   -1    0    0    0    0  0.00000000000E+00  0.00000000000E+00  0.45593999997E+02  0.45594000000E+02  0.51100000000E-03 0.  1.
         11   -1    0    0    0    0 -0.00000000000E+00 -0.00000000000E+00 -0.45593999997E+02  0.45594000000E+02  0.51100000000E-03 0. -1.
         23    2    1    2    0    0  0.35527136788E-14 -0.17763568394E-14  0.00000000000E+00  0.91188000000E+02  0.91188000000E+02 0.  0.
    9900012    2    3    3    0    0  0.13778875718E+02 -0.14941572250E+02 -0.30702937469E+02  0.54367104213E+02  0.40000045674E+02 0.  0.
        -12    1    3    3    0    0 -0.13778875718E+02  0.14941572250E+02  0.30702937469E+02  0.36820895787E+02  0.00000000000E+00 0.  1.
         11    1    4    4    0    0 -0.78762049737E+01 -0.13316441851E+02 -0.69841291158E+01  0.16974695524E+02  0.51100000000E-03 0. -1.
        -11    1    4    4    0    0  0.11594958863E+02 -0.36567293170E+01 -0.68690950755E+00  0.12177297946E+02  0.51100000000E-03 0.  1.
         12    1    4    4    0    0  0.10060121828E+02  0.20315989176E+01 -0.23031898845E+02  0.25215110743E+02  0.00000000000E+00 0. -1.
</event>
<event>
 8    1  0.2402194E-006  0.9118800E+02  0.7816164E-02  0.1184000E+00
        -11   -1    0    0    0    0  0.00000000000E+00  0.00000000000E+00  0.45593999997E+02  0.45594000000E+02  0.51100000000E-03 0. -1.
         11   -1    0    0    0    0 -0.00000000000E+00 -0.00000000000E+00 -0.45593999997E+02  0.45594000000E+02  0.51100000000E-03 0.  1.
         23    2    1    2    0    0  0.00000000000E+00 -0.22204460493E-15  0.00000000000E+00  0.91188000000E+02  0.91188000000E+02 0.  0.
    9900012    2    3    3    0    0 -0.14524821665E+02  0.14672459574E+01  0.33803219857E+02  0.54367069434E+02  0.39999966388E+02 0.  0.
        -12    1    3    3    0    0  0.14524821665E+02 -0.14672459574E+01 -0.33803219857E+02  0.36820930566E+02  0.00000000000E+00 0.  1.
         11    1    4    4    0    0 -0.15841824749E+02 -0.63788172894E+00  0.30318025100E+02  0.34213344629E+02  0.51100000000E-03 0. -1.
        -11    1    4    4    0    0 -0.14604024423E+01  0.94373076080E+01 -0.29666749897E+01  0.99998355455E+01  0.51100000000E-03 0.  1.
        -12    1    4    4    0    0  0.27774055266E+01 -0.73321799217E+01  0.64518697470E+01  0.10153889260E+02  0.00000000000E+00 0.  1.
</event>
<event>
 8    1  0.2402194E-006  0.9118800E+02  0.7816164E-02  0.1184000E+00
        -11   -1    0    0    0    0  0.00000000000E+00  0.00000000000E+00  0.45593999997E+02  0.45594000000E+02  0.51100000000E-03 0.  1.
         11   -1    0    0    0    0 -0.00000000000E+00 -0.00000000000E+00 -0.45593999997E+02  0.45594000000E+02  0.51100000000E-03 0. -1.
         23    2    1    2    0    0  0.00000000000E+00 -0.17763568394E-14  0.00000000000E+00  0.91188000000E+02  0.91188000000E+02 0.  0.
    9900012    2    3    3    0    0  0.30644670847E+02 -0.15654247127E+02  0.13100690417E+02  0.54367090264E+02  0.40000013874E+02 0.  0.
         12    1    3    3    0    0 -0.30644670847E+02  0.15654247127E+02 -0.13100690417E+02  0.36820909736E+02  0.00000000000E+00 0. -1.
         11    1    4    4    0    0 -0.26254407328E+01  0.51057864064E+01  0.12403564247E+02  0.13667860116E+02  0.51100000000E-03 0. -1.
        -11    1    4    4    0    0  0.27418061679E+02 -0.13641236925E+02  0.40544762824E+01  0.30891296983E+02  0.51100000000E-03 0.  1.
         12    1    4    4    0    0  0.58520499004E+01 -0.71187966081E+01 -0.33573501125E+01  0.98079331647E+01  0.00000000000E+00 0. -1.
</event>
<event>
 8    1  0.2402194E-006  0.9118800E+02  0.7816164E-02  0.1184000E+00
        -11   -1    0    0    0    0  0.00000000000E+00  0.00000000000E+00  0.45593999997E+02  0.45594000000E+02  0.51100000000E-03 0. -1.
         11   -1    0    0    0    0 -0.00000000000E+00 -0.00000000000E+00 -0.45593999997E+02  0.45594000000E+02  0.51100000000E-03 0.  1.
         23    2    1    2    0    0  0.00000000000E+00  0.00000000000E+00  0.55511151231E-15  0.91188000000E+02  0.91188000000E+02 0.  0.
    9900012    2    3    3    0    0 -0.32308156152E+02  0.17645854954E+02 -0.76565728473E+00  0.54367090423E+02  0.40000014237E+02 0.  0.
        -12    1    3    3    0    0  0.32308156152E+02 -0.17645854954E+02  0.76565728473E+00  0.36820909577E+02  0.00000000000E+00 0.  1.
         11    1    4    4    0    0 -0.40183685839E+01  0.18828038930E+01  0.36515488946E+01  0.57468292272E+01  0.51100000000E-03 0. -1.
        -11    1    4    4    0    0 -0.14100410995E+02  0.10589825205E+02  0.15600316834E+02  0.23544338463E+02  0.51100000000E-03 0.  1.
        -12    1    4    4    0    0 -0.14189376573E+02  0.51732258566E+01 -0.20017523013E+02  0.25075922732E+02  0.00000000000E+00 0.  1.
</event>
<event>
 8    1  0.2402194E-006  0.9118800E+02  0.7816164E-02  0.1184000E+00
        -11   -1    0    0    0    0  0.00000000000E+00  0.00000000000E+00  0.45593999997E+02  0.45594000000E+02  0.51100000000E-03 0. -1.
         11   -1    0    0    0    0 -0.00000000000E+00 -0.00000000000E+00 -0.45593999997E+02  0.45594000000E+02  0.51100000000E-03 0.  1.
         23    2    1    2    0    0 -0.71054273576E-14 -0.88817841970E-15  0.00000000000E+00  0.91188000000E+02  0.91188000000E+02 0.  0.
    9900012    2    3    3    0    0  0.35104496816E+02 -0.53666623173E+01 -0.97292816721E+01  0.54367004861E+02  0.39999819182E+02 0.  0.
        -12    1    3    3    0    0 -0.35104496816E+02  0.53666623173E+01  0.97292816721E+01  0.36820995139E+02  0.00000000000E+00 0.  1.
         11    1    4    4    0    0 -0.74342836812E+01 -0.17932819209E+01 -0.15976831449E+01  0.78126196371E+01  0.51100000000E-03 0. -1.
        -11    1    4    4    0    0  0.32030015777E+02  0.34291438052E+01 -0.13984797995E+01  0.32243397524E+02  0.51100000000E-03 0.  1.
        -12    1    4    4    0    0  0.10508764721E+02 -0.70025242016E+01 -0.67331187277E+01  0.14310987700E+02  0.00000000000E+00 0.  1.
</event>
<event>
 8    1  0.2402194E-006  0.9118800E+02  0.7816164E-02  0.1184000E+00
        -11   -1    0    0    0    0  0.00000000000E+00  0.00000000000E+00  0.45593999997E+02  0.45594000000E+02  0.51100000000E-03 0.  1.
         11   -1    0    0    0    0 -0.00000000000E+00 -0.00000000000E+00 -0.45593999997E+02  0.45594000000E+02  0.51100000000E-03 0. -1.
         23    2    1    2    0    0 -0.35527136788E-14  0.17763568394E-14  0.71054273576E-14  0.91188000000E+02  0.91188000000E+02 0.  0.
    9900012    2    3    3    0    0  0.18409605217E+02 -0.11596726688E+02 -0.29704902310E+02  0.54367097575E+02  0.40000030542E+02 0.  0.
        -12    1    3    3    0    0 -0.18409605217E+02  0.11596726688E+02  0.29704902310E+02  0.36820902425E+02  0.00000000000E+00 0.  1.
         11    1    4    4    0    0  0.22017109247E+01  0.64453204700E+01 -0.10418478569E+02  0.12447264074E+02  0.51100000000E-03 0. -1.
        -11    1    4    4    0    0 -0.21350725645E+01 -0.49044481819E+01  0.59950869594E+01  0.80345015238E+01  0.51100000000E-03 0.  1.
         12    1    4    4    0    0  0.18342966857E+02 -0.13137598976E+02 -0.25281510700E+02  0.33885331978E+02  0.00000000000E+00 0. -1.
</event>
<event>
 8    1  0.2402194E-006  0.9118800E+02  0.7816164E-02  0.1184000E+00
        -11   -1    0    0    0    0  0.00000000000E+00  0.00000000000E+00  0.45593999997E+02  0.45594000000E+02  0.51100000000E-03 0.  1.
         11   -1    0    0    0    0 -0.00000000000E+00 -0.00000000000E+00 -0.45593999997E+02  0.45594000000E+02  0.51100000000E-03 0. -1.
         23    2    1    2    0    0  0.33306690739E-15  0.00000000000E+00 -0.35527136788E-14  0.91188000000E+02  0.91188000000E+02 0.  0.
    9900012    2    3    3    0    0  0.95851991719E+00 -0.26441537728E+02  0.25606760939E+02  0.54367083612E+02  0.39999998711E+02 0.  0.
         12    1    3    3    0    0 -0.95851991719E+00  0.26441537728E+02 -0.25606760939E+02  0.36820916388E+02  0.00000000000E+00 0. -1.
         11    1    4    4    0    0  0.44366105009E+01 -0.25035352551E+02  0.12408766382E+02  0.28291869388E+02  0.51100000000E-03 0. -1.
        -11    1    4    4    0    0 -0.23161491163E+01 -0.10377592240E+02  0.71229165590E+00  0.10656750306E+02  0.51100000000E-03 0.  1.
         12    1    4    4    0    0 -0.11619414674E+01  0.89714070628E+01  0.12485702901E+02  0.15418463918E+02  0.00000000000E+00 0. -1.
</event>
<event>
 8    1  0.2402194E-006  0.9118800E+02  0.7816164E-02  0.1184000E+00
        -11   -1    0    0    0    0  0.00000000000E+00  0.00000000000E+00  0.45593999997E+02  0.45594000000E+02  0.51100000000E-03 0. -1.
         11   -1    0    0    0    0 -0.00000000000E+00 -0.00000000000E+00 -0.45593999997E+02  0.45594000000E+02  0.51100000000E-03 0.  1.
         23    2    1    2    0    0  0.17763568394E-14 -0.71054273576E-14 -0.35527136788E-14  0.91188000000E+02  0.91188000000E+02 0.  0.
    9900012    2    3    3    0    0 -0.15377496121E+02  0.23920307910E+02 -0.23390867983E+02  0.54367065432E+02  0.39999957266E+02 0.  0.
         12    1    3    3    0    0  0.15377496121E+02 -0.23920307910E+02  0.23390867983E+02  0.36820934568E+02  0.00000000000E+00 0. -1.
         11    1    4    4    0    0  0.29964018740E+01 -0.83796538408E+01 -0.87477120598E-01  0.88997008483E+01  0.51100000000E-03 0. -1.
        -11    1    4    4    0    0 -0.55384768927E+01  0.18056315261E+01 -0.48728946902E+01  0.75947438681E+01  0.51100000000E-03 0.  1.
         12    1    4    4    0    0 -0.12835421102E+02  0.30494330225E+02 -0.18430496172E+02  0.37872620716E+02  0.00000000000E+00 0. -1.
</event>
<event>
 8    1  0.2402194E-006  0.9118800E+02  0.7816164E-02  0.1184000E+00
        -11   -1    0    0    0    0  0.00000000000E+00  0.00000000000E+00  0.45593999997E+02  0.45594000000E+02  0.51100000000E-03 0. -1.
         11   -1    0    0    0    0 -0.00000000000E+00 -0.00000000000E+00 -0.45593999997E+02  0.45594000000E+02  0.51100000000E-03 0.  1.
         23    2    1    2    0    0 -0.17763568394E-14 -0.44408920985E-15  0.00000000000E+00  0.91188000000E+02  0.91188000000E+02 0.  0.
    9900012    2    3    3    0    0 -0.83854072850E+01  0.59824208603E+00 -0.35848382805E+02  0.54367088840E+02  0.40000010628E+02 0.  0.
         12    1    3    3    0    0  0.83854072850E+01 -0.59824208603E+00  0.35848382805E+02  0.36820911160E+02  0.00000000000E+00 0. -1.
         11    1    4    4    0    0 -0.10052587689E+02  0.68257579730E+01 -0.91534980817E+01  0.15212889881E+02  0.51100000000E-03 0. -1.
        -11    1    4    4    0    0  0.70455731188E+01 -0.15630780703E+02 -0.20312113324E+02  0.26580883241E+02  0.51100000000E-03 0.  1.
        -12    1    4    4    0    0 -0.53783927150E+01  0.94032648157E+01 -0.63827713996E+01  0.12573315717E+02  0.00000000000E+00 0.  1.
</event>
<event>
 8    1  0.2402194E-006  0.9118800E+02  0.7816164E-02  0.1184000E+00
        -11   -1    0    0    0    0  0.00000000000E+00  0.00000000000E+00  0.45593999997E+02  0.45594000000E+02  0.51100000000E-03 0. -1.
         11   -1    0    0    0    0 -0.00000000000E+00 -0.00000000000E+00 -0.45593999997E+02  0.45594000000E+02  0.51100000000E-03 0.  1.
         23    2    1    2    0    0  0.44408920985E-15 -0.35527136788E-14 -0.71054273576E-14  0.91188000000E+02  0.91188000000E+02 0.  0.
    9900012    2    3    3    0    0 -0.35257454331E+01 -0.28122111543E+02  0.23505261409E+02  0.54367063668E+02  0.39999953243E+02 0.  0.
        -12    1    3    3    0    0  0.35257454331E+01  0.28122111543E+02 -0.23505261409E+02  0.36820936332E+02  0.00000000000E+00 0.  1.
         11    1    4    4    0    0 -0.13705649971E+02 -0.24471639771E+02  0.20710871397E+01  0.28124640379E+02  0.51100000000E-03 0. -1.
        -11    1    4    4    0    0  0.19749429284E+01  0.12115992719E+01 -0.45904352361E+00  0.23620104961E+01  0.51100000000E-03 0.  1.
         12    1    4    4    0    0  0.82049616093E+01 -0.48620710438E+01  0.21893217792E+02  0.23880412793E+02  0.00000000000E+00 0. -1.
</event>
<event>
 8    1  0.2402194E-006  0.9118800E+02  0.7816164E-02  0.1184000E+00
        -11   -1    0    0    0    0  0.00000000000E+00  0.00000000000E+00  0.45593999997E+02  0.45594000000E+02  0.51100000000E-03 0.  1.
         11   -1    0    0    0    0 -0.00000000000E+00 -0.00000000000E+00 -0.45593999997E+02  0.45594000000E+02  0.51100000000E-03 0. -1.
         23    2    1    2    0    0  0.00000000000E+00 -0.88817841970E-15  0.00000000000E+00  0.91188000000E+02  0.91188000000E+02 0.  0.
    9900012    2    3    3    0    0 -0.25689104788E+02  0.62040035408E+01  0.25639054219E+02  0.54367070273E+02  0.39999968301E+02 0.  0.
         12    1    3    3    0    0  0.25689104788E+02 -0.62040035408E+01 -0.25639054219E+02  0.36820929727E+02  0.00000000000E+00 0. -1.
         11    1    4    4    0    0 -0.19122077124E+02  0.18110436345E+02  0.73533489043E+01  0.27344350029E+02  0.51100000000E-03 0.  1.
        -11    1    4    4    0    0 -0.86425190735E+01 -0.13367836017E+01  0.56169774899E+01  0.10393775191E+02  0.51100000000E-03 0. -1.
         12    1    4    4    0    0  0.20754914103E+01 -0.10569649203E+02  0.12668727825E+02  0.16628945053E+02  0.00000000000E+00 0. -1.
</event>
<event>
 8    1  0.2402194E-006  0.9118800E+02  0.7816164E-02  0.1184000E+00
        -11   -1    0    0    0    0  0.00000000000E+00  0.00000000000E+00  0.45593999997E+02  0.45594000000E+02  0.51100000000E-03 0.  1.
         11   -1    0    0    0    0 -0.00000000000E+00 -0.00000000000E+00 -0.45593999997E+02  0.45594000000E+02  0.51100000000E-03 0. -1.
         23    2    1    2    0    0  0.00000000000E+00  0.88817841970E-15  0.00000000000E+00  0.91188000000E+02  0.91188000000E+02 0.  0.
    9900012    2    3    3    0    0  0.35849438131E+02 -0.77527903521E+01 -0.32390681206E+01  0.54367088348E+02  0.40000009507E+02 0.  0.
        -12    1    3    3    0    0 -0.35849438131E+02  0.77527903521E+01  0.32390681206E+01  0.36820911652E+02  0.00000000000E+00 0.  1.
         11    1    4    4    0    0  0.17064767724E+02  0.79384327941E+01 -0.10394977638E+02  0.21500710990E+02  0.51100000000E-03 0. -1.
        -11    1    4    4    0    0  0.22213924910E+02 -0.15456145280E+02  0.95276952252E+01  0.28690205008E+02  0.51100000000E-03 0.  1.
        -12    1    4    4    0    0 -0.34292545036E+01 -0.23507786606E+00 -0.23717857077E+01  0.41761723500E+01  0.00000000000E+00 0.  1.
</event>
<event>
 8    1  0.2402194E-006  0.9118800E+02  0.7816164E-02  0.1184000E+00
        -11   -1    0    0    0    0  0.00000000000E+00  0.00000000000E+00  0.45593999997E+02  0.45594000000E+02  0.51100000000E-03 0.  1.
         11   -1    0    0    0    0 -0.00000000000E+00 -0.00000000000E+00 -0.45593999997E+02  0.45594000000E+02  0.51100000000E-03 0. -1.
         23    2    1    2    0    0  0.17763568394E-14  0.00000000000E+00  0.48849813084E-14  0.91188000000E+02  0.91188000000E+02 0.  0.
    9900012    2    3    3    0    0 -0.12082882124E+02  0.34657245676E+02 -0.29440023567E+01  0.54366975188E+02  0.39999751536E+02 0.  0.
         12    1    3    3    0    0  0.12082882124E+02 -0.34657245676E+02  0.29440023567E+01  0.36821024812E+02  0.00000000000E+00 0. -1.
         11    1    4    4    0    0 -0.45395538249E+01 -0.17386243967E+01 -0.12676568334E+00  0.48627598667E+01  0.51100000000E-03 0. -1.
        -11    1    4    4    0    0  0.95934988340E-01  0.65240448503E+01  0.13225304744E+02  0.14747238744E+02  0.51100000000E-03 0.  1.
        -12    1    4    4    0    0 -0.76392632877E+01  0.29871825223E+02 -0.16042541417E+02  0.34756976578E+02  0.00000000000E+00 0.  1.
</event>
<event>
 8    1  0.2402194E-006  0.9118800E+02  0.7816164E-02  0.1184000E+00
        -11   -1    0    0    0    0  0.00000000000E+00  0.00000000000E+00  0.45593999997E+02  0.45594000000E+02  0.51100000000E-03 0.  1.
         11   -1    0    0    0    0 -0.00000000000E+00 -0.00000000000E+00 -0.45593999997E+02  0.45594000000E+02  0.51100000000E-03 0. -1.
         23    2    1    2    0    0 -0.17763568394E-14 -0.17763568394E-14  0.00000000000E+00  0.91188000000E+02  0.91188000000E+02 0.  0.
    9900012    2    3    3    0    0  0.15600965335E+02 -0.15994789302E+02 -0.29267000241E+02  0.54367072428E+02  0.39999973214E+02 0.  0.
        -12    1    3    3    0    0 -0.15600965335E+02  0.15994789302E+02  0.29267000241E+02  0.36820927572E+02  0.00000000000E+00 0.  1.
         11    1    4    4    0    0  0.28503085101E+00 -0.30738992402E+00  0.67895300663E+01  0.68024591093E+01  0.51100000000E-03 0.  1.
        -11    1    4    4    0    0  0.30917365573E+01 -0.18153847743E+02 -0.19288816122E+02  0.26667947999E+02  0.51100000000E-03 0. -1.
         12    1    4    4    0    0  0.12224197927E+02  0.24664483655E+01 -0.16767714185E+02  0.20896665320E+02  0.00000000000E+00 0. -1.
</event>
<event>
 8    1  0.2402194E-006  0.9118800E+02  0.7816164E-02  0.1184000E+00
        -11   -1    0    0    0    0  0.00000000000E+00  0.00000000000E+00  0.45593999997E+02  0.45594000000E+02  0.51100000000E-03 0.  1.
         11   -1    0    0    0    0 -0.00000000000E+00 -0.00000000000E+00 -0.45593999997E+02  0.45594000000E+02  0.51100000000E-03 0. -1.
         23    2    1    2    0    0 -0.27755575616E-15  0.00000000000E+00 -0.35527136788E-14  0.91188000000E+02  0.91188000000E+02 0.  0.
    9900012    2    3    3    0    0 -0.34464456212E+00  0.35440237323E+02  0.99825752248E+01  0.54367068324E+02  0.39999963857E+02 0.  0.
        -12    1    3    3    0    0  0.34464456212E+00 -0.35440237323E+02 -0.99825752248E+01  0.36820931676E+02  0.00000000000E+00 0.  1.
         11    1    4    4    0    0 -0.45924588916E+01  0.25544733549E+02  0.17988974643E+02  0.31578905930E+02  0.51100000000E-03 0. -1.
        -11    1    4    4    0    0 -0.43779202430E+01 -0.32429335040E+01 -0.83262919491E+00  0.55114494466E+01  0.51100000000E-03 0.  1.
        -12    1    4    4    0    0  0.86257345725E+01  0.13138437278E+02 -0.71737702236E+01  0.17276712947E+02  0.00000000000E+00 0.  1.
</event>
<event>
 8    1  0.2402194E-006  0.9118800E+02  0.7816164E-02  0.1184000E+00
        -11   -1    0    0    0    0  0.00000000000E+00  0.00000000000E+00  0.45593999997E+02  0.45594000000E+02  0.51100000000E-03 0. -1.
         11   -1    0    0    0    0 -0.00000000000E+00 -0.00000000000E+00 -0.45593999997E+02  0.45594000000E+02  0.51100000000E-03 0.  1.
         23    2    1    2    0    0  0.35527136788E-14 -0.22204460493E-15  0.00000000000E+00  0.91188000000E+02  0.91188000000E+02 0.  0.
    9900012    2    3    3    0    0 -0.10432376598E+02 -0.53361453883E+00 -0.35308072526E+02  0.54367092740E+02  0.40000019519E+02 0.  0.
         12    1    3    3    0    0  0.10432376598E+02  0.53361453883E+00  0.35308072526E+02  0.36820907260E+02  0.00000000000E+00 0. -1.
         11    1    4    4    0    0  0.20114085533E+01 -0.83303137955E-01  0.31504686445E+01  0.37387373166E+01  0.51100000000E-03 0. -1.
        -11    1    4    4    0    0  0.60908383955E+01  0.27758131829E+01 -0.28630729199E+02  0.29402756774E+02  0.51100000000E-03 0.  1.
         12    1    4    4    0    0 -0.18534623547E+02 -0.32261245837E+01 -0.98278119717E+01  0.21225598649E+02  0.00000000000E+00 0. -1.
</event>
<event>
 8    1  0.2402194E-006  0.9118800E+02  0.7816164E-02  0.1184000E+00
        -11   -1    0    0    0    0  0.00000000000E+00  0.00000000000E+00  0.45593999997E+02  0.45594000000E+02  0.51100000000E-03 0. -1.
         11   -1    0    0    0    0 -0.00000000000E+00 -0.00000000000E+00 -0.45593999997E+02  0.45594000000E+02  0.51100000000E-03 0.  1.
         23    2    1    2    0    0  0.00000000000E+00  0.44408920985E-14  0.00000000000E+00  0.91188000000E+02  0.91188000000E+02 0.  0.
    9900012    2    3    3    0    0 -0.13813265270E+02 -0.71977132432E+01 -0.33364112498E+02  0.54367117662E+02  0.40000076334E+02 0.  0.
         12    1    3    3    0    0  0.13813265270E+02  0.71977132432E+01  0.33364112498E+02  0.36820882338E+02  0.00000000000E+00 0. -1.
         11    1    4    4    0    0  0.23721052810E+01  0.69428529988E+01 -0.47377499440E+01  0.87336341818E+01  0.51100000000E-03 0. -1.
        -11    1    4    4    0    0 -0.86671287386E+01  0.53947590178E+01 -0.21009636305E+02  0.23358667842E+02  0.51100000000E-03 0.  1.
        -12    1    4    4    0    0 -0.75182418123E+01 -0.19535325260E+02 -0.76167262495E+01  0.22274815638E+02  0.00000000000E+00 0.  1.
</event>
<event>
 8    1  0.2402194E-006  0.9118800E+02  0.7816164E-02  0.1184000E+00
        -11   -1    0    0    0    0  0.00000000000E+00  0.00000000000E+00  0.45593999997E+02  0.45594000000E+02  0.51100000000E-03 0. -1.
         11   -1    0    0    0    0 -0.00000000000E+00 -0.00000000000E+00 -0.45593999997E+02  0.45594000000E+02  0.51100000000E-03 0.  1.
         23    2    1    2    0    0  0.35527136788E-14  0.00000000000E+00  0.00000000000E+00  0.91188000000E+02  0.91188000000E+02 0.  0.
    9900012    2    3    3    0    0 -0.18465377480E+02  0.30619681398E+02 -0.87888754385E+01  0.54367090372E+02  0.40000014120E+02 0.  0.
         12    1    3    3    0    0  0.18465377480E+02 -0.30619681398E+02  0.87888754385E+01  0.36820909628E+02  0.00000000000E+00 0. -1.
         11    1    4    4    0    0 -0.11076612643E+02  0.16886952846E+02  0.11813589562E+02  0.23397038758E+02  0.51100000000E-03 0. -1.
        -11    1    4    4    0    0  0.18112804982E+01  0.11364359742E+02 -0.46678798526E+01  0.12418474623E+02  0.51100000000E-03 0.  1.
         12    1    4    4    0    0 -0.92000453356E+01  0.23683688094E+01 -0.15934585147E+02  0.18551576990E+02  0.00000000000E+00 0. -1.
</event>
<event>
 8    1  0.2402194E-006  0.9118800E+02  0.7816164E-02  0.1184000E+00
        -11   -1    0    0    0    0  0.00000000000E+00  0.00000000000E+00  0.45593999997E+02  0.45594000000E+02  0.51100000000E-03 0.  1.
         11   -1    0    0    0    0 -0.00000000000E+00 -0.00000000000E+00 -0.45593999997E+02  0.45594000000E+02  0.51100000000E-03 0. -1.
         23    2    1    2    0    0 -0.71054273576E-14 -0.17763568394E-14  0.00000000000E+00  0.91188000000E+02  0.91188000000E+02 0.  0.
    9900012    2    3    3    0    0 -0.34007340187E+02 -0.81761864368E+01 -0.11507908794E+02  0.54367066062E+02  0.39999958702E+02 0.  0.
        -12    1    3    3    0    0  0.34007340187E+02  0.81761864368E+01  0.11507908794E+02  0.36820933938E+02  0.00000000000E+00 0.  1.
         11    1    4    4    0    0 -0.30818154283E+02 -0.44068275044E+01 -0.21202896323E+02  0.37666186093E+02  0.51100000000E-03 0. -1.
        -11    1    4    4    0    0  0.15590987761E+01  0.40167912554E+01  0.19220287901E+01  0.47180076212E+01  0.51100000000E-03 0.  1.
         12    1    4    4    0    0 -0.47482846804E+01 -0.77861501877E+01  0.77729587392E+01  0.11982872348E+02  0.00000000000E+00 0. -1.
</event>
<event>
 8    1  0.2402194E-006  0.9118800E+02  0.7816164E-02  0.1184000E+00
        -11   -1    0    0    0    0  0.00000000000E+00  0.00000000000E+00  0.45593999997E+02  0.45594000000E+02  0.51100000000E-03 0.  1.
         11   -1    0    0    0    0 -0.00000000000E+00 -0.00000000000E+00 -0.45593999997E+02  0.45594000000E+02  0.51100000000E-03 0. -1.
         23    2    1    2    0    0 -0.35527136788E-14  0.17763568394E-14  0.00000000000E+00  0.91188000000E+02  0.91188000000E+02 0.  0.
    9900012    2    3    3    0    0 -0.30853473274E+02  0.12352060319E+02 -0.15851492150E+02  0.54367081889E+02  0.39999994781E+02 0.  0.
         12    1    3    3    0    0  0.30853473274E+02 -0.12352060319E+02  0.15851492150E+02  0.36820918111E+02  0.00000000000E+00 0. -1.
         11    1    4    4    0    0 -0.12055176476E+02  0.55535347213E+01 -0.12054905813E+02  0.17930136145E+02  0.51100000000E-03 0. -1.
        -11    1    4    4    0    0 -0.12749324059E+02  0.16815865275E+02 -0.98201639236E+01  0.23275614034E+02  0.51100000000E-03 0.  1.
        -12    1    4    4    0    0 -0.60489727391E+01 -0.10017339677E+02  0.60235775868E+01  0.13161331709E+02  0.00000000000E+00 0.  1.
</event>
<event>
 8    1  0.2402194E-006  0.9118800E+02  0.7816164E-02  0.1184000E+00
        -11   -1    0    0    0    0  0.00000000000E+00  0.00000000000E+00  0.45593999997E+02  0.45594000000E+02  0.51100000000E-03 0. -1.
         11   -1    0    0    0    0 -0.00000000000E+00 -0.00000000000E+00 -0.45593999997E+02  0.45594000000E+02  0.51100000000E-03 0.  1.
         23    2    1    2    0    0  0.44408920985E-15  0.00000000000E+00 -0.71054273576E-14  0.91188000000E+02  0.91188000000E+02 0.  0.
    9900012    2    3    3    0    0 -0.31477126397E+01  0.50520492720E+01  0.36336599013E+02  0.54367085773E+02  0.40000003636E+02 0.  0.
        -12    1    3    3    0    0  0.31477126397E+01 -0.50520492720E+01 -0.36336599013E+02  0.36820914227E+02  0.00000000000E+00 0.  1.
         11    1    4    4    0    0 -0.25264698561E+01 -0.73375344568E+01  0.36443273461E+01  0.85734231148E+01  0.51100000000E-03 0. -1.
        -11    1    4    4    0    0  0.11034522265E+02  0.10770209015E+02  0.29986821913E+02  0.33718949755E+02  0.51100000000E-03 0.  1.
        -12    1    4    4    0    0 -0.11655765048E+02  0.16193747134E+01  0.27054497537E+01  0.12074712903E+02  0.00000000000E+00 0.  1.
</event>
<event>
 8    1  0.2402194E-006  0.9118800E+02  0.7816164E-02  0.1184000E+00
        -11   -1    0    0    0    0  0.00000000000E+00  0.00000000000E+00  0.45593999997E+02  0.45594000000E+02  0.51100000000E-03 0. -1.
         11   -1    0    0    0    0 -0.00000000000E+00 -0.00000000000E+00 -0.45593999997E+02  0.45594000000E+02  0.51100000000E-03 0.  1.
         23    2    1    2    0    0 -0.26645352591E-14 -0.35527136788E-14  0.00000000000E+00  0.91188000000E+02  0.91188000000E+02 0.  0.
    9900012    2    3    3    0    0  0.54441612322E+01 -0.19454572337E+02 -0.30784097218E+02  0.54367083147E+02  0.39999997651E+02 0.  0.
         12    1    3    3    0    0 -0.54441612322E+01  0.19454572337E+02  0.30784097218E+02  0.36820916853E+02  0.00000000000E+00 0. -1.
         11    1    4    4    0    0 -0.12916271551E+02 -0.75515638195E+01 -0.13648190286E+02  0.20251648952E+02  0.51100000000E-03 0. -1.
        -11    1    4    4    0    0 -0.15104464837E+01 -0.22766960951E+00 -0.98156551244E+01  0.99337992637E+01  0.51100000000E-03 0.  1.
         12    1    4    4    0    0  0.19870879267E+02 -0.11675338908E+02 -0.73202518073E+01  0.24181634932E+02  0.00000000000E+00 0. -1.
</event>
<event>
 8    1  0.2402194E-006  0.9118800E+02  0.7816164E-02  0.1184000E+00
        -11   -1    0    0    0    0  0.00000000000E+00  0.00000000000E+00  0.45593999997E+02  0.45594000000E+02  0.51100000000E-03 0.  1.
         11   -1    0    0    0    0 -0.00000000000E+00 -0.00000000000E+00 -0.45593999997E+02  0.45594000000E+02  0.51100000000E-03 0. -1.
         23    2    1    2    0    0  0.17763568394E-14  0.88817841970E-15  0.00000000000E+00  0.91188000000E+02  0.91188000000E+02 0.  0.
    9900012    2    3    3    0    0 -0.61770394237E+01  0.74760930841E+01  0.35520866745E+02  0.54367085316E+02  0.40000002595E+02 0.  0.
         12    1    3    3    0    0  0.61770394237E+01 -0.74760930841E+01 -0.35520866745E+02  0.36820914684E+02  0.00000000000E+00 0. -1.
         11    1    4    4    0    0  0.17694965697E+01  0.19083541899E+02  0.15209785927E+02  0.24467330826E+02  0.51100000000E-03 0. -1.
        -11    1    4    4    0    0 -0.10308603113E+02 -0.15388940327E+01  0.53597651893E+01  0.11720178161E+02  0.51100000000E-03 0.  1.
         12    1    4    4    0    0  0.23620671198E+01 -0.10068554782E+02  0.14951315629E+02  0.18179576329E+02  0.00000000000E+00 0. -1.
</event>
<event>
 8    1  0.2402194E-006  0.9118800E+02  0.7816164E-02  0.1184000E+00
        -11   -1    0    0    0    0  0.00000000000E+00  0.00000000000E+00  0.45593999997E+02  0.45594000000E+02  0.51100000000E-03 0.  1.
         11   -1    0    0    0    0 -0.00000000000E+00 -0.00000000000E+00 -0.45593999997E+02  0.45594000000E+02  0.51100000000E-03 0. -1.
         23    2    1    2    0    0  0.00000000000E+00 -0.17763568394E-14  0.00000000000E+00  0.91188000000E+02  0.91188000000E+02 0.  0.
    9900012    2    3    3    0    0  0.26247046496E+02  0.15481040678E+02 -0.20669055807E+02  0.54367082871E+02  0.39999997022E+02 0.  0.
        -12    1    3    3    0    0 -0.26247046496E+02 -0.15481040678E+02  0.20669055807E+02  0.36820917129E+02  0.00000000000E+00 0.  1.
         11    1    4    4    0    0  0.94641203295E+01  0.18569833692E+02 -0.12625590521E+02  0.24368295657E+02  0.51100000000E-03 0. -1.
        -11    1    4    4    0    0  0.77880101253E+01  0.77655151111E+01 -0.11043926443E+02  0.15586039849E+02  0.51100000000E-03 0.  1.
        -12    1    4    4    0    0  0.89949160417E+01 -0.10854308125E+02  0.30004611570E+01  0.14412747365E+02  0.00000000000E+00 0.  1.
</event>
<event>
 8    1  0.2402194E-006  0.9118800E+02  0.7816164E-02  0.1184000E+00
        -11   -1    0    0    0    0  0.00000000000E+00  0.00000000000E+00  0.45593999997E+02  0.45594000000E+02  0.51100000000E-03 0.  1.
         11   -1    0    0    0    0 -0.00000000000E+00 -0.00000000000E+00 -0.45593999997E+02  0.45594000000E+02  0.51100000000E-03 0. -1.
         23    2    1    2    0    0 -0.17763568394E-14  0.00000000000E+00 -0.17763568394E-14  0.91188000000E+02  0.91188000000E+02 0.  0.
    9900012    2    3    3    0    0  0.83187080804E+01 -0.33923968838E+02  0.11650811705E+02  0.54367109472E+02  0.40000057664E+02 0.  0.
         12    1    3    3    0    0 -0.83187080804E+01  0.33923968838E+02 -0.11650811705E+02  0.36820890528E+02  0.00000000000E+00 0. -1.
         11    1    4    4    0    0  0.45433146833E+01 -0.12016099575E+02  0.55628247872E+01  0.13999049153E+02  0.51100000000E-03 0. -1.
        -11    1    4    4    0    0  0.63445819353E+01 -0.29039301590E+02  0.10586894433E+02  0.31553400621E+02  0.51100000000E-03 0.  1.
         12    1    4    4    0    0 -0.25691885382E+01  0.71314323266E+01 -0.44989075146E+01  0.88146596984E+01  0.00000000000E+00 0. -1.
</event>
<event>
 8    1  0.2402194E-006  0.9118800E+02  0.7816164E-02  0.1184000E+00
        -11   -1    0    0    0    0  0.00000000000E+00  0.00000000000E+00  0.45593999997E+02  0.45594000000E+02  0.51100000000E-03 0. -1.
         11   -1    0    0    0    0 -0.00000000000E+00 -0.00000000000E+00 -0.45593999997E+02  0.45594000000E+02  0.51100000000E-03 0.  1.
         23    2    1    2    0    0  0.00000000000E+00  0.17763568394E-14 -0.35527136788E-14  0.91188000000E+02  0.91188000000E+02 0.  0.
    9900012    2    3    3    0    0  0.32303423898E+02 -0.15538181379E+02  0.84161925505E+01  0.54367101408E+02  0.40000039279E+02 0.  0.
        -12    1    3    3    0    0 -0.32303423898E+02  0.15538181379E+02 -0.84161925505E+01  0.36820898592E+02  0.00000000000E+00 0.  1.
         11    1    4    4    0    0  0.24659836249E+02 -0.11334021677E+02  0.16917523316E+02  0.31980778080E+02  0.51100000000E-03 0. -1.
        -11    1    4    4    0    0  0.11677831042E+02  0.32079294499E+01 -0.36317071464E+01  0.12643252994E+02  0.51100000000E-03 0.  1.
         12    1    4    4    0    0 -0.40342433925E+01 -0.74120891517E+01 -0.48696236190E+01  0.97430703340E+01  0.00000000000E+00 0. -1.
</event>
<event>
 8    1  0.2402194E-006  0.9118800E+02  0.7816164E-02  0.1184000E+00
        -11   -1    0    0    0    0  0.00000000000E+00  0.00000000000E+00  0.45593999997E+02  0.45594000000E+02  0.51100000000E-03 0. -1.
         11   -1    0    0    0    0 -0.00000000000E+00 -0.00000000000E+00 -0.45593999997E+02  0.45594000000E+02  0.51100000000E-03 0.  1.
         23    2    1    2    0    0  0.00000000000E+00  0.71054273576E-14  0.88817841970E-15  0.91188000000E+02  0.91188000000E+02 0.  0.
    9900012    2    3    3    0    0 -0.76811292729E+00  0.36552481604E+02  0.43707633138E+01  0.54367116240E+02  0.40000073093E+02 0.  0.
        -12    1    3    3    0    0  0.76811292729E+00 -0.36552481604E+02 -0.43707633138E+01  0.36820883760E+02  0.00000000000E+00 0.  1.
         11    1    4    4    0    0  0.28769566913E+01  0.24947216847E+00  0.37402931470E+01  0.47253475273E+01  0.51100000000E-03 0. -1.
        -11    1    4    4    0    0 -0.13370433119E+01 -0.65047342897E+01  0.12992614500E+01  0.67666338436E+01  0.51100000000E-03 0.  1.
         12    1    4    4    0    0 -0.23080263067E+01  0.42807743725E+02 -0.66879128327E+00  0.42875134869E+02  0.00000000000E+00 0. -1.
</event>
<event>
 8    1  0.2402194E-006  0.9118800E+02  0.7816164E-02  0.1184000E+00
        -11   -1    0    0    0    0  0.00000000000E+00  0.00000000000E+00  0.45593999997E+02  0.45594000000E+02  0.51100000000E-03 0.  1.
         11   -1    0    0    0    0 -0.00000000000E+00 -0.00000000000E+00 -0.45593999997E+02  0.45594000000E+02  0.51100000000E-03 0. -1.
         23    2    1    2    0    0  0.00000000000E+00  0.00000000000E+00  0.35527136788E-14  0.91188000000E+02  0.91188000000E+02 0.  0.
    9900012    2    3    3    0    0  0.19143182301E+02  0.17848290407E+02 -0.25898974120E+02  0.54367085297E+02  0.40000002553E+02 0.  0.
        -12    1    3    3    0    0 -0.19143182301E+02 -0.17848290407E+02  0.25898974120E+02  0.36820914703E+02  0.00000000000E+00 0.  1.
         11    1    4    4    0    0 -0.71497559702E+00 -0.31483492957E+00 -0.77919628548E+01  0.78310278079E+01  0.51100000000E-03 0. -1.
        -11    1    4    4    0    0 -0.48360237558E+01 -0.11529451836E+01  0.54079633605E+01  0.73459156225E+01  0.51100000000E-03 0.  1.
        -12    1    4    4    0    0  0.24694181654E+02  0.19316070520E+02 -0.23514974626E+02  0.39190141867E+02  0.00000000000E+00 0.  1.
</event>
<event>
 8    1  0.2402194E-006  0.9118800E+02  0.7816164E-02  0.1184000E+00
        -11   -1    0    0    0    0  0.00000000000E+00  0.00000000000E+00  0.45593999997E+02  0.45594000000E+02  0.51100000000E-03 0.  1.
         11   -1    0    0    0    0 -0.00000000000E+00 -0.00000000000E+00 -0.45593999997E+02  0.45594000000E+02  0.51100000000E-03 0. -1.
         23    2    1    2    0    0  0.00000000000E+00  0.00000000000E+00 -0.17763568394E-14  0.91188000000E+02  0.91188000000E+02 0.  0.
    9900012    2    3    3    0    0 -0.29308336234E+02 -0.19869706748E+02 -0.10099261570E+02  0.54367096924E+02  0.40000029058E+02 0.  0.
        -12    1    3    3    0    0  0.29308336234E+02  0.19869706748E+02  0.10099261570E+02  0.36820903076E+02  0.00000000000E+00 0.  1.
         11    1    4    4    0    0 -0.24112206453E+02  0.41548525252E+01 -0.10269928964E+02  0.26535499632E+02  0.51100000000E-03 0. -1.
        -11    1    4    4    0    0 -0.23601027027E+01 -0.14380906401E+02  0.64954769342E+01  0.15955305530E+02  0.51100000000E-03 0.  1.
        -12    1    4    4    0    0 -0.28360270781E+01 -0.96436528720E+01 -0.63248095407E+01  0.11876291762E+02  0.00000000000E+00 0.  1.
</event>
<event>
 8    1  0.2402194E-006  0.9118800E+02  0.7816164E-02  0.1184000E+00
        -11   -1    0    0    0    0  0.00000000000E+00  0.00000000000E+00  0.45593999997E+02  0.45594000000E+02  0.51100000000E-03 0. -1.
         11   -1    0    0    0    0 -0.00000000000E+00 -0.00000000000E+00 -0.45593999997E+02  0.45594000000E+02  0.51100000000E-03 0.  1.
         23    2    1    2    0    0 -0.17763568394E-14  0.00000000000E+00  0.00000000000E+00  0.91188000000E+02  0.91188000000E+02 0.  0.
    9900012    2    3    3    0    0 -0.15384155303E+02 -0.32172794381E+02 -0.91661974043E+01  0.54367080572E+02  0.39999991780E+02 0.  0.
        -12    1    3    3    0    0  0.15384155303E+02  0.32172794381E+02  0.91661974043E+01  0.36820919428E+02  0.00000000000E+00 0.  1.
         11    1    4    4    0    0 -0.13063146036E+02  0.33568959148E+01 -0.71883529729E+01  0.15283551723E+02  0.51100000000E-03 0. -1.
        -11    1    4    4    0    0  0.61442360062E+01 -0.92538884200E+01 -0.28366565186E+01  0.11464410471E+02  0.51100000000E-03 0.  1.
         12    1    4    4    0    0 -0.84652452734E+01 -0.26275801876E+02  0.85881208726E+00  0.27619118378E+02  0.00000000000E+00 0. -1.
</event>
<event>
 8    1  0.2402194E-006  0.9118800E+02  0.7816164E-02  0.1184000E+00
        -11   -1    0    0    0    0  0.00000000000E+00  0.00000000000E+00  0.45593999997E+02  0.45594000000E+02  0.51100000000E-03 0. -1.
         11   -1    0    0    0    0 -0.00000000000E+00 -0.00000000000E+00 -0.45593999997E+02  0.45594000000E+02  0.51100000000E-03 0.  1.
         23    2    1    2    0    0  0.88817841970E-15  0.00000000000E+00  0.35527136788E-14  0.91188000000E+02  0.91188000000E+02 0.  0.
    9900012    2    3    3    0    0  0.34353411347E+01  0.28087208213E+02  0.23560272172E+02  0.54367092098E+02  0.40000018056E+02 0.  0.
        -12    1    3    3    0    0 -0.34353411347E+01 -0.28087208213E+02 -0.23560272172E+02  0.36820907902E+02  0.00000000000E+00 0.  1.
         11    1    4    4    0    0  0.36676689195E+01  0.15430406628E+02  0.28013735822E+01  0.16105804489E+02  0.51100000000E-03 0. -1.
        -11    1    4    4    0    0 -0.94687490002E+01  0.92569247695E+01 -0.20684885674E+01  0.13402481451E+02  0.51100000000E-03 0.  1.
        -12    1    4    4    0    0  0.92364212154E+01  0.33998768155E+01  0.22827387157E+02  0.24858806159E+02  0.00000000000E+00 0.  1.
</event>
<event>
 8    1  0.2402194E-006  0.9118800E+02  0.7816164E-02  0.1184000E+00
        -11   -1    0    0    0    0  0.00000000000E+00  0.00000000000E+00  0.45593999997E+02  0.45594000000E+02  0.51100000000E-03 0. -1.
         11   -1    0    0    0    0 -0.00000000000E+00 -0.00000000000E+00 -0.45593999997E+02  0.45594000000E+02  0.51100000000E-03 0.  1.
         23    2    1    2    0    0  0.00000000000E+00  0.00000000000E+00  0.17763568394E-14  0.91188000000E+02  0.91188000000E+02 0.  0.
    9900012    2    3    3    0    0 -0.33661139415E+02 -0.14309759667E+02 -0.42351458285E+01  0.54367109345E+02  0.40000057374E+02 0.  0.
        -12    1    3    3    0    0  0.33661139415E+02  0.14309759667E+02  0.42351458285E+01  0.36820890655E+02  0.00000000000E+00 0.  1.
         11    1    4    4    0    0 -0.12385917115E+02 -0.15261384535E+02  0.66590057230E+01  0.20752425357E+02  0.51100000000E-03 0. -1.
        -11    1    4    4    0    0 -0.44822027385E+01 -0.10009288117E+02 -0.74736588966E+01  0.13271456874E+02  0.51100000000E-03 0.  1.
         12    1    4    4    0    0 -0.16793019561E+02  0.10960912984E+02 -0.34204926549E+01  0.20343227114E+02  0.00000000000E+00 0. -1.
</event>
<event>
 8    1  0.2402194E-006  0.9118800E+02  0.7816164E-02  0.1184000E+00
        -11   -1    0    0    0    0  0.00000000000E+00  0.00000000000E+00  0.45593999997E+02  0.45594000000E+02  0.51100000000E-03 0.  1.
         11   -1    0    0    0    0 -0.00000000000E+00 -0.00000000000E+00 -0.45593999997E+02  0.45594000000E+02  0.51100000000E-03 0. -1.
         23    2    1    2    0    0 -0.17763568394E-14  0.71054273576E-14 -0.44408920985E-15  0.91188000000E+02  0.91188000000E+02 0.  0.
    9900012    2    3    3    0    0 -0.63643681203E+01  0.36250513183E+02 -0.10833838657E+01  0.54367100932E+02  0.40000038194E+02 0.  0.
        -12    1    3    3    0    0  0.63643681203E+01 -0.36250513183E+02  0.10833838657E+01  0.36820899068E+02  0.00000000000E+00 0.  1.
         11    1    4    4    0    0 -0.12627810897E+02  0.47624111190E+01 -0.58843980618E+01  0.14723053642E+02  0.51100000000E-03 0. -1.
        -11    1    4    4    0    0 -0.22189290690E+01  0.13920145916E+02  0.12335361064E+02  0.18731130275E+02  0.51100000000E-03 0.  1.
         12    1    4    4    0    0  0.84823718461E+01  0.17567956148E+02 -0.75343468678E+01  0.20912917015E+02  0.00000000000E+00 0. -1.
</event>
<event>
 8    1  0.2402194E-006  0.9118800E+02  0.7816164E-02  0.1184000E+00
        -11   -1    0    0    0    0  0.00000000000E+00  0.00000000000E+00  0.45593999997E+02  0.45594000000E+02  0.51100000000E-03 0.  1.
         11   -1    0    0    0    0 -0.00000000000E+00 -0.00000000000E+00 -0.45593999997E+02  0.45594000000E+02  0.51100000000E-03 0. -1.
         23    2    1    2    0    0  0.22204460493E-15 -0.33306690739E-15  0.00000000000E+00  0.91188000000E+02  0.91188000000E+02 0.  0.
    9900012    2    3    3    0    0  0.11665746875E+01  0.91005632560E+00 -0.36791181599E+02  0.54367080097E+02  0.39999990698E+02 0.  0.
        -12    1    3    3    0    0 -0.11665746875E+01 -0.91005632560E+00  0.36791181599E+02  0.36820919903E+02  0.00000000000E+00 0.  1.
         11    1    4    4    0    0 -0.11221668564E-01  0.11214879468E+02 -0.35088659387E+02  0.36837313491E+02  0.51100000000E-03 0. -1.
        -11    1    4    4    0    0  0.28677949920E+01  0.20151260285E+01  0.26076917335E+01  0.43686425197E+01  0.51100000000E-03 0.  1.
         12    1    4    4    0    0 -0.16899986359E+01 -0.12319949171E+02 -0.43102139462E+01  0.13161124087E+02  0.00000000000E+00 0. -1.
</event>
<event>
 8    1  0.2402194E-006  0.9118800E+02  0.7816164E-02  0.1184000E+00
        -11   -1    0    0    0    0  0.00000000000E+00  0.00000000000E+00  0.45593999997E+02  0.45594000000E+02  0.51100000000E-03 0. -1.
         11   -1    0    0    0    0 -0.00000000000E+00 -0.00000000000E+00 -0.45593999997E+02  0.45594000000E+02  0.51100000000E-03 0.  1.
         23    2    1    2    0    0  0.00000000000E+00  0.00000000000E+00 -0.35527136788E-14  0.91188000000E+02  0.91188000000E+02 0.  0.
    9900012    2    3    3    0    0 -0.12917267208E+02 -0.27233005854E+02 -0.21149154782E+02  0.54367093602E+02  0.40000021484E+02 0.  0.
         12    1    3    3    0    0  0.12917267208E+02  0.27233005854E+02  0.21149154782E+02  0.36820906398E+02  0.00000000000E+00 0. -1.
         11    1    4    4    0    0 -0.30015528751E+01 -0.32619074607E+02 -0.62775694723E+01  0.33352979277E+02  0.51100000000E-03 0.  1.
        -11    1    4    4    0    0 -0.27264614937E+01  0.24752827089E+01 -0.12305190200E+02  0.12844388770E+02  0.51100000000E-03 0. -1.
        -12    1    4    4    0    0 -0.71892528391E+01  0.29107860440E+01 -0.25663951102E+01  0.81697255547E+01  0.00000000000E+00 0.  1.
</event>
<event>
 8    1  0.2402194E-006  0.9118800E+02  0.7816164E-02  0.1184000E+00
        -11   -1    0    0    0    0  0.00000000000E+00  0.00000000000E+00  0.45593999997E+02  0.45594000000E+02  0.51100000000E-03 0. -1.
         11   -1    0    0    0    0 -0.00000000000E+00 -0.00000000000E+00 -0.45593999997E+02  0.45594000000E+02  0.51100000000E-03 0.  1.
         23    2    1    2    0    0  0.17763568394E-14  0.00000000000E+00  0.00000000000E+00  0.91188000000E+02  0.91188000000E+02 0.  0.
    9900012    2    3    3    0    0 -0.13958960697E+02  0.20017161695E+02  0.27572460974E+02  0.54367082708E+02  0.39999996649E+02 0.  0.
        -12    1    3    3    0    0  0.13958960697E+02 -0.20017161695E+02 -0.27572460974E+02  0.36820917292E+02  0.00000000000E+00 0.  1.
         11    1    4    4    0    0 -0.48162793464E+01  0.98873871635E+01  0.12836707258E+02  0.16903787302E+02  0.51100000000E-03 0. -1.
        -11    1    4    4    0    0 -0.10457212404E+02 -0.62646098479E+01 -0.37174980915E+01  0.12744348556E+02  0.51100000000E-03 0.  1.
        -12    1    4    4    0    0  0.13145310536E+01  0.16394384380E+02  0.18453251807E+02  0.24718946850E+02  0.00000000000E+00 0.  1.
</event>
<event>
 8    1  0.2402194E-006  0.9118800E+02  0.7816164E-02  0.1184000E+00
        -11   -1    0    0    0    0  0.00000000000E+00  0.00000000000E+00  0.45593999997E+02  0.45594000000E+02  0.51100000000E-03 0. -1.
         11   -1    0    0    0    0 -0.00000000000E+00 -0.00000000000E+00 -0.45593999997E+02  0.45594000000E+02  0.51100000000E-03 0.  1.
         23    2    1    2    0    0 -0.35527136788E-14 -0.35527136788E-14 -0.44408920985E-15  0.91188000000E+02  0.91188000000E+02 0.  0.
    9900012    2    3    3    0    0 -0.29578754633E+02  0.21692486026E+02 -0.32112739799E+01  0.54367096207E+02  0.40000027422E+02 0.  0.
        -12    1    3    3    0    0  0.29578754633E+02 -0.21692486026E+02  0.32112739799E+01  0.36820903793E+02  0.00000000000E+00 0.  1.
         11    1    4    4    0    0 -0.50722026370E+01 -0.49023968259E+01 -0.15250519670E+01  0.72170990012E+01  0.51100000000E-03 0. -1.
        -11    1    4    4    0    0 -0.13885268086E+02  0.10025373163E+02  0.13889795458E+02  0.22050741370E+02  0.51100000000E-03 0.  1.
         12    1    4    4    0    0 -0.10621283910E+02  0.16569509689E+02 -0.15576017471E+02  0.25099255835E+02  0.00000000000E+00 0. -1.
</event>
<event>
 8    1  0.2402194E-006  0.9118800E+02  0.7816164E-02  0.1184000E+00
        -11   -1    0    0    0    0  0.00000000000E+00  0.00000000000E+00  0.45593999997E+02  0.45594000000E+02  0.51100000000E-03 0.  1.
         11   -1    0    0    0    0 -0.00000000000E+00 -0.00000000000E+00 -0.45593999997E+02  0.45594000000E+02  0.51100000000E-03 0. -1.
         23    2    1    2    0    0  0.00000000000E+00  0.35527136788E-14  0.00000000000E+00  0.91188000000E+02  0.91188000000E+02 0.  0.
    9900012    2    3    3    0    0  0.24828016234E+02 -0.19587990546E+02 -0.18858951106E+02  0.54367084740E+02  0.40000001283E+02 0.  0.
        -12    1    3    3    0    0 -0.24828016234E+02  0.19587990546E+02  0.18858951106E+02  0.36820915260E+02  0.00000000000E+00 0.  1.
         11    1    4    4    0    0  0.65116263965E+01 -0.88095203803E+01 -0.14599156097E+02  0.18252240593E+02  0.51100000000E-03 0. -1.
        -11    1    4    4    0    0  0.13567462360E+02  0.73130402791E+01  0.35974392900E+01  0.15827133750E+02  0.51100000000E-03 0.  1.
        -12    1    4    4    0    0  0.47489274771E+01 -0.18091510445E+02 -0.78572342990E+01  0.20287710398E+02  0.00000000000E+00 0.  1.
</event>
<event>
 8    1  0.2402194E-006  0.9118800E+02  0.7816164E-02  0.1184000E+00
        -11   -1    0    0    0    0  0.00000000000E+00  0.00000000000E+00  0.45593999997E+02  0.45594000000E+02  0.51100000000E-03 0.  1.
         11   -1    0    0    0    0 -0.00000000000E+00 -0.00000000000E+00 -0.45593999997E+02  0.45594000000E+02  0.51100000000E-03 0. -1.
         23    2    1    2    0    0  0.00000000000E+00  0.88817841970E-15  0.88817841970E-15  0.91188000000E+02  0.91188000000E+02 0.  0.
    9900012    2    3    3    0    0 -0.35962864571E+02 -0.44615127262E+01  0.65227671899E+01  0.54367092682E+02  0.40000019386E+02 0.  0.
         12    1    3    3    0    0  0.35962864571E+02  0.44615127262E+01 -0.65227671899E+01  0.36820907318E+02  0.00000000000E+00 0. -1.
         11    1    4    4    0    0 -0.37959288724E+01 -0.62849247702E+00  0.50282471376E+00  0.38803236659E+01  0.51100000000E-03 0.  1.
        -11    1    4    4    0    0 -0.26353420682E+02  0.40851603604E+01  0.20046566513E+02  0.33362496100E+02  0.51100000000E-03 0. -1.
         12    1    4    4    0    0 -0.58135150167E+01 -0.79181806097E+01 -0.14026624037E+02  0.17124272916E+02  0.00000000000E+00 0. -1.
</event>
<event>
 8    1  0.2402194E-006  0.9118800E+02  0.7816164E-02  0.1184000E+00
        -11   -1    0    0    0    0  0.00000000000E+00  0.00000000000E+00  0.45593999997E+02  0.45594000000E+02  0.51100000000E-03 0.  1.
         11   -1    0    0    0    0 -0.00000000000E+00 -0.00000000000E+00 -0.45593999997E+02  0.45594000000E+02  0.51100000000E-03 0. -1.
         23    2    1    2    0    0  0.00000000000E+00  0.00000000000E+00  0.00000000000E+00  0.91188000000E+02  0.91188000000E+02 0.  0.
    9900012    2    3    3    0    0 -0.11944652332E+02  0.22809554059E+02 -0.26321668231E+02  0.54367072605E+02  0.39999973619E+02 0.  0.
        -12    1    3    3    0    0  0.11944652332E+02 -0.22809554059E+02  0.26321668231E+02  0.36820927395E+02  0.00000000000E+00 0.  1.
         11    1    4    4    0    0  0.56269947304E+00  0.28714637750E+02 -0.18141989553E+02  0.33970264011E+02  0.51100000000E-03 0. -1.
        -11    1    4    4    0    0 -0.44464699545E+01  0.10302004806E+01 -0.86201805129E+01  0.97539694701E+01  0.51100000000E-03 0.  1.
        -12    1    4    4    0    0 -0.80608818511E+01 -0.69352841713E+01  0.44050183478E+00  0.10642839124E+02  0.00000000000E+00 0.  1.
</event>
<event>
 8    1  0.2402194E-006  0.9118800E+02  0.7816164E-02  0.1184000E+00
        -11   -1    0    0    0    0  0.00000000000E+00  0.00000000000E+00  0.45593999997E+02  0.45594000000E+02  0.51100000000E-03 0.  1.
         11   -1    0    0    0    0 -0.00000000000E+00 -0.00000000000E+00 -0.45593999997E+02  0.45594000000E+02  0.51100000000E-03 0. -1.
         23    2    1    2    0    0  0.35527136788E-14 -0.71054273576E-14  0.00000000000E+00  0.91188000000E+02  0.91188000000E+02 0.  0.
    9900012    2    3    3    0    0  0.19991502044E+02 -0.25493111998E+02 -0.17499165602E+02  0.54367085969E+02  0.40000004083E+02 0.  0.
        -12    1    3    3    0    0 -0.19991502044E+02  0.25493111998E+02  0.17499165602E+02  0.36820914031E+02  0.00000000000E+00 0.  1.
         11    1    4    4    0    0  0.18731986905E+02 -0.66423255534E+01 -0.58208190185E+01  0.20709653702E+02  0.51100000000E-03 0. -1.
        -11    1    4    4    0    0  0.46201908706E+01 -0.17379408573E+00 -0.13807878591E+02  0.14561383160E+02  0.51100000000E-03 0.  1.
        -12    1    4    4    0    0 -0.33606757310E+01 -0.18676992359E+02  0.21295320080E+01  0.19096049107E+02  0.00000000000E+00 0.  1.
</event>
<event>
 8    1  0.2402194E-006  0.9118800E+02  0.7816164E-02  0.1184000E+00
        -11   -1    0    0    0    0  0.00000000000E+00  0.00000000000E+00  0.45593999997E+02  0.45594000000E+02  0.51100000000E-03 0.  1.
         11   -1    0    0    0    0 -0.00000000000E+00 -0.00000000000E+00 -0.45593999997E+02  0.45594000000E+02  0.51100000000E-03 0. -1.
         23    2    1    2    0    0  0.00000000000E+00 -0.44408920985E-14  0.35527136788E-14  0.91188000000E+02  0.91188000000E+02 0.  0.
    9900012    2    3    3    0    0  0.21564383047E+02 -0.52969694203E+01  0.29371705273E+02  0.54367115005E+02  0.40000070276E+02 0.  0.
        -12    1    3    3    0    0 -0.21564383047E+02  0.52969694203E+01 -0.29371705273E+02  0.36820884995E+02  0.00000000000E+00 0.  1.
         11    1    4    4    0    0  0.98189292388E+01 -0.22592321509E+01  0.28547764304E+01  0.10472117744E+02  0.51100000000E-03 0. -1.
        -11    1    4    4    0    0  0.41986777292E+01  0.14696354403E+02  0.83847468898E+01  0.17433178370E+02  0.51100000000E-03 0.  1.
        -12    1    4    4    0    0  0.75467760786E+01 -0.17734091673E+02  0.18132181953E+02  0.26461818891E+02  0.00000000000E+00 0.  1.
</event>
<event>
 8    1  0.2402194E-006  0.9118800E+02  0.7816164E-02  0.1184000E+00
        -11   -1    0    0    0    0  0.00000000000E+00  0.00000000000E+00  0.45593999997E+02  0.45594000000E+02  0.51100000000E-03 0.  1.
         11   -1    0    0    0    0 -0.00000000000E+00 -0.00000000000E+00 -0.45593999997E+02  0.45594000000E+02  0.51100000000E-03 0. -1.
         23    2    1    2    0    0  0.00000000000E+00 -0.35527136788E-14  0.88817841970E-15  0.91188000000E+02  0.91188000000E+02 0.  0.
    9900012    2    3    3    0    0  0.21710664839E+02  0.28966280625E+02 -0.67365893734E+01  0.54367081796E+02  0.39999994570E+02 0.  0.
         12    1    3    3    0    0 -0.21710664839E+02 -0.28966280625E+02  0.67365893734E+01  0.36820918204E+02  0.00000000000E+00 0. -1.
         11    1    4    4    0    0  0.26501880053E+02  0.15111288425E+02  0.77740314851E+01  0.31482316465E+02  0.51100000000E-03 0. -1.
        -11    1    4    4    0    0 -0.17634643854E+01  0.12359421459E+02 -0.62523255462E+01  0.13962688868E+02  0.51100000000E-03 0.  1.
         12    1    4    4    0    0 -0.30277508292E+01  0.14955707413E+01 -0.82582953124E+01  0.89220764620E+01  0.00000000000E+00 0. -1.
</event>
<event>
 8    1  0.2402194E-006  0.9118800E+02  0.7816164E-02  0.1184000E+00
        -11   -1    0    0    0    0  0.00000000000E+00  0.00000000000E+00  0.45593999997E+02  0.45594000000E+02  0.51100000000E-03 0. -1.
         11   -1    0    0    0    0 -0.00000000000E+00 -0.00000000000E+00 -0.45593999997E+02  0.45594000000E+02  0.51100000000E-03 0.  1.
         23    2    1    2    0    0 -0.35527136788E-14  0.00000000000E+00  0.00000000000E+00  0.91188000000E+02  0.91188000000E+02 0.  0.
    9900012    2    3    3    0    0  0.22099028699E+02  0.25586811232E+02  0.14585251384E+02  0.54367061169E+02  0.39999947548E+02 0.  0.
        -12    1    3    3    0    0 -0.22099028699E+02 -0.25586811232E+02 -0.14585251384E+02  0.36820938831E+02  0.00000000000E+00 0.  1.
         11    1    4    4    0    0  0.16117766758E+01  0.53248307473E+01  0.82663643931E+00  0.56244977202E+01  0.51100000000E-03 0. -1.
        -11    1    4    4    0    0  0.30127466952E+02  0.18366933404E+02  0.15876757001E+02  0.38692117036E+02  0.51100000000E-03 0.  1.
        -12    1    4    4    0    0 -0.96402149296E+01  0.18950470808E+01 -0.21181420563E+01  0.10050446413E+02  0.00000000000E+00 0.  1.
</event>
<event>
 8    1  0.2402194E-006  0.9118800E+02  0.7816164E-02  0.1184000E+00
        -11   -1    0    0    0    0  0.00000000000E+00  0.00000000000E+00  0.45593999997E+02  0.45594000000E+02  0.51100000000E-03 0. -1.
         11   -1    0    0    0    0 -0.00000000000E+00 -0.00000000000E+00 -0.45593999997E+02  0.45594000000E+02  0.51100000000E-03 0.  1.
         23    2    1    2    0    0  0.00000000000E+00 -0.17763568394E-14 -0.17763568394E-14  0.91188000000E+02  0.91188000000E+02 0.  0.
    9900012    2    3    3    0    0 -0.30179615672E+02  0.14565142396E+02  0.15258674697E+02  0.54367085717E+02  0.40000003508E+02 0.  0.
         12    1    3    3    0    0  0.30179615672E+02 -0.14565142396E+02 -0.15258674697E+02  0.36820914283E+02  0.00000000000E+00 0. -1.
         11    1    4    4    0    0 -0.65861728470E+01  0.14610960541E+02  0.77632665875E+01  0.17808036081E+02  0.51100000000E-03 0. -1.
        -11    1    4    4    0    0 -0.92772218642E+01 -0.87400739838E+01 -0.68821170479E+01  0.14485139767E+02  0.51100000000E-03 0.  1.
        -12    1    4    4    0    0 -0.14316220961E+02  0.86942558386E+01  0.14377525157E+02  0.22073909868E+02  0.00000000000E+00 0.  1.
</event>
<event>
 8    1  0.2402194E-006  0.9118800E+02  0.7816164E-02  0.1184000E+00
        -11   -1    0    0    0    0  0.00000000000E+00  0.00000000000E+00  0.45593999997E+02  0.45594000000E+02  0.51100000000E-03 0.  1.
         11   -1    0    0    0    0 -0.00000000000E+00 -0.00000000000E+00 -0.45593999997E+02  0.45594000000E+02  0.51100000000E-03 0. -1.
         23    2    1    2    0    0  0.00000000000E+00  0.00000000000E+00 -0.35527136788E-14  0.91188000000E+02  0.91188000000E+02 0.  0.
    9900012    2    3    3    0    0 -0.16150783338E+02 -0.18049245922E+02  0.27733659383E+02  0.54367096378E+02  0.40000027812E+02 0.  0.
         12    1    3    3    0    0  0.16150783338E+02  0.18049245922E+02 -0.27733659383E+02  0.36820903622E+02  0.00000000000E+00 0. -1.
         11    1    4    4    0    0 -0.10646551278E+02 -0.78906963487E+01  0.77183464563E+01  0.15335743062E+02  0.51100000000E-03 0. -1.
        -11    1    4    4    0    0 -0.10672489265E+02  0.23361565817E+01  0.22748957349E+02  0.25236376828E+02  0.51100000000E-03 0.  1.
         12    1    4    4    0    0  0.51682572059E+01 -0.12494706155E+02 -0.27336444222E+01  0.13794976487E+02  0.00000000000E+00 0. -1.
</event>
<event>
 8    1  0.2402194E-006  0.9118800E+02  0.7816164E-02  0.1184000E+00
        -11   -1    0    0    0    0  0.00000000000E+00  0.00000000000E+00  0.45593999997E+02  0.45594000000E+02  0.51100000000E-03 0. -1.
         11   -1    0    0    0    0 -0.00000000000E+00 -0.00000000000E+00 -0.45593999997E+02  0.45594000000E+02  0.51100000000E-03 0.  1.
         23    2    1    2    0    0  0.00000000000E+00  0.00000000000E+00  0.00000000000E+00  0.91188000000E+02  0.91188000000E+02 0.  0.
    9900012    2    3    3    0    0  0.10874186335E+02  0.13772400318E+02 -0.32370556723E+02  0.54367083641E+02  0.39999998777E+02 0.  0.
         12    1    3    3    0    0 -0.10874186335E+02 -0.13772400318E+02  0.32370556723E+02  0.36820916359E+02  0.00000000000E+00 0. -1.
         11    1    4    4    0    0  0.77066215039E+01  0.20437767438E+02 -0.42887993021E+01  0.22259563171E+02  0.51100000000E-03 0. -1.
        -11    1    4    4    0    0 -0.35614794377E+01  0.22087707237E+01 -0.53659279954E+01  0.68085231444E+01  0.51100000000E-03 0.  1.
         12    1    4    4    0    0  0.67290442685E+01 -0.88741378435E+01 -0.22715829425E+02  0.25298997326E+02  0.00000000000E+00 0. -1.
</event>
<event>
 8    1  0.2402194E-006  0.9118800E+02  0.7816164E-02  0.1184000E+00
        -11   -1    0    0    0    0  0.00000000000E+00  0.00000000000E+00  0.45593999997E+02  0.45594000000E+02  0.51100000000E-03 0.  1.
         11   -1    0    0    0    0 -0.00000000000E+00 -0.00000000000E+00 -0.45593999997E+02  0.45594000000E+02  0.51100000000E-03 0. -1.
         23    2    1    2    0    0  0.00000000000E+00  0.00000000000E+00 -0.17763568394E-14  0.91188000000E+02  0.91188000000E+02 0.  0.
    9900012    2    3    3    0    0 -0.72125041032E+01  0.32742818241E+02 -0.15220601204E+02  0.54367094759E+02  0.40000024121E+02 0.  0.
        -12    1    3    3    0    0  0.72125041032E+01 -0.32742818241E+02  0.15220601204E+02  0.36820905241E+02  0.00000000000E+00 0.  1.
         11    1    4    4    0    0  0.18831848507E+01  0.96698035822E+01  0.49397709510E+01  0.11020563679E+02  0.51100000000E-03 0. -1.
        -11    1    4    4    0    0 -0.23657505040E+01  0.98678820766E+01  0.70536967573E+01  0.12358256767E+02  0.51100000000E-03 0.  1.
         12    1    4    4    0    0 -0.67299384498E+01  0.13205132582E+02 -0.27214068913E+02  0.30988274312E+02  0.00000000000E+00 0. -1.
</event>
<event>
 8    1  0.2402194E-006  0.9118800E+02  0.7816164E-02  0.1184000E+00
        -11   -1    0    0    0    0  0.00000000000E+00  0.00000000000E+00  0.45593999997E+02  0.45594000000E+02  0.51100000000E-03 0. -1.
         11   -1    0    0    0    0 -0.00000000000E+00 -0.00000000000E+00 -0.45593999997E+02  0.45594000000E+02  0.51100000000E-03 0.  1.
         23    2    1    2    0    0  0.00000000000E+00  0.88817841970E-15  0.00000000000E+00  0.91188000000E+02  0.91188000000E+02 0.  0.
    9900012    2    3    3    0    0 -0.35383149487E+02 -0.48572647193E+01 -0.89563248568E+01  0.54367135764E+02  0.40000117601E+02 0.  0.
         12    1    3    3    0    0  0.35383149487E+02  0.48572647193E+01  0.89563248568E+01  0.36820864236E+02  0.00000000000E+00 0. -1.
         11    1    4    4    0    0 -0.26194072736E+02  0.83264158359E+01  0.13207562439E+00  0.27485925333E+02  0.51100000000E-03 0. -1.
        -11    1    4    4    0    0 -0.14714699866E+02 -0.11786951968E+02 -0.96036287636E+01  0.21158551806E+02  0.51100000000E-03 0.  1.
         12    1    4    4    0    0  0.55256231149E+01 -0.13967285867E+01  0.51522828245E+00  0.57226586248E+01  0.00000000000E+00 0. -1.
</event>
<event>
 8    1  0.2402194E-006  0.9118800E+02  0.7816164E-02  0.1184000E+00
        -11   -1    0    0    0    0  0.00000000000E+00  0.00000000000E+00  0.45593999997E+02  0.45594000000E+02  0.51100000000E-03 0.  1.
         11   -1    0    0    0    0 -0.00000000000E+00 -0.00000000000E+00 -0.45593999997E+02  0.45594000000E+02  0.51100000000E-03 0. -1.
         23    2    1    2    0    0  0.22204460493E-15 -0.35527136788E-14  0.00000000000E+00  0.91188000000E+02  0.91188000000E+02 0.  0.
    9900012    2    3    3    0    0  0.52051787734E+00 -0.23766094935E+02 -0.28119068860E+02  0.54367078762E+02  0.39999987653E+02 0.  0.
        -12    1    3    3    0    0 -0.52051787734E+00  0.23766094935E+02  0.28119068860E+02  0.36820921238E+02  0.00000000000E+00 0.  1.
         11    1    4    4    0    0  0.32515297574E+01  0.28460895475E+01 -0.19408371834E+01  0.47370371235E+01  0.51100000000E-03 0. -1.
        -11    1    4    4    0    0  0.23618752933E+01  0.27855633506E+01 -0.18452410390E+02  0.18810350012E+02  0.51100000000E-03 0.  1.
         12    1    4    4    0    0 -0.50928871733E+01 -0.29397747833E+02 -0.77258212860E+01  0.30819691626E+02  0.00000000000E+00 0. -1.
</event>
<event>
 8    1  0.2402194E-006  0.9118800E+02  0.7816164E-02  0.1184000E+00
        -11   -1    0    0    0    0  0.00000000000E+00  0.00000000000E+00  0.45593999997E+02  0.45594000000E+02  0.51100000000E-03 0.  1.
         11   -1    0    0    0    0 -0.00000000000E+00 -0.00000000000E+00 -0.45593999997E+02  0.45594000000E+02  0.51100000000E-03 0. -1.
         23    2    1    2    0    0 -0.17763568394E-14 -0.35527136788E-14 -0.71054273576E-14  0.91188000000E+02  0.91188000000E+02 0.  0.
    9900012    2    3    3    0    0 -0.13039756298E+02 -0.23653230578E+02 -0.25025344262E+02  0.54367103535E+02  0.40000044128E+02 0.  0.
        -12    1    3    3    0    0  0.13039756298E+02  0.23653230578E+02  0.25025344262E+02  0.36820896465E+02  0.00000000000E+00 0.  1.
         11    1    4    4    0    0 -0.12351403115E+01 -0.10393559961E+02  0.53981097037E+01  0.11776724879E+02  0.51100000000E-03 0. -1.
        -11    1    4    4    0    0 -0.15436178943E+01  0.64920230987E+01 -0.31267041476E+01  0.73692197149E+01  0.51100000000E-03 0.  1.
        -12    1    4    4    0    0 -0.10260998093E+02 -0.19751693715E+02 -0.27296749818E+02  0.35221158940E+02  0.00000000000E+00 0.  1.
</event>
<event>
 8    1  0.2402194E-006  0.9118800E+02  0.7816164E-02  0.1184000E+00
        -11   -1    0    0    0    0  0.00000000000E+00  0.00000000000E+00  0.45593999997E+02  0.45594000000E+02  0.51100000000E-03 0. -1.
         11   -1    0    0    0    0 -0.00000000000E+00 -0.00000000000E+00 -0.45593999997E+02  0.45594000000E+02  0.51100000000E-03 0.  1.
         23    2    1    2    0    0  0.00000000000E+00  0.00000000000E+00  0.00000000000E+00  0.91188000000E+02  0.91188000000E+02 0.  0.
    9900012    2    3    3    0    0  0.76792395703E+01  0.22256758820E+02 -0.28309815861E+02  0.54367086002E+02  0.40000004160E+02 0.  0.
         12    1    3    3    0    0 -0.76792395703E+01 -0.22256758820E+02  0.28309815861E+02  0.36820913998E+02  0.00000000000E+00 0. -1.
         11    1    4    4    0    0 -0.51803947556E+01  0.89108054526E+01  0.11845767899E+01  0.10375074268E+02  0.51100000000E-03 0. -1.
        -11    1    4    4    0    0  0.63014299580E+01  0.37880269013E+00  0.40054529913E+01  0.74763069039E+01  0.51100000000E-03 0.  1.
        -12    1    4    4    0    0  0.65582043679E+01  0.12967150677E+02 -0.33499845642E+02  0.36515704830E+02  0.00000000000E+00 0.  1.
</event>
<event>
 8    1  0.2402194E-006  0.9118800E+02  0.7816164E-02  0.1184000E+00
        -11   -1    0    0    0    0  0.00000000000E+00  0.00000000000E+00  0.45593999997E+02  0.45594000000E+02  0.51100000000E-03 0.  1.
         11   -1    0    0    0    0 -0.00000000000E+00 -0.00000000000E+00 -0.45593999997E+02  0.45594000000E+02  0.51100000000E-03 0. -1.
         23    2    1    2    0    0  0.00000000000E+00  0.00000000000E+00  0.00000000000E+00  0.91188000000E+02  0.91188000000E+02 0.  0.
    9900012    2    3    3    0    0  0.32973395885E+02  0.47144466652E+01 -0.15694272835E+02  0.54367067864E+02  0.39999962809E+02 0.  0.
         12    1    3    3    0    0 -0.32973395885E+02 -0.47144466652E+01  0.15694272835E+02  0.36820932136E+02  0.00000000000E+00 0. -1.
         11    1    4    4    0    0 -0.64009667912E+01  0.24589897091E+01 -0.10293165966E+02  0.12368034286E+02  0.51100000000E-03 0. -1.
        -11    1    4    4    0    0  0.19882113609E+01  0.15949758204E+01  0.27281277287E+01  0.37335791740E+01  0.51100000000E-03 0.  1.
        -12    1    4    4    0    0  0.37386151316E+02  0.66048113576E+00 -0.81292345979E+01  0.38265454403E+02  0.00000000000E+00 0.  1.
</event>
<event>
 8    1  0.2402194E-006  0.9118800E+02  0.7816164E-02  0.1184000E+00
        -11   -1    0    0    0    0  0.00000000000E+00  0.00000000000E+00  0.45593999997E+02  0.45594000000E+02  0.51100000000E-03 0.  1.
         11   -1    0    0    0    0 -0.00000000000E+00 -0.00000000000E+00 -0.45593999997E+02  0.45594000000E+02  0.51100000000E-03 0. -1.
         23    2    1    2    0    0  0.88817841970E-15  0.35527136788E-14  0.00000000000E+00  0.91188000000E+02  0.91188000000E+02 0.  0.
    9900012    2    3    3    0    0 -0.70584908287E+01 -0.29904170945E+02 -0.20290240786E+02  0.54367141728E+02  0.40000131198E+02 0.  0.
        -12    1    3    3    0    0  0.70584908287E+01  0.29904170945E+02  0.20290240786E+02  0.36820858272E+02  0.00000000000E+00 0.  1.
         11    1    4    4    0    0 -0.50569741322E+01 -0.13688749894E+02  0.52812803072E+01  0.15519239124E+02  0.51100000000E-03 0. -1.
        -11    1    4    4    0    0  0.61610542843E+01  0.39287375554E+01 -0.45363350136E+01  0.86006920821E+01  0.51100000000E-03 0.  1.
         12    1    4    4    0    0 -0.81625709808E+01 -0.20144158606E+02 -0.21035186080E+02  0.30247210522E+02  0.00000000000E+00 0. -1.
</event>
<event>
 8    1  0.2402194E-006  0.9118800E+02  0.7816164E-02  0.1184000E+00
        -11   -1    0    0    0    0  0.00000000000E+00  0.00000000000E+00  0.45593999997E+02  0.45594000000E+02  0.51100000000E-03 0. -1.
         11   -1    0    0    0    0 -0.00000000000E+00 -0.00000000000E+00 -0.45593999997E+02  0.45594000000E+02  0.51100000000E-03 0.  1.
         23    2    1    2    0    0  0.00000000000E+00 -0.88817841970E-15 -0.13322676296E-14  0.91188000000E+02  0.91188000000E+02 0.  0.
    9900012    2    3    3    0    0 -0.35836108209E+02  0.74710799717E+01 -0.39670001397E+01  0.54367071472E+02  0.39999971035E+02 0.  0.
        -12    1    3    3    0    0  0.35836108209E+02 -0.74710799717E+01  0.39670001397E+01  0.36820928528E+02  0.00000000000E+00 0.  1.
         11    1    4    4    0    0 -0.27570710811E+02  0.53697225766E+01 -0.68638652398E+01  0.28915232343E+02  0.51100000000E-03 0. -1.
        -11    1    4    4    0    0 -0.68092088977E+01  0.57104423521E+01 -0.91719666500E+01  0.12771039510E+02  0.51100000000E-03 0.  1.
         12    1    4    4    0    0 -0.14561885009E+01 -0.36090849570E+01  0.12068831750E+02  0.12680799619E+02  0.00000000000E+00 0. -1.
</event>
<event>
 8    1  0.2402194E-006  0.9118800E+02  0.7816164E-02  0.1184000E+00
        -11   -1    0    0    0    0  0.00000000000E+00  0.00000000000E+00  0.45593999997E+02  0.45594000000E+02  0.51100000000E-03 0.  1.
         11   -1    0    0    0    0 -0.00000000000E+00 -0.00000000000E+00 -0.45593999997E+02  0.45594000000E+02  0.51100000000E-03 0. -1.
         23    2    1    2    0    0 -0.17763568394E-14  0.88817841970E-15  0.14210854715E-13  0.91188000000E+02  0.91188000000E+02 0.  0.
    9900012    2    3    3    0    0 -0.13261633309E+02  0.57601124158E+01 -0.33863396543E+02  0.54367089657E+02  0.40000012490E+02 0.  0.
        -12    1    3    3    0    0  0.13261633309E+02 -0.57601124158E+01  0.33863396543E+02  0.36820910343E+02  0.00000000000E+00 0.  1.
         11    1    4    4    0    0 -0.72668338628E+01  0.11027960443E+01 -0.13877575825E+02  0.15703825794E+02  0.51100000000E-03 0. -1.
        -11    1    4    4    0    0 -0.11955482801E+01 -0.11963927230E+01  0.87680630767E+01  0.89297044529E+01  0.51100000000E-03 0.  1.
        -12    1    4    4    0    0 -0.47992511661E+01  0.58537090946E+01 -0.28753883795E+02  0.29733559410E+02  0.00000000000E+00 0.  1.
</event>
<event>
 8    1  0.2402194E-006  0.9118800E+02  0.7816164E-02  0.1184000E+00
        -11   -1    0    0    0    0  0.00000000000E+00  0.00000000000E+00  0.45593999997E+02  0.45594000000E+02  0.51100000000E-03 0. -1.
         11   -1    0    0    0    0 -0.00000000000E+00 -0.00000000000E+00 -0.45593999997E+02  0.45594000000E+02  0.51100000000E-03 0.  1.
         23    2    1    2    0    0  0.71054273576E-14 -0.17763568394E-14  0.00000000000E+00  0.91188000000E+02  0.91188000000E+02 0.  0.
    9900012    2    3    3    0    0 -0.30893535003E+02  0.70149827580E+01 -0.18765916854E+02  0.54367080356E+02  0.39999991288E+02 0.  0.
         12    1    3    3    0    0  0.30893535003E+02 -0.70149827580E+01  0.18765916854E+02  0.36820919644E+02  0.00000000000E+00 0. -1.
         11    1    4    4    0    0 -0.27720920141E+02  0.67386946647E+01 -0.11227715772E+02  0.30658131400E+02  0.51100000000E-03 0. -1.
        -11    1    4    4    0    0  0.92301485880E+01  0.19524492215E+01 -0.73270806574E+00  0.94627988613E+01  0.51100000000E-03 0.  1.
        -12    1    4    4    0    0 -0.12402763450E+02 -0.16761611282E+01 -0.68054930165E+01  0.14246150095E+02  0.00000000000E+00 0.  1.
</event>
<event>
 8    1  0.2402194E-006  0.9118800E+02  0.7816164E-02  0.1184000E+00
        -11   -1    0    0    0    0  0.00000000000E+00  0.00000000000E+00  0.45593999997E+02  0.45594000000E+02  0.51100000000E-03 0.  1.
         11   -1    0    0    0    0 -0.00000000000E+00 -0.00000000000E+00 -0.45593999997E+02  0.45594000000E+02  0.51100000000E-03 0. -1.
         23    2    1    2    0    0  0.00000000000E+00 -0.88817841970E-15  0.00000000000E+00  0.91188000000E+02  0.91188000000E+02 0.  0.
    9900012    2    3    3    0    0  0.11547512810E+02 -0.69606990336E+01  0.34263417619E+02  0.54367106881E+02  0.40000051757E+02 0.  0.
         12    1    3    3    0    0 -0.11547512810E+02  0.69606990336E+01 -0.34263417619E+02  0.36820893119E+02  0.00000000000E+00 0. -1.
         11    1    4    4    0    0  0.52583101331E+01 -0.46066896837E+01  0.28802264564E+01  0.75608941269E+01  0.51100000000E-03 0. -1.
        -11    1    4    4    0    0  0.16768971275E+02 -0.84744081696E+00  0.37358490697E+01  0.17200962824E+02  0.51100000000E-03 0.  1.
        -12    1    4    4    0    0 -0.10479768598E+02 -0.15065685329E+01  0.27647342093E+02  0.29605249930E+02  0.00000000000E+00 0.  1.
</event>
<event>
 8    1  0.2402194E-006  0.9118800E+02  0.7816164E-02  0.1184000E+00
        -11   -1    0    0    0    0  0.00000000000E+00  0.00000000000E+00  0.45593999997E+02  0.45594000000E+02  0.51100000000E-03 0.  1.
         11   -1    0    0    0    0 -0.00000000000E+00 -0.00000000000E+00 -0.45593999997E+02  0.45594000000E+02  0.51100000000E-03 0. -1.
         23    2    1    2    0    0  0.00000000000E+00  0.17763568394E-14  0.71054273576E-14  0.91188000000E+02  0.91188000000E+02 0.  0.
    9900012    2    3    3    0    0 -0.62010468576E+01 -0.11565570786E+02 -0.34402974490E+02  0.54367081170E+02  0.39999993144E+02 0.  0.
        -12    1    3    3    0    0  0.62010468576E+01  0.11565570786E+02  0.34402974490E+02  0.36820918830E+02  0.00000000000E+00 0.  1.
         11    1    4    4    0    0  0.29182351988E+01  0.43760129634E+00  0.23715266198E+01  0.37857271877E+01  0.51100000000E-03 0. -1.
        -11    1    4    4    0    0 -0.29661009362E+01  0.10561644450E+02 -0.15321382041E+02  0.18843854069E+02  0.51100000000E-03 0.  1.
         12    1    4    4    0    0 -0.61531811202E+01 -0.22564816532E+02 -0.21453119068E+02  0.31737499914E+02  0.00000000000E+00 0. -1.
</event>
<event>
 8    1  0.2402194E-006  0.9118800E+02  0.7816164E-02  0.1184000E+00
        -11   -1    0    0    0    0  0.00000000000E+00  0.00000000000E+00  0.45593999997E+02  0.45594000000E+02  0.51100000000E-03 0.  1.
         11   -1    0    0    0    0 -0.00000000000E+00 -0.00000000000E+00 -0.45593999997E+02  0.45594000000E+02  0.51100000000E-03 0. -1.
         23    2    1    2    0    0  0.88817841970E-15  0.00000000000E+00  0.00000000000E+00  0.91188000000E+02  0.91188000000E+02 0.  0.
    9900012    2    3    3    0    0  0.36206493070E+01 -0.11924956355E+02  0.34647665209E+02  0.54367158213E+02  0.40000168779E+02 0.  0.
         12    1    3    3    0    0 -0.36206493070E+01  0.11924956355E+02 -0.34647665209E+02  0.36820841787E+02  0.00000000000E+00 0. -1.
         11    1    4    4    0    0  0.57977966385E+01  0.53480696713E+01  0.62325243710E-01  0.78879769122E+01  0.51100000000E-03 0. -1.
        -11    1    4    4    0    0  0.33358314381E+01  0.32903415613E+01  0.20317443897E+02  0.20850722907E+02  0.51100000000E-03 0.  1.
         12    1    4    4    0    0 -0.55129787696E+01 -0.20563367588E+02  0.14267896068E+02  0.25628458394E+02  0.00000000000E+00 0. -1.
</event>
<event>
 8    1  0.2402194E-006  0.9118800E+02  0.7816164E-02  0.1184000E+00
        -11   -1    0    0    0    0  0.00000000000E+00  0.00000000000E+00  0.45593999997E+02  0.45594000000E+02  0.51100000000E-03 0. -1.
         11   -1    0    0    0    0 -0.00000000000E+00 -0.00000000000E+00 -0.45593999997E+02  0.45594000000E+02  0.51100000000E-03 0.  1.
         23    2    1    2    0    0  0.00000000000E+00  0.00000000000E+00  0.94368957093E-15  0.91188000000E+02  0.91188000000E+02 0.  0.
    9900012    2    3    3    0    0 -0.32969459573E+02 -0.16391782216E+02  0.32298767999E+00  0.54367080541E+02  0.39999991710E+02 0.  0.
        -12    1    3    3    0    0  0.32969459573E+02  0.16391782216E+02 -0.32298767999E+00  0.36820919459E+02  0.00000000000E+00 0.  1.
         11    1    4    4    0    0 -0.22529551791E+02 -0.20081625291E+02 -0.11051674096E+02  0.32140191020E+02  0.51100000000E-03 0. -1.
        -11    1    4    4    0    0 -0.13308352327E+02  0.28808082957E+01  0.38757464281E+01  0.14157425922E+02  0.51100000000E-03 0.  1.
        -12    1    4    4    0    0  0.28684445456E+01  0.80903477859E+00  0.74989153480E+01  0.80694635993E+01  0.00000000000E+00 0.  1.
</event>
<event>
 8    1  0.2402194E-006  0.9118800E+02  0.7816164E-02  0.1184000E+00
        -11   -1    0    0    0    0  0.00000000000E+00  0.00000000000E+00  0.45593999997E+02  0.45594000000E+02  0.51100000000E-03 0. -1.
         11   -1    0    0    0    0 -0.00000000000E+00 -0.00000000000E+00 -0.45593999997E+02  0.45594000000E+02  0.51100000000E-03 0.  1.
         23    2    1    2    0    0  0.00000000000E+00  0.00000000000E+00 -0.35527136788E-14  0.91188000000E+02  0.91188000000E+02 0.  0.
    9900012    2    3    3    0    0 -0.62263497854E+01  0.24291544117E+02 -0.26961663904E+02  0.54367110987E+02  0.40000061116E+02 0.  0.
         12    1    3    3    0    0  0.62263497854E+01 -0.24291544117E+02  0.26961663904E+02  0.36820889013E+02  0.00000000000E+00 0. -1.
         11    1    4    4    0    0 -0.12257054869E+01 -0.85783289728E+01 -0.62273394393E+01  0.10670981148E+02  0.51100000000E-03 0. -1.
        -11    1    4    4    0    0 -0.36650522547E+00  0.18598500696E+02 -0.63406663330E+00  0.18612914737E+02  0.51100000000E-03 0.  1.
         12    1    4    4    0    0 -0.46341390730E+01  0.14271372394E+02 -0.20100257832E+02  0.25083215102E+02  0.00000000000E+00 0. -1.
</event>
<event>
 8    1  0.2402194E-006  0.9118800E+02  0.7816164E-02  0.1184000E+00
        -11   -1    0    0    0    0  0.00000000000E+00  0.00000000000E+00  0.45593999997E+02  0.45594000000E+02  0.51100000000E-03 0. -1.
         11   -1    0    0    0    0 -0.00000000000E+00 -0.00000000000E+00 -0.45593999997E+02  0.45594000000E+02  0.51100000000E-03 0.  1.
         23    2    1    2    0    0  0.17763568394E-14  0.00000000000E+00  0.22204460493E-15  0.91188000000E+02  0.91188000000E+02 0.  0.
    9900012    2    3    3    0    0  0.10585449268E+02  0.35244228731E+02  0.12533330951E+01  0.54367105946E+02  0.40000049626E+02 0.  0.
        -12    1    3    3    0    0 -0.10585449268E+02 -0.35244228731E+02 -0.12533330951E+01  0.36820894054E+02  0.00000000000E+00 0.  1.
         11    1    4    4    0    0  0.67292797013E+01  0.24061328398E+02 -0.89721917698E+00  0.25000714632E+02  0.51100000000E-03 0. -1.
        -11    1    4    4    0    0  0.15239948557E+02  0.61087752462E+01 -0.11938890614E+01  0.16462033240E+02  0.51100000000E-03 0.  1.
         12    1    4    4    0    0 -0.11383778990E+02  0.50741250867E+01  0.33444413334E+01  0.12904358075E+02  0.00000000000E+00 0. -1.
</event>
<event>
 8    1  0.2402194E-006  0.9118800E+02  0.7816164E-02  0.1184000E+00
        -11   -1    0    0    0    0  0.00000000000E+00  0.00000000000E+00  0.45593999997E+02  0.45594000000E+02  0.51100000000E-03 0.  1.
         11   -1    0    0    0    0 -0.00000000000E+00 -0.00000000000E+00 -0.45593999997E+02  0.45594000000E+02  0.51100000000E-03 0. -1.
         23    2    1    2    0    0  0.71054273576E-14  0.00000000000E+00  0.00000000000E+00  0.91188000000E+02  0.91188000000E+02 0.  0.
    9900012    2    3    3    0    0  0.32930379538E+02 -0.13459409122E+02  0.94980894438E+01  0.54367091625E+02  0.40000016978E+02 0.  0.
        -12    1    3    3    0    0 -0.32930379538E+02  0.13459409122E+02 -0.94980894438E+01  0.36820908375E+02  0.00000000000E+00 0.  1.
         11    1    4    4    0    0 -0.40096149511E+01 -0.11895597097E+02  0.27654202622E+01  0.12854174102E+02  0.51100000000E-03 0. -1.
        -11    1    4    4    0    0 -0.45724176879E+00  0.32262145429E+01  0.42184946221E+00  0.32856487246E+01  0.51100000000E-03 0.  1.
         12    1    4    4    0    0  0.37397236258E+02 -0.47900265680E+01  0.63108197193E+01  0.38227268799E+02  0.00000000000E+00 0. -1.
</event>
<event>
 8    1  0.2402194E-006  0.9118800E+02  0.7816164E-02  0.1184000E+00
        -11   -1    0    0    0    0  0.00000000000E+00  0.00000000000E+00  0.45593999997E+02  0.45594000000E+02  0.51100000000E-03 0.  1.
         11   -1    0    0    0    0 -0.00000000000E+00 -0.00000000000E+00 -0.45593999997E+02  0.45594000000E+02  0.51100000000E-03 0. -1.
         23    2    1    2    0    0 -0.35527136788E-14  0.00000000000E+00  0.00000000000E+00  0.91188000000E+02  0.91188000000E+02 0.  0.
    9900012    2    3    3    0    0  0.85261715979E+01  0.34738429969E+02 -0.87364737872E+01  0.54367080768E+02  0.39999992228E+02 0.  0.
        -12    1    3    3    0    0 -0.85261715979E+01 -0.34738429969E+02  0.87364737872E+01  0.36820919232E+02  0.00000000000E+00 0.  1.
         11    1    4    4    0    0 -0.63696366745E+01  0.21291770954E+02 -0.11587801220E+02  0.25063697235E+02  0.51100000000E-03 0. -1.
        -11    1    4    4    0    0 -0.50073994268E+01  0.55280164817E+01 -0.10440234104E+01  0.75314673460E+01  0.51100000000E-03 0.  1.
         12    1    4    4    0    0  0.19903207699E+02  0.79186425336E+01  0.38953508431E+01  0.21771916188E+02  0.00000000000E+00 0. -1.
</event>
<event>
 8    1  0.2402194E-006  0.9118800E+02  0.7816164E-02  0.1184000E+00
        -11   -1    0    0    0    0  0.00000000000E+00  0.00000000000E+00  0.45593999997E+02  0.45594000000E+02  0.51100000000E-03 0.  1.
         11   -1    0    0    0    0 -0.00000000000E+00 -0.00000000000E+00 -0.45593999997E+02  0.45594000000E+02  0.51100000000E-03 0. -1.
         23    2    1    2    0    0  0.00000000000E+00  0.35527136788E-14 -0.88817841970E-15  0.91188000000E+02  0.91188000000E+02 0.  0.
    9900012    2    3    3    0    0 -0.32252256322E+02 -0.17363269925E+02 -0.37534309114E+01  0.54367089854E+02  0.40000012941E+02 0.  0.
        -12    1    3    3    0    0  0.32252256322E+02  0.17363269925E+02  0.37534309114E+01  0.36820910146E+02  0.00000000000E+00 0.  1.
         11    1    4    4    0    0 -0.12779015708E+02  0.69206539635E+01  0.97231729696E+01  0.17485387802E+02  0.51100000000E-03 0.  1.
        -11    1    4    4    0    0 -0.28013617354E+01 -0.10370230153E+02 -0.10396837640E+02  0.14949365678E+02  0.51100000000E-03 0. -1.
        -12    1    4    4    0    0 -0.16671878879E+02 -0.13913693736E+02 -0.30797662412E+01  0.21932336374E+02  0.00000000000E+00 0.  1.
</event>
<event>
 8    1  0.2402194E-006  0.9118800E+02  0.7816164E-02  0.1184000E+00
        -11   -1    0    0    0    0  0.00000000000E+00  0.00000000000E+00  0.45593999997E+02  0.45594000000E+02  0.51100000000E-03 0.  1.
         11   -1    0    0    0    0 -0.00000000000E+00 -0.00000000000E+00 -0.45593999997E+02  0.45594000000E+02  0.51100000000E-03 0. -1.
         23    2    1    2    0    0 -0.17763568394E-14  0.00000000000E+00  0.00000000000E+00  0.91188000000E+02  0.91188000000E+02 0.  0.
    9900012    2    3    3    0    0  0.48482852284E+01  0.55739645456E+01  0.36072214280E+02  0.54367087553E+02  0.40000007694E+02 0.  0.
         12    1    3    3    0    0 -0.48482852284E+01 -0.55739645456E+01 -0.36072214280E+02  0.36820912447E+02  0.00000000000E+00 0. -1.
         11    1    4    4    0    0  0.15053044559E+02  0.34237858950E+01  0.17928508545E+02  0.23658991510E+02  0.51100000000E-03 0. -1.
        -11    1    4    4    0    0  0.42086233707E+01 -0.63314761080E+01  0.30885246173E+01  0.82060395414E+01  0.51100000000E-03 0.  1.
         12    1    4    4    0    0 -0.14413382701E+02  0.84816547586E+01  0.15055181117E+02  0.22502056502E+02  0.00000000000E+00 0. -1.
</event>
<event>
 8    1  0.2402194E-006  0.9118800E+02  0.7816164E-02  0.1184000E+00
        -11   -1    0    0    0    0  0.00000000000E+00  0.00000000000E+00  0.45593999997E+02  0.45594000000E+02  0.51100000000E-03 0.  1.
         11   -1    0    0    0    0 -0.00000000000E+00 -0.00000000000E+00 -0.45593999997E+02  0.45594000000E+02  0.51100000000E-03 0. -1.
         23    2    1    2    0    0  0.00000000000E+00  0.00000000000E+00  0.00000000000E+00  0.91188000000E+02  0.91188000000E+02 0.  0.
    9900012    2    3    3    0    0  0.78314732786E+01  0.27321813105E+02  0.23408691777E+02  0.54367078016E+02  0.39999985953E+02 0.  0.
         12    1    3    3    0    0 -0.78314732786E+01 -0.27321813105E+02 -0.23408691777E+02  0.36820921984E+02  0.00000000000E+00 0. -1.
         11    1    4    4    0    0  0.23447493566E+01 -0.65004448166E+01  0.34507543985E+01  0.77240752546E+01  0.51100000000E-03 0. -1.
        -11    1    4    4    0    0 -0.51969469051E+01 -0.43230095143E+00 -0.66441367489E+00  0.52570511734E+01  0.51100000000E-03 0.  1.
        -12    1    4    4    0    0  0.10683670827E+02  0.34254558873E+02  0.20622351053E+02  0.41385951588E+02  0.00000000000E+00 0.  1.
</event>
<event>
 8    1  0.2402194E-006  0.9118800E+02  0.7816164E-02  0.1184000E+00
        -11   -1    0    0    0    0  0.00000000000E+00  0.00000000000E+00  0.45593999997E+02  0.45594000000E+02  0.51100000000E-03 0.  1.
         11   -1    0    0    0    0 -0.00000000000E+00 -0.00000000000E+00 -0.45593999997E+02  0.45594000000E+02  0.51100000000E-03 0. -1.
         23    2    1    2    0    0 -0.35527136788E-14  0.00000000000E+00  0.35527136788E-14  0.91188000000E+02  0.91188000000E+02 0.  0.
    9900012    2    3    3    0    0 -0.21823209625E+02 -0.95538312756E+01  0.28075865740E+02  0.54367049341E+02  0.39999920584E+02 0.  0.
        -12    1    3    3    0    0  0.21823209625E+02  0.95538312756E+01 -0.28075865740E+02  0.36820950659E+02  0.00000000000E+00 0.  1.
         11    1    4    4    0    0 -0.17332117132E+02 -0.78027846647E+01 -0.31141445850E+01  0.19260935324E+02  0.51100000000E-03 0. -1.
        -11    1    4    4    0    0 -0.96072848595E+00 -0.64444205862E+01  0.48585861978E+01  0.81276943851E+01  0.51100000000E-03 0.  1.
         12    1    4    4    0    0 -0.35303640063E+01  0.46933739753E+01  0.26331424127E+02  0.26978419632E+02  0.00000000000E+00 0. -1.
</event>
<event>
 8    1  0.2402194E-006  0.9118800E+02  0.7816164E-02  0.1184000E+00
        -11   -1    0    0    0    0  0.00000000000E+00  0.00000000000E+00  0.45593999997E+02  0.45594000000E+02  0.51100000000E-03 0. -1.
         11   -1    0    0    0    0 -0.00000000000E+00 -0.00000000000E+00 -0.45593999997E+02  0.45594000000E+02  0.51100000000E-03 0.  1.
         23    2    1    2    0    0 -0.35527136788E-14  0.00000000000E+00  0.00000000000E+00  0.91188000000E+02  0.91188000000E+02 0.  0.
    9900012    2    3    3    0    0 -0.26994600546E+02 -0.23810553460E+02 -0.77543448273E+01  0.54367071462E+02  0.39999971012E+02 0.  0.
         12    1    3    3    0    0  0.26994600546E+02  0.23810553460E+02  0.77543448273E+01  0.36820928538E+02  0.00000000000E+00 0. -1.
         11    1    4    4    0    0 -0.93807719869E+00 -0.14357988673E+02 -0.54817825334E+01  0.15397459776E+02  0.51100000000E-03 0. -1.
        -11    1    4    4    0    0 -0.27855570832E+02 -0.15690708685E+00 -0.64940797197E+01  0.28602980926E+02  0.51100000000E-03 0.  1.
         12    1    4    4    0    0  0.17990474844E+01 -0.92956576999E+01  0.42215174258E+01  0.10366630759E+02  0.00000000000E+00 0. -1.
</event>
<event>
 8    1  0.2402194E-006  0.9118800E+02  0.7816164E-02  0.1184000E+00
        -11   -1    0    0    0    0  0.00000000000E+00  0.00000000000E+00  0.45593999997E+02  0.45594000000E+02  0.51100000000E-03 0. -1.
         11   -1    0    0    0    0 -0.00000000000E+00 -0.00000000000E+00 -0.45593999997E+02  0.45594000000E+02  0.51100000000E-03 0.  1.
         23    2    1    2    0    0  0.35527136788E-14 -0.35527136788E-14 -0.88817841970E-15  0.91188000000E+02  0.91188000000E+02 0.  0.
    9900012    2    3    3    0    0 -0.25454688604E+02  0.26558532066E+02  0.15755412041E+01  0.54367093880E+02  0.40000022117E+02 0.  0.
        -12    1    3    3    0    0  0.25454688604E+02 -0.26558532066E+02 -0.15755412041E+01  0.36820906120E+02  0.00000000000E+00 0.  1.
         11    1    4    4    0    0 -0.11503022582E+02  0.11077380834E+02 -0.63109711977E+01  0.17171378872E+02  0.51100000000E-03 0. -1.
        -11    1    4    4    0    0  0.15441123992E+01  0.18267166793E+02 -0.22510986120E+01  0.18470005711E+02  0.51100000000E-03 0.  1.
         12    1    4    4    0    0 -0.15495778421E+02 -0.27860155604E+01  0.10137611014E+02  0.18725709296E+02  0.00000000000E+00 0. -1.
</event>
<event>
 8    1  0.2402194E-006  0.9118800E+02  0.7816164E-02  0.1184000E+00
        -11   -1    0    0    0    0  0.00000000000E+00  0.00000000000E+00  0.45593999997E+02  0.45594000000E+02  0.51100000000E-03 0. -1.
         11   -1    0    0    0    0 -0.00000000000E+00 -0.00000000000E+00 -0.45593999997E+02  0.45594000000E+02  0.51100000000E-03 0.  1.
         23    2    1    2    0    0  0.13322676296E-14  0.35527136788E-14 -0.35527136788E-14  0.91188000000E+02  0.91188000000E+02 0.  0.
    9900012    2    3    3    0    0  0.35475413229E+01  0.28450519992E+02 -0.23103316228E+02  0.54367077171E+02  0.39999984026E+02 0.  0.
        -12    1    3    3    0    0 -0.35475413229E+01 -0.28450519992E+02  0.23103316228E+02  0.36820922829E+02  0.00000000000E+00 0.  1.
         11    1    4    4    0    0  0.64383238123E+01  0.42972565339E+00 -0.93710127145E+01  0.11377721969E+02  0.51100000000E-03 0. -1.
        -11    1    4    4    0    0  0.89789010149E+01  0.15930032806E+01 -0.10393060165E+02  0.13826569449E+02  0.51100000000E-03 0.  1.
         12    1    4    4    0    0 -0.11869683504E+02  0.26427791058E+02 -0.33392433488E+01  0.29162785753E+02  0.00000000000E+00 0. -1.
</event>
<event>
 8    1  0.2402194E-006  0.9118800E+02  0.7816164E-02  0.1184000E+00
        -11   -1    0    0    0    0  0.00000000000E+00  0.00000000000E+00  0.45593999997E+02  0.45594000000E+02  0.51100000000E-03 0. -1.
         11   -1    0    0    0    0 -0.00000000000E+00 -0.00000000000E+00 -0.45593999997E+02  0.45594000000E+02  0.51100000000E-03 0.  1.
         23    2    1    2    0    0  0.17763568394E-14 -0.35527136788E-14 -0.35527136788E-14  0.91188000000E+02  0.91188000000E+02 0.  0.
    9900012    2    3    3    0    0 -0.97127234882E+01  0.25954499907E+02  0.24244756273E+02  0.54367064790E+02  0.39999955802E+02 0.  0.
        -12    1    3    3    0    0  0.97127234882E+01 -0.25954499907E+02 -0.24244756273E+02  0.36820935210E+02  0.00000000000E+00 0.  1.
         11    1    4    4    0    0 -0.11759358501E+02  0.89186794660E+01  0.16401847032E+02  0.22064585700E+02  0.51100000000E-03 0. -1.
        -11    1    4    4    0    0 -0.64857358017E+01  0.20160557829E+02  0.15202054109E+01  0.21232613726E+02  0.51100000000E-03 0.  1.
        -12    1    4    4    0    0  0.85323708147E+01 -0.31247373883E+01  0.63227038305E+01  0.11069865365E+02  0.00000000000E+00 0.  1.
</event>
<event>
 8    1  0.2402194E-006  0.9118800E+02  0.7816164E-02  0.1184000E+00
        -11   -1    0    0    0    0  0.00000000000E+00  0.00000000000E+00  0.45593999997E+02  0.45594000000E+02  0.51100000000E-03 0.  1.
         11   -1    0    0    0    0 -0.00000000000E+00 -0.00000000000E+00 -0.45593999997E+02  0.45594000000E+02  0.51100000000E-03 0. -1.
         23    2    1    2    0    0  0.88817841970E-15  0.00000000000E+00  0.17763568394E-14  0.91188000000E+02  0.91188000000E+02 0.  0.
    9900012    2    3    3    0    0 -0.34810181727E+01  0.35768147364E+02  0.80188737513E+01  0.54367079457E+02  0.39999989239E+02 0.  0.
        -12    1    3    3    0    0  0.34810181727E+01 -0.35768147364E+02 -0.80188737513E+01  0.36820920543E+02  0.00000000000E+00 0.  1.
         11    1    4    4    0    0 -0.21536302007E-01 -0.92994758693E+00  0.41016370815E+01  0.42057928309E+01  0.51100000000E-03 0. -1.
        -11    1    4    4    0    0 -0.76775957768E+01  0.33970425777E+01  0.12919693653E+02  0.15407915483E+02  0.51100000000E-03 0.  1.
         12    1    4    4    0    0  0.42181139061E+01  0.33301052373E+02 -0.90024569834E+01  0.34753371143E+02  0.00000000000E+00 0. -1.
</event>
<event>
 8    1  0.2402194E-006  0.9118800E+02  0.7816164E-02  0.1184000E+00
        -11   -1    0    0    0    0  0.00000000000E+00  0.00000000000E+00  0.45593999997E+02  0.45594000000E+02  0.51100000000E-03 0. -1.
         11   -1    0    0    0    0 -0.00000000000E+00 -0.00000000000E+00 -0.45593999997E+02  0.45594000000E+02  0.51100000000E-03 0.  1.
         23    2    1    2    0    0  0.35527136788E-14 -0.35527136788E-14 -0.88817841970E-15  0.91188000000E+02  0.91188000000E+02 0.  0.
    9900012    2    3    3    0    0  0.25888839668E+02 -0.25455226448E+02 -0.61303881916E+01  0.54367051720E+02  0.39999926005E+02 0.  0.
         12    1    3    3    0    0 -0.25888839668E+02  0.25455226448E+02  0.61303881916E+01  0.36820948280E+02  0.00000000000E+00 0. -1.
         11    1    4    4    0    0  0.27454713504E+02 -0.22417109451E+02  0.52889832045E+01  0.35836593495E+02  0.51100000000E-03 0.  1.
        -11    1    4    4    0    0  0.69189314684E+00  0.52713596930E+01 -0.17833602814E+01  0.56077021403E+01  0.51100000000E-03 0. -1.
        -12    1    4    4    0    0 -0.22577669829E+01 -0.83094766900E+01 -0.96360111148E+01  0.12922756084E+02  0.00000000000E+00 0.  1.
</event>
<event>
 8    1  0.2402194E-006  0.9118800E+02  0.7816164E-02  0.1184000E+00
        -11   -1    0    0    0    0  0.00000000000E+00  0.00000000000E+00  0.45593999997E+02  0.45594000000E+02  0.51100000000E-03 0.  1.
         11   -1    0    0    0    0 -0.00000000000E+00 -0.00000000000E+00 -0.45593999997E+02  0.45594000000E+02  0.51100000000E-03 0. -1.
         23    2    1    2    0    0 -0.35527136788E-14  0.00000000000E+00  0.00000000000E+00  0.91188000000E+02  0.91188000000E+02 0.  0.
    9900012    2    3    3    0    0  0.27986426799E+02 -0.69891540917E+01 -0.22884295438E+02  0.54367091027E+02  0.40000015615E+02 0.  0.
         12    1    3    3    0    0 -0.27986426799E+02  0.69891540917E+01  0.22884295438E+02  0.36820908973E+02  0.00000000000E+00 0. -1.
         11    1    4    4    0    0  0.14916701426E+02 -0.12655821397E+02 -0.78051743799E+01  0.21061779223E+02  0.51100000000E-03 0. -1.
        -11    1    4    4    0    0 -0.16688557145E+01 -0.35249568959E+01  0.52666353438E+01  0.65534608124E+01  0.51100000000E-03 0.  1.
         12    1    4    4    0    0  0.14738581088E+02  0.91916242015E+01 -0.20345756402E+02  0.26751850992E+02  0.00000000000E+00 0. -1.
</event>
<event>
 8    1  0.2402194E-006  0.9118800E+02  0.7816164E-02  0.1184000E+00
        -11   -1    0    0    0    0  0.00000000000E+00  0.00000000000E+00  0.45593999997E+02  0.45594000000E+02  0.51100000000E-03 0.  1.
         11   -1    0    0    0    0 -0.00000000000E+00 -0.00000000000E+00 -0.45593999997E+02  0.45594000000E+02  0.51100000000E-03 0. -1.
         23    2    1    2    0    0  0.88817841970E-15 -0.35527136788E-14  0.00000000000E+00  0.91188000000E+02  0.91188000000E+02 0.  0.
    9900012    2    3    3    0    0  0.54045397115E+01 -0.16273706590E+02  0.32584334120E+02  0.54367062944E+02  0.39999951593E+02 0.  0.
         12    1    3    3    0    0 -0.54045397115E+01  0.16273706590E+02 -0.32584334120E+02  0.36820937056E+02  0.00000000000E+00 0. -1.
         11    1    4    4    0    0 -0.11766726444E+02 -0.58558225362E+01  0.12976736999E+02  0.18470035522E+02  0.51100000000E-03 0. -1.
        -11    1    4    4    0    0  0.12321160869E+02 -0.17522374761E+02  0.14875219470E+02  0.26079048620E+02  0.51100000000E-03 0.  1.
         12    1    4    4    0    0  0.48501052871E+01  0.71044907073E+01  0.47323776510E+01  0.98179788011E+01  0.00000000000E+00 0. -1.
</event>
<event>
 8    1  0.2402194E-006  0.9118800E+02  0.7816164E-02  0.1184000E+00
        -11   -1    0    0    0    0  0.00000000000E+00  0.00000000000E+00  0.45593999997E+02  0.45594000000E+02  0.51100000000E-03 0. -1.
         11   -1    0    0    0    0 -0.00000000000E+00 -0.00000000000E+00 -0.45593999997E+02  0.45594000000E+02  0.51100000000E-03 0.  1.
         23    2    1    2    0    0 -0.35527136788E-14 -0.35527136788E-14  0.00000000000E+00  0.91188000000E+02  0.91188000000E+02 0.  0.
    9900012    2    3    3    0    0 -0.23578156484E+02 -0.27010063828E+02 -0.83849069743E+01  0.54367086430E+02  0.40000005134E+02 0.  0.
         12    1    3    3    0    0  0.23578156484E+02  0.27010063828E+02  0.83849069743E+01  0.36820913570E+02  0.00000000000E+00 0. -1.
         11    1    4    4    0    0 -0.17738915636E+01 -0.55896196922E+01 -0.82820648284E+01  0.10148060784E+02  0.51100000000E-03 0. -1.
        -11    1    4    4    0    0 -0.10810628193E+02 -0.96567927605E+01 -0.16001754504E+02  0.21591189773E+02  0.51100000000E-03 0.  1.
         12    1    4    4    0    0 -0.10993636727E+02 -0.11763651375E+02  0.15898912358E+02  0.22627835874E+02  0.00000000000E+00 0. -1.
</event>
<event>
 8    1  0.2402194E-006  0.9118800E+02  0.7816164E-02  0.1184000E+00
        -11   -1    0    0    0    0  0.00000000000E+00  0.00000000000E+00  0.45593999997E+02  0.45594000000E+02  0.51100000000E-03 0.  1.
         11   -1    0    0    0    0 -0.00000000000E+00 -0.00000000000E+00 -0.45593999997E+02  0.45594000000E+02  0.51100000000E-03 0. -1.
         23    2    1    2    0    0  0.71054273576E-14  0.17763568394E-14 -0.88817841970E-15  0.91188000000E+02  0.91188000000E+02 0.  0.
    9900012    2    3    3    0    0 -0.34817144385E+02 -0.10838917222E+02 -0.51054937087E+01  0.54367058463E+02  0.39999941378E+02 0.  0.
        -12    1    3    3    0    0  0.34817144385E+02  0.10838917222E+02  0.51054937087E+01  0.36820941537E+02  0.00000000000E+00 0.  1.
         11    1    4    4    0    0 -0.34722486199E+01 -0.84693874549E+00 -0.97723433061E+01  0.10405407713E+02  0.51100000000E-03 0. -1.
        -11    1    4    4    0    0 -0.25509561316E+02 -0.19326506967E+02  0.68748707166E+01  0.32734010413E+02  0.51100000000E-03 0.  1.
         12    1    4    4    0    0 -0.58353344491E+01  0.93345284908E+01 -0.22080211191E+01  0.11227640337E+02  0.00000000000E+00 0. -1.
</event>
<event>
 8    1  0.2402194E-006  0.9118800E+02  0.7816164E-02  0.1184000E+00
        -11   -1    0    0    0    0  0.00000000000E+00  0.00000000000E+00  0.45593999997E+02  0.45594000000E+02  0.51100000000E-03 0.  1.
         11   -1    0    0    0    0 -0.00000000000E+00 -0.00000000000E+00 -0.45593999997E+02  0.45594000000E+02  0.51100000000E-03 0. -1.
         23    2    1    2    0    0  0.00000000000E+00 -0.35527136788E-14 -0.17763568394E-14  0.91188000000E+02  0.91188000000E+02 0.  0.
    9900012    2    3    3    0    0 -0.17760360469E+02  0.28298570460E+02  0.15477098439E+02  0.54367081080E+02  0.39999992937E+02 0.  0.
         12    1    3    3    0    0  0.17760360469E+02 -0.28298570460E+02 -0.15477098439E+02  0.36820918920E+02  0.00000000000E+00 0. -1.
         11    1    4    4    0    0  0.30692702370E-01 -0.30376231305E+01  0.11487096646E+02  0.11881981567E+02  0.51100000000E-03 0.  1.
        -11    1    4    4    0    0 -0.15490676651E+02  0.18762967935E+02 -0.73297308224E+01  0.25411316043E+02  0.51100000000E-03 0. -1.
         12    1    4    4    0    0 -0.23003765203E+01  0.12573225655E+02  0.11319732615E+02  0.17073783470E+02  0.00000000000E+00 0. -1.
</event>
<event>
 8    1  0.2402194E-006  0.9118800E+02  0.7816164E-02  0.1184000E+00
        -11   -1    0    0    0    0  0.00000000000E+00  0.00000000000E+00  0.45593999997E+02  0.45594000000E+02  0.51100000000E-03 0. -1.
         11   -1    0    0    0    0 -0.00000000000E+00 -0.00000000000E+00 -0.45593999997E+02  0.45594000000E+02  0.51100000000E-03 0.  1.
         23    2    1    2    0    0 -0.17763568394E-14  0.00000000000E+00 -0.35527136788E-14  0.91188000000E+02  0.91188000000E+02 0.  0.
    9900012    2    3    3    0    0  0.14019885793E+02  0.16158283341E+02  0.29968847630E+02  0.54367093622E+02  0.40000021531E+02 0.  0.
        -12    1    3    3    0    0 -0.14019885793E+02 -0.16158283341E+02 -0.29968847630E+02  0.36820906378E+02  0.00000000000E+00 0.  1.
         11    1    4    4    0    0  0.44189773887E+01 -0.58872804968E+00 -0.63228097077E+01  0.77363999857E+01  0.51100000000E-03 0. -1.
        -11    1    4    4    0    0  0.91457643506E+01  0.12565450665E+02  0.70112867806E+01  0.17049741891E+02  0.51100000000E-03 0.  1.
         12    1    4    4    0    0  0.45514405334E+00  0.41815607262E+01  0.29280370557E+02  0.29580951746E+02  0.00000000000E+00 0. -1.
</event>
<event>
 8    1  0.2402194E-006  0.9118800E+02  0.7816164E-02  0.1184000E+00
        -11   -1    0    0    0    0  0.00000000000E+00  0.00000000000E+00  0.45593999997E+02  0.45594000000E+02  0.51100000000E-03 0. -1.
         11   -1    0    0    0    0 -0.00000000000E+00 -0.00000000000E+00 -0.45593999997E+02  0.45594000000E+02  0.51100000000E-03 0.  1.
         23    2    1    2    0    0 -0.55511151231E-16  0.00000000000E+00  0.17763568394E-14  0.91188000000E+02  0.91188000000E+02 0.  0.
    9900012    2    3    3    0    0  0.24777838888E+00  0.33737128420E+02  0.14748757335E+02  0.54367067487E+02  0.39999961950E+02 0.  0.
         12    1    3    3    0    0 -0.24777838888E+00 -0.33737128420E+02 -0.14748757335E+02  0.36820932513E+02  0.00000000000E+00 0. -1.
         11    1    4    4    0    0  0.71716203980E+01  0.89228125133E+01  0.19097731714E+00  0.11449244293E+02  0.51100000000E-03 0. -1.
        -11    1    4    4    0    0 -0.12505167247E+02  0.39464891112E+01 -0.47483832214E+01  0.13946366109E+02  0.51100000000E-03 0.  1.
         12    1    4    4    0    0  0.55813252378E+01  0.20867826796E+02  0.19306163239E+02  0.28971457085E+02  0.00000000000E+00 0. -1.
</event>
<event>
 8    1  0.2402194E-006  0.9118800E+02  0.7816164E-02  0.1184000E+00
        -11   -1    0    0    0    0  0.00000000000E+00  0.00000000000E+00  0.45593999997E+02  0.45594000000E+02  0.51100000000E-03 0.  1.
         11   -1    0    0    0    0 -0.00000000000E+00 -0.00000000000E+00 -0.45593999997E+02  0.45594000000E+02  0.51100000000E-03 0. -1.
         23    2    1    2    0    0  0.88817841970E-15  0.00000000000E+00  0.00000000000E+00  0.91188000000E+02  0.91188000000E+02 0.  0.
    9900012    2    3    3    0    0 -0.38847096481E+01 -0.32874732058E+02 -0.16122523065E+02  0.54367153636E+02  0.40000158345E+02 0.  0.
         12    1    3    3    0    0  0.38847096481E+01  0.32874732058E+02  0.16122523065E+02  0.36820846364E+02  0.00000000000E+00 0. -1.
         11    1    4    4    0    0 -0.71883574460E+01  0.63281860589E+01 -0.67116020073E+01  0.11694615143E+02  0.51100000000E-03 0. -1.
        -11    1    4    4    0    0 -0.47939254035E+01 -0.18961792179E+02 -0.20636850327E+01  0.19666979422E+02  0.51100000000E-03 0.  1.
         12    1    4    4    0    0  0.80975732014E+01 -0.20241125938E+02 -0.73472360247E+01  0.23005559071E+02  0.00000000000E+00 0. -1.
</event>
<event>
 8    1  0.2402194E-006  0.9118800E+02  0.7816164E-02  0.1184000E+00
        -11   -1    0    0    0    0  0.00000000000E+00  0.00000000000E+00  0.45593999997E+02  0.45594000000E+02  0.51100000000E-03 0.  1.
         11   -1    0    0    0    0 -0.00000000000E+00 -0.00000000000E+00 -0.45593999997E+02  0.45594000000E+02  0.51100000000E-03 0. -1.
         23    2    1    2    0    0  0.00000000000E+00  0.71054273576E-14 -0.17763568394E-14  0.91188000000E+02  0.91188000000E+02 0.  0.
    9900012    2    3    3    0    0 -0.26183931100E+02  0.22521610544E+02 -0.12765644344E+02  0.54367043130E+02  0.39999906423E+02 0.  0.
        -12    1    3    3    0    0  0.26183931100E+02 -0.22521610544E+02  0.12765644344E+02  0.36820956870E+02  0.00000000000E+00 0.  1.
         11    1    4    4    0    0 -0.25454206732E+02  0.15273113567E+01 -0.82957367599E+01  0.26815453921E+02  0.51100000000E-03 0. -1.
        -11    1    4    4    0    0 -0.65009400070E+01  0.46726496063E+01  0.31933713397E+01  0.86193674995E+01  0.51100000000E-03 0.  1.
        -12    1    4    4    0    0  0.57712156394E+01  0.16321649581E+02 -0.76632789233E+01  0.18932221709E+02  0.00000000000E+00 0.  1.
</event>
<event>
 8    1  0.2402194E-006  0.9118800E+02  0.7816164E-02  0.1184000E+00
        -11   -1    0    0    0    0  0.00000000000E+00  0.00000000000E+00  0.45593999997E+02  0.45594000000E+02  0.51100000000E-03 0.  1.
         11   -1    0    0    0    0 -0.00000000000E+00 -0.00000000000E+00 -0.45593999997E+02  0.45594000000E+02  0.51100000000E-03 0. -1.
         23    2    1    2    0    0 -0.35527136788E-14  0.00000000000E+00 -0.22204460493E-15  0.91188000000E+02  0.91188000000E+02 0.  0.
    9900012    2    3    3    0    0  0.29535710590E+02  0.21972503676E+02  0.79424711860E+00  0.54367082761E+02  0.39999996770E+02 0.  0.
         12    1    3    3    0    0 -0.29535710590E+02 -0.21972503676E+02 -0.79424711860E+00  0.36820917239E+02  0.00000000000E+00 0. -1.
         11    1    4    4    0    0 -0.52058403341E+00 -0.19899246799E+00 -0.21090641863E+01  0.21814577102E+01  0.51100000000E-03 0. -1.
        -11    1    4    4    0    0  0.17648357408E+02  0.26691262044E+01  0.17378911352E+02  0.24912151932E+02  0.51100000000E-03 0.  1.
         12    1    4    4    0    0  0.12407937216E+02  0.19502369940E+02 -0.14475600047E+02  0.27273473118E+02  0.00000000000E+00 0. -1.
</event>
<event>
 8    1  0.2402194E-006  0.9118800E+02  0.7816164E-02  0.1184000E+00
        -11   -1    0    0    0    0  0.00000000000E+00  0.00000000000E+00  0.45593999997E+02  0.45594000000E+02  0.51100000000E-03 0.  1.
         11   -1    0    0    0    0 -0.00000000000E+00 -0.00000000000E+00 -0.45593999997E+02  0.45594000000E+02  0.51100000000E-03 0. -1.
         23    2    1    2    0    0 -0.35527136788E-14 -0.35527136788E-14  0.00000000000E+00  0.91188000000E+02  0.91188000000E+02 0.  0.
    9900012    2    3    3    0    0 -0.23319324317E+02 -0.17871743660E+02  0.22194368518E+02  0.54367080648E+02  0.39999991953E+02 0.  0.
         12    1    3    3    0    0  0.23319324317E+02  0.17871743660E+02 -0.22194368518E+02  0.36820919352E+02  0.00000000000E+00 0. -1.
         11    1    4    4    0    0 -0.14719053245E+02 -0.11575883630E+02  0.11885672592E+02  0.22179288164E+02  0.51100000000E-03 0.  1.
        -11    1    4    4    0    0 -0.86967439675E+01  0.40725261789E+01 -0.70878894470E+01  0.11935535270E+02  0.51100000000E-03 0. -1.
         12    1    4    4    0    0  0.96472895998E-01 -0.10368386209E+02  0.17396585373E+02  0.20252257214E+02  0.00000000000E+00 0. -1.
</event>
<event>
 8    1  0.2402194E-006  0.9118800E+02  0.7816164E-02  0.1184000E+00
        -11   -1    0    0    0    0  0.00000000000E+00  0.00000000000E+00  0.45593999997E+02  0.45594000000E+02  0.51100000000E-03 0.  1.
         11   -1    0    0    0    0 -0.00000000000E+00 -0.00000000000E+00 -0.45593999997E+02  0.45594000000E+02  0.51100000000E-03 0. -1.
         23    2    1    2    0    0  0.00000000000E+00  0.00000000000E+00  0.00000000000E+00  0.91188000000E+02  0.91188000000E+02 0.  0.
    9900012    2    3    3    0    0  0.16674271994E+02 -0.27750639615E+02 -0.17539964805E+02  0.54367085957E+02  0.40000004057E+02 0.  0.
        -12    1    3    3    0    0 -0.16674271994E+02  0.27750639615E+02  0.17539964805E+02  0.36820914043E+02  0.00000000000E+00 0.  1.
         11    1    4    4    0    0  0.14889708757E+02 -0.18278021103E+02  0.80313379669E+01  0.24905659440E+02  0.51100000000E-03 0. -1.
        -11    1    4    4    0    0  0.23261418990E+01  0.20347693392E+01 -0.60747002495E+01  0.68156588662E+01  0.51100000000E-03 0.  1.
         12    1    4    4    0    0 -0.54157866223E+00 -0.11507387851E+02 -0.19496602522E+02  0.22645767651E+02  0.00000000000E+00 0. -1.
</event>
<event>
 8    1  0.2402194E-006  0.9118800E+02  0.7816164E-02  0.1184000E+00
        -11   -1    0    0    0    0  0.00000000000E+00  0.00000000000E+00  0.45593999997E+02  0.45594000000E+02  0.51100000000E-03 0.  1.
         11   -1    0    0    0    0 -0.00000000000E+00 -0.00000000000E+00 -0.45593999997E+02  0.45594000000E+02  0.51100000000E-03 0. -1.
         23    2    1    2    0    0  0.00000000000E+00  0.13322676296E-14 -0.35527136788E-14  0.91188000000E+02  0.91188000000E+02 0.  0.
    9900012    2    3    3    0    0 -0.27742189978E+02 -0.26584326042E+01  0.24064156150E+02  0.54367082305E+02  0.39999995730E+02 0.  0.
         12    1    3    3    0    0  0.27742189978E+02  0.26584326042E+01 -0.24064156150E+02  0.36820917695E+02  0.00000000000E+00 0. -1.
         11    1    4    4    0    0 -0.62892305363E+01 -0.53885650144E+01  0.68282164305E+01  0.10733852688E+02  0.51100000000E-03 0. -1.
        -11    1    4    4    0    0 -0.20503923583E+02  0.12323473199E+02  0.22334510541E+02  0.32727805233E+02  0.51100000000E-03 0.  1.
        -12    1    4    4    0    0 -0.94903585834E+00 -0.95933407888E+01 -0.50985708217E+01  0.10905424383E+02  0.00000000000E+00 0.  1.
</event>
<event>
 8    1  0.2402194E-006  0.9118800E+02  0.7816164E-02  0.1184000E+00
        -11   -1    0    0    0    0  0.00000000000E+00  0.00000000000E+00  0.45593999997E+02  0.45594000000E+02  0.51100000000E-03 0.  1.
         11   -1    0    0    0    0 -0.00000000000E+00 -0.00000000000E+00 -0.45593999997E+02  0.45594000000E+02  0.51100000000E-03 0. -1.
         23    2    1    2    0    0  0.00000000000E+00 -0.35527136788E-14  0.00000000000E+00  0.91188000000E+02  0.91188000000E+02 0.  0.
    9900012    2    3    3    0    0  0.10716628630E+02 -0.28750574582E+02  0.20355197313E+02  0.54367140074E+02  0.40000127427E+02 0.  0.
         12    1    3    3    0    0 -0.10716628630E+02  0.28750574582E+02 -0.20355197313E+02  0.36820859926E+02  0.00000000000E+00 0. -1.
         11    1    4    4    0    0  0.35785637097E+00 -0.57709941161E+01 -0.87296261742E+01  0.10470855155E+02  0.51100000000E-03 0. -1.
        -11    1    4    4    0    0  0.13803639817E+02 -0.52671224299E+01  0.11789111348E+02  0.18901486649E+02  0.51100000000E-03 0.  1.
         12    1    4    4    0    0 -0.34448675588E+01 -0.17712458036E+02  0.17295712140E+02  0.24994798271E+02  0.00000000000E+00 0. -1.
</event>
<event>
 8    1  0.2402194E-006  0.9118800E+02  0.7816164E-02  0.1184000E+00
        -11   -1    0    0    0    0  0.00000000000E+00  0.00000000000E+00  0.45593999997E+02  0.45594000000E+02  0.51100000000E-03 0. -1.
         11   -1    0    0    0    0 -0.00000000000E+00 -0.00000000000E+00 -0.45593999997E+02  0.45594000000E+02  0.51100000000E-03 0.  1.
         23    2    1    2    0    0  0.00000000000E+00  0.00000000000E+00  0.35527136788E-14  0.91188000000E+02  0.91188000000E+02 0.  0.
    9900012    2    3    3    0    0  0.10769666534E+02 -0.33071924576E+02 -0.12084837429E+02  0.54367065627E+02  0.39999957710E+02 0.  0.
        -12    1    3    3    0    0 -0.10769666534E+02  0.33071924576E+02  0.12084837429E+02  0.36820934373E+02  0.00000000000E+00 0.  1.
         11    1    4    4    0    0 -0.47684461000E+01 -0.77657229115E+01  0.10023617781E+02  0.13546861047E+02  0.51100000000E-03 0. -1.
        -11    1    4    4    0    0  0.74460603127E+01 -0.24417119650E+02 -0.19949966469E+02  0.32398159030E+02  0.51100000000E-03 0.  1.
         12    1    4    4    0    0  0.80920523212E+01 -0.88908201437E+00 -0.21584887413E+01  0.84220455499E+01  0.00000000000E+00 0. -1.
</event>
<event>
 8    1  0.2402194E-006  0.9118800E+02  0.7816164E-02  0.1184000E+00
        -11   -1    0    0    0    0  0.00000000000E+00  0.00000000000E+00  0.45593999997E+02  0.45594000000E+02  0.51100000000E-03 0.  1.
         11   -1    0    0    0    0 -0.00000000000E+00 -0.00000000000E+00 -0.45593999997E+02  0.45594000000E+02  0.51100000000E-03 0. -1.
         23    2    1    2    0    0 -0.35527136788E-14  0.00000000000E+00  0.00000000000E+00  0.91188000000E+02  0.91188000000E+02 0.  0.
    9900012    2    3    3    0    0 -0.19435432337E+02 -0.14532754104E+02 -0.27691957501E+02  0.54367061905E+02  0.39999949224E+02 0.  0.
        -12    1    3    3    0    0  0.19435432337E+02  0.14532754104E+02  0.27691957501E+02  0.36820938095E+02  0.00000000000E+00 0.  1.
         11    1    4    4    0    0  0.37884151686E+01 -0.69265325762E+01  0.18470410217E+01  0.81080517892E+01  0.51100000000E-03 0.  1.
        -11    1    4    4    0    0  0.53281168161E+00 -0.11485475876E+02 -0.10455168626E+02  0.15540611173E+02  0.51100000000E-03 0. -1.
         12    1    4    4    0    0 -0.23756659187E+02  0.38792543481E+01 -0.19083829897E+02  0.30718398942E+02  0.00000000000E+00 0. -1.
</event>
<event>
 8    1  0.2402194E-006  0.9118800E+02  0.7816164E-02  0.1184000E+00
        -11   -1    0    0    0    0  0.00000000000E+00  0.00000000000E+00  0.45593999997E+02  0.45594000000E+02  0.51100000000E-03 0.  1.
         11   -1    0    0    0    0 -0.00000000000E+00 -0.00000000000E+00 -0.45593999997E+02  0.45594000000E+02  0.51100000000E-03 0. -1.
         23    2    1    2    0    0  0.00000000000E+00  0.88817841970E-15  0.00000000000E+00  0.91188000000E+02  0.91188000000E+02 0.  0.
    9900012    2    3    3    0    0 -0.16551004223E+02  0.67351542893E+01  0.32194451253E+02  0.54367072044E+02  0.39999972338E+02 0.  0.
         12    1    3    3    0    0  0.16551004223E+02 -0.67351542893E+01 -0.32194451253E+02  0.36820927956E+02  0.00000000000E+00 0. -1.
         11    1    4    4    0    0 -0.93485713633E+01 -0.10465355433E+02  0.26222887585E+02  0.29741541393E+02  0.51100000000E-03 0.  1.
        -11    1    4    4    0    0 -0.89331742206E+01  0.17328794895E+02  0.87342548398E+01  0.21362957240E+02  0.51100000000E-03 0. -1.
        -12    1    4    4    0    0  0.17307413607E+01 -0.12828517353E+00 -0.27626911724E+01  0.32625734103E+01  0.00000000000E+00 0.  1.
</event>
<event>
 8    1  0.2402194E-006  0.9118800E+02  0.7816164E-02  0.1184000E+00
        -11   -1    0    0    0    0  0.00000000000E+00  0.00000000000E+00  0.45593999997E+02  0.45594000000E+02  0.51100000000E-03 0. -1.
         11   -1    0    0    0    0 -0.00000000000E+00 -0.00000000000E+00 -0.45593999997E+02  0.45594000000E+02  0.51100000000E-03 0.  1.
         23    2    1    2    0    0 -0.35527136788E-14  0.00000000000E+00  0.35527136788E-14  0.91188000000E+02  0.91188000000E+02 0.  0.
    9900012    2    3    3    0    0  0.21811473513E+02  0.24969482807E+02  0.16017571800E+02  0.54367108446E+02  0.40000055324E+02 0.  0.
        -12    1    3    3    0    0 -0.21811473513E+02 -0.24969482807E+02 -0.16017571800E+02  0.36820891554E+02  0.00000000000E+00 0.  1.
         11    1    4    4    0    0 -0.38557154941E+01 -0.40822414729E+00  0.10454814622E+02  0.11150620519E+02  0.51100000000E-03 0. -1.
        -11    1    4    4    0    0  0.15828179241E+01  0.15884100290E+02  0.66807824130E+01  0.17304415867E+02  0.51100000000E-03 0.  1.
         12    1    4    4    0    0  0.24084371083E+02  0.94936066647E+01 -0.11180252349E+01  0.25912072059E+02  0.00000000000E+00 0. -1.
</event>
<event>
 8    1  0.2402194E-006  0.9118800E+02  0.7816164E-02  0.1184000E+00
        -11   -1    0    0    0    0  0.00000000000E+00  0.00000000000E+00  0.45593999997E+02  0.45594000000E+02  0.51100000000E-03 0. -1.
         11   -1    0    0    0    0 -0.00000000000E+00 -0.00000000000E+00 -0.45593999997E+02  0.45594000000E+02  0.51100000000E-03 0.  1.
         23    2    1    2    0    0 -0.88817841970E-15 -0.35527136788E-14  0.00000000000E+00  0.91188000000E+02  0.91188000000E+02 0.  0.
    9900012    2    3    3    0    0 -0.67476578008E+01 -0.31250291919E+02 -0.18266378190E+02  0.54367187910E+02  0.40000236477E+02 0.  0.
         12    1    3    3    0    0  0.67476578008E+01  0.31250291919E+02  0.18266378190E+02  0.36820812090E+02  0.00000000000E+00 0. -1.
         11    1    4    4    0    0  0.66349281170E+01 -0.78995368621E+01 -0.86708129152E+01  0.13476199413E+02  0.51100000000E-03 0. -1.
        -11    1    4    4    0    0 -0.62586432509E+01 -0.11735711066E+02 -0.19810734941E+02  0.23861323281E+02  0.51100000000E-03 0.  1.
        -12    1    4    4    0    0 -0.71239426669E+01 -0.11615043991E+02  0.10215169667E+02  0.17029665215E+02  0.00000000000E+00 0.  1.
</event>
<event>
 8    1  0.2402194E-006  0.9118800E+02  0.7816164E-02  0.1184000E+00
        -11   -1    0    0    0    0  0.00000000000E+00  0.00000000000E+00  0.45593999997E+02  0.45594000000E+02  0.51100000000E-03 0.  1.
         11   -1    0    0    0    0 -0.00000000000E+00 -0.00000000000E+00 -0.45593999997E+02  0.45594000000E+02  0.51100000000E-03 0. -1.
         23    2    1    2    0    0  0.00000000000E+00  0.00000000000E+00  0.88817841970E-15  0.91188000000E+02  0.91188000000E+02 0.  0.
    9900012    2    3    3    0    0  0.31193351926E+02 -0.18765493510E+02  0.55326099309E+01  0.54367099363E+02  0.40000034619E+02 0.  0.
        -12    1    3    3    0    0 -0.31193351926E+02  0.18765493510E+02 -0.55326099309E+01  0.36820900637E+02  0.00000000000E+00 0.  1.
         11    1    4    4    0    0  0.35095867156E+02 -0.10805224988E+02 -0.29623122468E+01  0.36840847881E+02  0.51100000000E-03 0. -1.
        -11    1    4    4    0    0  0.16914493634E+01 -0.49279803674E+01  0.97368770259E+01  0.11043222624E+02  0.51100000000E-03 0.  1.
         12    1    4    4    0    0 -0.55939645939E+01 -0.30322881553E+01 -0.12419548482E+01  0.64830288584E+01  0.00000000000E+00 0. -1.
</event>
<event>
 8    1  0.2402194E-006  0.9118800E+02  0.7816164E-02  0.1184000E+00
        -11   -1    0    0    0    0  0.00000000000E+00  0.00000000000E+00  0.45593999997E+02  0.45594000000E+02  0.51100000000E-03 0.  1.
         11   -1    0    0    0    0 -0.00000000000E+00 -0.00000000000E+00 -0.45593999997E+02  0.45594000000E+02  0.51100000000E-03 0. -1.
         23    2    1    2    0    0 -0.71054273576E-14  0.00000000000E+00  0.17763568394E-14  0.91188000000E+02  0.91188000000E+02 0.  0.
    9900012    2    3    3    0    0  0.33573225025E+02 -0.11201300968E+02 -0.10156246216E+02  0.54367083130E+02  0.39999997611E+02 0.  0.
        -12    1    3    3    0    0 -0.33573225025E+02  0.11201300968E+02  0.10156246216E+02  0.36820916870E+02  0.00000000000E+00 0.  1.
         11    1    4    4    0    0  0.32981537548E+02 -0.17873320191E+02 -0.56965390950E+01  0.37943220100E+02  0.51100000000E-03 0. -1.
        -11    1    4    4    0    0 -0.47953543506E+01  0.17452918892E+01 -0.70278036358E+01  0.86851304729E+01  0.51100000000E-03 0.  1.
         12    1    4    4    0    0  0.53870418282E+01  0.49267273335E+01  0.25680965144E+01  0.77387325567E+01  0.00000000000E+00 0. -1.
</event>
<event>
 8    1  0.2402194E-006  0.9118800E+02  0.7816164E-02  0.1184000E+00
        -11   -1    0    0    0    0  0.00000000000E+00  0.00000000000E+00  0.45593999997E+02  0.45594000000E+02  0.51100000000E-03 0. -1.
         11   -1    0    0    0    0 -0.00000000000E+00 -0.00000000000E+00 -0.45593999997E+02  0.45594000000E+02  0.51100000000E-03 0.  1.
         23    2    1    2    0    0  0.00000000000E+00  0.00000000000E+00  0.35527136788E-14  0.91188000000E+02  0.91188000000E+02 0.  0.
    9900012    2    3    3    0    0 -0.18440974461E+02 -0.12130424195E+02 -0.29471407177E+02  0.54367074276E+02  0.39999977427E+02 0.  0.
         12    1    3    3    0    0  0.18440974461E+02  0.12130424195E+02  0.29471407177E+02  0.36820925724E+02  0.00000000000E+00 0. -1.
         11    1    4    4    0    0  0.10115637175E+00  0.48352824803E+01 -0.41927921125E+01  0.64007573955E+01  0.51100000000E-03 0. -1.
        -11    1    4    4    0    0 -0.93972677788E+01  0.89166152033E+01 -0.11156755077E+02  0.17096428063E+02  0.51100000000E-03 0.  1.
        -12    1    4    4    0    0 -0.91448630535E+01 -0.25882321879E+02 -0.14121859987E+02  0.30869888818E+02  0.00000000000E+00 0.  1.
</event>
<event>
 8    1  0.2402194E-006  0.9118800E+02  0.7816164E-02  0.1184000E+00
        -11   -1    0    0    0    0  0.00000000000E+00  0.00000000000E+00  0.45593999997E+02  0.45594000000E+02  0.51100000000E-03 0. -1.
         11   -1    0    0    0    0 -0.00000000000E+00 -0.00000000000E+00 -0.45593999997E+02  0.45594000000E+02  0.51100000000E-03 0.  1.
         23    2    1    2    0    0 -0.88817841970E-15  0.00000000000E+00  0.00000000000E+00  0.91188000000E+02  0.91188000000E+02 0.  0.
    9900012    2    3    3    0    0  0.75635570631E+01  0.33357246979E+02 -0.13633245759E+02  0.54367099530E+02  0.40000034999E+02 0.  0.
        -12    1    3    3    0    0 -0.75635570631E+01 -0.33357246979E+02  0.13633245759E+02  0.36820900470E+02  0.00000000000E+00 0.  1.
         11    1    4    4    0    0  0.32228387091E+01  0.11033694082E+02 -0.24932550903E+01  0.11762032802E+02  0.51100000000E-03 0.  1.
        -11    1    4    4    0    0  0.70086780525E+01  0.25727016588E+02 -0.19607163834E+02  0.33097459487E+02  0.51100000000E-03 0. -1.
         12    1    4    4    0    0 -0.26679596985E+01 -0.34034636912E+01  0.84671731650E+01  0.95076072414E+01  0.00000000000E+00 0. -1.
</event>
<event>
 8    1  0.2402194E-006  0.9118800E+02  0.7816164E-02  0.1184000E+00
        -11   -1    0    0    0    0  0.00000000000E+00  0.00000000000E+00  0.45593999997E+02  0.45594000000E+02  0.51100000000E-03 0. -1.
         11   -1    0    0    0    0 -0.00000000000E+00 -0.00000000000E+00 -0.45593999997E+02  0.45594000000E+02  0.51100000000E-03 0.  1.
         23    2    1    2    0    0  0.00000000000E+00  0.00000000000E+00  0.00000000000E+00  0.91188000000E+02  0.91188000000E+02 0.  0.
    9900012    2    3    3    0    0  0.33151449773E+02 -0.86711080057E+01 -0.13474934386E+02  0.54367073983E+02  0.39999976758E+02 0.  0.
         12    1    3    3    0    0 -0.33151449773E+02  0.86711080057E+01  0.13474934386E+02  0.36820926017E+02  0.00000000000E+00 0. -1.
         11    1    4    4    0    0  0.44903886849E+01 -0.20215637528E+01  0.33496887266E+01  0.59557304652E+01  0.51100000000E-03 0. -1.
        -11    1    4    4    0    0  0.34651800475E+02  0.20670631835E+01 -0.11491180041E+02  0.36565930118E+02  0.51100000000E-03 0.  1.
        -12    1    4    4    0    0 -0.59907393875E+01 -0.87166074364E+01 -0.53334430713E+01  0.11845413399E+02  0.00000000000E+00 0.  1.
</event>
<event>
 8    1  0.2402194E-006  0.9118800E+02  0.7816164E-02  0.1184000E+00
        -11   -1    0    0    0    0  0.00000000000E+00  0.00000000000E+00  0.45593999997E+02  0.45594000000E+02  0.51100000000E-03 0. -1.
         11   -1    0    0    0    0 -0.00000000000E+00 -0.00000000000E+00 -0.45593999997E+02  0.45594000000E+02  0.51100000000E-03 0.  1.
         23    2    1    2    0    0 -0.35527136788E-14  0.17763568394E-14  0.00000000000E+00  0.91188000000E+02  0.91188000000E+02 0.  0.
    9900012    2    3    3    0    0 -0.14388809190E+02  0.86546079144E+01  0.32769491955E+02  0.54367086499E+02  0.40000005292E+02 0.  0.
        -12    1    3    3    0    0  0.14388809190E+02 -0.86546079144E+01 -0.32769491955E+02  0.36820913501E+02  0.00000000000E+00 0.  1.
         11    1    4    4    0    0 -0.11903027937E+02  0.82676355016E+01  0.20514425235E+02  0.25117275207E+02  0.51100000000E-03 0. -1.
        -11    1    4    4    0    0  0.21387881572E+01 -0.86938815433E+01  0.16047762328E+02  0.18376307221E+02  0.51100000000E-03 0.  1.
        -12    1    4    4    0    0 -0.46245694105E+01  0.90808539562E+01 -0.37926956082E+01  0.10873504071E+02  0.00000000000E+00 0.  1.
</event>
<event>
 8    1  0.2402194E-006  0.9118800E+02  0.7816164E-02  0.1184000E+00
        -11   -1    0    0    0    0  0.00000000000E+00  0.00000000000E+00  0.45593999997E+02  0.45594000000E+02  0.51100000000E-03 0.  1.
         11   -1    0    0    0    0 -0.00000000000E+00 -0.00000000000E+00 -0.45593999997E+02  0.45594000000E+02  0.51100000000E-03 0. -1.
         23    2    1    2    0    0  0.44408920985E-15  0.44408920985E-15 -0.71054273576E-14  0.91188000000E+02  0.91188000000E+02 0.  0.
    9900012    2    3    3    0    0  0.39097670797E+01  0.29717801872E+01  0.36491942020E+02  0.54367087621E+02  0.40000007848E+02 0.  0.
         12    1    3    3    0    0 -0.39097670797E+01 -0.29717801872E+01 -0.36491942020E+02  0.36820912379E+02  0.00000000000E+00 0. -1.
         11    1    4    4    0    0  0.57827260043E+01 -0.10128492918E+02  0.13669177440E+02  0.17968658853E+02  0.51100000000E-03 0. -1.
        -11    1    4    4    0    0 -0.44638742823E+01 -0.10332806216E+01  0.21483963104E+02  0.21967123466E+02  0.51100000000E-03 0.  1.
         12    1    4    4    0    0  0.25909153576E+01  0.14133553726E+02  0.13388014756E+01  0.14431305302E+02  0.00000000000E+00 0. -1.
</event>
<event>
 8    1  0.2402194E-006  0.9118800E+02  0.7816164E-02  0.1184000E+00
        -11   -1    0    0    0    0  0.00000000000E+00  0.00000000000E+00  0.45593999997E+02  0.45594000000E+02  0.51100000000E-03 0.  1.
         11   -1    0    0    0    0 -0.00000000000E+00 -0.00000000000E+00 -0.45593999997E+02  0.45594000000E+02  0.51100000000E-03 0. -1.
         23    2    1    2    0    0  0.00000000000E+00  0.17763568394E-14 -0.35527136788E-14  0.91188000000E+02  0.91188000000E+02 0.  0.
    9900012    2    3    3    0    0  0.24345902403E+02 -0.11672948360E+02  0.25036033615E+02  0.54367032245E+02  0.39999881609E+02 0.  0.
        -12    1    3    3    0    0 -0.24345902403E+02  0.11672948360E+02 -0.25036033615E+02  0.36820967755E+02  0.00000000000E+00 0.  1.
         11    1    4    4    0    0  0.11489621280E+02  0.33726809462E+00 -0.26069791142E+01  0.11786495972E+02  0.51100000000E-03 0. -1.
        -11    1    4    4    0    0  0.95239210050E+00  0.26314630807E+01  0.22970751214E+02  0.23140593343E+02  0.51100000000E-03 0.  1.
         12    1    4    4    0    0  0.11903889022E+02 -0.14641679535E+02  0.46722615156E+01  0.19439942930E+02  0.00000000000E+00 0. -1.
</event>
<event>
 8    1  0.2402194E-006  0.9118800E+02  0.7816164E-02  0.1184000E+00
        -11   -1    0    0    0    0  0.00000000000E+00  0.00000000000E+00  0.45593999997E+02  0.45594000000E+02  0.51100000000E-03 0. -1.
         11   -1    0    0    0    0 -0.00000000000E+00 -0.00000000000E+00 -0.45593999997E+02  0.45594000000E+02  0.51100000000E-03 0.  1.
         23    2    1    2    0    0  0.00000000000E+00  0.00000000000E+00 -0.35527136788E-14  0.91188000000E+02  0.91188000000E+02 0.  0.
    9900012    2    3    3    0    0 -0.29605638767E+01  0.30870984998E+02 -0.19849368444E+02  0.54367080935E+02  0.39999992607E+02 0.  0.
         12    1    3    3    0    0  0.29605638767E+01 -0.30870984998E+02  0.19849368444E+02  0.36820919065E+02  0.00000000000E+00 0. -1.
         11    1    4    4    0    0  0.73899960879E+00 -0.78007338921E+01 -0.15575323635E+01  0.79889596946E+01  0.51100000000E-03 0. -1.
        -11    1    4    4    0    0 -0.10704311936E+02  0.22640860112E+02 -0.93624264746E+01  0.26736601699E+02  0.51100000000E-03 0.  1.
        -12    1    4    4    0    0  0.70047484503E+01  0.16030858778E+02 -0.89294096055E+01  0.19641519542E+02  0.00000000000E+00 0.  1.
</event>
<event>
 8    1  0.2402194E-006  0.9118800E+02  0.7816164E-02  0.1184000E+00
        -11   -1    0    0    0    0  0.00000000000E+00  0.00000000000E+00  0.45593999997E+02  0.45594000000E+02  0.51100000000E-03 0. -1.
         11   -1    0    0    0    0 -0.00000000000E+00 -0.00000000000E+00 -0.45593999997E+02  0.45594000000E+02  0.51100000000E-03 0.  1.
         23    2    1    2    0    0 -0.88817841970E-15 -0.17763568394E-14  0.00000000000E+00  0.91188000000E+02  0.91188000000E+02 0.  0.
    9900012    2    3    3    0    0 -0.52251737766E+01 -0.12738593064E+02  0.34149749207E+02  0.54367087937E+02  0.40000008569E+02 0.  0.
        -12    1    3    3    0    0  0.52251737766E+01  0.12738593064E+02 -0.34149749207E+02  0.36820912063E+02  0.00000000000E+00 0.  1.
         11    1    4    4    0    0  0.84238276312E+01 -0.13137116912E+00  0.55554306332E-01  0.84250351267E+01  0.51100000000E-03 0. -1.
        -11    1    4    4    0    0 -0.37628583591E+00 -0.77068732283E+01 -0.12999709562E+01  0.78247946130E+01  0.51100000000E-03 0.  1.
         12    1    4    4    0    0 -0.13272715572E+02 -0.49003486669E+01  0.35394165857E+02  0.38117258197E+02  0.00000000000E+00 0. -1.
</event>
<event>
 8    1  0.2402194E-006  0.9118800E+02  0.7816164E-02  0.1184000E+00
        -11   -1    0    0    0    0  0.00000000000E+00  0.00000000000E+00  0.45593999997E+02  0.45594000000E+02  0.51100000000E-03 0.  1.
         11   -1    0    0    0    0 -0.00000000000E+00 -0.00000000000E+00 -0.45593999997E+02  0.45594000000E+02  0.51100000000E-03 0. -1.
         23    2    1    2    0    0  0.00000000000E+00  0.00000000000E+00  0.35527136788E-14  0.91188000000E+02  0.91188000000E+02 0.  0.
    9900012    2    3    3    0    0 -0.16516503554E+02 -0.17392666993E+02 -0.27936902603E+02  0.54367213997E+02  0.40000295949E+02 0.  0.
        -12    1    3    3    0    0  0.16516503554E+02  0.17392666993E+02  0.27936902603E+02  0.36820786003E+02  0.00000000000E+00 0.  1.
         11    1    4    4    0    0 -0.58608324405E+01 -0.98616759131E+01 -0.92092227847E+01  0.14710941278E+02  0.51100000000E-03 0. -1.
        -11    1    4    4    0    0 -0.15912604807E+02 -0.17574984151E+01  0.32472168094E+01  0.16335366837E+02  0.51100000000E-03 0.  1.
        -12    1    4    4    0    0  0.52569336931E+01 -0.57734926646E+01 -0.21974896628E+02  0.23320905883E+02  0.00000000000E+00 0.  1.
</event>
<event>
 8    1  0.2402194E-006  0.9118800E+02  0.7816164E-02  0.1184000E+00
        -11   -1    0    0    0    0  0.00000000000E+00  0.00000000000E+00  0.45593999997E+02  0.45594000000E+02  0.51100000000E-03 0.  1.
         11   -1    0    0    0    0 -0.00000000000E+00 -0.00000000000E+00 -0.45593999997E+02  0.45594000000E+02  0.51100000000E-03 0. -1.
         23    2    1    2    0    0 -0.35527136788E-14  0.00000000000E+00  0.88817841970E-15  0.91188000000E+02  0.91188000000E+02 0.  0.
    9900012    2    3    3    0    0 -0.23440776621E+02  0.28197424448E+02 -0.33489114202E+01  0.54367082550E+02  0.39999996290E+02 0.  0.
        -12    1    3    3    0    0  0.23440776621E+02 -0.28197424448E+02  0.33489114202E+01  0.36820917450E+02  0.00000000000E+00 0.  1.
         11    1    4    4    0    0 -0.20625960384E+02  0.15995515283E+02 -0.12141403517E+02  0.28787157389E+02  0.51100000000E-03 0. -1.
        -11    1    4    4    0    0  0.73490260268E+01  0.66052330391E+01 -0.15920979647E+01  0.10008599464E+02  0.51100000000E-03 0.  1.
        -12    1    4    4    0    0 -0.10163842264E+02  0.55966761260E+01  0.10384590061E+02  0.15571325697E+02  0.00000000000E+00 0.  1.
</event>
<event>
 8    1  0.2402194E-006  0.9118800E+02  0.7816164E-02  0.1184000E+00
        -11   -1    0    0    0    0  0.00000000000E+00  0.00000000000E+00  0.45593999997E+02  0.45594000000E+02  0.51100000000E-03 0. -1.
         11   -1    0    0    0    0 -0.00000000000E+00 -0.00000000000E+00 -0.45593999997E+02  0.45594000000E+02  0.51100000000E-03 0.  1.
         23    2    1    2    0    0  0.00000000000E+00 -0.35527136788E-14 -0.35527136788E-14  0.91188000000E+02  0.91188000000E+02 0.  0.
    9900012    2    3    3    0    0 -0.12060836060E+02  0.23831134336E+02 -0.25345504614E+02  0.54367063913E+02  0.39999953802E+02 0.  0.
         12    1    3    3    0    0  0.12060836060E+02 -0.23831134336E+02  0.25345504614E+02  0.36820936087E+02  0.00000000000E+00 0. -1.
         11    1    4    4    0    0 -0.50406227372E+01 -0.79489439998E+01 -0.40346542066E+01  0.10240704230E+02  0.51100000000E-03 0. -1.
        -11    1    4    4    0    0  0.47094787866E+00  0.35468914631E+01 -0.13392200420E+02  0.13861935771E+02  0.51100000000E-03 0.  1.
        -12    1    4    4    0    0 -0.74911612011E+01  0.28233186873E+02 -0.79186499874E+01  0.30264423913E+02  0.00000000000E+00 0.  1.
</event>
<event>
 8    1  0.2402194E-006  0.9118800E+02  0.7816164E-02  0.1184000E+00
        -11   -1    0    0    0    0  0.00000000000E+00  0.00000000000E+00  0.45593999997E+02  0.45594000000E+02  0.51100000000E-03 0. -1.
         11   -1    0    0    0    0 -0.00000000000E+00 -0.00000000000E+00 -0.45593999997E+02  0.45594000000E+02  0.51100000000E-03 0.  1.
         23    2    1    2    0    0  0.00000000000E+00  0.35527136788E-14 -0.35527136788E-14  0.91188000000E+02  0.91188000000E+02 0.  0.
    9900012    2    3    3    0    0 -0.19401025769E+02 -0.24486579183E+02  0.19488134485E+02  0.54367085472E+02  0.40000002950E+02 0.  0.
        -12    1    3    3    0    0  0.19401025769E+02  0.24486579183E+02 -0.19488134485E+02  0.36820914528E+02  0.00000000000E+00 0.  1.
         11    1    4    4    0    0  0.74344711030E+01 -0.11651248215E+02  0.10558835339E+02  0.17392870652E+02  0.51100000000E-03 0. -1.
        -11    1    4    4    0    0 -0.56082510246E+01  0.45172948921E+01  0.60513934699E+01  0.94062636517E+01  0.51100000000E-03 0.  1.
         12    1    4    4    0    0 -0.21227245848E+02 -0.17352625860E+02  0.28779056760E+01  0.27567951168E+02  0.00000000000E+00 0. -1.
</event>
<event>
 8    1  0.2402194E-006  0.9118800E+02  0.7816164E-02  0.1184000E+00
        -11   -1    0    0    0    0  0.00000000000E+00  0.00000000000E+00  0.45593999997E+02  0.45594000000E+02  0.51100000000E-03 0. -1.
         11   -1    0    0    0    0 -0.00000000000E+00 -0.00000000000E+00 -0.45593999997E+02  0.45594000000E+02  0.51100000000E-03 0.  1.
         23    2    1    2    0    0  0.35527136788E-14  0.00000000000E+00  0.17763568394E-14  0.91188000000E+02  0.91188000000E+02 0.  0.
    9900012    2    3    3    0    0  0.31583282828E+02 -0.12764009369E+02 -0.13976967574E+02  0.54367091376E+02  0.40000016409E+02 0.  0.
         12    1    3    3    0    0 -0.31583282828E+02  0.12764009369E+02  0.13976967574E+02  0.36820908624E+02  0.00000000000E+00 0. -1.
         11    1    4    4    0    0  0.11219440750E+02  0.45111087424E+01 -0.25835283807E+00  0.12095151891E+02  0.51100000000E-03 0. -1.
        -11    1    4    4    0    0  0.37163888786E+01 -0.10773998033E+02 -0.20255878568E+02  0.23242013612E+02  0.51100000000E-03 0.  1.
        -12    1    4    4    0    0  0.16647453199E+02 -0.65011200781E+01  0.65372638319E+01  0.19029925872E+02  0.00000000000E+00 0.  1.
</event>
<event>
 8    1  0.2402194E-006  0.9118800E+02  0.7816164E-02  0.1184000E+00
        -11   -1    0    0    0    0  0.00000000000E+00  0.00000000000E+00  0.45593999997E+02  0.45594000000E+02  0.51100000000E-03 0. -1.
         11   -1    0    0    0    0 -0.00000000000E+00 -0.00000000000E+00 -0.45593999997E+02  0.45594000000E+02  0.51100000000E-03 0.  1.
         23    2    1    2    0    0  0.00000000000E+00  0.00000000000E+00  0.35527136788E-14  0.91188000000E+02  0.91188000000E+02 0.  0.
    9900012    2    3    3    0    0 -0.20580792179E+02 -0.95303244853E+01 -0.29006626095E+02  0.54367075936E+02  0.39999981212E+02 0.  0.
         12    1    3    3    0    0  0.20580792179E+02  0.95303244853E+01  0.29006626095E+02  0.36820924064E+02  0.00000000000E+00 0. -1.
         11    1    4    4    0    0  0.10043362847E+02 -0.61720296094E+01 -0.37934746588E+01  0.12383599518E+02  0.51100000000E-03 0. -1.
        -11    1    4    4    0    0 -0.17413517525E+01 -0.35338274998E+01 -0.63938798021E+01  0.75101226294E+01  0.51100000000E-03 0.  1.
         12    1    4    4    0    0 -0.28882803273E+02  0.17553262387E+00 -0.18819271634E+02  0.34473353789E+02  0.00000000000E+00 0. -1.
</event>
<event>
 8    1  0.2402194E-006  0.9118800E+02  0.7816164E-02  0.1184000E+00
        -11   -1    0    0    0    0  0.00000000000E+00  0.00000000000E+00  0.45593999997E+02  0.45594000000E+02  0.51100000000E-03 0.  1.
         11   -1    0    0    0    0 -0.00000000000E+00 -0.00000000000E+00 -0.45593999997E+02  0.45594000000E+02  0.51100000000E-03 0. -1.
         23    2    1    2    0    0  0.00000000000E+00  0.00000000000E+00  0.00000000000E+00  0.91188000000E+02  0.91188000000E+02 0.  0.
    9900012    2    3    3    0    0  0.86759173657E+01  0.10792595117E+01  0.35767933437E+02  0.54367062946E+02  0.39999951597E+02 0.  0.
         12    1    3    3    0    0 -0.86759173657E+01 -0.10792595117E+01 -0.35767933437E+02  0.36820937054E+02  0.00000000000E+00 0. -1.
         11    1    4    4    0    0  0.34073596021E+01  0.10806081113E+00 -0.34977686703E+01  0.48842770733E+01  0.51100000000E-03 0. -1.
        -11    1    4    4    0    0 -0.91085097106E+01  0.11042305928E+01  0.32163514266E+02  0.33446613050E+02  0.51100000000E-03 0.  1.
         12    1    4    4    0    0  0.14377067474E+02 -0.13303189224E+00  0.71021878411E+01  0.16036172822E+02  0.00000000000E+00 0. -1.
</event>
<event>
 8    1  0.2402194E-006  0.9118800E+02  0.7816164E-02  0.1184000E+00
        -11   -1    0    0    0    0  0.00000000000E+00  0.00000000000E+00  0.45593999997E+02  0.45594000000E+02  0.51100000000E-03 0.  1.
         11   -1    0    0    0    0 -0.00000000000E+00 -0.00000000000E+00 -0.45593999997E+02  0.45594000000E+02  0.51100000000E-03 0. -1.
         23    2    1    2    0    0  0.00000000000E+00  0.00000000000E+00 -0.88817841970E-15  0.91188000000E+02  0.91188000000E+02 0.  0.
    9900012    2    3    3    0    0 -0.22124348853E+02 -0.29154713492E+02 -0.40367996486E+01  0.54367083630E+02  0.39999998751E+02 0.  0.
        -12    1    3    3    0    0  0.22124348853E+02  0.29154713492E+02  0.40367996486E+01  0.36820916370E+02  0.00000000000E+00 0.  1.
         11    1    4    4    0    0 -0.98527718103E+01  0.91992000846E+01  0.26508033247E+00  0.13482309238E+02  0.51100000000E-03 0. -1.
        -11    1    4    4    0    0 -0.23975053325E+01 -0.16479517260E+02 -0.20808060351E+01  0.16782499068E+02  0.51100000000E-03 0.  1.
         12    1    4    4    0    0 -0.98740717099E+01 -0.21874396316E+02 -0.22210739460E+01  0.24102275324E+02  0.00000000000E+00 0. -1.
</event>
<event>
 8    1  0.2402194E-006  0.9118800E+02  0.7816164E-02  0.1184000E+00
        -11   -1    0    0    0    0  0.00000000000E+00  0.00000000000E+00  0.45593999997E+02  0.45594000000E+02  0.51100000000E-03 0.  1.
         11   -1    0    0    0    0 -0.00000000000E+00 -0.00000000000E+00 -0.45593999997E+02  0.45594000000E+02  0.51100000000E-03 0. -1.
         23    2    1    2    0    0  0.00000000000E+00  0.35527136788E-14  0.17763568394E-14  0.91188000000E+02  0.91188000000E+02 0.  0.
    9900012    2    3    3    0    0 -0.18165527779E+02  0.27969277071E+02  0.15604885623E+02  0.54367091338E+02  0.40000016323E+02 0.  0.
         12    1    3    3    0    0  0.18165527779E+02 -0.27969277071E+02 -0.15604885623E+02  0.36820908662E+02  0.00000000000E+00 0. -1.
         11    1    4    4    0    0  0.90028534152E+00 -0.28452179323E+01 -0.62429273239E+01  0.69195318202E+01  0.51100000000E-03 0.  1.
        -11    1    4    4    0    0 -0.22592921521E+02  0.18194030162E+02  0.14672300669E+02  0.32507525953E+02  0.51100000000E-03 0. -1.
        -12    1    4    4    0    0  0.35271084001E+01  0.12620464841E+02  0.71755122774E+01  0.14940033565E+02  0.00000000000E+00 0.  1.
</event>
<event>
 8    1  0.2402194E-006  0.9118800E+02  0.7816164E-02  0.1184000E+00
        -11   -1    0    0    0    0  0.00000000000E+00  0.00000000000E+00  0.45593999997E+02  0.45594000000E+02  0.51100000000E-03 0. -1.
         11   -1    0    0    0    0 -0.00000000000E+00 -0.00000000000E+00 -0.45593999997E+02  0.45594000000E+02  0.51100000000E-03 0.  1.
         23    2    1    2    0    0  0.00000000000E+00  0.00000000000E+00  0.35527136788E-14  0.91188000000E+02  0.91188000000E+02 0.  0.
    9900012    2    3    3    0    0  0.18591400342E+02 -0.48115676989E+01 -0.31416389232E+02  0.54367070316E+02  0.39999968399E+02 0.  0.
         12    1    3    3    0    0 -0.18591400342E+02  0.48115676989E+01  0.31416389232E+02  0.36820929684E+02  0.00000000000E+00 0. -1.
         11    1    4    4    0    0 -0.14286912523E+01 -0.17478688973E+02 -0.48434106455E+01  0.18193525053E+02  0.51100000000E-03 0. -1.
        -11    1    4    4    0    0  0.87631224807E+01  0.19091448103E+01 -0.93873457916E+01  0.12983043202E+02  0.51100000000E-03 0.  1.
         12    1    4    4    0    0  0.11256969114E+02  0.10757976464E+02 -0.17185632795E+02  0.23190502060E+02  0.00000000000E+00 0. -1.
</event>
<event>
 8    1  0.2402194E-006  0.9118800E+02  0.7816164E-02  0.1184000E+00
        -11   -1    0    0    0    0  0.00000000000E+00  0.00000000000E+00  0.45593999997E+02  0.45594000000E+02  0.51100000000E-03 0. -1.
         11   -1    0    0    0    0 -0.00000000000E+00 -0.00000000000E+00 -0.45593999997E+02  0.45594000000E+02  0.51100000000E-03 0.  1.
         23    2    1    2    0    0  0.35527136788E-14  0.71054273576E-14 -0.17763568394E-14  0.91188000000E+02  0.91188000000E+02 0.  0.
    9900012    2    3    3    0    0  0.20285149668E+02  0.29202916670E+02 -0.95646215887E+01  0.54367087121E+02  0.40000006710E+02 0.  0.
         12    1    3    3    0    0 -0.20285149668E+02 -0.29202916670E+02  0.95646215887E+01  0.36820912879E+02  0.00000000000E+00 0. -1.
         11    1    4    4    0    0  0.84609982708E+01 -0.19195157463E+00 -0.49393865765E+01  0.97991263467E+01  0.51100000000E-03 0. -1.
        -11    1    4    4    0    0  0.11765428551E+02 -0.17892549482E+01  0.33824628271E+01  0.12372057117E+02  0.51100000000E-03 0.  1.
         12    1    4    4    0    0  0.58722846586E-01  0.31184123193E+02 -0.80076978393E+01  0.32195903658E+02  0.00000000000E+00 0. -1.
</event>
<event>
 8    1  0.2402194E-006  0.9118800E+02  0.7816164E-02  0.1184000E+00
        -11   -1    0    0    0    0  0.00000000000E+00  0.00000000000E+00  0.45593999997E+02  0.45594000000E+02  0.51100000000E-03 0.  1.
         11   -1    0    0    0    0 -0.00000000000E+00 -0.00000000000E+00 -0.45593999997E+02  0.45594000000E+02  0.51100000000E-03 0. -1.
         23    2    1    2    0    0 -0.35527136788E-14  0.35527136788E-14 -0.35527136788E-14  0.91188000000E+02  0.91188000000E+02 0.  0.
    9900012    2    3    3    0    0 -0.18330825003E+02  0.20767449769E+02  0.24258469544E+02  0.54367089367E+02  0.40000011831E+02 0.  0.
         12    1    3    3    0    0  0.18330825003E+02 -0.20767449769E+02 -0.24258469544E+02  0.36820910633E+02  0.00000000000E+00 0. -1.
         11    1    4    4    0    0 -0.80215558119E+00  0.36634203321E+00  0.94758630421E+00  0.12944420137E+01  0.51100000000E-03 0. -1.
        -11    1    4    4    0    0 -0.18060348159E+02  0.21814658318E+01  0.28775636358E+02  0.34043681012E+02  0.51100000000E-03 0.  1.
         12    1    4    4    0    0  0.53167873717E+00  0.18219641904E+02 -0.54647531179E+01  0.19028966341E+02  0.00000000000E+00 0. -1.
</event>
<event>
 8    1  0.2402194E-006  0.9118800E+02  0.7816164E-02  0.1184000E+00
        -11   -1    0    0    0    0  0.00000000000E+00  0.00000000000E+00  0.45593999997E+02  0.45594000000E+02  0.51100000000E-03 0. -1.
         11   -1    0    0    0    0 -0.00000000000E+00 -0.00000000000E+00 -0.45593999997E+02  0.45594000000E+02  0.51100000000E-03 0.  1.
         23    2    1    2    0    0 -0.17763568394E-14 -0.17763568394E-14  0.00000000000E+00  0.91188000000E+02  0.91188000000E+02 0.  0.
    9900012    2    3    3    0    0 -0.12702903719E+02 -0.35822590302E+01  0.34374171013E+02  0.54367082365E+02  0.39999995867E+02 0.  0.
        -12    1    3    3    0    0  0.12702903719E+02  0.35822590302E+01 -0.34374171013E+02  0.36820917635E+02  0.00000000000E+00 0.  1.
         11    1    4    4    0    0  0.49303142818E+01  0.84029488969E+01  0.22698550835E+02  0.24701047738E+02  0.51100000000E-03 0. -1.
        -11    1    4    4    0    0 -0.53070780140E+01 -0.10890315474E+02  0.12314899863E+02  0.17274860551E+02  0.51100000000E-03 0.  1.
         12    1    4    4    0    0 -0.12326139987E+02 -0.10948924529E+01 -0.63927968479E+00  0.12391174076E+02  0.00000000000E+00 0. -1.
</event>
<event>
 8    1  0.2402194E-006  0.9118800E+02  0.7816164E-02  0.1184000E+00
        -11   -1    0    0    0    0  0.00000000000E+00  0.00000000000E+00  0.45593999997E+02  0.45594000000E+02  0.51100000000E-03 0.  1.
         11   -1    0    0    0    0 -0.00000000000E+00 -0.00000000000E+00 -0.45593999997E+02  0.45594000000E+02  0.51100000000E-03 0. -1.
         23    2    1    2    0    0  0.88817841970E-15  0.00000000000E+00 -0.35527136788E-14  0.91188000000E+02  0.91188000000E+02 0.  0.
    9900012    2    3    3    0    0  0.67904172103E+01 -0.23725818019E+02 -0.27326852126E+02  0.54367067724E+02  0.39999962490E+02 0.  0.
        -12    1    3    3    0    0 -0.67904172103E+01  0.23725818019E+02  0.27326852126E+02  0.36820932276E+02  0.00000000000E+00 0.  1.
         11    1    4    4    0    0 -0.24162909820E+01 -0.16968422801E+01 -0.71091789844E+01  0.76979323150E+01  0.51100000000E-03 0. -1.
        -11    1    4    4    0    0 -0.38207421672E+01  0.75620270681E+01 -0.92116099251E+01  0.12515433742E+02  0.51100000000E-03 0.  1.
         12    1    4    4    0    0  0.13027450359E+02 -0.29591002807E+02 -0.11006063217E+02  0.34153701666E+02  0.00000000000E+00 0. -1.
</event>
<event>
 8    1  0.2402194E-006  0.9118800E+02  0.7816164E-02  0.1184000E+00
        -11   -1    0    0    0    0  0.00000000000E+00  0.00000000000E+00  0.45593999997E+02  0.45594000000E+02  0.51100000000E-03 0. -1.
         11   -1    0    0    0    0 -0.00000000000E+00 -0.00000000000E+00 -0.45593999997E+02  0.45594000000E+02  0.51100000000E-03 0.  1.
         23    2    1    2    0    0  0.00000000000E+00 -0.17763568394E-14 -0.71054273576E-14  0.91188000000E+02  0.91188000000E+02 0.  0.
    9900012    2    3    3    0    0 -0.19792549620E+02 -0.94034112330E+01 -0.29590726785E+02  0.54367078298E+02  0.39999986597E+02 0.  0.
         12    1    3    3    0    0  0.19792549620E+02  0.94034112330E+01  0.29590726785E+02  0.36820921702E+02  0.00000000000E+00 0. -1.
         11    1    4    4    0    0 -0.16781788240E+01 -0.58201610066E+01 -0.26295183644E+02  0.26983832965E+02  0.51100000000E-03 0. -1.
        -11    1    4    4    0    0 -0.35720545368E+01  0.76363371801E+01 -0.31951383120E+01  0.90156601664E+01  0.51100000000E-03 0.  1.
        -12    1    4    4    0    0 -0.14542316259E+02 -0.11219587406E+02 -0.10040482864E+00  0.18367585168E+02  0.00000000000E+00 0.  1.
</event>
<event>
 8    1  0.2402194E-006  0.9118800E+02  0.7816164E-02  0.1184000E+00
        -11   -1    0    0    0    0  0.00000000000E+00  0.00000000000E+00  0.45593999997E+02  0.45594000000E+02  0.51100000000E-03 0.  1.
         11   -1    0    0    0    0 -0.00000000000E+00 -0.00000000000E+00 -0.45593999997E+02  0.45594000000E+02  0.51100000000E-03 0. -1.
         23    2    1    2    0    0  0.00000000000E+00  0.00000000000E+00  0.00000000000E+00  0.91188000000E+02  0.91188000000E+02 0.  0.
    9900012    2    3    3    0    0  0.36462078934E+01 -0.35995896235E+02 -0.68395502930E+01  0.54367097975E+02  0.40000031453E+02 0.  0.
        -12    1    3    3    0    0 -0.36462078934E+01  0.35995896235E+02  0.68395502930E+01  0.36820902025E+02  0.00000000000E+00 0.  1.
         11    1    4    4    0    0  0.25271320546E+01 -0.94414176642E+01 -0.14387697074E+02  0.17393464039E+02  0.51100000000E-03 0. -1.
        -11    1    4    4    0    0  0.34708391540E+01 -0.20312690427E+02  0.16083881876E+02  0.26140837272E+02  0.51100000000E-03 0.  1.
        -12    1    4    4    0    0 -0.23517633153E+01 -0.62417881437E+01 -0.85357350956E+01  0.10832796663E+02  0.00000000000E+00 0.  1.
</event>
<event>
 8    1  0.2402194E-006  0.9118800E+02  0.7816164E-02  0.1184000E+00
        -11   -1    0    0    0    0  0.00000000000E+00  0.00000000000E+00  0.45593999997E+02  0.45594000000E+02  0.51100000000E-03 0. -1.
         11   -1    0    0    0    0 -0.00000000000E+00 -0.00000000000E+00 -0.45593999997E+02  0.45594000000E+02  0.51100000000E-03 0.  1.
         23    2    1    2    0    0 -0.17763568394E-14  0.17763568394E-14  0.00000000000E+00  0.91188000000E+02  0.91188000000E+02 0.  0.
    9900012    2    3    3    0    0  0.11013522971E+02  0.98883439304E+01 -0.33714972560E+02  0.54367130800E+02  0.40000106285E+02 0.  0.
         12    1    3    3    0    0 -0.11013522971E+02 -0.98883439304E+01  0.33714972560E+02  0.36820869200E+02  0.00000000000E+00 0. -1.
         11    1    4    4    0    0  0.10349158617E+02  0.39622626648E+01  0.39654198731E+01  0.11769841313E+02  0.51100000000E-03 0. -1.
        -11    1    4    4    0    0 -0.13644428916E+01 -0.60572096061E+01 -0.58714002925E+01  0.85454569376E+01  0.51100000000E-03 0.  1.
        -12    1    4    4    0    0  0.20288072450E+01  0.11983290872E+02 -0.31808992141E+02  0.34051832549E+02  0.00000000000E+00 0.  1.
</event>
<event>
 8    1  0.2402194E-006  0.9118800E+02  0.7816164E-02  0.1184000E+00
        -11   -1    0    0    0    0  0.00000000000E+00  0.00000000000E+00  0.45593999997E+02  0.45594000000E+02  0.51100000000E-03 0. -1.
         11   -1    0    0    0    0 -0.00000000000E+00 -0.00000000000E+00 -0.45593999997E+02  0.45594000000E+02  0.51100000000E-03 0.  1.
         23    2    1    2    0    0  0.00000000000E+00  0.00000000000E+00 -0.88817841970E-15  0.91188000000E+02  0.91188000000E+02 0.  0.
    9900012    2    3    3    0    0 -0.33983783852E+02 -0.13971916736E+02  0.23807142394E+01  0.54367084443E+02  0.40000000605E+02 0.  0.
         12    1    3    3    0    0  0.33983783852E+02  0.13971916736E+02 -0.23807142394E+01  0.36820915557E+02  0.00000000000E+00 0. -1.
         11    1    4    4    0    0  0.30027160252E+01 -0.36282544873E+01  0.11899178109E+02  0.12797303391E+02  0.51100000000E-03 0. -1.
        -11    1    4    4    0    0 -0.25333771944E+02 -0.52114197308E+01 -0.32754962381E+00  0.25866313721E+02  0.51100000000E-03 0.  1.
         12    1    4    4    0    0 -0.11652727934E+02 -0.51322425179E+01 -0.91909142453E+01  0.15703467331E+02  0.00000000000E+00 0. -1.
</event>
<event>
 8    1  0.2402194E-006  0.9118800E+02  0.7816164E-02  0.1184000E+00
        -11   -1    0    0    0    0  0.00000000000E+00  0.00000000000E+00  0.45593999997E+02  0.45594000000E+02  0.51100000000E-03 0.  1.
         11   -1    0    0    0    0 -0.00000000000E+00 -0.00000000000E+00 -0.45593999997E+02  0.45594000000E+02  0.51100000000E-03 0. -1.
         23    2    1    2    0    0  0.35527136788E-14 -0.17763568394E-14 -0.17763568394E-14  0.91188000000E+02  0.91188000000E+02 0.  0.
    9900012    2    3    3    0    0  0.31849319239E+02 -0.11601108238E+02 -0.14381060272E+02  0.54367085523E+02  0.40000003068E+02 0.  0.
         12    1    3    3    0    0 -0.31849319239E+02  0.11601108238E+02  0.14381060272E+02  0.36820914477E+02  0.00000000000E+00 0. -1.
         11    1    4    4    0    0  0.21499936495E+01  0.68444678460E+01 -0.37060876070E+01  0.80749178571E+01  0.51100000000E-03 0. -1.
        -11    1    4    4    0    0  0.77595789323E+01  0.23629392997E+01 -0.13681102481E+02  0.15904939883E+02  0.51100000000E-03 0.  1.
        -12    1    4    4    0    0  0.21939746657E+02 -0.20808515384E+02  0.30061298160E+01  0.30387227783E+02  0.00000000000E+00 0.  1.
</event>
<event>
 8    1  0.2402194E-006  0.9118800E+02  0.7816164E-02  0.1184000E+00
        -11   -1    0    0    0    0  0.00000000000E+00  0.00000000000E+00  0.45593999997E+02  0.45594000000E+02  0.51100000000E-03 0.  1.
         11   -1    0    0    0    0 -0.00000000000E+00 -0.00000000000E+00 -0.45593999997E+02  0.45594000000E+02  0.51100000000E-03 0. -1.
         23    2    1    2    0    0  0.00000000000E+00  0.17763568394E-14  0.00000000000E+00  0.91188000000E+02  0.91188000000E+02 0.  0.
    9900012    2    3    3    0    0  0.72505758228E+01 -0.15394005182E+02  0.32653230652E+02  0.54367085871E+02  0.40000003859E+02 0.  0.
         12    1    3    3    0    0 -0.72505758228E+01  0.15394005182E+02 -0.32653230652E+02  0.36820914129E+02  0.00000000000E+00 0. -1.
         11    1    4    4    0    0  0.52743835064E+01 -0.20128284059E+01  0.55831166787E+01  0.79398861248E+01  0.51100000000E-03 0. -1.
        -11    1    4    4    0    0  0.14529816126E+02 -0.31708896318E+01 -0.20468254680E-01  0.14871802747E+02  0.51100000000E-03 0.  1.
         12    1    4    4    0    0 -0.12553623810E+02 -0.10210287144E+02  0.27090582228E+02  0.31555396999E+02  0.00000000000E+00 0. -1.
</event>
<event>
 8    1  0.2402194E-006  0.9118800E+02  0.7816164E-02  0.1184000E+00
        -11   -1    0    0    0    0  0.00000000000E+00  0.00000000000E+00  0.45593999997E+02  0.45594000000E+02  0.51100000000E-03 0. -1.
         11   -1    0    0    0    0 -0.00000000000E+00 -0.00000000000E+00 -0.45593999997E+02  0.45594000000E+02  0.51100000000E-03 0.  1.
         23    2    1    2    0    0 -0.88817841970E-15 -0.71054273576E-14 -0.88817841970E-15  0.91188000000E+02  0.91188000000E+02 0.  0.
    9900012    2    3    3    0    0  0.41095367176E+01 -0.36534291487E+02 -0.20340605593E+01  0.54367080011E+02  0.39999990501E+02 0.  0.
        -12    1    3    3    0    0 -0.41095367176E+01  0.36534291487E+02  0.20340605593E+01  0.36820919989E+02  0.00000000000E+00 0.  1.
         11    1    4    4    0    0  0.87441614947E+01 -0.77904804263E+01  0.10360018845E+02  0.15635918145E+02  0.51100000000E-03 0. -1.
        -11    1    4    4    0    0 -0.23013576430E+01  0.35966560545E+01 -0.14716736080E+01  0.45164150877E+01  0.51100000000E-03 0.  1.
         12    1    4    4    0    0 -0.23332671341E+01 -0.32340467115E+02 -0.10922405796E+02  0.34214746778E+02  0.00000000000E+00 0. -1.
</event>
<event>
 8    1  0.2402194E-006  0.9118800E+02  0.7816164E-02  0.1184000E+00
        -11   -1    0    0    0    0  0.00000000000E+00  0.00000000000E+00  0.45593999997E+02  0.45594000000E+02  0.51100000000E-03 0. -1.
         11   -1    0    0    0    0 -0.00000000000E+00 -0.00000000000E+00 -0.45593999997E+02  0.45594000000E+02  0.51100000000E-03 0.  1.
         23    2    1    2    0    0 -0.88817841970E-15  0.17763568394E-14 -0.71054273576E-14  0.91188000000E+02  0.91188000000E+02 0.  0.
    9900012    2    3    3    0    0 -0.15096194163E+01  0.48682165582E+01 -0.36466446891E+02  0.54367078880E+02  0.39999987923E+02 0.  0.
         12    1    3    3    0    0  0.15096194163E+01 -0.48682165582E+01  0.36466446891E+02  0.36820921120E+02  0.00000000000E+00 0. -1.
         11    1    4    4    0    0  0.14242508216E+02  0.11964294534E+01 -0.86847301847E+01  0.16724384065E+02  0.51100000000E-03 0. -1.
        -11    1    4    4    0    0 -0.37498072762E+01 -0.16499927106E+01  0.23866120725E+01  0.47412496242E+01  0.51100000000E-03 0.  1.
        -12    1    4    4    0    0 -0.12002320356E+02  0.53217798154E+01 -0.30168328779E+02  0.32901445191E+02  0.00000000000E+00 0.  1.
</event>
<event>
 8    1  0.2402194E-006  0.9118800E+02  0.7816164E-02  0.1184000E+00
        -11   -1    0    0    0    0  0.00000000000E+00  0.00000000000E+00  0.45593999997E+02  0.45594000000E+02  0.51100000000E-03 0.  1.
         11   -1    0    0    0    0 -0.00000000000E+00 -0.00000000000E+00 -0.45593999997E+02  0.45594000000E+02  0.51100000000E-03 0. -1.
         23    2    1    2    0    0 -0.71054273576E-14  0.71054273576E-14  0.13322676296E-14  0.91188000000E+02  0.91188000000E+02 0.  0.
    9900012    2    3    3    0    0  0.26553457522E+02 -0.25227214635E+02 -0.37791736504E+01  0.54367073639E+02  0.39999975975E+02 0.  0.
         12    1    3    3    0    0 -0.26553457522E+02  0.25227214635E+02  0.37791736504E+01  0.36820926361E+02  0.00000000000E+00 0. -1.
         11    1    4    4    0    0  0.61929501930E+00  0.84022963664E+01 -0.39659199981E+01  0.93118543933E+01  0.51100000000E-03 0. -1.
        -11    1    4    4    0    0 -0.65861840719E+00 -0.79888754822E+01 -0.11057019514E+01  0.80918778255E+01  0.51100000000E-03 0.  1.
        -12    1    4    4    0    0  0.26592780909E+02 -0.25640635519E+02  0.12924482990E+01  0.36963341420E+02  0.00000000000E+00 0.  1.
</event>
<event>
 8    1  0.2402194E-006  0.9118800E+02  0.7816164E-02  0.1184000E+00
        -11   -1    0    0    0    0  0.00000000000E+00  0.00000000000E+00  0.45593999997E+02  0.45594000000E+02  0.51100000000E-03 0.  1.
         11   -1    0    0    0    0 -0.00000000000E+00 -0.00000000000E+00 -0.45593999997E+02  0.45594000000E+02  0.51100000000E-03 0. -1.
         23    2    1    2    0    0  0.17763568394E-14  0.00000000000E+00  0.17763568394E-14  0.91188000000E+02  0.91188000000E+02 0.  0.
    9900012    2    3    3    0    0  0.15074625410E+02 -0.32187226475E+02  0.96186687481E+01  0.54367072963E+02  0.39999974433E+02 0.  0.
         12    1    3    3    0    0 -0.15074625410E+02  0.32187226475E+02 -0.96186687481E+01  0.36820927037E+02  0.00000000000E+00 0. -1.
         11    1    4    4    0    0  0.77296560208E+01 -0.98043120080E+01 -0.15386618176E+02  0.19814644466E+02  0.51100000000E-03 0. -1.
        -11    1    4    4    0    0  0.42508482814E+01 -0.17450038117E+02  0.19923028262E+02  0.26823508286E+02  0.51100000000E-03 0.  1.
         12    1    4    4    0    0  0.30941211082E+01 -0.49328763500E+01  0.50822586620E+01  0.77289202107E+01  0.00000000000E+00 0. -1.
</event>
<event>
 8    1  0.2402194E-006  0.9118800E+02  0.7816164E-02  0.1184000E+00
        -11   -1    0    0    0    0  0.00000000000E+00  0.00000000000E+00  0.45593999997E+02  0.45594000000E+02  0.51100000000E-03 0. -1.
         11   -1    0    0    0    0 -0.00000000000E+00 -0.00000000000E+00 -0.45593999997E+02  0.45594000000E+02  0.51100000000E-03 0.  1.
         23    2    1    2    0    0  0.35527136788E-14  0.00000000000E+00  0.22204460493E-15  0.91188000000E+02  0.91188000000E+02 0.  0.
    9900012    2    3    3    0    0  0.31025038498E+02  0.19784357084E+02  0.13473737355E+01  0.54366956899E+02  0.39999709842E+02 0.  0.
         12    1    3    3    0    0 -0.31025038498E+02 -0.19784357084E+02 -0.13473737355E+01  0.36821043101E+02  0.00000000000E+00 0. -1.
         11    1    4    4    0    0 -0.19726820216E+01 -0.13107926515E+01  0.35550546521E+01  0.42717754593E+01  0.51100000000E-03 0. -1.
        -11    1    4    4    0    0  0.34630554574E+02  0.10043457715E+02  0.55665846345E+01  0.36484698405E+02  0.51100000000E-03 0.  1.
        -12    1    4    4    0    0 -0.16328340539E+01  0.11051692021E+02 -0.77742655512E+01  0.13610483034E+02  0.00000000000E+00 0.  1.
</event>
<event>
 8    1  0.2402194E-006  0.9118800E+02  0.7816164E-02  0.1184000E+00
        -11   -1    0    0    0    0  0.00000000000E+00  0.00000000000E+00  0.45593999997E+02  0.45594000000E+02  0.51100000000E-03 0. -1.
         11   -1    0    0    0    0 -0.00000000000E+00 -0.00000000000E+00 -0.45593999997E+02  0.45594000000E+02  0.51100000000E-03 0.  1.
         23    2    1    2    0    0  0.00000000000E+00  0.35527136788E-14  0.00000000000E+00  0.91188000000E+02  0.91188000000E+02 0.  0.
    9900012    2    3    3    0    0 -0.26601531943E+02 -0.21599755853E+02 -0.13475213924E+02  0.54367185983E+02  0.40000232084E+02 0.  0.
         12    1    3    3    0    0  0.26601531943E+02  0.21599755853E+02  0.13475213924E+02  0.36820814017E+02  0.00000000000E+00 0. -1.
         11    1    4    4    0    0 -0.65311993159E+01  0.26188735076E+01 -0.29667035564E+01  0.76365170860E+01  0.51100000000E-03 0. -1.
        -11    1    4    4    0    0 -0.53117393381E+00  0.68957611193E+01 -0.69713112426E+01  0.98200228037E+01  0.51100000000E-03 0.  1.
        -12    1    4    4    0    0 -0.19539158693E+02 -0.31114390480E+02 -0.35371991247E+01  0.36910646093E+02  0.00000000000E+00 0.  1.
</event>
<event>
 8    1  0.2402194E-006  0.9118800E+02  0.7816164E-02  0.1184000E+00
        -11   -1    0    0    0    0  0.00000000000E+00  0.00000000000E+00  0.45593999997E+02  0.45594000000E+02  0.51100000000E-03 0.  1.
         11   -1    0    0    0    0 -0.00000000000E+00 -0.00000000000E+00 -0.45593999997E+02  0.45594000000E+02  0.51100000000E-03 0. -1.
         23    2    1    2    0    0  0.00000000000E+00  0.88817841970E-15 -0.71054273576E-14  0.91188000000E+02  0.91188000000E+02 0.  0.
    9900012    2    3    3    0    0  0.13205461483E+02  0.79972773710E+01 -0.33428115672E+02  0.54367087794E+02  0.40000008243E+02 0.  0.
        -12    1    3    3    0    0 -0.13205461483E+02 -0.79972773710E+01  0.33428115672E+02  0.36820912206E+02  0.00000000000E+00 0.  1.
         11    1    4    4    0    0  0.68686134801E+01  0.33518885341E+00 -0.63586369181E+01  0.93660272487E+01  0.51100000000E-03 0. -1.
        -11    1    4    4    0    0  0.61045602327E+01  0.19483506134E+02 -0.26100497404E+02  0.33137722189E+02  0.51100000000E-03 0.  1.
        -12    1    4    4    0    0  0.23228777034E+00 -0.11821417617E+02 -0.96898135008E+00  0.11863338356E+02  0.00000000000E+00 0.  1.
</event>
<event>
 8    1  0.2402194E-006  0.9118800E+02  0.7816164E-02  0.1184000E+00
        -11   -1    0    0    0    0  0.00000000000E+00  0.00000000000E+00  0.45593999997E+02  0.45594000000E+02  0.51100000000E-03 0.  1.
         11   -1    0    0    0    0 -0.00000000000E+00 -0.00000000000E+00 -0.45593999997E+02  0.45594000000E+02  0.51100000000E-03 0. -1.
         23    2    1    2    0    0  0.35527136788E-14 -0.88817841970E-15  0.71054273576E-14  0.91188000000E+02  0.91188000000E+02 0.  0.
    9900012    2    3    3    0    0  0.13982174759E+02 -0.35295529902E+01  0.33879476217E+02  0.54367111036E+02  0.40000061230E+02 0.  0.
         12    1    3    3    0    0 -0.13982174759E+02  0.35295529902E+01 -0.33879476217E+02  0.36820888964E+02  0.00000000000E+00 0. -1.
         11    1    4    4    0    0 -0.46707051167E+01  0.83128031584E+01  0.17344710963E+02  0.19792856825E+02  0.51100000000E-03 0. -1.
        -11    1    4    4    0    0  0.95496554385E-01 -0.33303494805E+01  0.13534504937E+02  0.13938549832E+02  0.51100000000E-03 0.  1.
         12    1    4    4    0    0  0.18557383321E+02 -0.85120066682E+01  0.30002603164E+01  0.20635704379E+02  0.00000000000E+00 0. -1.
</event>
<event>
 8    1  0.2402194E-006  0.9118800E+02  0.7816164E-02  0.1184000E+00
        -11   -1    0    0    0    0  0.00000000000E+00  0.00000000000E+00  0.45593999997E+02  0.45594000000E+02  0.51100000000E-03 0.  1.
         11   -1    0    0    0    0 -0.00000000000E+00 -0.00000000000E+00 -0.45593999997E+02  0.45594000000E+02  0.51100000000E-03 0. -1.
         23    2    1    2    0    0 -0.17763568394E-14  0.00000000000E+00  0.71054273576E-14  0.91188000000E+02  0.91188000000E+02 0.  0.
    9900012    2    3    3    0    0  0.89741902635E+01  0.10624069587E+02 -0.34093595003E+02  0.54367079782E+02  0.39999989979E+02 0.  0.
        -12    1    3    3    0    0 -0.89741902635E+01 -0.10624069587E+02  0.34093595003E+02  0.36820920218E+02  0.00000000000E+00 0.  1.
         11    1    4    4    0    0  0.56704063608E+01  0.97343123713E+01 -0.10960616976E+02  0.15717680185E+02  0.51100000000E-03 0. -1.
        -11    1    4    4    0    0  0.15655103165E+02  0.22010711422E+01 -0.20610073953E+02  0.25975028737E+02  0.51100000000E-03 0.  1.
        -12    1    4    4    0    0 -0.12351319262E+02 -0.13113139266E+01 -0.25229040748E+01  0.12674370860E+02  0.00000000000E+00 0.  1.
</event>
<event>
 8    1  0.2402194E-006  0.9118800E+02  0.7816164E-02  0.1184000E+00
        -11   -1    0    0    0    0  0.00000000000E+00  0.00000000000E+00  0.45593999997E+02  0.45594000000E+02  0.51100000000E-03 0.  1.
         11   -1    0    0    0    0 -0.00000000000E+00 -0.00000000000E+00 -0.45593999997E+02  0.45594000000E+02  0.51100000000E-03 0. -1.
         23    2    1    2    0    0 -0.44408920985E-15  0.00000000000E+00 -0.35527136788E-14  0.91188000000E+02  0.91188000000E+02 0.  0.
    9900012    2    3    3    0    0 -0.33615798918E+01 -0.21909270659E+02 -0.29401619444E+02  0.54367196286E+02  0.40000255573E+02 0.  0.
         12    1    3    3    0    0  0.33615798918E+01  0.21909270659E+02  0.29401619444E+02  0.36820803714E+02  0.00000000000E+00 0. -1.
         11    1    4    4    0    0  0.11621899852E+01 -0.49095789031E+01 -0.12413969696E+01  0.51957403000E+01  0.51100000000E-03 0. -1.
        -11    1    4    4    0    0 -0.44659822074E+01 -0.27960680746E+02 -0.14995059266E+02  0.32040544120E+02  0.51100000000E-03 0.  1.
         12    1    4    4    0    0 -0.57787669625E-01  0.10960988990E+02 -0.13165163209E+02  0.17130911866E+02  0.00000000000E+00 0. -1.
</event>
<event>
 8    1  0.2402194E-006  0.9118800E+02  0.7816164E-02  0.1184000E+00
        -11   -1    0    0    0    0  0.00000000000E+00  0.00000000000E+00  0.45593999997E+02  0.45594000000E+02  0.51100000000E-03 0.  1.
         11   -1    0    0    0    0 -0.00000000000E+00 -0.00000000000E+00 -0.45593999997E+02  0.45594000000E+02  0.51100000000E-03 0. -1.
         23    2    1    2    0    0  0.17763568394E-14 -0.44408920985E-15  0.71054273576E-14  0.91188000000E+02  0.91188000000E+02 0.  0.
    9900012    2    3    3    0    0  0.13033007561E+02  0.22546506301E+01  0.34363297188E+02  0.54367096573E+02  0.40000028258E+02 0.  0.
         12    1    3    3    0    0 -0.13033007561E+02 -0.22546506301E+01 -0.34363297188E+02  0.36820903427E+02  0.00000000000E+00 0. -1.
         11    1    4    4    0    0 -0.23801481359E+01 -0.73057731973E+00 -0.72238382619E+01  0.76408564876E+01  0.51100000000E-03 0. -1.
        -11    1    4    4    0    0  0.70245719994E+00 -0.46605934650E+01  0.85791195948E+01  0.97885581597E+01  0.51100000000E-03 0.  1.
         12    1    4    4    0    0  0.14710698496E+02  0.76458214148E+01  0.33008015855E+02  0.36937681926E+02  0.00000000000E+00 0. -1.
</event>
<event>
 8    1  0.2402194E-006  0.9118800E+02  0.7816164E-02  0.1184000E+00
        -11   -1    0    0    0    0  0.00000000000E+00  0.00000000000E+00  0.45593999997E+02  0.45594000000E+02  0.51100000000E-03 0.  1.
         11   -1    0    0    0    0 -0.00000000000E+00 -0.00000000000E+00 -0.45593999997E+02  0.45594000000E+02  0.51100000000E-03 0. -1.
         23    2    1    2    0    0  0.00000000000E+00 -0.17763568394E-14  0.00000000000E+00  0.91188000000E+02  0.91188000000E+02 0.  0.
    9900012    2    3    3    0    0  0.21991418523E+02  0.11234331819E+02 -0.27312229823E+02  0.54366938119E+02  0.39999667029E+02 0.  0.
        -12    1    3    3    0    0 -0.21991418523E+02 -0.11234331819E+02  0.27312229823E+02  0.36821061881E+02  0.00000000000E+00 0.  1.
         11    1    4    4    0    0 -0.26068472733E+01 -0.35700714343E+01  0.60264328842E+00  0.44614170334E+01  0.51100000000E-03 0. -1.
        -11    1    4    4    0    0  0.24834711807E+01  0.13564260642E+01  0.63568906010E+01  0.69582741500E+01  0.51100000000E-03 0.  1.
         12    1    4    4    0    0  0.22114794616E+02  0.13447977190E+02 -0.34271763713E+02  0.42947246936E+02  0.00000000000E+00 0. -1.
</event>
<event>
 8    1  0.2402194E-006  0.9118800E+02  0.7816164E-02  0.1184000E+00
        -11   -1    0    0    0    0  0.00000000000E+00  0.00000000000E+00  0.45593999997E+02  0.45594000000E+02  0.51100000000E-03 0.  1.
         11   -1    0    0    0    0 -0.00000000000E+00 -0.00000000000E+00 -0.45593999997E+02  0.45594000000E+02  0.51100000000E-03 0. -1.
         23    2    1    2    0    0  0.00000000000E+00  0.00000000000E+00  0.71054273576E-14  0.91188000000E+02  0.91188000000E+02 0.  0.
    9900012    2    3    3    0    0  0.18371998873E+02 -0.10277623901E+02  0.30209596416E+02  0.54367087311E+02  0.40000007143E+02 0.  0.
         12    1    3    3    0    0 -0.18371998873E+02  0.10277623901E+02 -0.30209596416E+02  0.36820912689E+02  0.00000000000E+00 0. -1.
         11    1    4    4    0    0  0.83717958159E+01 -0.13260783136E+02  0.17469977883E+02  0.23476274450E+02  0.51100000000E-03 0. -1.
        -11    1    4    4    0    0  0.11529298597E+02  0.52187859399E+01  0.19704092713E+02  0.23418192132E+02  0.51100000000E-03 0.  1.
         12    1    4    4    0    0 -0.15290955398E+01 -0.22356267050E+01 -0.69644741809E+01  0.74726207284E+01  0.00000000000E+00 0. -1.
</event>
<event>
 8    1  0.2402194E-006  0.9118800E+02  0.7816164E-02  0.1184000E+00
        -11   -1    0    0    0    0  0.00000000000E+00  0.00000000000E+00  0.45593999997E+02  0.45594000000E+02  0.51100000000E-03 0.  1.
         11   -1    0    0    0    0 -0.00000000000E+00 -0.00000000000E+00 -0.45593999997E+02  0.45594000000E+02  0.51100000000E-03 0. -1.
         23    2    1    2    0    0  0.17763568394E-14  0.00000000000E+00 -0.14988010832E-14  0.91188000000E+02  0.91188000000E+02 0.  0.
    9900012    2    3    3    0    0 -0.11697645628E+02 -0.34913087412E+02  0.14818923920E+00  0.54367074618E+02  0.39999978208E+02 0.  0.
         12    1    3    3    0    0  0.11697645628E+02  0.34913087412E+02 -0.14818923920E+00  0.36820925382E+02  0.00000000000E+00 0. -1.
         11    1    4    4    0    0 -0.44772675888E+01 -0.39834917897E+02 -0.60803398512E+01  0.40544261516E+02  0.51100000000E-03 0. -1.
        -11    1    4    4    0    0  0.11872094094E+00  0.10120416818E+01  0.53668297366E+01  0.54627085507E+01  0.51100000000E-03 0.  1.
         12    1    4    4    0    0 -0.73390989805E+01  0.39097888032E+01  0.86169935385E+00  0.83601045512E+01  0.00000000000E+00 0. -1.
</event>
<event>
 8    1  0.2402194E-006  0.9118800E+02  0.7816164E-02  0.1184000E+00
        -11   -1    0    0    0    0  0.00000000000E+00  0.00000000000E+00  0.45593999997E+02  0.45594000000E+02  0.51100000000E-03 0.  1.
         11   -1    0    0    0    0 -0.00000000000E+00 -0.00000000000E+00 -0.45593999997E+02  0.45594000000E+02  0.51100000000E-03 0. -1.
         23    2    1    2    0    0 -0.88817841970E-15  0.35527136788E-14  0.00000000000E+00  0.91188000000E+02  0.91188000000E+02 0.  0.
    9900012    2    3    3    0    0  0.40847421711E+01 -0.29645335434E+02 -0.21453693296E+02  0.54366919250E+02  0.39999624012E+02 0.  0.
         12    1    3    3    0    0 -0.40847421711E+01  0.29645335434E+02  0.21453693296E+02  0.36821080750E+02  0.00000000000E+00 0. -1.
         11    1    4    4    0    0 -0.83777743997E-01 -0.16782338915E+02 -0.20216036400E+02  0.26274361004E+02  0.51100000000E-03 0. -1.
        -11    1    4    4    0    0 -0.59021168662E+01 -0.15735534721E+02  0.24631787473E+01  0.16985561111E+02  0.51100000000E-03 0.  1.
         12    1    4    4    0    0  0.10070636781E+02  0.28725382019E+01 -0.37008356433E+01  0.11106997135E+02  0.00000000000E+00 0. -1.
</event>
<event>
 8    1  0.2402194E-006  0.9118800E+02  0.7816164E-02  0.1184000E+00
        -11   -1    0    0    0    0  0.00000000000E+00  0.00000000000E+00  0.45593999997E+02  0.45594000000E+02  0.51100000000E-03 0. -1.
         11   -1    0    0    0    0 -0.00000000000E+00 -0.00000000000E+00 -0.45593999997E+02  0.45594000000E+02  0.51100000000E-03 0.  1.
         23    2    1    2    0    0  0.00000000000E+00  0.88817841970E-15  0.00000000000E+00  0.91188000000E+02  0.91188000000E+02 0.  0.
    9900012    2    3    3    0    0 -0.19719599927E+02  0.76483097370E+01  0.30139893328E+02  0.54367184787E+02  0.40000229358E+02 0.  0.
        -12    1    3    3    0    0  0.19719599927E+02 -0.76483097370E+01 -0.30139893328E+02  0.36820815213E+02  0.00000000000E+00 0.  1.
         11    1    4    4    0    0 -0.23079774507E+02  0.15904917743E+02  0.20600533142E+02  0.34785404493E+02  0.51100000000E-03 0. -1.
        -11    1    4    4    0    0  0.40686791925E+01 -0.31587514148E+01 -0.30463666947E+01  0.59843304698E+01  0.51100000000E-03 0.  1.
         12    1    4    4    0    0 -0.70850461209E+00 -0.50978565912E+01  0.12585726881E+02  0.13597449824E+02  0.00000000000E+00 0. -1.
</event>
<event>
 8    1  0.2402194E-006  0.9118800E+02  0.7816164E-02  0.1184000E+00
        -11   -1    0    0    0    0  0.00000000000E+00  0.00000000000E+00  0.45593999997E+02  0.45594000000E+02  0.51100000000E-03 0.  1.
         11   -1    0    0    0    0 -0.00000000000E+00 -0.00000000000E+00 -0.45593999997E+02  0.45594000000E+02  0.51100000000E-03 0. -1.
         23    2    1    2    0    0  0.35527136788E-14  0.00000000000E+00  0.00000000000E+00  0.91188000000E+02  0.91188000000E+02 0.  0.
    9900012    2    3    3    0    0 -0.31595540097E+02  0.10529529335E+02 -0.15704456957E+02  0.54367094113E+02  0.40000022650E+02 0.  0.
        -12    1    3    3    0    0  0.31595540097E+02 -0.10529529335E+02  0.15704456957E+02  0.36820905887E+02  0.00000000000E+00 0.  1.
         11    1    4    4    0    0  0.48024011087E+01  0.80960408885E+01 -0.41877210398E+01  0.10302715285E+02  0.51100000000E-03 0. -1.
        -11    1    4    4    0    0 -0.34277230248E+02  0.33268257797E+01 -0.22450596700E+01  0.34511397776E+02  0.51100000000E-03 0.  1.
         12    1    4    4    0    0 -0.21207109570E+01 -0.89333733326E+00 -0.92716762471E+01  0.95529810522E+01  0.00000000000E+00 0. -1.
</event>
<event>
 8    1  0.2402194E-006  0.9118800E+02  0.7816164E-02  0.1184000E+00
        -11   -1    0    0    0    0  0.00000000000E+00  0.00000000000E+00  0.45593999997E+02  0.45594000000E+02  0.51100000000E-03 0. -1.
         11   -1    0    0    0    0 -0.00000000000E+00 -0.00000000000E+00 -0.45593999997E+02  0.45594000000E+02  0.51100000000E-03 0.  1.
         23    2    1    2    0    0  0.00000000000E+00 -0.66613381478E-15  0.00000000000E+00  0.91188000000E+02  0.91188000000E+02 0.  0.
    9900012    2    3    3    0    0 -0.12938877658E+02  0.97439750521E+00  0.34458890901E+02  0.54367093334E+02  0.40000020874E+02 0.  0.
        -12    1    3    3    0    0  0.12938877658E+02 -0.97439750521E+00 -0.34458890901E+02  0.36820906666E+02  0.00000000000E+00 0.  1.
         11    1    4    4    0    0 -0.10135818156E+02 -0.11397495782E+02  0.13914573264E+02  0.20645897151E+02  0.51100000000E-03 0. -1.
        -11    1    4    4    0    0 -0.58002948276E+01  0.24347138286E+01  0.22321355071E+02  0.23190820253E+02  0.51100000000E-03 0.  1.
        -12    1    4    4    0    0  0.29972353251E+01  0.99371794588E+01 -0.17770374342E+01  0.10530375930E+02  0.00000000000E+00 0.  1.
</event>
<event>
 8    1  0.2402194E-006  0.9118800E+02  0.7816164E-02  0.1184000E+00
        -11   -1    0    0    0    0  0.00000000000E+00  0.00000000000E+00  0.45593999997E+02  0.45594000000E+02  0.51100000000E-03 0. -1.
         11   -1    0    0    0    0 -0.00000000000E+00 -0.00000000000E+00 -0.45593999997E+02  0.45594000000E+02  0.51100000000E-03 0.  1.
         23    2    1    2    0    0 -0.71054273576E-14  0.35527136788E-14  0.17763568394E-14  0.91188000000E+02  0.91188000000E+02 0.  0.
    9900012    2    3    3    0    0  0.31296216201E+02  0.18188001229E+02 -0.67470352801E+01  0.54367095309E+02  0.40000025375E+02 0.  0.
         12    1    3    3    0    0 -0.31296216201E+02 -0.18188001229E+02  0.67470352801E+01  0.36820904691E+02  0.00000000000E+00 0. -1.
         11    1    4    4    0    0 -0.11991510802E+01 -0.71258279959E+01  0.35425638370E+01  0.80476795873E+01  0.51100000000E-03 0. -1.
        -11    1    4    4    0    0  0.13466038151E+02 -0.34147141727E-01 -0.30581228601E+01  0.13808963219E+02  0.51100000000E-03 0.  1.
         12    1    4    4    0    0  0.19029329131E+02  0.25347976366E+02 -0.72314762569E+01  0.32510452502E+02  0.00000000000E+00 0. -1.
</event>
<event>
 8    1  0.2402194E-006  0.9118800E+02  0.7816164E-02  0.1184000E+00
        -11   -1    0    0    0    0  0.00000000000E+00  0.00000000000E+00  0.45593999997E+02  0.45594000000E+02  0.51100000000E-03 0.  1.
         11   -1    0    0    0    0 -0.00000000000E+00 -0.00000000000E+00 -0.45593999997E+02  0.45594000000E+02  0.51100000000E-03 0. -1.
         23    2    1    2    0    0  0.00000000000E+00  0.00000000000E+00 -0.22204460493E-15  0.91188000000E+02  0.91188000000E+02 0.  0.
    9900012    2    3    3    0    0  0.32791722119E+02  0.16687612049E+02  0.14161443070E+01  0.54367096968E+02  0.40000029157E+02 0.  0.
         12    1    3    3    0    0 -0.32791722119E+02 -0.16687612049E+02 -0.14161443070E+01  0.36820903032E+02  0.00000000000E+00 0. -1.
         11    1    4    4    0    0 -0.13293130359E+01  0.66325496822E+01  0.79475142469E+01  0.10436511457E+02  0.51100000000E-03 0. -1.
        -11    1    4    4    0    0  0.88545498912E+01  0.14214365297E+02 -0.74012287625E+01  0.18309271477E+02  0.51100000000E-03 0.  1.
        -12    1    4    4    0    0  0.25266485263E+02 -0.41593029295E+01  0.86985882256E+00  0.25621314033E+02  0.00000000000E+00 0.  1.
</event>
<event>
 8    1  0.2402194E-006  0.9118800E+02  0.7816164E-02  0.1184000E+00
        -11   -1    0    0    0    0  0.00000000000E+00  0.00000000000E+00  0.45593999997E+02  0.45594000000E+02  0.51100000000E-03 0.  1.
         11   -1    0    0    0    0 -0.00000000000E+00 -0.00000000000E+00 -0.45593999997E+02  0.45594000000E+02  0.51100000000E-03 0. -1.
         23    2    1    2    0    0 -0.55511151231E-15 -0.71054273576E-14 -0.35527136788E-14  0.91188000000E+02  0.91188000000E+02 0.  0.
    9900012    2    3    3    0    0 -0.92192475469E+00  0.33273457198E+02  0.15741908892E+02  0.54367073956E+02  0.39999976697E+02 0.  0.
         12    1    3    3    0    0  0.92192475469E+00 -0.33273457198E+02 -0.15741908892E+02  0.36820926044E+02  0.00000000000E+00 0. -1.
         11    1    4    4    0    0 -0.14941988626E+02  0.13550196135E+02  0.82189922163E+01  0.21781245894E+02  0.51100000000E-03 0. -1.
        -11    1    4    4    0    0  0.51418854897E+01 -0.27646534695E+00  0.93017072869E+01  0.10631894384E+02  0.51100000000E-03 0.  1.
        -12    1    4    4    0    0  0.88781783819E+01  0.19999726411E+02 -0.17787906116E+01  0.21953933678E+02  0.00000000000E+00 0.  1.
</event>
<event>
 8    1  0.2402194E-006  0.9118800E+02  0.7816164E-02  0.1184000E+00
        -11   -1    0    0    0    0  0.00000000000E+00  0.00000000000E+00  0.45593999997E+02  0.45594000000E+02  0.51100000000E-03 0.  1.
         11   -1    0    0    0    0 -0.00000000000E+00 -0.00000000000E+00 -0.45593999997E+02  0.45594000000E+02  0.51100000000E-03 0. -1.
         23    2    1    2    0    0 -0.11102230246E-14  0.13322676296E-14  0.00000000000E+00  0.91188000000E+02  0.91188000000E+02 0.  0.
    9900012    2    3    3    0    0  0.19212665831E+01  0.35245271329E+01 -0.36601458369E+02  0.54367077802E+02  0.39999985464E+02 0.  0.
        -12    1    3    3    0    0 -0.19212665831E+01 -0.35245271329E+01  0.36601458369E+02  0.36820922198E+02  0.00000000000E+00 0.  1.
         11    1    4    4    0    0  0.10560585492E+01 -0.70773419768E+00  0.23517732829E+01  0.26733845943E+01  0.51100000000E-03 0. -1.
        -11    1    4    4    0    0  0.16096912615E+02  0.87957402324E+00 -0.29036916876E+02  0.33211847105E+02  0.51100000000E-03 0.  1.
         12    1    4    4    0    0 -0.15231704581E+02  0.33526873074E+01 -0.99163147758E+01  0.18481846102E+02  0.00000000000E+00 0. -1.
</event>
<event>
 8    1  0.2402194E-006  0.9118800E+02  0.7816164E-02  0.1184000E+00
        -11   -1    0    0    0    0  0.00000000000E+00  0.00000000000E+00  0.45593999997E+02  0.45594000000E+02  0.51100000000E-03 0.  1.
         11   -1    0    0    0    0 -0.00000000000E+00 -0.00000000000E+00 -0.45593999997E+02  0.45594000000E+02  0.51100000000E-03 0. -1.
         23    2    1    2    0    0  0.17763568394E-14  0.00000000000E+00  0.35527136788E-14  0.91188000000E+02  0.91188000000E+02 0.  0.
    9900012    2    3    3    0    0 -0.11163402738E+02  0.24513356826E+02 -0.25104846487E+02  0.54367088269E+02  0.40000009327E+02 0.  0.
        -12    1    3    3    0    0  0.11163402738E+02 -0.24513356826E+02  0.25104846487E+02  0.36820911731E+02  0.00000000000E+00 0.  1.
         11    1    4    4    0    0  0.66407402437E+01  0.14234598955E+01 -0.90430260612E+01  0.11309376184E+02  0.51100000000E-03 0. -1.
        -11    1    4    4    0    0 -0.21512333953E+01  0.16887852910E+02  0.33612386558E+01  0.17352962473E+02  0.51100000000E-03 0.  1.
        -12    1    4    4    0    0 -0.15652909586E+02  0.62020440205E+01 -0.19423059082E+02  0.25704749612E+02  0.00000000000E+00 0.  1.
</event>
<event>
 8    1  0.2402194E-006  0.9118800E+02  0.7816164E-02  0.1184000E+00
        -11   -1    0    0    0    0  0.00000000000E+00  0.00000000000E+00  0.45593999997E+02  0.45594000000E+02  0.51100000000E-03 0. -1.
         11   -1    0    0    0    0 -0.00000000000E+00 -0.00000000000E+00 -0.45593999997E+02  0.45594000000E+02  0.51100000000E-03 0.  1.
         23    2    1    2    0    0  0.88817841970E-15  0.00000000000E+00  0.77715611724E-15  0.91188000000E+02  0.91188000000E+02 0.  0.
    9900012    2    3    3    0    0 -0.59717251101E+01  0.36332093894E+02 -0.31267688997E+00  0.54367077763E+02  0.39999985377E+02 0.  0.
         12    1    3    3    0    0  0.59717251101E+01 -0.36332093894E+02  0.31267688997E+00  0.36820922237E+02  0.00000000000E+00 0. -1.
         11    1    4    4    0    0 -0.12061069137E+02  0.22286591740E+02 -0.89960405537E+01  0.26890338525E+02  0.51100000000E-03 0. -1.
        -11    1    4    4    0    0 -0.90963027240E+00  0.96806064644E+01  0.14446840325E+02  0.17414154140E+02  0.51100000000E-03 0.  1.
        -12    1    4    4    0    0  0.69989742995E+01  0.43648956903E+01 -0.57634766615E+01  0.10062585098E+02  0.00000000000E+00 0.  1.
</event>
<event>
 8    1  0.2402194E-006  0.9118800E+02  0.7816164E-02  0.1184000E+00
        -11   -1    0    0    0    0  0.00000000000E+00  0.00000000000E+00  0.45593999997E+02  0.45594000000E+02  0.51100000000E-03 0. -1.
         11   -1    0    0    0    0 -0.00000000000E+00 -0.00000000000E+00 -0.45593999997E+02  0.45594000000E+02  0.51100000000E-03 0.  1.
         23    2    1    2    0    0  0.00000000000E+00  0.66613381478E-15  0.00000000000E+00  0.91188000000E+02  0.91188000000E+02 0.  0.
    9900012    2    3    3    0    0 -0.32660071476E+02  0.11072599533E+01 -0.16966859025E+02  0.54367073904E+02  0.39999976579E+02 0.  0.
         12    1    3    3    0    0  0.32660071476E+02 -0.11072599533E+01  0.16966859025E+02  0.36820926096E+02  0.00000000000E+00 0. -1.
         11    1    4    4    0    0  0.30450023606E+01  0.28914936018E+00  0.10725615803E+01  0.32413014876E+01  0.51100000000E-03 0. -1.
        -11    1    4    4    0    0 -0.34473527758E+02  0.10974213323E+02 -0.85564072429E+01  0.37176196407E+02  0.51100000000E-03 0.  1.
         12    1    4    4    0    0 -0.12315460779E+01 -0.10156102730E+02 -0.94830133627E+01  0.13949576009E+02  0.00000000000E+00 0. -1.
</event>
<event>
 8    1  0.2402194E-006  0.9118800E+02  0.7816164E-02  0.1184000E+00
        -11   -1    0    0    0    0  0.00000000000E+00  0.00000000000E+00  0.45593999997E+02  0.45594000000E+02  0.51100000000E-03 0.  1.
         11   -1    0    0    0    0 -0.00000000000E+00 -0.00000000000E+00 -0.45593999997E+02  0.45594000000E+02  0.51100000000E-03 0. -1.
         23    2    1    2    0    0 -0.17763568394E-14  0.00000000000E+00  0.00000000000E+00  0.91188000000E+02  0.91188000000E+02 0.  0.
    9900012    2    3    3    0    0  0.24857391715E+01  0.35865818708E+02 -0.79526224446E+01  0.54367081291E+02  0.39999993418E+02 0.  0.
        -12    1    3    3    0    0 -0.24857391715E+01 -0.35865818708E+02  0.79526224446E+01  0.36820918709E+02  0.00000000000E+00 0.  1.
         11    1    4    4    0    0  0.60954961495E+01  0.14584353536E+02  0.10529279946E+02  0.18992740135E+02  0.51100000000E-03 0. -1.
        -11    1    4    4    0    0  0.54776140324E+01  0.10776331799E+02  0.20519976762E+00  0.12090313881E+02  0.51100000000E-03 0.  1.
        -12    1    4    4    0    0 -0.90873710104E+01  0.10505133373E+02 -0.18687102159E+02  0.23284027275E+02  0.00000000000E+00 0.  1.
</event>
<event>
 8    1  0.2402194E-006  0.9118800E+02  0.7816164E-02  0.1184000E+00
        -11   -1    0    0    0    0  0.00000000000E+00  0.00000000000E+00  0.45593999997E+02  0.45594000000E+02  0.51100000000E-03 0. -1.
         11   -1    0    0    0    0 -0.00000000000E+00 -0.00000000000E+00 -0.45593999997E+02  0.45594000000E+02  0.51100000000E-03 0.  1.
         23    2    1    2    0    0 -0.71054273576E-14 -0.17763568394E-14  0.00000000000E+00  0.91188000000E+02  0.91188000000E+02 0.  0.
    9900012    2    3    3    0    0  0.33362635575E+02  0.75847064301E+01 -0.13608321083E+02  0.54367087100E+02  0.40000006662E+02 0.  0.
         12    1    3    3    0    0 -0.33362635575E+02 -0.75847064301E+01  0.13608321083E+02  0.36820912900E+02  0.00000000000E+00 0. -1.
         11    1    4    4    0    0  0.29831552426E+01  0.77344097385E+01 -0.27437003210E+01  0.87320215825E+01  0.51100000000E-03 0. -1.
        -11    1    4    4    0    0  0.24078286924E+02 -0.14822381689E+02 -0.82507554874E+01  0.29454063667E+02  0.51100000000E-03 0.  1.
        -12    1    4    4    0    0  0.63011934082E+01  0.14672678380E+02 -0.26138652744E+01  0.16181001851E+02  0.00000000000E+00 0.  1.
</event>
<event>
 8    1  0.2402194E-006  0.9118800E+02  0.7816164E-02  0.1184000E+00
        -11   -1    0    0    0    0  0.00000000000E+00  0.00000000000E+00  0.45593999997E+02  0.45594000000E+02  0.51100000000E-03 0.  1.
         11   -1    0    0    0    0 -0.00000000000E+00 -0.00000000000E+00 -0.45593999997E+02  0.45594000000E+02  0.51100000000E-03 0. -1.
         23    2    1    2    0    0  0.17763568394E-14  0.00000000000E+00  0.00000000000E+00  0.91188000000E+02  0.91188000000E+02 0.  0.
    9900012    2    3    3    0    0 -0.10524060251E+02 -0.15781572881E+02 -0.31558944957E+02  0.54367069898E+02  0.39999967446E+02 0.  0.
        -12    1    3    3    0    0  0.10524060251E+02  0.15781572881E+02  0.31558944957E+02  0.36820930102E+02  0.00000000000E+00 0.  1.
         11    1    4    4    0    0 -0.11394462049E+01 -0.37510523237E+01 -0.15122163889E+02  0.15622054030E+02  0.51100000000E-03 0. -1.
        -11    1    4    4    0    0 -0.21857346247E+01 -0.12338692851E+01  0.94554887631E+01  0.97829513580E+01  0.51100000000E-03 0.  1.
        -12    1    4    4    0    0 -0.71988794219E+01 -0.10796651273E+02 -0.25892269832E+02  0.28962064510E+02  0.00000000000E+00 0.  1.
</event>
<event>
 8    1  0.2402194E-006  0.9118800E+02  0.7816164E-02  0.1184000E+00
        -11   -1    0    0    0    0  0.00000000000E+00  0.00000000000E+00  0.45593999997E+02  0.45594000000E+02  0.51100000000E-03 0. -1.
         11   -1    0    0    0    0 -0.00000000000E+00 -0.00000000000E+00 -0.45593999997E+02  0.45594000000E+02  0.51100000000E-03 0.  1.
         23    2    1    2    0    0  0.00000000000E+00 -0.44408920985E-15  0.00000000000E+00  0.91188000000E+02  0.91188000000E+02 0.  0.
    9900012    2    3    3    0    0 -0.62655641717E+01 -0.29543239493E+01 -0.36163437600E+02  0.54367088232E+02  0.40000009242E+02 0.  0.
         12    1    3    3    0    0  0.62655641717E+01  0.29543239493E+01  0.36163437600E+02  0.36820911768E+02  0.00000000000E+00 0. -1.
         11    1    4    4    0    0 -0.48906982094E+01  0.11980292187E+02 -0.22481435657E+02  0.25939569760E+02  0.51100000000E-03 0.  1.
        -11    1    4    4    0    0 -0.49981888241E+01 -0.13564003894E+01  0.34846500117E+01  0.62421550367E+01  0.51100000000E-03 0. -1.
        -12    1    4    4    0    0  0.36233228617E+01 -0.13578215746E+02 -0.17166651955E+02  0.22185363435E+02  0.00000000000E+00 0.  1.
</event>
<event>
 8    1  0.2402194E-006  0.9118800E+02  0.7816164E-02  0.1184000E+00
        -11   -1    0    0    0    0  0.00000000000E+00  0.00000000000E+00  0.45593999997E+02  0.45594000000E+02  0.51100000000E-03 0.  1.
         11   -1    0    0    0    0 -0.00000000000E+00 -0.00000000000E+00 -0.45593999997E+02  0.45594000000E+02  0.51100000000E-03 0. -1.
         23    2    1    2    0    0  0.00000000000E+00  0.17763568394E-14  0.71054273576E-14  0.91188000000E+02  0.91188000000E+02 0.  0.
    9900012    2    3    3    0    0  0.82381523740E+01 -0.21233350203E+01  0.35824647314E+02  0.54367067620E+02  0.39999962253E+02 0.  0.
         12    1    3    3    0    0 -0.82381523740E+01  0.21233350203E+01 -0.35824647314E+02  0.36820932380E+02  0.00000000000E+00 0. -1.
         11    1    4    4    0    0  0.42992183727E+01  0.73894015105E+01 -0.94470712510E+00  0.86011048775E+01  0.51100000000E-03 0. -1.
        -11    1    4    4    0    0  0.56849712039E+01  0.76448520452E+01  0.17353390170E+02  0.19796535329E+02  0.51100000000E-03 0.  1.
         12    1    4    4    0    0 -0.17460372026E+01 -0.17157588576E+02  0.19415964269E+02  0.25969427413E+02  0.00000000000E+00 0. -1.
</event>
<event>
 8    1  0.2402194E-006  0.9118800E+02  0.7816164E-02  0.1184000E+00
        -11   -1    0    0    0    0  0.00000000000E+00  0.00000000000E+00  0.45593999997E+02  0.45594000000E+02  0.51100000000E-03 0.  1.
         11   -1    0    0    0    0 -0.00000000000E+00 -0.00000000000E+00 -0.45593999997E+02  0.45594000000E+02  0.51100000000E-03 0. -1.
         23    2    1    2    0    0  0.00000000000E+00 -0.22204460493E-15  0.00000000000E+00  0.91188000000E+02  0.91188000000E+02 0.  0.
    9900012    2    3    3    0    0  0.28726282882E+02 -0.18089999975E+01 -0.22963196906E+02  0.54367079026E+02  0.39999988255E+02 0.  0.
        -12    1    3    3    0    0 -0.28726282882E+02  0.18089999975E+01  0.22963196906E+02  0.36820920974E+02  0.00000000000E+00 0.  1.
         11    1    4    4    0    0  0.19190225620E+02  0.11264786456E+02 -0.22155026777E+02  0.31400722683E+02  0.51100000000E-03 0. -1.
        -11    1    4    4    0    0  0.24753091939E+01  0.38470294015E+01 -0.72238156737E+00  0.46312661564E+01  0.51100000000E-03 0.  1.
         12    1    4    4    0    0  0.70607480683E+01 -0.16920815855E+02 -0.85788561829E-01  0.18335090187E+02  0.00000000000E+00 0. -1.
</event>
<event>
 8    1  0.2402194E-006  0.9118800E+02  0.7816164E-02  0.1184000E+00
        -11   -1    0    0    0    0  0.00000000000E+00  0.00000000000E+00  0.45593999997E+02  0.45594000000E+02  0.51100000000E-03 0.  1.
         11   -1    0    0    0    0 -0.00000000000E+00 -0.00000000000E+00 -0.45593999997E+02  0.45594000000E+02  0.51100000000E-03 0. -1.
         23    2    1    2    0    0  0.00000000000E+00  0.00000000000E+00  0.71054273576E-14  0.91188000000E+02  0.91188000000E+02 0.  0.
    9900012    2    3    3    0    0 -0.90677149934E+01 -0.15821405850E+02  0.31988086123E+02  0.54367109298E+02  0.40000057266E+02 0.  0.
         12    1    3    3    0    0  0.90677149934E+01  0.15821405850E+02 -0.31988086123E+02  0.36820890702E+02  0.00000000000E+00 0. -1.
         11    1    4    4    0    0 -0.71326088174E+01 -0.19978060282E+02  0.15009281210E+02  0.25986064032E+02  0.51100000000E-03 0. -1.
        -11    1    4    4    0    0 -0.11659709658E+02  0.52623415733E+01  0.11282283357E+02  0.17056699157E+02  0.51100000000E-03 0.  1.
        -12    1    4    4    0    0  0.97246034820E+01 -0.11056871408E+01  0.56965215568E+01  0.11324346108E+02  0.00000000000E+00 0.  1.
</event>
<event>
 8    1  0.2402194E-006  0.9118800E+02  0.7816164E-02  0.1184000E+00
        -11   -1    0    0    0    0  0.00000000000E+00  0.00000000000E+00  0.45593999997E+02  0.45594000000E+02  0.51100000000E-03 0.  1.
         11   -1    0    0    0    0 -0.00000000000E+00 -0.00000000000E+00 -0.45593999997E+02  0.45594000000E+02  0.51100000000E-03 0. -1.
         23    2    1    2    0    0  0.00000000000E+00 -0.35527136788E-14  0.00000000000E+00  0.91188000000E+02  0.91188000000E+02 0.  0.
    9900012    2    3    3    0    0 -0.22296913964E+02 -0.26483362047E+02  0.12540228551E+02  0.54367106886E+02  0.40000051767E+02 0.  0.
         12    1    3    3    0    0  0.22296913964E+02  0.26483362047E+02 -0.12540228551E+02  0.36820893114E+02  0.00000000000E+00 0. -1.
         11    1    4    4    0    0 -0.25418277752E+02 -0.28842495616E+02  0.41562739946E+01  0.38668501536E+02  0.51100000000E-03 0. -1.
        -11    1    4    4    0    0 -0.35008368470E+01 -0.98772614785E+00  0.73581093647E+01  0.82081200805E+01  0.51100000000E-03 0.  1.
         12    1    4    4    0    0  0.66222006353E+01  0.33468597165E+01  0.10258451915E+01  0.74904852695E+01  0.00000000000E+00 0. -1.
</event>
<event>
 8    1  0.2402194E-006  0.9118800E+02  0.7816164E-02  0.1184000E+00
        -11   -1    0    0    0    0  0.00000000000E+00  0.00000000000E+00  0.45593999997E+02  0.45594000000E+02  0.51100000000E-03 0. -1.
         11   -1    0    0    0    0 -0.00000000000E+00 -0.00000000000E+00 -0.45593999997E+02  0.45594000000E+02  0.51100000000E-03 0.  1.
         23    2    1    2    0    0  0.00000000000E+00  0.00000000000E+00  0.00000000000E+00  0.91188000000E+02  0.91188000000E+02 0.  0.
    9900012    2    3    3    0    0 -0.26248067228E+02 -0.11807295341E+02  0.22965247718E+02  0.54367138261E+02  0.40000123293E+02 0.  0.
        -12    1    3    3    0    0  0.26248067228E+02  0.11807295341E+02 -0.22965247718E+02  0.36820861739E+02  0.00000000000E+00 0.  1.
         11    1    4    4    0    0 -0.28302657389E+02 -0.74669180076E+01  0.81621217111E+01  0.30387752647E+02  0.51100000000E-03 0. -1.
        -11    1    4    4    0    0 -0.45072147526E+00  0.40180749570E+01 -0.23913552453E+01  0.46975159796E+01  0.51100000000E-03 0.  1.
        -12    1    4    4    0    0  0.25053116359E+01 -0.83584522900E+01  0.17194481252E+02  0.19281869635E+02  0.00000000000E+00 0.  1.
</event>
<event>
 8    1  0.2402194E-006  0.9118800E+02  0.7816164E-02  0.1184000E+00
        -11   -1    0    0    0    0  0.00000000000E+00  0.00000000000E+00  0.45593999997E+02  0.45594000000E+02  0.51100000000E-03 0.  1.
         11   -1    0    0    0    0 -0.00000000000E+00 -0.00000000000E+00 -0.45593999997E+02  0.45594000000E+02  0.51100000000E-03 0. -1.
         23    2    1    2    0    0 -0.71054273576E-14 -0.55511151231E-16  0.00000000000E+00  0.91188000000E+02  0.91188000000E+02 0.  0.
    9900012    2    3    3    0    0  0.29720375828E+02 -0.33631046510E+00  0.21734397503E+02  0.54366839252E+02  0.39999441638E+02 0.  0.
        -12    1    3    3    0    0 -0.29720375828E+02  0.33631046510E+00 -0.21734397503E+02  0.36821160748E+02  0.00000000000E+00 0.  1.
         11    1    4    4    0    0 -0.23371947464E+01  0.99057957338E+01  0.10962590221E+02  0.14958798515E+02  0.51100000000E-03 0. -1.
        -11    1    4    4    0    0 -0.68801180060E+00  0.17811206554E+01  0.31787109243E+01  0.37080930986E+01  0.51100000000E-03 0.  1.
         12    1    4    4    0    0  0.32745582375E+02 -0.12023226854E+02  0.75930963572E+01  0.35699947638E+02  0.00000000000E+00 0. -1.
</event>
<event>
 8    1  0.2402194E-006  0.9118800E+02  0.7816164E-02  0.1184000E+00
        -11   -1    0    0    0    0  0.00000000000E+00  0.00000000000E+00  0.45593999997E+02  0.45594000000E+02  0.51100000000E-03 0.  1.
         11   -1    0    0    0    0 -0.00000000000E+00 -0.00000000000E+00 -0.45593999997E+02  0.45594000000E+02  0.51100000000E-03 0. -1.
         23    2    1    2    0    0  0.00000000000E+00  0.17763568394E-14  0.88817841970E-15  0.91188000000E+02  0.91188000000E+02 0.  0.
    9900012    2    3    3    0    0 -0.33809056553E+02 -0.12502429174E+02 -0.75107616801E+01  0.54367155615E+02  0.40000162855E+02 0.  0.
         12    1    3    3    0    0  0.33809056553E+02  0.12502429174E+02  0.75107616801E+01  0.36820844385E+02  0.00000000000E+00 0. -1.
         11    1    4    4    0    0 -0.56859710197E+01 -0.26065777910E+01 -0.15270052148E+02  0.16501484997E+02  0.51100000000E-03 0. -1.
        -11    1    4    4    0    0 -0.29184969629E+02 -0.14267263013E+02  0.76077655409E+01  0.33364582163E+02  0.51100000000E-03 0.  1.
        -12    1    4    4    0    0  0.10618840965E+01  0.43714116302E+01  0.15152492737E+00  0.45010884549E+01  0.00000000000E+00 0.  1.
</event>
<event>
 8    1  0.2402194E-006  0.9118800E+02  0.7816164E-02  0.1184000E+00
        -11   -1    0    0    0    0  0.00000000000E+00  0.00000000000E+00  0.45593999997E+02  0.45594000000E+02  0.51100000000E-03 0.  1.
         11   -1    0    0    0    0 -0.00000000000E+00 -0.00000000000E+00 -0.45593999997E+02  0.45594000000E+02  0.51100000000E-03 0. -1.
         23    2    1    2    0    0 -0.35527136788E-14 -0.35527136788E-14 -0.16653345369E-15  0.91188000000E+02  0.91188000000E+02 0.  0.
    9900012    2    3    3    0    0  0.21051687759E+02  0.30207706754E+02 -0.31709577012E+00  0.54367086723E+02  0.40000005802E+02 0.  0.
         12    1    3    3    0    0 -0.21051687759E+02 -0.30207706754E+02  0.31709577012E+00  0.36820913277E+02  0.00000000000E+00 0. -1.
         11    1    4    4    0    0 -0.60253327686E+01 -0.25455109733E+01 -0.38814877006E+01  0.76059324292E+01  0.51100000000E-03 0. -1.
        -11    1    4    4    0    0  0.39306648352E+01  0.13431741759E+02  0.82540104064E+01  0.16247784488E+02  0.51100000000E-03 0.  1.
        -12    1    4    4    0    0  0.23146355692E+02  0.19321475969E+02 -0.46896184759E+01  0.30513369806E+02  0.00000000000E+00 0.  1.
</event>
<event>
 8    1  0.2402194E-006  0.9118800E+02  0.7816164E-02  0.1184000E+00
        -11   -1    0    0    0    0  0.00000000000E+00  0.00000000000E+00  0.45593999997E+02  0.45594000000E+02  0.51100000000E-03 0. -1.
         11   -1    0    0    0    0 -0.00000000000E+00 -0.00000000000E+00 -0.45593999997E+02  0.45594000000E+02  0.51100000000E-03 0.  1.
         23    2    1    2    0    0  0.00000000000E+00  0.88817841970E-15 -0.71054273576E-14  0.91188000000E+02  0.91188000000E+02 0.  0.
    9900012    2    3    3    0    0  0.14402577485E+02  0.62636338816E+01 -0.33303338894E+02  0.54367085711E+02  0.40000003496E+02 0.  0.
         12    1    3    3    0    0 -0.14402577485E+02 -0.62636338816E+01  0.33303338894E+02  0.36820914289E+02  0.00000000000E+00 0. -1.
         11    1    4    4    0    0  0.21648095401E+02  0.43240842985E+01 -0.29613400060E+02  0.36936312795E+02  0.51100000000E-03 0. -1.
        -11    1    4    4    0    0  0.46481645781E+01 -0.40561012317E+00  0.28102542794E+00  0.46742838029E+01  0.51100000000E-03 0.  1.
         12    1    4    4    0    0 -0.11893682495E+02  0.23451597062E+01 -0.39709642616E+01  0.12756489113E+02  0.00000000000E+00 0. -1.
</event>
<event>
 8    1  0.2402194E-006  0.9118800E+02  0.7816164E-02  0.1184000E+00
        -11   -1    0    0    0    0  0.00000000000E+00  0.00000000000E+00  0.45593999997E+02  0.45594000000E+02  0.51100000000E-03 0. -1.
         11   -1    0    0    0    0 -0.00000000000E+00 -0.00000000000E+00 -0.45593999997E+02  0.45594000000E+02  0.51100000000E-03 0.  1.
         23    2    1    2    0    0  0.35527136788E-14  0.00000000000E+00 -0.17763568394E-14  0.91188000000E+02  0.91188000000E+02 0.  0.
    9900012    2    3    3    0    0 -0.31060834356E+02 -0.18878635336E+02 -0.58823162088E+01  0.54367082751E+02  0.39999996748E+02 0.  0.
         12    1    3    3    0    0  0.31060834356E+02  0.18878635336E+02  0.58823162088E+01  0.36820917249E+02  0.00000000000E+00 0. -1.
         11    1    4    4    0    0 -0.54949679969E+00 -0.30772968786E+01  0.31222539883E+01  0.44181639897E+01  0.51100000000E-03 0. -1.
        -11    1    4    4    0    0 -0.19133080233E+02 -0.15712207205E+02 -0.21684936965E+02  0.32911771539E+02  0.51100000000E-03 0.  1.
         12    1    4    4    0    0 -0.11378257324E+02 -0.89131252477E-01  0.12680366767E+02  0.17037147222E+02  0.00000000000E+00 0. -1.
</event>
<event>
 8    1  0.2402194E-006  0.9118800E+02  0.7816164E-02  0.1184000E+00
        -11   -1    0    0    0    0  0.00000000000E+00  0.00000000000E+00  0.45593999997E+02  0.45594000000E+02  0.51100000000E-03 0.  1.
         11   -1    0    0    0    0 -0.00000000000E+00 -0.00000000000E+00 -0.45593999997E+02  0.45594000000E+02  0.51100000000E-03 0. -1.
         23    2    1    2    0    0  0.88817841970E-15 -0.35527136788E-14  0.71054273576E-14  0.91188000000E+02  0.91188000000E+02 0.  0.
    9900012    2    3    3    0    0  0.10805930127E+01  0.18310792486E+02 -0.31926910044E+02  0.54367076768E+02  0.39999983107E+02 0.  0.
        -12    1    3    3    0    0 -0.10805930127E+01 -0.18310792486E+02  0.31926910044E+02  0.36820923232E+02  0.00000000000E+00 0.  1.
         11    1    4    4    0    0  0.73350484278E+01  0.13039893772E+02 -0.82085337382E+01  0.17065221693E+02  0.51100000000E-03 0. -1.
        -11    1    4    4    0    0 -0.44264218111E+00  0.11000512839E+02  0.12060624827E+01  0.11075278859E+02  0.51100000000E-03 0.  1.
         12    1    4    4    0    0 -0.58118132339E+01 -0.57296141258E+01 -0.24924438788E+02  0.26226576216E+02  0.00000000000E+00 0. -1.
</event>
<event>
 8    1  0.2402194E-006  0.9118800E+02  0.7816164E-02  0.1184000E+00
        -11   -1    0    0    0    0  0.00000000000E+00  0.00000000000E+00  0.45593999997E+02  0.45594000000E+02  0.51100000000E-03 0. -1.
         11   -1    0    0    0    0 -0.00000000000E+00 -0.00000000000E+00 -0.45593999997E+02  0.45594000000E+02  0.51100000000E-03 0.  1.
         23    2    1    2    0    0 -0.44408920985E-15  0.00000000000E+00  0.00000000000E+00  0.91188000000E+02  0.91188000000E+02 0.  0.
    9900012    2    3    3    0    0  0.37808927797E+01 -0.32677168064E+02 -0.16543459159E+02  0.54367102348E+02  0.40000041424E+02 0.  0.
        -12    1    3    3    0    0 -0.37808927797E+01  0.32677168064E+02  0.16543459159E+02  0.36820897652E+02  0.00000000000E+00 0.  1.
         11    1    4    4    0    0 -0.65448225652E+01 -0.11877678680E+02 -0.69285399578E+01  0.15228874530E+02  0.51100000000E-03 0. -1.
        -11    1    4    4    0    0  0.12617644136E+02  0.38073604833E+01 -0.24309386852E+01  0.13401880486E+02  0.51100000000E-03 0.  1.
         12    1    4    4    0    0 -0.22919287913E+01 -0.24606849868E+02 -0.71839805162E+01  0.25736347333E+02  0.00000000000E+00 0. -1.
</event>
<event>
 8    1  0.2402194E-006  0.9118800E+02  0.7816164E-02  0.1184000E+00
        -11   -1    0    0    0    0  0.00000000000E+00  0.00000000000E+00  0.45593999997E+02  0.45594000000E+02  0.51100000000E-03 0.  1.
         11   -1    0    0    0    0 -0.00000000000E+00 -0.00000000000E+00 -0.45593999997E+02  0.45594000000E+02  0.51100000000E-03 0. -1.
         23    2    1    2    0    0 -0.71054273576E-14  0.00000000000E+00  0.35527136788E-14  0.91188000000E+02  0.91188000000E+02 0.  0.
    9900012    2    3    3    0    0 -0.29659468395E+02 -0.81472449260E+01  0.20241413894E+02  0.54367129535E+02  0.40000103401E+02 0.  0.
         12    1    3    3    0    0  0.29659468395E+02  0.81472449260E+01 -0.20241413894E+02  0.36820870465E+02  0.00000000000E+00 0. -1.
         11    1    4    4    0    0 -0.17095893260E+01  0.43081663538E+01  0.46838769745E+01  0.65895141528E+01  0.51100000000E-03 0. -1.
        -11    1    4    4    0    0 -0.16216057064E+02 -0.95987548934E+01 -0.86427102944E+01  0.20731450593E+02  0.51100000000E-03 0.  1.
        -12    1    4    4    0    0 -0.11733822005E+02 -0.28566563865E+01  0.24200247214E+02  0.27046164789E+02  0.00000000000E+00 0.  1.
</event>
<event>
 8    1  0.2402194E-006  0.9118800E+02  0.7816164E-02  0.1184000E+00
        -11   -1    0    0    0    0  0.00000000000E+00  0.00000000000E+00  0.45593999997E+02  0.45594000000E+02  0.51100000000E-03 0.  1.
         11   -1    0    0    0    0 -0.00000000000E+00 -0.00000000000E+00 -0.45593999997E+02  0.45594000000E+02  0.51100000000E-03 0. -1.
         23    2    1    2    0    0 -0.35527136788E-14  0.00000000000E+00 -0.88817841970E-15  0.91188000000E+02  0.91188000000E+02 0.  0.
    9900012    2    3    3    0    0  0.16093602851E+02  0.32650881335E+02  0.55403901452E+01  0.54367081657E+02  0.39999994253E+02 0.  0.
        -12    1    3    3    0    0 -0.16093602851E+02 -0.32650881335E+02 -0.55403901452E+01  0.36820918343E+02  0.00000000000E+00 0.  1.
         11    1    4    4    0    0  0.62551038059E+01  0.61849738594E+01  0.45636952155E+00  0.88084333832E+01  0.51100000000E-03 0. -1.
        -11    1    4    4    0    0  0.75206482245E+01 -0.62821953194E+01  0.79293065476E+01  0.12605555535E+02  0.51100000000E-03 0.  1.
         12    1    4    4    0    0  0.23178508203E+01  0.32748102795E+02 -0.28452859240E+01  0.32953092739E+02  0.00000000000E+00 0. -1.
</event>
<event>
 8    1  0.2402194E-006  0.9118800E+02  0.7816164E-02  0.1184000E+00
        -11   -1    0    0    0    0  0.00000000000E+00  0.00000000000E+00  0.45593999997E+02  0.45594000000E+02  0.51100000000E-03 0. -1.
         11   -1    0    0    0    0 -0.00000000000E+00 -0.00000000000E+00 -0.45593999997E+02  0.45594000000E+02  0.51100000000E-03 0.  1.
         23    2    1    2    0    0  0.00000000000E+00 -0.44408920985E-15  0.00000000000E+00  0.91188000000E+02  0.91188000000E+02 0.  0.
    9900012    2    3    3    0    0  0.10069350422E+02  0.14010734252E+01  0.35389617133E+02  0.54367084401E+02  0.40000000510E+02 0.  0.
        -12    1    3    3    0    0 -0.10069350422E+02 -0.14010734252E+01 -0.35389617133E+02  0.36820915599E+02  0.00000000000E+00 0.  1.
         11    1    4    4    0    0 -0.89674952348E+01  0.42674394239E+00  0.12169368878E+02  0.15122553367E+02  0.51100000000E-03 0. -1.
        -11    1    4    4    0    0  0.11947061427E+02 -0.55830765750E+01 -0.94496076293E+00  0.13221042769E+02  0.51100000000E-03 0.  1.
         12    1    4    4    0    0  0.70897842301E+01  0.65574060578E+01  0.24165209018E+02  0.26023488266E+02  0.00000000000E+00 0. -1.
</event>
<event>
 8    1  0.2402194E-006  0.9118800E+02  0.7816164E-02  0.1184000E+00
        -11   -1    0    0    0    0  0.00000000000E+00  0.00000000000E+00  0.45593999997E+02  0.45594000000E+02  0.51100000000E-03 0.  1.
         11   -1    0    0    0    0 -0.00000000000E+00 -0.00000000000E+00 -0.45593999997E+02  0.45594000000E+02  0.51100000000E-03 0. -1.
         23    2    1    2    0    0  0.00000000000E+00  0.35527136788E-14 -0.35527136788E-14  0.91188000000E+02  0.91188000000E+02 0.  0.
    9900012    2    3    3    0    0 -0.11142417263E+02  0.27078541714E+02  0.22324386057E+02  0.54367094299E+02  0.40000023074E+02 0.  0.
         12    1    3    3    0    0  0.11142417263E+02 -0.27078541714E+02 -0.22324386057E+02  0.36820905701E+02  0.00000000000E+00 0. -1.
         11    1    4    4    0    0 -0.66755751132E+01  0.44777170822E+01 -0.10008086414E+02  0.12836473319E+02  0.51100000000E-03 0. -1.
        -11    1    4    4    0    0 -0.68685882173E+01  0.69162372345E+01  0.86992987336E+01  0.13064824541E+02  0.51100000000E-03 0.  1.
         12    1    4    4    0    0  0.24017460675E+01  0.15684587397E+02  0.23633173737E+02  0.28465796438E+02  0.00000000000E+00 0. -1.
</event>
<event>
 8    1  0.2402194E-006  0.9118800E+02  0.7816164E-02  0.1184000E+00
        -11   -1    0    0    0    0  0.00000000000E+00  0.00000000000E+00  0.45593999997E+02  0.45594000000E+02  0.51100000000E-03 0. -1.
         11   -1    0    0    0    0 -0.00000000000E+00 -0.00000000000E+00 -0.45593999997E+02  0.45594000000E+02  0.51100000000E-03 0.  1.
         23    2    1    2    0    0  0.00000000000E+00  0.00000000000E+00 -0.71054273576E-14  0.91188000000E+02  0.91188000000E+02 0.  0.
    9900012    2    3    3    0    0 -0.66345898441E+01  0.20692376981E+01 -0.36159087680E+02  0.54367093590E+02  0.40000021456E+02 0.  0.
         12    1    3    3    0    0  0.66345898441E+01 -0.20692376981E+01  0.36159087680E+02  0.36820906410E+02  0.00000000000E+00 0. -1.
         11    1    4    4    0    0 -0.10371700628E+02  0.14047272844E+02 -0.19227832033E+02  0.25973208759E+02  0.51100000000E-03 0. -1.
        -11    1    4    4    0    0 -0.52124425441E+01  0.20572048615E+01 -0.71597182595E+01  0.90919313094E+01  0.51100000000E-03 0.  1.
        -12    1    4    4    0    0  0.89495533277E+01 -0.14035240008E+02 -0.97715373866E+01  0.19301953521E+02  0.00000000000E+00 0.  1.
</event>
<event>
 8    1  0.2402194E-006  0.9118800E+02  0.7816164E-02  0.1184000E+00
        -11   -1    0    0    0    0  0.00000000000E+00  0.00000000000E+00  0.45593999997E+02  0.45594000000E+02  0.51100000000E-03 0. -1.
         11   -1    0    0    0    0 -0.00000000000E+00 -0.00000000000E+00 -0.45593999997E+02  0.45594000000E+02  0.51100000000E-03 0.  1.
         23    2    1    2    0    0  0.88817841970E-15  0.88817841970E-15  0.71054273576E-14  0.91188000000E+02  0.91188000000E+02 0.  0.
    9900012    2    3    3    0    0  0.75378842402E+01 -0.27723289184E+01  0.35934336589E+02  0.54367054160E+02  0.39999931569E+02 0.  0.
        -12    1    3    3    0    0 -0.75378842402E+01  0.27723289184E+01 -0.35934336589E+02  0.36820945840E+02  0.00000000000E+00 0.  1.
         11    1    4    4    0    0  0.53920663711E+01 -0.15246411875E+02  0.96889272027E+01  0.18852128936E+02  0.51100000000E-03 0. -1.
        -11    1    4    4    0    0 -0.27381641908E+01  0.39424827129E+01 -0.23010936066E+01  0.53231330177E+01  0.51100000000E-03 0.  1.
         12    1    4    4    0    0  0.48839820599E+01  0.85316002442E+01  0.28546502993E+02  0.30191792206E+02  0.00000000000E+00 0. -1.
</event>
<event>
 8    1  0.2402194E-006  0.9118800E+02  0.7816164E-02  0.1184000E+00
        -11   -1    0    0    0    0  0.00000000000E+00  0.00000000000E+00  0.45593999997E+02  0.45594000000E+02  0.51100000000E-03 0.  1.
         11   -1    0    0    0    0 -0.00000000000E+00 -0.00000000000E+00 -0.45593999997E+02  0.45594000000E+02  0.51100000000E-03 0. -1.
         23    2    1    2    0    0  0.26645352591E-14  0.00000000000E+00  0.00000000000E+00  0.91188000000E+02  0.91188000000E+02 0.  0.
    9900012    2    3    3    0    0  0.54874976386E+00  0.17169242103E+02 -0.32568318293E+02  0.54367090762E+02  0.40000015009E+02 0.  0.
        -12    1    3    3    0    0 -0.54874976386E+00 -0.17169242103E+02  0.32568318293E+02  0.36820909238E+02  0.00000000000E+00 0.  1.
         11    1    4    4    0    0  0.10071694095E+01  0.82608977915E+01 -0.25295408563E+02  0.26629204216E+02  0.51100000000E-03 0. -1.
        -11    1    4    4    0    0  0.87190919277E+01  0.12747934338E+02 -0.86385902589E+01  0.17696260504E+02  0.51100000000E-03 0.  1.
        -12    1    4    4    0    0 -0.91775115734E+01 -0.38395900257E+01  0.13656805289E+01  0.10041626041E+02  0.00000000000E+00 0.  1.
</event>
<event>
 8    1  0.2402194E-006  0.9118800E+02  0.7816164E-02  0.1184000E+00
        -11   -1    0    0    0    0  0.00000000000E+00  0.00000000000E+00  0.45593999997E+02  0.45594000000E+02  0.51100000000E-03 0.  1.
         11   -1    0    0    0    0 -0.00000000000E+00 -0.00000000000E+00 -0.45593999997E+02  0.45594000000E+02  0.51100000000E-03 0. -1.
         23    2    1    2    0    0  0.35527136788E-14  0.00000000000E+00  0.00000000000E+00  0.91188000000E+02  0.91188000000E+02 0.  0.
    9900012    2    3    3    0    0 -0.22171692734E+02 -0.78543150720E+01 -0.28328455102E+02  0.54367141884E+02  0.40000131553E+02 0.  0.
        -12    1    3    3    0    0  0.22171692734E+02  0.78543150720E+01  0.28328455102E+02  0.36820858116E+02  0.00000000000E+00 0.  1.
         11    1    4    4    0    0 -0.94458133595E+01 -0.10888045177E+02 -0.97560284984E+01  0.17405545384E+02  0.51100000000E-03 0. -1.
        -11    1    4    4    0    0 -0.23539195813E+01 -0.31320039068E+01 -0.23575808010E+02  0.23899144534E+02  0.51100000000E-03 0.  1.
        -12    1    4    4    0    0 -0.10371959794E+02  0.61657340113E+01  0.50033814071E+01  0.13062451966E+02  0.00000000000E+00 0.  1.
</event>
<event>
 8    1  0.2402194E-006  0.9118800E+02  0.7816164E-02  0.1184000E+00
        -11   -1    0    0    0    0  0.00000000000E+00  0.00000000000E+00  0.45593999997E+02  0.45594000000E+02  0.51100000000E-03 0.  1.
         11   -1    0    0    0    0 -0.00000000000E+00 -0.00000000000E+00 -0.45593999997E+02  0.45594000000E+02  0.51100000000E-03 0. -1.
         23    2    1    2    0    0  0.00000000000E+00  0.00000000000E+00  0.00000000000E+00  0.91188000000E+02  0.91188000000E+02 0.  0.
    9900012    2    3    3    0    0  0.29304375464E+02 -0.21664769832E+02  0.52606144017E+01  0.54367044864E+02  0.39999910376E+02 0.  0.
         12    1    3    3    0    0 -0.29304375464E+02  0.21664769832E+02 -0.52606144017E+01  0.36820955136E+02  0.00000000000E+00 0. -1.
         11    1    4    4    0    0 -0.57990846049E+01  0.17384535824E+00  0.39941704042E+01  0.70436497600E+01  0.51100000000E-03 0. -1.
        -11    1    4    4    0    0  0.41771637324E+00  0.29402519260E+01  0.35579188831E+01  0.46344746624E+01  0.51100000000E-03 0.  1.
        -12    1    4    4    0    0  0.34685743696E+02 -0.24778867116E+02 -0.22914748856E+01  0.42688920442E+02  0.00000000000E+00 0.  1.
</event>
<event>
 8    1  0.2402194E-006  0.9118800E+02  0.7816164E-02  0.1184000E+00
        -11   -1    0    0    0    0  0.00000000000E+00  0.00000000000E+00  0.45593999997E+02  0.45594000000E+02  0.51100000000E-03 0.  1.
         11   -1    0    0    0    0 -0.00000000000E+00 -0.00000000000E+00 -0.45593999997E+02  0.45594000000E+02  0.51100000000E-03 0. -1.
         23    2    1    2    0    0  0.00000000000E+00  0.00000000000E+00  0.00000000000E+00  0.91188000000E+02  0.91188000000E+02 0.  0.
    9900012    2    3    3    0    0  0.28817499503E+02 -0.95605074945E+01  0.20830994330E+02  0.54367056151E+02  0.39999936107E+02 0.  0.
         12    1    3    3    0    0 -0.28817499503E+02  0.95605074945E+01 -0.20830994330E+02  0.36820943849E+02  0.00000000000E+00 0. -1.
         11    1    4    4    0    0  0.17448290098E+02  0.10120146965E+02  0.11683072790E+00  0.20171114288E+02  0.51100000000E-03 0. -1.
        -11    1    4    4    0    0  0.10362960428E+02 -0.10777756294E+02  0.44036767952E+01  0.15586640085E+02  0.51100000000E-03 0.  1.
        -12    1    4    4    0    0  0.10062489765E+01 -0.89028981656E+01  0.16310486807E+02  0.18609301777E+02  0.00000000000E+00 0.  1.
</event>
<event>
 8    1  0.2402194E-006  0.9118800E+02  0.7816164E-02  0.1184000E+00
        -11   -1    0    0    0    0  0.00000000000E+00  0.00000000000E+00  0.45593999997E+02  0.45594000000E+02  0.51100000000E-03 0. -1.
         11   -1    0    0    0    0 -0.00000000000E+00 -0.00000000000E+00 -0.45593999997E+02  0.45594000000E+02  0.51100000000E-03 0.  1.
         23    2    1    2    0    0  0.35527136788E-14  0.00000000000E+00 -0.35527136788E-14  0.91188000000E+02  0.91188000000E+02 0.  0.
    9900012    2    3    3    0    0  0.28914191438E+02  0.14478093702E+02 -0.17610612361E+02  0.54367091110E+02  0.40000015804E+02 0.  0.
         12    1    3    3    0    0 -0.28914191438E+02 -0.14478093702E+02  0.17610612361E+02  0.36820908890E+02  0.00000000000E+00 0. -1.
         11    1    4    4    0    0 -0.62734358626E-02  0.57837153785E+01 -0.19504981027E+02  0.20344426462E+02  0.51100000000E-03 0.  1.
        -11    1    4    4    0    0  0.30234754879E+01 -0.34315347195E+01  0.28899095509E+01  0.54100288382E+01  0.51100000000E-03 0. -1.
        -12    1    4    4    0    0  0.25896989386E+02  0.12125913043E+02 -0.99554088514E+00  0.28612635810E+02  0.00000000000E+00 0.  1.
</event>
<event>
 8    1  0.2402194E-006  0.9118800E+02  0.7816164E-02  0.1184000E+00
        -11   -1    0    0    0    0  0.00000000000E+00  0.00000000000E+00  0.45593999997E+02  0.45594000000E+02  0.51100000000E-03 0.  1.
         11   -1    0    0    0    0 -0.00000000000E+00 -0.00000000000E+00 -0.45593999997E+02  0.45594000000E+02  0.51100000000E-03 0. -1.
         23    2    1    2    0    0 -0.35527136788E-14  0.00000000000E+00  0.00000000000E+00  0.91188000000E+02  0.91188000000E+02 0.  0.
    9900012    2    3    3    0    0  0.27658511401E+02 -0.23181686212E+02  0.73073549505E+01  0.54367064855E+02  0.39999955950E+02 0.  0.
         12    1    3    3    0    0 -0.27658511401E+02  0.23181686212E+02 -0.73073549505E+01  0.36820935145E+02  0.00000000000E+00 0. -1.
         11    1    4    4    0    0  0.27061187576E+02 -0.13395929911E+01  0.36151982706E+01  0.27334447885E+02  0.51100000000E-03 0. -1.
        -11    1    4    4    0    0  0.58862450441E+01 -0.31366220191E+01  0.36301683239E+01  0.75937079698E+01  0.51100000000E-03 0.  1.
         12    1    4    4    0    0 -0.52889212188E+01 -0.18705471202E+02  0.61988355987E-01  0.19438909000E+02  0.00000000000E+00 0. -1.
</event>
<event>
 8    1  0.2402194E-006  0.9118800E+02  0.7816164E-02  0.1184000E+00
        -11   -1    0    0    0    0  0.00000000000E+00  0.00000000000E+00  0.45593999997E+02  0.45594000000E+02  0.51100000000E-03 0.  1.
         11   -1    0    0    0    0 -0.00000000000E+00 -0.00000000000E+00 -0.45593999997E+02  0.45594000000E+02  0.51100000000E-03 0. -1.
         23    2    1    2    0    0  0.00000000000E+00  0.00000000000E+00 -0.71054273576E-14  0.91188000000E+02  0.91188000000E+02 0.  0.
    9900012    2    3    3    0    0  0.21214866296E+02  0.75944943204E+01 -0.29121005239E+02  0.54367084176E+02  0.39999999997E+02 0.  0.
         12    1    3    3    0    0 -0.21214866296E+02 -0.75944943204E+01  0.29121005239E+02  0.36820915824E+02  0.00000000000E+00 0. -1.
         11    1    4    4    0    0  0.16796335885E+02  0.86001020070E+01 -0.27781673749E+02  0.33584223235E+02  0.51100000000E-03 0. -1.
        -11    1    4    4    0    0  0.90395845551E+01  0.63481988316E+01 -0.39223332847E+01  0.11721707043E+02  0.51100000000E-03 0.  1.
        -12    1    4    4    0    0 -0.46210541441E+01 -0.73538065183E+01  0.25830017950E+01  0.90611538992E+01  0.00000000000E+00 0.  1.
</event>
<event>
 8    1  0.2402194E-006  0.9118800E+02  0.7816164E-02  0.1184000E+00
        -11   -1    0    0    0    0  0.00000000000E+00  0.00000000000E+00  0.45593999997E+02  0.45594000000E+02  0.51100000000E-03 0.  1.
         11   -1    0    0    0    0 -0.00000000000E+00 -0.00000000000E+00 -0.45593999997E+02  0.45594000000E+02  0.51100000000E-03 0. -1.
         23    2    1    2    0    0  0.35527136788E-14  0.00000000000E+00  0.00000000000E+00  0.91188000000E+02  0.91188000000E+02 0.  0.
    9900012    2    3    3    0    0 -0.23380747086E+02 -0.87654816065E+01  0.27060734236E+02  0.54367131739E+02  0.40000108425E+02 0.  0.
         12    1    3    3    0    0  0.23380747086E+02  0.87654816065E+01 -0.27060734236E+02  0.36820868261E+02  0.00000000000E+00 0. -1.
         11    1    4    4    0    0 -0.19316533572E+02 -0.20654305060E+02  0.48231738328E+01  0.28687833533E+02  0.51100000000E-03 0. -1.
        -11    1    4    4    0    0 -0.74176670696E+00  0.18020456727E+01  0.57148561313E+01  0.60379770881E+01  0.51100000000E-03 0.  1.
         12    1    4    4    0    0 -0.33224468072E+01  0.10086777781E+02  0.16522704272E+02  0.19641321118E+02  0.00000000000E+00 0. -1.
</event>
<event>
 8    1  0.2402194E-006  0.9118800E+02  0.7816164E-02  0.1184000E+00
        -11   -1    0    0    0    0  0.00000000000E+00  0.00000000000E+00  0.45593999997E+02  0.45594000000E+02  0.51100000000E-03 0. -1.
         11   -1    0    0    0    0 -0.00000000000E+00 -0.00000000000E+00 -0.45593999997E+02  0.45594000000E+02  0.51100000000E-03 0.  1.
         23    2    1    2    0    0  0.00000000000E+00  0.00000000000E+00  0.71054273576E-14  0.91188000000E+02  0.91188000000E+02 0.  0.
    9900012    2    3    3    0    0  0.86187851169E+01  0.10944237092E+02  0.34084013827E+02  0.54367085007E+02  0.40000001890E+02 0.  0.
        -12    1    3    3    0    0 -0.86187851169E+01 -0.10944237092E+02 -0.34084013827E+02  0.36820914993E+02  0.00000000000E+00 0.  1.
         11    1    4    4    0    0  0.10321067223E+02 -0.13573845265E+02  0.11433635333E+02  0.20530507083E+02  0.51100000000E-03 0. -1.
        -11    1    4    4    0    0 -0.77241165602E+00  0.98769147326E+00  0.26847860799E+01  0.29631454181E+01  0.51100000000E-03 0.  1.
        -12    1    4    4    0    0 -0.92987045008E+00  0.23530390884E+02  0.19965592414E+02  0.30873432505E+02  0.00000000000E+00 0.  1.
</event>
<event>
 8    1  0.2402194E-006  0.9118800E+02  0.7816164E-02  0.1184000E+00
        -11   -1    0    0    0    0  0.00000000000E+00  0.00000000000E+00  0.45593999997E+02  0.45594000000E+02  0.51100000000E-03 0. -1.
         11   -1    0    0    0    0 -0.00000000000E+00 -0.00000000000E+00 -0.45593999997E+02  0.45594000000E+02  0.51100000000E-03 0.  1.
         23    2    1    2    0    0  0.00000000000E+00 -0.35527136788E-14  0.00000000000E+00  0.91188000000E+02  0.91188000000E+02 0.  0.
    9900012    2    3    3    0    0  0.13162317877E+02 -0.27555399556E+02 -0.20572670868E+02  0.54367062434E+02  0.39999950430E+02 0.  0.
         12    1    3    3    0    0 -0.13162317877E+02  0.27555399556E+02  0.20572670868E+02  0.36820937566E+02  0.00000000000E+00 0. -1.
         11    1    4    4    0    0  0.22522603772E+00 -0.40568652261E+01  0.63431740545E+00  0.41123279371E+01  0.51100000000E-03 0. -1.
        -11    1    4    4    0    0  0.37608450095E+01 -0.29087239331E+02 -0.34924315287E+01  0.29536562517E+02  0.51100000000E-03 0.  1.
         12    1    4    4    0    0  0.91762468303E+01  0.55887050011E+01 -0.17714556745E+02  0.20718171979E+02  0.00000000000E+00 0. -1.
</event>
<event>
 8    1  0.2402194E-006  0.9118800E+02  0.7816164E-02  0.1184000E+00
        -11   -1    0    0    0    0  0.00000000000E+00  0.00000000000E+00  0.45593999997E+02  0.45594000000E+02  0.51100000000E-03 0.  1.
         11   -1    0    0    0    0 -0.00000000000E+00 -0.00000000000E+00 -0.45593999997E+02  0.45594000000E+02  0.51100000000E-03 0. -1.
         23    2    1    2    0    0  0.00000000000E+00  0.17763568394E-14  0.35527136788E-14  0.91188000000E+02  0.91188000000E+02 0.  0.
    9900012    2    3    3    0    0 -0.19237523432E+02  0.12138977789E+02  0.28954147665E+02  0.54367085338E+02  0.40000002645E+02 0.  0.
         12    1    3    3    0    0  0.19237523432E+02 -0.12138977789E+02 -0.28954147665E+02  0.36820914662E+02  0.00000000000E+00 0. -1.
         11    1    4    4    0    0 -0.10080107153E+02 -0.37663791358E+01 -0.91779520280E+00  0.10799838902E+02  0.51100000000E-03 0. -1.
        -11    1    4    4    0    0 -0.11100630859E+02 -0.38750973292E+01  0.96214180040E+01  0.15192500434E+02  0.51100000000E-03 0.  1.
         12    1    4    4    0    0  0.19432145807E+01  0.19780454254E+02  0.20250524864E+02  0.28374746001E+02  0.00000000000E+00 0. -1.
</event>
<event>
 8    1  0.2402194E-006  0.9118800E+02  0.7816164E-02  0.1184000E+00
        -11   -1    0    0    0    0  0.00000000000E+00  0.00000000000E+00  0.45593999997E+02  0.45594000000E+02  0.51100000000E-03 0.  1.
         11   -1    0    0    0    0 -0.00000000000E+00 -0.00000000000E+00 -0.45593999997E+02  0.45594000000E+02  0.51100000000E-03 0. -1.
         23    2    1    2    0    0 -0.17763568394E-14  0.00000000000E+00  0.00000000000E+00  0.91188000000E+02  0.91188000000E+02 0.  0.
    9900012    2    3    3    0    0  0.11215363198E+02 -0.88621367653E+01  0.33933149512E+02  0.54367075575E+02  0.39999980389E+02 0.  0.
         12    1    3    3    0    0 -0.11215363198E+02  0.88621367653E+01 -0.33933149512E+02  0.36820924425E+02  0.00000000000E+00 0. -1.
         11    1    4    4    0    0 -0.56303859668E+01 -0.33060499035E+01  0.94955903878E+01  0.11523777557E+02  0.51100000000E-03 0. -1.
        -11    1    4    4    0    0  0.18765605428E+02  0.86353947179E+01  0.12094286719E+02  0.23937204526E+02  0.51100000000E-03 0.  1.
         12    1    4    4    0    0 -0.19198562632E+01 -0.14191481580E+02  0.12343272404E+02  0.18906093492E+02  0.00000000000E+00 0. -1.
</event>
<event>
 8    1  0.2402194E-006  0.9118800E+02  0.7816164E-02  0.1184000E+00
        -11   -1    0    0    0    0  0.00000000000E+00  0.00000000000E+00  0.45593999997E+02  0.45594000000E+02  0.51100000000E-03 0.  1.
         11   -1    0    0    0    0 -0.00000000000E+00 -0.00000000000E+00 -0.45593999997E+02  0.45594000000E+02  0.51100000000E-03 0. -1.
         23    2    1    2    0    0  0.35527136788E-14  0.17763568394E-14 -0.35527136788E-14  0.91188000000E+02  0.91188000000E+02 0.  0.
    9900012    2    3    3    0    0 -0.29216296445E+02  0.13568387348E+02  0.17834981418E+02  0.54367086440E+02  0.40000005158E+02 0.  0.
         12    1    3    3    0    0  0.29216296445E+02 -0.13568387348E+02 -0.17834981418E+02  0.36820913560E+02  0.00000000000E+00 0. -1.
         11    1    4    4    0    0  0.22771362410E+01  0.13768816457E+01 -0.81322740713E+01  0.85565784259E+01  0.51100000000E-03 0. -1.
        -11    1    4    4    0    0 -0.21350383933E+02  0.15677587240E+02  0.14867200315E+02  0.30375307097E+02  0.51100000000E-03 0.  1.
         12    1    4    4    0    0 -0.10143048753E+02 -0.34860815373E+01  0.11100055174E+02  0.15435200917E+02  0.00000000000E+00 0. -1.
</event>
<event>
 8    1  0.2402194E-006  0.9118800E+02  0.7816164E-02  0.1184000E+00
        -11   -1    0    0    0    0  0.00000000000E+00  0.00000000000E+00  0.45593999997E+02  0.45594000000E+02  0.51100000000E-03 0. -1.
         11   -1    0    0    0    0 -0.00000000000E+00 -0.00000000000E+00 -0.45593999997E+02  0.45594000000E+02  0.51100000000E-03 0.  1.
         23    2    1    2    0    0  0.00000000000E+00  0.88817841970E-15  0.00000000000E+00  0.91188000000E+02  0.91188000000E+02 0.  0.
    9900012    2    3    3    0    0 -0.29017340812E+02  0.45857088999E+01 -0.22197878090E+02  0.54367074080E+02  0.39999976979E+02 0.  0.
         12    1    3    3    0    0  0.29017340812E+02 -0.45857088999E+01  0.22197878090E+02  0.36820925920E+02  0.00000000000E+00 0. -1.
         11    1    4    4    0    0 -0.14075688295E+01  0.62640979535E-01 -0.92903851925E+01  0.93966180719E+01  0.51100000000E-03 0. -1.
        -11    1    4    4    0    0 -0.20507221946E+02 -0.11612792445E+02 -0.13814168014E+02  0.27317290102E+02  0.51100000000E-03 0.  1.
         12    1    4    4    0    0 -0.71025500360E+01  0.16135860365E+02  0.90667511635E+00  0.17653165906E+02  0.00000000000E+00 0. -1.
</event>
<event>
 8    1  0.2402194E-006  0.9118800E+02  0.7816164E-02  0.1184000E+00
        -11   -1    0    0    0    0  0.00000000000E+00  0.00000000000E+00  0.45593999997E+02  0.45594000000E+02  0.51100000000E-03 0. -1.
         11   -1    0    0    0    0 -0.00000000000E+00 -0.00000000000E+00 -0.45593999997E+02  0.45594000000E+02  0.51100000000E-03 0.  1.
         23    2    1    2    0    0  0.10658141036E-13 -0.22204460493E-15  0.00000000000E+00  0.91188000000E+02  0.91188000000E+02 0.  0.
    9900012    2    3    3    0    0 -0.30820877138E+02  0.75448123499E+00 -0.20131669591E+02  0.54367084341E+02  0.40000000371E+02 0.  0.
         12    1    3    3    0    0  0.30820877138E+02 -0.75448123499E+00  0.20131669591E+02  0.36820915659E+02  0.00000000000E+00 0. -1.
         11    1    4    4    0    0 -0.11748921036E+02 -0.10268093075E+02 -0.32542895067E+01  0.15939299902E+02  0.51100000000E-03 0. -1.
        -11    1    4    4    0    0  0.54115349038E+01  0.74250042784E+01 -0.78552652938E+01  0.12088035061E+02  0.51100000000E-03 0.  1.
        -12    1    4    4    0    0 -0.24483491006E+02  0.35975700319E+01 -0.90221147905E+01  0.26339749377E+02  0.00000000000E+00 0.  1.
</event>
<event>
 8    1  0.2402194E-006  0.9118800E+02  0.7816164E-02  0.1184000E+00
        -11   -1    0    0    0    0  0.00000000000E+00  0.00000000000E+00  0.45593999997E+02  0.45594000000E+02  0.51100000000E-03 0. -1.
         11   -1    0    0    0    0 -0.00000000000E+00 -0.00000000000E+00 -0.45593999997E+02  0.45594000000E+02  0.51100000000E-03 0.  1.
         23    2    1    2    0    0 -0.17763568394E-14  0.00000000000E+00  0.35527136788E-14  0.91188000000E+02  0.91188000000E+02 0.  0.
    9900012    2    3    3    0    0 -0.15233464522E+02  0.28363539475E+02  0.17866968005E+02  0.54367117900E+02  0.40000076877E+02 0.  0.
         12    1    3    3    0    0  0.15233464522E+02 -0.28363539475E+02 -0.17866968005E+02  0.36820882100E+02  0.00000000000E+00 0. -1.
         11    1    4    4    0    0 -0.37953471978E+01  0.11544301978E+02  0.21724914620E+02  0.24892719498E+02  0.51100000000E-03 0. -1.
        -11    1    4    4    0    0 -0.45404734284E+00  0.69087013063E+01  0.79525016454E+01  0.10544126109E+02  0.51100000000E-03 0.  1.
        -12    1    4    4    0    0 -0.10984069982E+02  0.99105361916E+01 -0.11810448261E+02  0.18930272293E+02  0.00000000000E+00 0.  1.
</event>
<event>
 8    1  0.2402194E-006  0.9118800E+02  0.7816164E-02  0.1184000E+00
        -11   -1    0    0    0    0  0.00000000000E+00  0.00000000000E+00  0.45593999997E+02  0.45594000000E+02  0.51100000000E-03 0.  1.
         11   -1    0    0    0    0 -0.00000000000E+00 -0.00000000000E+00 -0.45593999997E+02  0.45594000000E+02  0.51100000000E-03 0. -1.
         23    2    1    2    0    0 -0.71054273576E-14  0.44408920985E-15 -0.11102230246E-15  0.91188000000E+02  0.91188000000E+02 0.  0.
    9900012    2    3    3    0    0 -0.36812294754E+02  0.73777786129E+00 -0.29948493692E+00  0.54367094899E+02  0.40000024441E+02 0.  0.
        -12    1    3    3    0    0  0.36812294754E+02 -0.73777786129E+00  0.29948493692E+00  0.36820905101E+02  0.00000000000E+00 0.  1.
         11    1    4    4    0    0 -0.28135701136E+02 -0.70429385252E+01 -0.11837481684E+02  0.31326452629E+02  0.51100000000E-03 0. -1.
        -11    1    4    4    0    0 -0.50325678647E+01 -0.47004394232E+01  0.31905989998E+01  0.75895185830E+01  0.51100000000E-03 0.  1.
        -12    1    4    4    0    0 -0.36440257537E+01  0.12481155810E+02  0.83473977470E+01  0.15451123687E+02  0.00000000000E+00 0.  1.
</event>
<event>
 8    1  0.2402194E-006  0.9118800E+02  0.7816164E-02  0.1184000E+00
        -11   -1    0    0    0    0  0.00000000000E+00  0.00000000000E+00  0.45593999997E+02  0.45594000000E+02  0.51100000000E-03 0.  1.
         11   -1    0    0    0    0 -0.00000000000E+00 -0.00000000000E+00 -0.45593999997E+02  0.45594000000E+02  0.51100000000E-03 0. -1.
         23    2    1    2    0    0  0.00000000000E+00  0.00000000000E+00 -0.88817841970E-15  0.91188000000E+02  0.91188000000E+02 0.  0.
    9900012    2    3    3    0    0 -0.30485743852E+02 -0.20222604405E+02 -0.41765866979E+01  0.54367106698E+02  0.40000051340E+02 0.  0.
        -12    1    3    3    0    0  0.30485743852E+02  0.20222604405E+02  0.41765866979E+01  0.36820893302E+02  0.00000000000E+00 0.  1.
         11    1    4    4    0    0 -0.29145153936E+02  0.26528695113E+00  0.28079742464E+00  0.29147713848E+02  0.51100000000E-03 0. -1.
        -11    1    4    4    0    0 -0.29031932076E+00 -0.47470857170E+01  0.49395404754E+01  0.68569795451E+01  0.51100000000E-03 0.  1.
         12    1    4    4    0    0 -0.10502705947E+01 -0.15740805639E+02 -0.93969245979E+01  0.18362413305E+02  0.00000000000E+00 0. -1.
</event>
<event>
 8    1  0.2402194E-006  0.9118800E+02  0.7816164E-02  0.1184000E+00
        -11   -1    0    0    0    0  0.00000000000E+00  0.00000000000E+00  0.45593999997E+02  0.45594000000E+02  0.51100000000E-03 0.  1.
         11   -1    0    0    0    0 -0.00000000000E+00 -0.00000000000E+00 -0.45593999997E+02  0.45594000000E+02  0.51100000000E-03 0. -1.
         23    2    1    2    0    0  0.00000000000E+00  0.00000000000E+00  0.17763568394E-14  0.91188000000E+02  0.91188000000E+02 0.  0.
    9900012    2    3    3    0    0 -0.23564309484E+02 -0.24573003139E+02 -0.14023968524E+02  0.54367070382E+02  0.39999968551E+02 0.  0.
        -12    1    3    3    0    0  0.23564309484E+02  0.24573003139E+02  0.14023968524E+02  0.36820929618E+02  0.00000000000E+00 0.  1.
         11    1    4    4    0    0 -0.20128005674E+02 -0.14307337697E+02 -0.11551207063E+02  0.27262921877E+02  0.51100000000E-03 0. -1.
        -11    1    4    4    0    0 -0.12896874922E+02 -0.16409127818E+00  0.65732499760E+00  0.12914657762E+02  0.51100000000E-03 0.  1.
         12    1    4    4    0    0  0.94605711111E+01 -0.10101574163E+02 -0.31300864580E+01  0.14189490743E+02  0.00000000000E+00 0. -1.
</event>
<event>
 8    1  0.2402194E-006  0.9118800E+02  0.7816164E-02  0.1184000E+00
        -11   -1    0    0    0    0  0.00000000000E+00  0.00000000000E+00  0.45593999997E+02  0.45594000000E+02  0.51100000000E-03 0.  1.
         11   -1    0    0    0    0 -0.00000000000E+00 -0.00000000000E+00 -0.45593999997E+02  0.45594000000E+02  0.51100000000E-03 0. -1.
         23    2    1    2    0    0  0.22204460493E-15  0.17763568394E-14  0.00000000000E+00  0.91188000000E+02  0.91188000000E+02 0.  0.
    9900012    2    3    3    0    0  0.13105663214E+01 -0.84951096044E+01  0.35803575780E+02  0.54367075108E+02  0.39999979323E+02 0.  0.
         12    1    3    3    0    0 -0.13105663214E+01  0.84951096044E+01 -0.35803575780E+02  0.36820924892E+02  0.00000000000E+00 0. -1.
         11    1    4    4    0    0 -0.21481214813E+01 -0.36620460205E+01 -0.50862128077E+01  0.66252975738E+01  0.51100000000E-03 0. -1.
        -11    1    4    4    0    0  0.32320522609E+01  0.88658413722E+01  0.25216699348E+02  0.26924547003E+02  0.51100000000E-03 0.  1.
         12    1    4    4    0    0  0.22663554173E+00 -0.13698904956E+02  0.15673089240E+02  0.20817230531E+02  0.00000000000E+00 0. -1.
</event>
<event>
 8    1  0.2402194E-006  0.9118800E+02  0.7816164E-02  0.1184000E+00
        -11   -1    0    0    0    0  0.00000000000E+00  0.00000000000E+00  0.45593999997E+02  0.45594000000E+02  0.51100000000E-03 0.  1.
         11   -1    0    0    0    0 -0.00000000000E+00 -0.00000000000E+00 -0.45593999997E+02  0.45594000000E+02  0.51100000000E-03 0. -1.
         23    2    1    2    0    0  0.35527136788E-14  0.00000000000E+00 -0.14849232954E-14  0.91188000000E+02  0.91188000000E+02 0.  0.
    9900012    2    3    3    0    0 -0.26786525053E+02 -0.25263612018E+02  0.11946160752E+00  0.54367050968E+02  0.39999924291E+02 0.  0.
        -12    1    3    3    0    0  0.26786525053E+02  0.25263612018E+02 -0.11946160752E+00  0.36820949032E+02  0.00000000000E+00 0.  1.
         11    1    4    4    0    0 -0.15607631078E+02 -0.86813139715E+01  0.11795962120E+02  0.21403459597E+02  0.51100000000E-03 0. -1.
        -11    1    4    4    0    0 -0.18039082442E+01  0.31054129208E+00  0.63081789647E+01  0.65683820656E+01  0.51100000000E-03 0.  1.
         12    1    4    4    0    0 -0.93749857306E+01 -0.16892839338E+02 -0.17984679477E+02  0.26395209305E+02  0.00000000000E+00 0. -1.
</event>
<event>
 8    1  0.2402194E-006  0.9118800E+02  0.7816164E-02  0.1184000E+00
        -11   -1    0    0    0    0  0.00000000000E+00  0.00000000000E+00  0.45593999997E+02  0.45594000000E+02  0.51100000000E-03 0.  1.
         11   -1    0    0    0    0 -0.00000000000E+00 -0.00000000000E+00 -0.45593999997E+02  0.45594000000E+02  0.51100000000E-03 0. -1.
         23    2    1    2    0    0  0.00000000000E+00  0.44408920985E-15 -0.71054273576E-14  0.91188000000E+02  0.91188000000E+02 0.  0.
    9900012    2    3    3    0    0  0.21455003720E+02  0.28471906973E+01  0.29788549718E+02  0.54367063377E+02  0.39999952581E+02 0.  0.
         12    1    3    3    0    0 -0.21455003720E+02 -0.28471906973E+01 -0.29788549718E+02  0.36820936623E+02  0.00000000000E+00 0. -1.
         11    1    4    4    0    0  0.21329354248E+02  0.34825659714E+01  0.48962253657E+01  0.22159481976E+02  0.51100000000E-03 0. -1.
        -11    1    4    4    0    0 -0.43447330632E+01 -0.71117381054E+01  0.22482577642E+02  0.23977485731E+02  0.51100000000E-03 0.  1.
         12    1    4    4    0    0  0.44703825354E+01  0.64763628313E+01  0.24097467099E+01  0.82300956703E+01  0.00000000000E+00 0. -1.
</event>
<event>
 8    1  0.2402194E-006  0.9118800E+02  0.7816164E-02  0.1184000E+00
        -11   -1    0    0    0    0  0.00000000000E+00  0.00000000000E+00  0.45593999997E+02  0.45594000000E+02  0.51100000000E-03 0. -1.
         11   -1    0    0    0    0 -0.00000000000E+00 -0.00000000000E+00 -0.45593999997E+02  0.45594000000E+02  0.51100000000E-03 0.  1.
         23    2    1    2    0    0  0.00000000000E+00  0.00000000000E+00  0.35527136788E-14  0.91188000000E+02  0.91188000000E+02 0.  0.
    9900012    2    3    3    0    0 -0.21020782149E+02  0.25733014715E+02  0.15865631529E+02  0.54367087569E+02  0.40000007730E+02 0.  0.
        -12    1    3    3    0    0  0.21020782149E+02 -0.25733014715E+02 -0.15865631529E+02  0.36820912431E+02  0.00000000000E+00 0.  1.
         11    1    4    4    0    0 -0.15592395834E+02  0.76964621791E+01 -0.53396595820E+01  0.18189840644E+02  0.51100000000E-03 0. -1.
        -11    1    4    4    0    0  0.74901369119E+01  0.11008995551E+01  0.29521791122E+01  0.81258533436E+01  0.51100000000E-03 0.  1.
         12    1    4    4    0    0 -0.12918523226E+02  0.16935652980E+02  0.18253111999E+02  0.28051393581E+02  0.00000000000E+00 0. -1.
</event>
<event>
 8    1  0.2402194E-006  0.9118800E+02  0.7816164E-02  0.1184000E+00
        -11   -1    0    0    0    0  0.00000000000E+00  0.00000000000E+00  0.45593999997E+02  0.45594000000E+02  0.51100000000E-03 0.  1.
         11   -1    0    0    0    0 -0.00000000000E+00 -0.00000000000E+00 -0.45593999997E+02  0.45594000000E+02  0.51100000000E-03 0. -1.
         23    2    1    2    0    0  0.88817841970E-15  0.00000000000E+00  0.00000000000E+00  0.91188000000E+02  0.91188000000E+02 0.  0.
    9900012    2    3    3    0    0 -0.53416828762E+01 -0.34296616647E+02  0.12287741081E+02  0.54367081078E+02  0.39999992933E+02 0.  0.
         12    1    3    3    0    0  0.53416828762E+01  0.34296616647E+02 -0.12287741081E+02  0.36820918922E+02  0.00000000000E+00 0. -1.
         11    1    4    4    0    0  0.17558108773E+01  0.58821673868E+01  0.32458776161E+01  0.69439532518E+01  0.51100000000E-03 0. -1.
        -11    1    4    4    0    0  0.13064197977E+01 -0.28687613425E+02 -0.28703466395E+01  0.28860436358E+02  0.51100000000E-03 0.  1.
        -12    1    4    4    0    0 -0.84039135513E+01 -0.11491170610E+02  0.11912210104E+02  0.18562691468E+02  0.00000000000E+00 0.  1.
</event>
<event>
 8    1  0.2402194E-006  0.9118800E+02  0.7816164E-02  0.1184000E+00
        -11   -1    0    0    0    0  0.00000000000E+00  0.00000000000E+00  0.45593999997E+02  0.45594000000E+02  0.51100000000E-03 0. -1.
         11   -1    0    0    0    0 -0.00000000000E+00 -0.00000000000E+00 -0.45593999997E+02  0.45594000000E+02  0.51100000000E-03 0.  1.
         23    2    1    2    0    0  0.00000000000E+00  0.00000000000E+00 -0.17763568394E-14  0.91188000000E+02  0.91188000000E+02 0.  0.
    9900012    2    3    3    0    0  0.33653613349E+02 -0.96161859350E+01 -0.11434263462E+02  0.54367094195E+02  0.40000022836E+02 0.  0.
         12    1    3    3    0    0 -0.33653613349E+02  0.96161859350E+01  0.11434263462E+02  0.36820905805E+02  0.00000000000E+00 0. -1.
         11    1    4    4    0    0 -0.77564906930E+01 -0.18154797022E+01 -0.23973216307E+01  0.83190303330E+01  0.51100000000E-03 0. -1.
        -11    1    4    4    0    0  0.78062917277E+01  0.45706305512E+01  0.26877183509E+00  0.90499222501E+01  0.51100000000E-03 0.  1.
         12    1    4    4    0    0  0.33603812314E+02 -0.12371336784E+02 -0.93057136661E+01  0.36998141612E+02  0.00000000000E+00 0. -1.
</event>
<event>
 8    1  0.2402194E-006  0.9118800E+02  0.7816164E-02  0.1184000E+00
        -11   -1    0    0    0    0  0.00000000000E+00  0.00000000000E+00  0.45593999997E+02  0.45594000000E+02  0.51100000000E-03 0.  1.
         11   -1    0    0    0    0 -0.00000000000E+00 -0.00000000000E+00 -0.45593999997E+02  0.45594000000E+02  0.51100000000E-03 0. -1.
         23    2    1    2    0    0  0.00000000000E+00  0.35527136788E-14  0.35527136788E-14  0.91188000000E+02  0.91188000000E+02 0.  0.
    9900012    2    3    3    0    0  0.19671634333E+02  0.16143510229E+02  0.26611919621E+02  0.54367076794E+02  0.39999983168E+02 0.  0.
         12    1    3    3    0    0 -0.19671634333E+02 -0.16143510229E+02 -0.26611919621E+02  0.36820923206E+02  0.00000000000E+00 0. -1.
         11    1    4    4    0    0  0.13534132592E+01 -0.10527682750E+02 -0.41511870408E+00  0.10622436412E+02  0.51100000000E-03 0. -1.
        -11    1    4    4    0    0  0.12638757929E+02  0.21393443275E+02  0.13826662321E+02  0.28435790974E+02  0.51100000000E-03 0.  1.
         12    1    4    4    0    0  0.56794631439E+01  0.52777497037E+01  0.13200376004E+02  0.15308849408E+02  0.00000000000E+00 0. -1.
</event>
<event>
 8    1  0.2402194E-006  0.9118800E+02  0.7816164E-02  0.1184000E+00
        -11   -1    0    0    0    0  0.00000000000E+00  0.00000000000E+00  0.45593999997E+02  0.45594000000E+02  0.51100000000E-03 0. -1.
         11   -1    0    0    0    0 -0.00000000000E+00 -0.00000000000E+00 -0.45593999997E+02  0.45594000000E+02  0.51100000000E-03 0.  1.
         23    2    1    2    0    0  0.00000000000E+00 -0.88817841970E-15 -0.35527136788E-14  0.91188000000E+02  0.91188000000E+02 0.  0.
    9900012    2    3    3    0    0 -0.20544663879E+02  0.42087058590E+01 -0.30265192894E+02  0.54367104848E+02  0.40000047122E+02 0.  0.
         12    1    3    3    0    0  0.20544663879E+02 -0.42087058590E+01  0.30265192894E+02  0.36820895152E+02  0.00000000000E+00 0. -1.
         11    1    4    4    0    0  0.25028391349E+00  0.97351641660E+00 -0.17798393410E+02  0.17826754738E+02  0.51100000000E-03 0. -1.
        -11    1    4    4    0    0 -0.24673336362E+02 -0.48155641823E+01 -0.71243616133E+01  0.26128905723E+02  0.51100000000E-03 0.  1.
        -12    1    4    4    0    0  0.38783885696E+01  0.80507536246E+01 -0.53424378702E+01  0.10411444387E+02  0.00000000000E+00 0.  1.
</event>
<event>
 8    1  0.2402194E-006  0.9118800E+02  0.7816164E-02  0.1184000E+00
        -11   -1    0    0    0    0  0.00000000000E+00  0.00000000000E+00  0.45593999997E+02  0.45594000000E+02  0.51100000000E-03 0.  1.
         11   -1    0    0    0    0 -0.00000000000E+00 -0.00000000000E+00 -0.45593999997E+02  0.45594000000E+02  0.51100000000E-03 0. -1.
         23    2    1    2    0    0  0.00000000000E+00  0.00000000000E+00  0.17763568394E-14  0.91188000000E+02  0.91188000000E+02 0.  0.
    9900012    2    3    3    0    0 -0.14169215596E+02  0.31305487419E+02 -0.13227999238E+02  0.54367079629E+02  0.39999989630E+02 0.  0.
        -12    1    3    3    0    0  0.14169215596E+02 -0.31305487419E+02  0.13227999238E+02  0.36820920371E+02  0.00000000000E+00 0.  1.
         11    1    4    4    0    0 -0.38312910481E+00  0.19701469207E+02  0.30266610684E+01  0.19936282360E+02  0.51100000000E-03 0. -1.
        -11    1    4    4    0    0 -0.12038791376E+02  0.64861213961E+00  0.28043757200E+01  0.12378114515E+02  0.51100000000E-03 0.  1.
         12    1    4    4    0    0 -0.17472951154E+01  0.10955406072E+02 -0.19059036026E+02  0.22052682754E+02  0.00000000000E+00 0. -1.
</event>
<event>
 8    1  0.2402194E-006  0.9118800E+02  0.7816164E-02  0.1184000E+00
        -11   -1    0    0    0    0  0.00000000000E+00  0.00000000000E+00  0.45593999997E+02  0.45594000000E+02  0.51100000000E-03 0. -1.
         11   -1    0    0    0    0 -0.00000000000E+00 -0.00000000000E+00 -0.45593999997E+02  0.45594000000E+02  0.51100000000E-03 0.  1.
         23    2    1    2    0    0  0.35527136788E-14  0.00000000000E+00  0.35527136788E-14  0.91188000000E+02  0.91188000000E+02 0.  0.
    9900012    2    3    3    0    0  0.17404771705E+02 -0.70994691267E+01  0.31661573059E+02  0.54367031130E+02  0.39999879067E+02 0.  0.
        -12    1    3    3    0    0 -0.17404771705E+02  0.70994691267E+01 -0.31661573059E+02  0.36820968870E+02  0.00000000000E+00 0.  1.
         11    1    4    4    0    0  0.21437467457E+02  0.37341158558E+01  0.16068916676E+02  0.27050299732E+02  0.51100000000E-03 0. -1.
        -11    1    4    4    0    0 -0.55521938449E+00 -0.88252723876E+01 -0.21705855091E+01  0.91052261363E+01  0.51100000000E-03 0.  1.
        -12    1    4    4    0    0 -0.34774763678E+01 -0.20083125949E+01  0.17763241892E+02  0.18211505262E+02  0.00000000000E+00 0.  1.
</event>
<event>
 8    1  0.2402194E-006  0.9118800E+02  0.7816164E-02  0.1184000E+00
        -11   -1    0    0    0    0  0.00000000000E+00  0.00000000000E+00  0.45593999997E+02  0.45594000000E+02  0.51100000000E-03 0.  1.
         11   -1    0    0    0    0 -0.00000000000E+00 -0.00000000000E+00 -0.45593999997E+02  0.45594000000E+02  0.51100000000E-03 0. -1.
         23    2    1    2    0    0  0.00000000000E+00  0.35527136788E-14  0.49960036108E-15  0.91188000000E+02  0.91188000000E+02 0.  0.
    9900012    2    3    3    0    0  0.22041970036E+02  0.29491898796E+02 -0.39880891683E+00  0.54367087651E+02  0.40000007917E+02 0.  0.
        -12    1    3    3    0    0 -0.22041970036E+02 -0.29491898796E+02  0.39880891683E+00  0.36820912349E+02  0.00000000000E+00 0.  1.
         11    1    4    4    0    0  0.23735699666E-01  0.25388879950E+02 -0.43124770186E+01  0.25752538647E+02  0.51100000000E-03 0. -1.
        -11    1    4    4    0    0  0.15954929132E+01  0.45719299873E+01  0.64111077776E+01  0.80343291346E+01  0.51100000000E-03 0.  1.
         12    1    4    4    0    0  0.20422741423E+02 -0.46891114085E+00 -0.24974396759E+01  0.20580219869E+02  0.00000000000E+00 0. -1.
</event>
<event>
 8    1  0.2402194E-006  0.9118800E+02  0.7816164E-02  0.1184000E+00
        -11   -1    0    0    0    0  0.00000000000E+00  0.00000000000E+00  0.45593999997E+02  0.45594000000E+02  0.51100000000E-03 0.  1.
         11   -1    0    0    0    0 -0.00000000000E+00 -0.00000000000E+00 -0.45593999997E+02  0.45594000000E+02  0.51100000000E-03 0. -1.
         23    2    1    2    0    0  0.00000000000E+00  0.00000000000E+00 -0.44408920985E-15  0.91188000000E+02  0.91188000000E+02 0.  0.
    9900012    2    3    3    0    0  0.35785435430E+02 -0.81121732066E+01 -0.30618465280E+01  0.54367086823E+02  0.40000006029E+02 0.  0.
        -12    1    3    3    0    0 -0.35785435430E+02  0.81121732066E+01  0.30618465280E+01  0.36820913177E+02  0.00000000000E+00 0.  1.
         11    1    4    4    0    0  0.34359483714E+01 -0.13600675177E+02 -0.52299417815E+01  0.14971185584E+02  0.51100000000E-03 0. -1.
        -11    1    4    4    0    0  0.31091544393E+02 -0.28703401709E+00 -0.33964304021E+01  0.31277823790E+02  0.51100000000E-03 0.  1.
        -12    1    4    4    0    0  0.12579426653E+01  0.57755359877E+01  0.55645256556E+01  0.81180774489E+01  0.00000000000E+00 0.  1.
</event>
<event>
 8    1  0.2402194E-006  0.9118800E+02  0.7816164E-02  0.1184000E+00
        -11   -1    0    0    0    0  0.00000000000E+00  0.00000000000E+00  0.45593999997E+02  0.45594000000E+02  0.51100000000E-03 0. -1.
         11   -1    0    0    0    0 -0.00000000000E+00 -0.00000000000E+00 -0.45593999997E+02  0.45594000000E+02  0.51100000000E-03 0.  1.
         23    2    1    2    0    0 -0.35527136788E-14  0.00000000000E+00 -0.17763568394E-14  0.91188000000E+02  0.91188000000E+02 0.  0.
    9900012    2    3    3    0    0 -0.28688641915E+02  0.19538098273E+02 -0.12288197495E+02  0.54367146442E+02  0.40000141944E+02 0.  0.
         12    1    3    3    0    0  0.28688641915E+02 -0.19538098273E+02  0.12288197495E+02  0.36820853558E+02  0.00000000000E+00 0. -1.
         11    1    4    4    0    0 -0.23630079086E+02  0.24032057350E+02  0.40212106785E+01  0.33942459452E+02  0.51100000000E-03 0. -1.
        -11    1    4    4    0    0 -0.21732179278E+01 -0.76349096504E+01 -0.11762145224E+02  0.14190235448E+02  0.51100000000E-03 0.  1.
         12    1    4    4    0    0 -0.28853449019E+01  0.31409505732E+01 -0.45472629490E+01  0.62344515423E+01  0.00000000000E+00 0. -1.
</event>
<event>
 8    1  0.2402194E-006  0.9118800E+02  0.7816164E-02  0.1184000E+00
        -11   -1    0    0    0    0  0.00000000000E+00  0.00000000000E+00  0.45593999997E+02  0.45594000000E+02  0.51100000000E-03 0.  1.
         11   -1    0    0    0    0 -0.00000000000E+00 -0.00000000000E+00 -0.45593999997E+02  0.45594000000E+02  0.51100000000E-03 0. -1.
         23    2    1    2    0    0 -0.71054273576E-14 -0.35527136788E-14  0.00000000000E+00  0.91188000000E+02  0.91188000000E+02 0.  0.
    9900012    2    3    3    0    0 -0.29967365635E+02 -0.80711552423E+01  0.19813973658E+02  0.54367080645E+02  0.39999991945E+02 0.  0.
         12    1    3    3    0    0  0.29967365635E+02  0.80711552423E+01 -0.19813973658E+02  0.36820919355E+02  0.00000000000E+00 0. -1.
         11    1    4    4    0    0  0.20775346406E+01  0.10824607515E+02  0.45396164269E+01  0.11920419271E+02  0.51100000000E-03 0. -1.
        -11    1    4    4    0    0 -0.30513655732E+02 -0.19483240077E+02  0.10952014790E+02  0.37823623019E+02  0.51100000000E-03 0.  1.
        -12    1    4    4    0    0 -0.15312445434E+01  0.58747732041E+00  0.43223424407E+01  0.46230383546E+01  0.00000000000E+00 0.  1.
</event>
<event>
 8    1  0.2402194E-006  0.9118800E+02  0.7816164E-02  0.1184000E+00
        -11   -1    0    0    0    0  0.00000000000E+00  0.00000000000E+00  0.45593999997E+02  0.45594000000E+02  0.51100000000E-03 0.  1.
         11   -1    0    0    0    0 -0.00000000000E+00 -0.00000000000E+00 -0.45593999997E+02  0.45594000000E+02  0.51100000000E-03 0. -1.
         23    2    1    2    0    0  0.00000000000E+00  0.35527136788E-14 -0.44408920985E-15  0.91188000000E+02  0.91188000000E+02 0.  0.
    9900012    2    3    3    0    0  0.31346350978E+02  0.19255780891E+02 -0.15497047943E+01  0.54367076569E+02  0.39999982654E+02 0.  0.
        -12    1    3    3    0    0 -0.31346350978E+02 -0.19255780891E+02  0.15497047943E+01  0.36820923431E+02  0.00000000000E+00 0.  1.
         11    1    4    4    0    0  0.20087384138E+01  0.11578318243E+02 -0.75879235346E+01  0.13988175978E+02  0.51100000000E-03 0. -1.
        -11    1    4    4    0    0  0.54807516174E+01 -0.70249712792E+00 -0.92905691458E+01  0.10809570566E+02  0.51100000000E-03 0.  1.
        -12    1    4    4    0    0  0.23856860947E+02  0.83799597758E+01  0.15328787886E+02  0.29569330025E+02  0.00000000000E+00 0.  1.
</event>
<event>
 8    1  0.2402194E-006  0.9118800E+02  0.7816164E-02  0.1184000E+00
        -11   -1    0    0    0    0  0.00000000000E+00  0.00000000000E+00  0.45593999997E+02  0.45594000000E+02  0.51100000000E-03 0.  1.
         11   -1    0    0    0    0 -0.00000000000E+00 -0.00000000000E+00 -0.45593999997E+02  0.45594000000E+02  0.51100000000E-03 0. -1.
         23    2    1    2    0    0 -0.71054273576E-14 -0.10658141036E-13 -0.88817841970E-15  0.91188000000E+02  0.91188000000E+02 0.  0.
    9900012    2    3    3    0    0  0.19742078977E+02  0.30265997706E+02  0.70713535143E+01  0.54367023099E+02  0.39999860758E+02 0.  0.
         12    1    3    3    0    0 -0.19742078977E+02 -0.30265997706E+02 -0.70713535143E+01  0.36820976901E+02  0.00000000000E+00 0. -1.
         11    1    4    4    0    0 -0.20347424469E+01  0.11706285787E+02  0.36701784866E+01  0.12435735368E+02  0.51100000000E-03 0.  1.
        -11    1    4    4    0    0  0.24442055627E+02  0.21369493773E+02  0.10264765952E+02  0.34050473825E+02  0.51100000000E-03 0. -1.
         12    1    4    4    0    0 -0.26652342035E+01 -0.28097818551E+01 -0.68635909242E+01  0.78808139052E+01  0.00000000000E+00 0. -1.
</event>
<event>
 8    1  0.2402194E-006  0.9118800E+02  0.7816164E-02  0.1184000E+00
        -11   -1    0    0    0    0  0.00000000000E+00  0.00000000000E+00  0.45593999997E+02  0.45594000000E+02  0.51100000000E-03 0. -1.
         11   -1    0    0    0    0 -0.00000000000E+00 -0.00000000000E+00 -0.45593999997E+02  0.45594000000E+02  0.51100000000E-03 0.  1.
         23    2    1    2    0    0  0.00000000000E+00  0.00000000000E+00 -0.17763568394E-14  0.91188000000E+02  0.91188000000E+02 0.  0.
    9900012    2    3    3    0    0 -0.33939919663E+02  0.81182668818E+01 -0.11744938007E+02  0.54367245354E+02  0.40000367433E+02 0.  0.
         12    1    3    3    0    0  0.33939919663E+02 -0.81182668818E+01  0.11744938007E+02  0.36820754646E+02  0.00000000000E+00 0. -1.
         11    1    4    4    0    0 -0.14550237584E+02  0.98487319581E+01 -0.11612276703E+02  0.21060672008E+02  0.51100000000E-03 0.  1.
        -11    1    4    4    0    0 -0.41195643098E+01  0.19634352729E+01  0.12397751824E+02  0.13210985532E+02  0.51100000000E-03 0. -1.
        -12    1    4    4    0    0 -0.15270117769E+02 -0.36939003491E+01 -0.12530413128E+02  0.20095587815E+02  0.00000000000E+00 0.  1.
</event>
<event>
 8    1  0.2402194E-006  0.9118800E+02  0.7816164E-02  0.1184000E+00
        -11   -1    0    0    0    0  0.00000000000E+00  0.00000000000E+00  0.45593999997E+02  0.45594000000E+02  0.51100000000E-03 0. -1.
         11   -1    0    0    0    0 -0.00000000000E+00 -0.00000000000E+00 -0.45593999997E+02  0.45594000000E+02  0.51100000000E-03 0.  1.
         23    2    1    2    0    0 -0.17763568394E-14  0.00000000000E+00  0.00000000000E+00  0.91188000000E+02  0.91188000000E+02 0.  0.
    9900012    2    3    3    0    0  0.44796185850E+01  0.30206216400E+02 -0.20574169648E+02  0.54367096310E+02  0.40000027657E+02 0.  0.
         12    1    3    3    0    0 -0.44796185850E+01 -0.30206216400E+02  0.20574169648E+02  0.36820903690E+02  0.00000000000E+00 0. -1.
         11    1    4    4    0    0 -0.30296305525E+01 -0.61934781724E+01  0.10930559159E+00  0.68956349330E+01  0.51100000000E-03 0. -1.
        -11    1    4    4    0    0  0.12765960999E+02  0.31849009387E+02 -0.21467660091E+02  0.40474554837E+02  0.51100000000E-03 0.  1.
        -12    1    4    4    0    0 -0.52567118613E+01  0.45506851851E+01  0.78418485223E+00  0.69969065400E+01  0.00000000000E+00 0.  1.
</event>
<event>
 8    1  0.2402194E-006  0.9118800E+02  0.7816164E-02  0.1184000E+00
        -11   -1    0    0    0    0  0.00000000000E+00  0.00000000000E+00  0.45593999997E+02  0.45594000000E+02  0.51100000000E-03 0. -1.
         11   -1    0    0    0    0 -0.00000000000E+00 -0.00000000000E+00 -0.45593999997E+02  0.45594000000E+02  0.51100000000E-03 0.  1.
         23    2    1    2    0    0  0.88817841970E-15  0.00000000000E+00  0.35527136788E-14  0.91188000000E+02  0.91188000000E+02 0.  0.
    9900012    2    3    3    0    0 -0.63155043254E+01  0.30489217775E+02 -0.19654507215E+02  0.54367113953E+02  0.40000067879E+02 0.  0.
         12    1    3    3    0    0  0.63155043254E+01 -0.30489217775E+02  0.19654507215E+02  0.36820886047E+02  0.00000000000E+00 0. -1.
         11    1    4    4    0    0 -0.54011759325E+01  0.12988161837E+02 -0.18273534673E+01  0.14184649108E+02  0.51100000000E-03 0. -1.
        -11    1    4    4    0    0 -0.11311259702E+02  0.15331726600E+01  0.31518932330E+01  0.11841859890E+02  0.51100000000E-03 0.  1.
         12    1    4    4    0    0  0.10396931309E+02  0.15967883278E+02 -0.20979046981E+02  0.28340604955E+02  0.00000000000E+00 0. -1.
</event>
<event>
 8    1  0.2402194E-006  0.9118800E+02  0.7816164E-02  0.1184000E+00
        -11   -1    0    0    0    0  0.00000000000E+00  0.00000000000E+00  0.45593999997E+02  0.45594000000E+02  0.51100000000E-03 0.  1.
         11   -1    0    0    0    0 -0.00000000000E+00 -0.00000000000E+00 -0.45593999997E+02  0.45594000000E+02  0.51100000000E-03 0. -1.
         23    2    1    2    0    0  0.17763568394E-14  0.00000000000E+00  0.00000000000E+00  0.91188000000E+02  0.91188000000E+02 0.  0.
    9900012    2    3    3    0    0 -0.27657167786E+01 -0.26711175362E+01 -0.36619613522E+02  0.54367079959E+02  0.39999990382E+02 0.  0.
        -12    1    3    3    0    0  0.27657167786E+01  0.26711175362E+01  0.36619613522E+02  0.36820920041E+02  0.00000000000E+00 0.  1.
         11    1    4    4    0    0  0.31339283646E+00  0.13775136586E+01 -0.13852851521E+02  0.13924699440E+02  0.51100000000E-03 0. -1.
        -11    1    4    4    0    0  0.12262441046E+02  0.73375511303E+01 -0.88952705925E+01  0.16832497027E+02  0.51100000000E-03 0.  1.
        -12    1    4    4    0    0 -0.15341550661E+02 -0.11386182325E+02 -0.13871491408E+02  0.23609883492E+02  0.00000000000E+00 0.  1.
</event>
<event>
 8    1  0.2402194E-006  0.9118800E+02  0.7816164E-02  0.1184000E+00
        -11   -1    0    0    0    0  0.00000000000E+00  0.00000000000E+00  0.45593999997E+02  0.45594000000E+02  0.51100000000E-03 0.  1.
         11   -1    0    0    0    0 -0.00000000000E+00 -0.00000000000E+00 -0.45593999997E+02  0.45594000000E+02  0.51100000000E-03 0. -1.
         23    2    1    2    0    0  0.00000000000E+00  0.17763568394E-14 -0.17763568394E-14  0.91188000000E+02  0.91188000000E+02 0.  0.
    9900012    2    3    3    0    0 -0.35187277330E+02 -0.96736475882E+01  0.49045260631E+01  0.54367104853E+02  0.40000047133E+02 0.  0.
        -12    1    3    3    0    0  0.35187277330E+02  0.96736475882E+01 -0.49045260631E+01  0.36820895147E+02  0.00000000000E+00 0.  1.
         11    1    4    4    0    0 -0.14147088491E+02 -0.10173938722E+02  0.13667976044E+02  0.22146392738E+02  0.51100000000E-03 0. -1.
        -11    1    4    4    0    0  0.28102994810E+00  0.62645999588E+01 -0.79413189066E+01  0.10118731972E+02  0.51100000000E-03 0.  1.
         12    1    4    4    0    0 -0.21321218786E+02 -0.57643088253E+01 -0.82213107383E+00  0.22101980144E+02  0.00000000000E+00 0. -1.
</event>
<event>
 8    1  0.2402194E-006  0.9118800E+02  0.7816164E-02  0.1184000E+00
        -11   -1    0    0    0    0  0.00000000000E+00  0.00000000000E+00  0.45593999997E+02  0.45594000000E+02  0.51100000000E-03 0.  1.
         11   -1    0    0    0    0 -0.00000000000E+00 -0.00000000000E+00 -0.45593999997E+02  0.45594000000E+02  0.51100000000E-03 0. -1.
         23    2    1    2    0    0  0.00000000000E+00  0.17763568394E-14  0.00000000000E+00  0.91188000000E+02  0.91188000000E+02 0.  0.
    9900012    2    3    3    0    0 -0.33654515656E+02  0.85592465627E+01  0.12243004124E+02  0.54367105446E+02  0.40000048485E+02 0.  0.
        -12    1    3    3    0    0  0.33654515656E+02 -0.85592465627E+01 -0.12243004124E+02  0.36820894554E+02  0.00000000000E+00 0.  1.
         11    1    4    4    0    0 -0.10851015441E+02 -0.27094401299E+01 -0.12144393528E+01  0.11249909560E+02  0.51100000000E-03 0. -1.
        -11    1    4    4    0    0 -0.80255434323E+01  0.21380985009E+02  0.53239323292E+01  0.23449949319E+02  0.51100000000E-03 0.  1.
        -12    1    4    4    0    0 -0.14777956783E+02 -0.10112298316E+02  0.81335111479E+01  0.19667246567E+02  0.00000000000E+00 0.  1.
</event>
<event>
 8    1  0.2402194E-006  0.9118800E+02  0.7816164E-02  0.1184000E+00
        -11   -1    0    0    0    0  0.00000000000E+00  0.00000000000E+00  0.45593999997E+02  0.45594000000E+02  0.51100000000E-03 0.  1.
         11   -1    0    0    0    0 -0.00000000000E+00 -0.00000000000E+00 -0.45593999997E+02  0.45594000000E+02  0.51100000000E-03 0. -1.
         23    2    1    2    0    0 -0.35527136788E-14  0.00000000000E+00  0.00000000000E+00  0.91188000000E+02  0.91188000000E+02 0.  0.
    9900012    2    3    3    0    0  0.20841368333E+02 -0.24186883105E+02 -0.18341572636E+02  0.54367065261E+02  0.39999956876E+02 0.  0.
        -12    1    3    3    0    0 -0.20841368333E+02  0.24186883105E+02  0.18341572636E+02  0.36820934739E+02  0.00000000000E+00 0.  1.
         11    1    4    4    0    0  0.20258931734E+02 -0.18018269435E+02  0.36982057251E+01  0.27363462396E+02  0.51100000000E-03 0. -1.
        -11    1    4    4    0    0 -0.35173777730E+01 -0.15931773279E+01  0.26283329938E+00  0.38703025722E+01  0.51100000000E-03 0.  1.
        -12    1    4    4    0    0  0.40998143718E+01 -0.45754363418E+01 -0.22302611660E+02  0.23133300293E+02  0.00000000000E+00 0.  1.
</event>
<event>
 8    1  0.2402194E-006  0.9118800E+02  0.7816164E-02  0.1184000E+00
        -11   -1    0    0    0    0  0.00000000000E+00  0.00000000000E+00  0.45593999997E+02  0.45594000000E+02  0.51100000000E-03 0. -1.
         11   -1    0    0    0    0 -0.00000000000E+00 -0.00000000000E+00 -0.45593999997E+02  0.45594000000E+02  0.51100000000E-03 0.  1.
         23    2    1    2    0    0  0.88817841970E-15  0.17763568394E-14  0.00000000000E+00  0.91188000000E+02  0.91188000000E+02 0.  0.
    9900012    2    3    3    0    0  0.69649427057E+01 -0.64000777417E+01  0.35585198024E+02  0.54367112716E+02  0.40000065059E+02 0.  0.
        -12    1    3    3    0    0 -0.69649427057E+01  0.64000777417E+01 -0.35585198024E+02  0.36820887284E+02  0.00000000000E+00 0.  1.
         11    1    4    4    0    0  0.15880876251E+00  0.12690718645E+02  0.21446364545E+02  0.24920395510E+02  0.51100000000E-03 0. -1.
        -11    1    4    4    0    0  0.20469570959E+01 -0.17275676099E+02  0.16368477466E+02  0.23886524922E+02  0.51100000000E-03 0.  1.
         12    1    4    4    0    0  0.47591768473E+01 -0.18151202870E+01 -0.22296439871E+01  0.55601922835E+01  0.00000000000E+00 0. -1.
</event>
<event>
 8    1  0.2402194E-006  0.9118800E+02  0.7816164E-02  0.1184000E+00
        -11   -1    0    0    0    0  0.00000000000E+00  0.00000000000E+00  0.45593999997E+02  0.45594000000E+02  0.51100000000E-03 0.  1.
         11   -1    0    0    0    0 -0.00000000000E+00 -0.00000000000E+00 -0.45593999997E+02  0.45594000000E+02  0.51100000000E-03 0. -1.
         23    2    1    2    0    0 -0.35527136788E-14 -0.35527136788E-14  0.35527136788E-14  0.91188000000E+02  0.91188000000E+02 0.  0.
    9900012    2    3    3    0    0  0.13211692934E+02  0.25988143904E+02 -0.22490931693E+02  0.54367157231E+02  0.40000166540E+02 0.  0.
         12    1    3    3    0    0 -0.13211692934E+02 -0.25988143904E+02  0.22490931693E+02  0.36820842769E+02  0.00000000000E+00 0. -1.
         11    1    4    4    0    0 -0.18421031015E+01 -0.44738223087E+01 -0.15467201054E+02  0.16206256156E+02  0.51100000000E-03 0. -1.
        -11    1    4    4    0    0 -0.31253158566E+00 -0.17657139215E+01 -0.54583228796E+00  0.18743945135E+01  0.51100000000E-03 0.  1.
        -12    1    4    4    0    0  0.15366327621E+02  0.32227680134E+02 -0.64778983509E+01  0.36286506562E+02  0.00000000000E+00 0.  1.
</event>
<event>
 8    1  0.2402194E-006  0.9118800E+02  0.7816164E-02  0.1184000E+00
        -11   -1    0    0    0    0  0.00000000000E+00  0.00000000000E+00  0.45593999997E+02  0.45594000000E+02  0.51100000000E-03 0.  1.
         11   -1    0    0    0    0 -0.00000000000E+00 -0.00000000000E+00 -0.45593999997E+02  0.45594000000E+02  0.51100000000E-03 0. -1.
         23    2    1    2    0    0  0.00000000000E+00 -0.17763568394E-14  0.00000000000E+00  0.91188000000E+02  0.91188000000E+02 0.  0.
    9900012    2    3    3    0    0 -0.54851822457E+01  0.11642657916E+02  0.34498432071E+02  0.54367074931E+02  0.39999978919E+02 0.  0.
         12    1    3    3    0    0  0.54851822457E+01 -0.11642657916E+02 -0.34498432071E+02  0.36820925069E+02  0.00000000000E+00 0. -1.
         11    1    4    4    0    0 -0.73641785486E+01  0.54631139044E+01 -0.28714556449E+01  0.96084336397E+01  0.51100000000E-03 0. -1.
        -11    1    4    4    0    0  0.36573179113E+01  0.15088870128E+02  0.24499174887E+02  0.29004474594E+02  0.51100000000E-03 0.  1.
         12    1    4    4    0    0 -0.17783216084E+01 -0.89093261170E+01  0.12870712829E+02  0.15754166697E+02  0.00000000000E+00 0. -1.
</event>
<event>
 8    1  0.2402194E-006  0.9118800E+02  0.7816164E-02  0.1184000E+00
        -11   -1    0    0    0    0  0.00000000000E+00  0.00000000000E+00  0.45593999997E+02  0.45594000000E+02  0.51100000000E-03 0. -1.
         11   -1    0    0    0    0 -0.00000000000E+00 -0.00000000000E+00 -0.45593999997E+02  0.45594000000E+02  0.51100000000E-03 0.  1.
         23    2    1    2    0    0  0.00000000000E+00  0.17763568394E-14 -0.71054273576E-14  0.91188000000E+02  0.91188000000E+02 0.  0.
    9900012    2    3    3    0    0  0.21146429892E+02 -0.15980246843E+02  0.25558635774E+02  0.54367032482E+02  0.39999882148E+02 0.  0.
        -12    1    3    3    0    0 -0.21146429892E+02  0.15980246843E+02 -0.25558635774E+02  0.36820967518E+02  0.00000000000E+00 0.  1.
         11    1    4    4    0    0  0.17138520222E+02 -0.15063678317E+02  0.23523830323E+02  0.32772150878E+02  0.51100000000E-03 0. -1.
        -11    1    4    4    0    0  0.48301380005E+01 -0.10587580808E+02 -0.18326995760E+00  0.11638758035E+02  0.51100000000E-03 0.  1.
        -12    1    4    4    0    0 -0.82222833098E+00  0.96710122819E+01  0.22180754094E+01  0.99561235683E+01  0.00000000000E+00 0.  1.
</event>
<event>
 8    1  0.2402194E-006  0.9118800E+02  0.7816164E-02  0.1184000E+00
        -11   -1    0    0    0    0  0.00000000000E+00  0.00000000000E+00  0.45593999997E+02  0.45594000000E+02  0.51100000000E-03 0.  1.
         11   -1    0    0    0    0 -0.00000000000E+00 -0.00000000000E+00 -0.45593999997E+02  0.45594000000E+02  0.51100000000E-03 0. -1.
         23    2    1    2    0    0  0.00000000000E+00  0.17763568394E-14  0.00000000000E+00  0.91188000000E+02  0.91188000000E+02 0.  0.
    9900012    2    3    3    0    0 -0.49180242683E+01 -0.13328846239E+02 -0.33969593129E+02  0.54367104273E+02  0.40000045812E+02 0.  0.
        -12    1    3    3    0    0  0.49180242683E+01  0.13328846239E+02  0.33969593129E+02  0.36820895727E+02  0.00000000000E+00 0.  1.
         11    1    4    4    0    0 -0.31364797313E+01 -0.38291425291E-01  0.35914369199E+01  0.47683740152E+01  0.51100000000E-03 0.  1.
        -11    1    4    4    0    0 -0.27783176314E+01 -0.12177861375E+02 -0.49288100583E+00  0.12500491529E+02  0.51100000000E-03 0. -1.
         12    1    4    4    0    0  0.99677309439E+00 -0.11126934392E+01 -0.37068149043E+02  0.37098238729E+02  0.00000000000E+00 0. -1.
</event>
<event>
 8    1  0.2402194E-006  0.9118800E+02  0.7816164E-02  0.1184000E+00
        -11   -1    0    0    0    0  0.00000000000E+00  0.00000000000E+00  0.45593999997E+02  0.45594000000E+02  0.51100000000E-03 0.  1.
         11   -1    0    0    0    0 -0.00000000000E+00 -0.00000000000E+00 -0.45593999997E+02  0.45594000000E+02  0.51100000000E-03 0. -1.
         23    2    1    2    0    0  0.00000000000E+00  0.35527136788E-14  0.00000000000E+00  0.91188000000E+02  0.91188000000E+02 0.  0.
    9900012    2    3    3    0    0 -0.48422234077E+01  0.28521927295E+02 -0.22777890515E+02  0.54367085285E+02  0.40000002524E+02 0.  0.
         12    1    3    3    0    0  0.48422234077E+01 -0.28521927295E+02  0.22777890515E+02  0.36820914715E+02  0.00000000000E+00 0. -1.
         11    1    4    4    0    0 -0.63352417857E+01  0.56126937524E+01 -0.18634274484E+02  0.20466406755E+02  0.51100000000E-03 0. -1.
        -11    1    4    4    0    0 -0.40675826513E+01 -0.37858410540E+01 -0.36117855608E+01  0.66274290875E+01  0.51100000000E-03 0.  1.
        -12    1    4    4    0    0  0.55606010293E+01  0.26695074597E+02 -0.53183047001E+00  0.27273249443E+02  0.00000000000E+00 0.  1.
</event>
<event>
 8    1  0.2402194E-006  0.9118800E+02  0.7816164E-02  0.1184000E+00
        -11   -1    0    0    0    0  0.00000000000E+00  0.00000000000E+00  0.45593999997E+02  0.45594000000E+02  0.51100000000E-03 0.  1.
         11   -1    0    0    0    0 -0.00000000000E+00 -0.00000000000E+00 -0.45593999997E+02  0.45594000000E+02  0.51100000000E-03 0. -1.
         23    2    1    2    0    0  0.35527136788E-14 -0.35527136788E-14  0.00000000000E+00  0.91188000000E+02  0.91188000000E+02 0.  0.
    9900012    2    3    3    0    0  0.21608301964E+02  0.29084898470E+02  0.65520854717E+01  0.54367083976E+02  0.39999999541E+02 0.  0.
        -12    1    3    3    0    0 -0.21608301964E+02 -0.29084898470E+02 -0.65520854717E+01  0.36820916024E+02  0.00000000000E+00 0.  1.
         11    1    4    4    0    0 -0.99746915102E+01  0.24332603631E+01  0.38549927279E+00  0.10274426343E+02  0.51100000000E-03 0. -1.
        -11    1    4    4    0    0  0.46350681041E+01  0.10631229912E+02 -0.18233667734E+01  0.11740169182E+02  0.51100000000E-03 0.  1.
         12    1    4    4    0    0  0.26947925370E+02  0.16020408195E+02  0.79899529723E+01  0.32352488452E+02  0.00000000000E+00 0. -1.
</event>
<event>
 8    1  0.2402194E-006  0.9118800E+02  0.7816164E-02  0.1184000E+00
        -11   -1    0    0    0    0  0.00000000000E+00  0.00000000000E+00  0.45593999997E+02  0.45594000000E+02  0.51100000000E-03 0. -1.
         11   -1    0    0    0    0 -0.00000000000E+00 -0.00000000000E+00 -0.45593999997E+02  0.45594000000E+02  0.51100000000E-03 0.  1.
         23    2    1    2    0    0  0.00000000000E+00  0.00000000000E+00  0.00000000000E+00  0.91188000000E+02  0.91188000000E+02 0.  0.
    9900012    2    3    3    0    0  0.12344539487E+02 -0.26908547332E+02  0.21893422628E+02  0.54367088428E+02  0.40000009688E+02 0.  0.
         12    1    3    3    0    0 -0.12344539487E+02  0.26908547332E+02 -0.21893422628E+02  0.36820911572E+02  0.00000000000E+00 0. -1.
         11    1    4    4    0    0  0.42947753349E+01  0.80628379251E+01  0.14839637210E+01  0.92550850439E+01  0.51100000000E-03 0. -1.
        -11    1    4    4    0    0  0.70731103802E+01 -0.21463720873E+01  0.37691087907E+01  0.82971070214E+01  0.51100000000E-03 0.  1.
         12    1    4    4    0    0  0.97665377195E+00 -0.32825013169E+02  0.16640350117E+02  0.36814896362E+02  0.00000000000E+00 0. -1.
</event>
<event>
 8    1  0.2402194E-006  0.9118800E+02  0.7816164E-02  0.1184000E+00
        -11   -1    0    0    0    0  0.00000000000E+00  0.00000000000E+00  0.45593999997E+02  0.45594000000E+02  0.51100000000E-03 0. -1.
         11   -1    0    0    0    0 -0.00000000000E+00 -0.00000000000E+00 -0.45593999997E+02  0.45594000000E+02  0.51100000000E-03 0.  1.
         23    2    1    2    0    0  0.88817841970E-15  0.00000000000E+00  0.00000000000E+00  0.91188000000E+02  0.91188000000E+02 0.  0.
    9900012    2    3    3    0    0  0.13948110479E+01  0.64250511095E+01 -0.36229232062E+02  0.54367027235E+02  0.39999870187E+02 0.  0.
         12    1    3    3    0    0 -0.13948110479E+01 -0.64250511095E+01  0.36229232062E+02  0.36820972765E+02  0.00000000000E+00 0. -1.
         11    1    4    4    0    0 -0.10380379888E+02  0.57042861578E+01 -0.10575994056E+02  0.15879005565E+02  0.51100000000E-03 0. -1.
        -11    1    4    4    0    0 -0.55635143491E+01  0.19302031784E+01 -0.18975936301E+02  0.19868682266E+02  0.51100000000E-03 0.  1.
         12    1    4    4    0    0  0.17338705285E+02 -0.12094382267E+01 -0.66773017042E+01  0.18619339404E+02  0.00000000000E+00 0. -1.
</event>
<event>
 8    1  0.2402194E-006  0.9118800E+02  0.7816164E-02  0.1184000E+00
        -11   -1    0    0    0    0  0.00000000000E+00  0.00000000000E+00  0.45593999997E+02  0.45594000000E+02  0.51100000000E-03 0. -1.
         11   -1    0    0    0    0 -0.00000000000E+00 -0.00000000000E+00 -0.45593999997E+02  0.45594000000E+02  0.51100000000E-03 0.  1.
         23    2    1    2    0    0  0.00000000000E+00  0.00000000000E+00 -0.35527136788E-14  0.91188000000E+02  0.91188000000E+02 0.  0.
    9900012    2    3    3    0    0  0.68204160287E+01  0.28380404399E+02  0.22445813984E+02  0.54367082113E+02  0.39999995293E+02 0.  0.
        -12    1    3    3    0    0 -0.68204160287E+01 -0.28380404399E+02 -0.22445813984E+02  0.36820917887E+02  0.00000000000E+00 0.  1.
         11    1    4    4    0    0 -0.23194801092E+01  0.90359929573E+01 -0.31051200561E+01  0.98321374851E+01  0.51100000000E-03 0. -1.
        -11    1    4    4    0    0  0.13822438858E+02  0.98024103387E+01  0.28804382325E+02  0.33419148789E+02  0.51100000000E-03 0.  1.
        -12    1    4    4    0    0 -0.46825427197E+01  0.95420011031E+01 -0.32534482854E+01  0.11115795838E+02  0.00000000000E+00 0.  1.
</event>
<event>
 8    1  0.2402194E-006  0.9118800E+02  0.7816164E-02  0.1184000E+00
        -11   -1    0    0    0    0  0.00000000000E+00  0.00000000000E+00  0.45593999997E+02  0.45594000000E+02  0.51100000000E-03 0.  1.
         11   -1    0    0    0    0 -0.00000000000E+00 -0.00000000000E+00 -0.45593999997E+02  0.45594000000E+02  0.51100000000E-03 0. -1.
         23    2    1    2    0    0  0.00000000000E+00  0.35527136788E-14  0.00000000000E+00  0.91188000000E+02  0.91188000000E+02 0.  0.
    9900012    2    3    3    0    0  0.31485384470E+02  0.15124606400E+02 -0.11648956753E+02  0.54367063735E+02  0.39999953397E+02 0.  0.
        -12    1    3    3    0    0 -0.31485384470E+02 -0.15124606400E+02  0.11648956753E+02  0.36820936265E+02  0.00000000000E+00 0.  1.
         11    1    4    4    0    0  0.16187991859E+02  0.31374845861E+01 -0.15169325323E+02  0.22405430614E+02  0.51100000000E-03 0. -1.
        -11    1    4    4    0    0  0.15513083660E+02  0.11234983928E+02  0.12549190848E+02  0.22898969840E+02  0.51100000000E-03 0.  1.
         12    1    4    4    0    0 -0.21569104965E+00  0.75213788592E+00 -0.90288222783E+01  0.90626632819E+01  0.00000000000E+00 0. -1.
</event>
<event>
 8    1  0.2402194E-006  0.9118800E+02  0.7816164E-02  0.1184000E+00
        -11   -1    0    0    0    0  0.00000000000E+00  0.00000000000E+00  0.45593999997E+02  0.45594000000E+02  0.51100000000E-03 0.  1.
         11   -1    0    0    0    0 -0.00000000000E+00 -0.00000000000E+00 -0.45593999997E+02  0.45594000000E+02  0.51100000000E-03 0. -1.
         23    2    1    2    0    0  0.35527136788E-14  0.71054273576E-14  0.00000000000E+00  0.91188000000E+02  0.91188000000E+02 0.  0.
    9900012    2    3    3    0    0 -0.18222033676E+02 -0.31791813168E+02  0.36078714527E+01  0.54367100605E+02  0.40000037450E+02 0.  0.
        -12    1    3    3    0    0  0.18222033676E+02  0.31791813168E+02 -0.36078714527E+01  0.36820899395E+02  0.00000000000E+00 0.  1.
         11    1    4    4    0    0 -0.16849232946E+02 -0.26113735360E+02 -0.10733079789E+02  0.32878911590E+02  0.51100000000E-03 0. -1.
        -11    1    4    4    0    0 -0.13537160271E+01  0.48373395050E+01  0.23686955164E+01  0.55536581889E+01  0.51100000000E-03 0.  1.
        -12    1    4    4    0    0 -0.19084702151E-01 -0.10515417313E+02  0.11972255725E+02  0.15934530826E+02  0.00000000000E+00 0.  1.
</event>
<event>
 8    1  0.2402194E-006  0.9118800E+02  0.7816164E-02  0.1184000E+00
        -11   -1    0    0    0    0  0.00000000000E+00  0.00000000000E+00  0.45593999997E+02  0.45594000000E+02  0.51100000000E-03 0. -1.
         11   -1    0    0    0    0 -0.00000000000E+00 -0.00000000000E+00 -0.45593999997E+02  0.45594000000E+02  0.51100000000E-03 0.  1.
         23    2    1    2    0    0 -0.35527136788E-14 -0.88817841970E-15  0.00000000000E+00  0.91188000000E+02  0.91188000000E+02 0.  0.
    9900012    2    3    3    0    0 -0.23691084882E+02 -0.79605531894E+01 -0.27039635198E+02  0.54367084998E+02  0.40000001869E+02 0.  0.
         12    1    3    3    0    0  0.23691084882E+02  0.79605531894E+01  0.27039635198E+02  0.36820915002E+02  0.00000000000E+00 0. -1.
         11    1    4    4    0    0 -0.45550359906E+01 -0.19520104274E+02 -0.53700171022E+01  0.20751383272E+02  0.51100000000E-03 0. -1.
        -11    1    4    4    0    0 -0.43491553873E+01 -0.74966694350E+00 -0.10449619249E+02  0.11343354699E+02  0.51100000000E-03 0.  1.
         12    1    4    4    0    0 -0.14786893504E+02  0.12309218029E+02 -0.11219998847E+02  0.22272347027E+02  0.00000000000E+00 0. -1.
</event>
<event>
 8    1  0.2402194E-006  0.9118800E+02  0.7816164E-02  0.1184000E+00
        -11   -1    0    0    0    0  0.00000000000E+00  0.00000000000E+00  0.45593999997E+02  0.45594000000E+02  0.51100000000E-03 0. -1.
         11   -1    0    0    0    0 -0.00000000000E+00 -0.00000000000E+00 -0.45593999997E+02  0.45594000000E+02  0.51100000000E-03 0.  1.
         23    2    1    2    0    0  0.00000000000E+00 -0.35527136788E-14  0.00000000000E+00  0.91188000000E+02  0.91188000000E+02 0.  0.
    9900012    2    3    3    0    0 -0.10297799519E+02  0.24391486607E+02 -0.25588860826E+02  0.54367094359E+02  0.40000023211E+02 0.  0.
         12    1    3    3    0    0  0.10297799519E+02 -0.24391486607E+02  0.25588860826E+02  0.36820905641E+02  0.00000000000E+00 0. -1.
         11    1    4    4    0    0 -0.70648213822E+01  0.11448302730E+00 -0.90979427697E+00  0.71240812330E+01  0.51100000000E-03 0. -1.
        -11    1    4    4    0    0  0.13927597646E+02  0.59679702111E+01 -0.10294347802E+02  0.18318521817E+02  0.51100000000E-03 0.  1.
        -12    1    4    4    0    0 -0.17160575782E+02  0.18309033368E+02 -0.14384718747E+02  0.28924491309E+02  0.00000000000E+00 0.  1.
</event>
<event>
 8    1  0.2402194E-006  0.9118800E+02  0.7816164E-02  0.1184000E+00
        -11   -1    0    0    0    0  0.00000000000E+00  0.00000000000E+00  0.45593999997E+02  0.45594000000E+02  0.51100000000E-03 0. -1.
         11   -1    0    0    0    0 -0.00000000000E+00 -0.00000000000E+00 -0.45593999997E+02  0.45594000000E+02  0.51100000000E-03 0.  1.
         23    2    1    2    0    0  0.26645352591E-14  0.35527136788E-14 -0.35527136788E-14  0.91188000000E+02  0.91188000000E+02 0.  0.
    9900012    2    3    3    0    0 -0.45040405958E+01 -0.27064475015E+02  0.24556191531E+02  0.54367099250E+02  0.40000034360E+02 0.  0.
        -12    1    3    3    0    0  0.45040405958E+01  0.27064475015E+02 -0.24556191531E+02  0.36820900750E+02  0.00000000000E+00 0.  1.
         11    1    4    4    0    0  0.16877887870E+01 -0.11779004634E+02  0.73639176497E+01  0.13993600843E+02  0.51100000000E-03 0. -1.
        -11    1    4    4    0    0  0.11214237477E+02 -0.10382059997E+02 -0.20002037434E+00  0.15283530364E+02  0.51100000000E-03 0.  1.
        -12    1    4    4    0    0 -0.17406066860E+02 -0.49034103850E+01  0.17392294255E+02  0.25089968043E+02  0.00000000000E+00 0.  1.
</event>
<event>
 8    1  0.2402194E-006  0.9118800E+02  0.7816164E-02  0.1184000E+00
        -11   -1    0    0    0    0  0.00000000000E+00  0.00000000000E+00  0.45593999997E+02  0.45594000000E+02  0.51100000000E-03 0.  1.
         11   -1    0    0    0    0 -0.00000000000E+00 -0.00000000000E+00 -0.45593999997E+02  0.45594000000E+02  0.51100000000E-03 0. -1.
         23    2    1    2    0    0  0.35527136788E-14  0.00000000000E+00  0.44408920985E-15  0.91188000000E+02  0.91188000000E+02 0.  0.
    9900012    2    3    3    0    0 -0.20029799991E+02 -0.30735849046E+02  0.31455551776E+01  0.54367084454E+02  0.40000000630E+02 0.  0.
         12    1    3    3    0    0  0.20029799991E+02  0.30735849046E+02 -0.31455551776E+01  0.36820915546E+02  0.00000000000E+00 0. -1.
         11    1    4    4    0    0 -0.17680980277E+02 -0.47768894835E+01 -0.48914819901E+01  0.18956854513E+02  0.51100000000E-03 0. -1.
        -11    1    4    4    0    0 -0.25887807851E+01 -0.88795125862E+01  0.14456944947E+02  0.17162481964E+02  0.51100000000E-03 0.  1.
        -12    1    4    4    0    0  0.23996107143E+00 -0.17079446976E+02 -0.64199077791E+01  0.18247747977E+02  0.00000000000E+00 0.  1.
</event>
<event>
 8    1  0.2402194E-006  0.9118800E+02  0.7816164E-02  0.1184000E+00
        -11   -1    0    0    0    0  0.00000000000E+00  0.00000000000E+00  0.45593999997E+02  0.45594000000E+02  0.51100000000E-03 0.  1.
         11   -1    0    0    0    0 -0.00000000000E+00 -0.00000000000E+00 -0.45593999997E+02  0.45594000000E+02  0.51100000000E-03 0. -1.
         23    2    1    2    0    0  0.00000000000E+00  0.35527136788E-14 -0.35527136788E-14  0.91188000000E+02  0.91188000000E+02 0.  0.
    9900012    2    3    3    0    0 -0.25655375675E+02 -0.16870086281E+02  0.20321947010E+02  0.54367086887E+02  0.40000006177E+02 0.  0.
         12    1    3    3    0    0  0.25655375675E+02  0.16870086281E+02 -0.20321947010E+02  0.36820913113E+02  0.00000000000E+00 0. -1.
         11    1    4    4    0    0 -0.82729077999E+01 -0.20118275465E+02  0.17036592106E+02  0.27630263879E+02  0.51100000000E-03 0. -1.
        -11    1    4    4    0    0 -0.21529561067E+02  0.15880584503E+01  0.46155442212E+01  0.22075941160E+02  0.51100000000E-03 0.  1.
        -12    1    4    4    0    0  0.41470931915E+01  0.16601307340E+01 -0.13301893168E+01  0.46608818492E+01  0.00000000000E+00 0.  1.
</event>
<event>
 8    1  0.2402194E-006  0.9118800E+02  0.7816164E-02  0.1184000E+00
        -11   -1    0    0    0    0  0.00000000000E+00  0.00000000000E+00  0.45593999997E+02  0.45594000000E+02  0.51100000000E-03 0. -1.
         11   -1    0    0    0    0 -0.00000000000E+00 -0.00000000000E+00 -0.45593999997E+02  0.45594000000E+02  0.51100000000E-03 0.  1.
         23    2    1    2    0    0  0.00000000000E+00  0.83266726847E-15  0.35527136788E-14  0.91188000000E+02  0.91188000000E+02 0.  0.
    9900012    2    3    3    0    0  0.20636348130E+02 -0.29661057021E+00  0.30493163245E+02  0.54367084115E+02  0.39999999856E+02 0.  0.
        -12    1    3    3    0    0 -0.20636348130E+02  0.29661057021E+00 -0.30493163245E+02  0.36820915885E+02  0.00000000000E+00 0.  1.
         11    1    4    4    0    0  0.79821489762E+01 -0.76112574542E+01  0.23179610836E+02  0.25669832510E+02  0.51100000000E-03 0. -1.
        -11    1    4    4    0    0  0.15160562059E+02 -0.43863621037E+01  0.42729113774E+01  0.16350553090E+02  0.51100000000E-03 0.  1.
        -12    1    4    4    0    0 -0.25063629052E+01  0.11701008988E+02  0.30406410312E+01  0.12346698515E+02  0.00000000000E+00 0.  1.
</event>
<event>
 8    1  0.2402194E-006  0.9118800E+02  0.7816164E-02  0.1184000E+00
        -11   -1    0    0    0    0  0.00000000000E+00  0.00000000000E+00  0.45593999997E+02  0.45594000000E+02  0.51100000000E-03 0.  1.
         11   -1    0    0    0    0 -0.00000000000E+00 -0.00000000000E+00 -0.45593999997E+02  0.45594000000E+02  0.51100000000E-03 0. -1.
         23    2    1    2    0    0 -0.17763568394E-14  0.00000000000E+00 -0.35527136788E-14  0.91188000000E+02  0.91188000000E+02 0.  0.
    9900012    2    3    3    0    0 -0.10646791607E+02 -0.18885257506E+02 -0.29761933863E+02  0.54367084343E+02  0.40000000376E+02 0.  0.
        -12    1    3    3    0    0  0.10646791607E+02  0.18885257506E+02  0.29761933863E+02  0.36820915657E+02  0.00000000000E+00 0.  1.
         11    1    4    4    0    0  0.98200676063E+00 -0.10608076961E+02 -0.11031122089E+02  0.15335621569E+02  0.51100000000E-03 0. -1.
        -11    1    4    4    0    0  0.99871594809E+01 -0.76904771633E+01 -0.74470883365E+01  0.14640557313E+02  0.51100000000E-03 0.  1.
         12    1    4    4    0    0 -0.21615957849E+02 -0.58670338190E+00 -0.11283723437E+02  0.24390905460E+02  0.00000000000E+00 0. -1.
</event>
<event>
 8    1  0.2402194E-006  0.9118800E+02  0.7816164E-02  0.1184000E+00
        -11   -1    0    0    0    0  0.00000000000E+00  0.00000000000E+00  0.45593999997E+02  0.45594000000E+02  0.51100000000E-03 0.  1.
         11   -1    0    0    0    0 -0.00000000000E+00 -0.00000000000E+00 -0.45593999997E+02  0.45594000000E+02  0.51100000000E-03 0. -1.
         23    2    1    2    0    0  0.88817841970E-15  0.00000000000E+00  0.71054273576E-14  0.91188000000E+02  0.91188000000E+02 0.  0.
    9900012    2    3    3    0    0  0.58771541442E+01  0.11018960031E+02  0.34638416498E+02  0.54367104866E+02  0.40000047162E+02 0.  0.
         12    1    3    3    0    0 -0.58771541442E+01 -0.11018960031E+02 -0.34638416498E+02  0.36820895134E+02  0.00000000000E+00 0. -1.
         11    1    4    4    0    0  0.10739398329E+02 -0.15672562183E+00  0.23736399293E+02  0.26053327830E+02  0.51100000000E-03 0. -1.
        -11    1    4    4    0    0 -0.36514825266E+00  0.12184156097E+02 -0.39099491135E+01  0.12801355216E+02  0.51100000000E-03 0.  1.
        -12    1    4    4    0    0 -0.44970959318E+01 -0.10084704443E+01  0.14811966319E+02  0.15512421819E+02  0.00000000000E+00 0.  1.
</event>
<event>
 8    1  0.2402194E-006  0.9118800E+02  0.7816164E-02  0.1184000E+00
        -11   -1    0    0    0    0  0.00000000000E+00  0.00000000000E+00  0.45593999997E+02  0.45594000000E+02  0.51100000000E-03 0. -1.
         11   -1    0    0    0    0 -0.00000000000E+00 -0.00000000000E+00 -0.45593999997E+02  0.45594000000E+02  0.51100000000E-03 0.  1.
         23    2    1    2    0    0  0.52735593670E-15 -0.35527136788E-14 -0.71054273576E-14  0.91188000000E+02  0.91188000000E+02 0.  0.
    9900012    2    3    3    0    0 -0.15254125443E+00  0.26978982456E+02  0.25057710504E+02  0.54367114365E+02  0.40000068818E+02 0.  0.
        -12    1    3    3    0    0  0.15254125443E+00 -0.26978982456E+02 -0.25057710504E+02  0.36820885635E+02  0.00000000000E+00 0.  1.
         11    1    4    4    0    0  0.73221194333E+01  0.74024729841E+01 -0.64431183949E+01  0.12244338046E+02  0.51100000000E-03 0. -1.
        -11    1    4    4    0    0 -0.39314609363E+01  0.30083681076E+01  0.22300104000E+02  0.22842970526E+02  0.51100000000E-03 0.  1.
         12    1    4    4    0    0 -0.35431997514E+01  0.16568141365E+02  0.92007248994E+01  0.19279805793E+02  0.00000000000E+00 0. -1.
</event>
<event>
 8    1  0.2402194E-006  0.9118800E+02  0.7816164E-02  0.1184000E+00
        -11   -1    0    0    0    0  0.00000000000E+00  0.00000000000E+00  0.45593999997E+02  0.45594000000E+02  0.51100000000E-03 0. -1.
         11   -1    0    0    0    0 -0.00000000000E+00 -0.00000000000E+00 -0.45593999997E+02  0.45594000000E+02  0.51100000000E-03 0.  1.
         23    2    1    2    0    0  0.00000000000E+00  0.44408920985E-15 -0.35527136788E-14  0.91188000000E+02  0.91188000000E+02 0.  0.
    9900012    2    3    3    0    0  0.26807819136E+02 -0.10605469712E+01 -0.25218958841E+02  0.54367084588E+02  0.40000000936E+02 0.  0.
         12    1    3    3    0    0 -0.26807819136E+02  0.10605469712E+01  0.25218958841E+02  0.36820915412E+02  0.00000000000E+00 0. -1.
         11    1    4    4    0    0  0.58663454566E+01 -0.12689261942E+02  0.77179557304E+00  0.14000965907E+02  0.51100000000E-03 0. -1.
        -11    1    4    4    0    0  0.20292636266E+02  0.15026527089E+02 -0.16245317360E+02  0.30024955277E+02  0.51100000000E-03 0.  1.
         12    1    4    4    0    0  0.64883741397E+00 -0.33978121181E+01 -0.97454370541E+01  0.10341163404E+02  0.00000000000E+00 0. -1.
</event>
<event>
 8    1  0.2402194E-006  0.9118800E+02  0.7816164E-02  0.1184000E+00
        -11   -1    0    0    0    0  0.00000000000E+00  0.00000000000E+00  0.45593999997E+02  0.45594000000E+02  0.51100000000E-03 0.  1.
         11   -1    0    0    0    0 -0.00000000000E+00 -0.00000000000E+00 -0.45593999997E+02  0.45594000000E+02  0.51100000000E-03 0. -1.
         23    2    1    2    0    0  0.00000000000E+00  0.00000000000E+00  0.00000000000E+00  0.91188000000E+02  0.91188000000E+02 0.  0.
    9900012    2    3    3    0    0  0.22612001324E+02 -0.22127608383E+02  0.18837382538E+02  0.54367073375E+02  0.39999975373E+02 0.  0.
         12    1    3    3    0    0 -0.22612001324E+02  0.22127608383E+02 -0.18837382538E+02  0.36820926625E+02  0.00000000000E+00 0. -1.
         11    1    4    4    0    0  0.78759418292E+01  0.83428414788E+01  0.51243512461E+01  0.12565525838E+02  0.51100000000E-03 0. -1.
        -11    1    4    4    0    0  0.86057083529E+01 -0.17660933071E+02  0.18329753323E+02  0.26869064560E+02  0.51100000000E-03 0.  1.
         12    1    4    4    0    0  0.61303511417E+01 -0.12809516791E+02 -0.46167220304E+01  0.14932482977E+02  0.00000000000E+00 0. -1.
</event>
<event>
 8    1  0.2402194E-006  0.9118800E+02  0.7816164E-02  0.1184000E+00
        -11   -1    0    0    0    0  0.00000000000E+00  0.00000000000E+00  0.45593999997E+02  0.45594000000E+02  0.51100000000E-03 0. -1.
         11   -1    0    0    0    0 -0.00000000000E+00 -0.00000000000E+00 -0.45593999997E+02  0.45594000000E+02  0.51100000000E-03 0.  1.
         23    2    1    2    0    0  0.88817841970E-15  0.00000000000E+00  0.00000000000E+00  0.91188000000E+02  0.91188000000E+02 0.  0.
    9900012    2    3    3    0    0 -0.50548076814E+01 -0.32853061405E+02 -0.15839960210E+02  0.54367094744E+02  0.40000024088E+02 0.  0.
         12    1    3    3    0    0  0.50548076814E+01  0.32853061405E+02  0.15839960210E+02  0.36820905256E+02  0.00000000000E+00 0. -1.
         11    1    4    4    0    0  0.55776604247E+01 -0.42948040361E+01 -0.69138378326E+00  0.70734467778E+01  0.51100000000E-03 0. -1.
        -11    1    4    4    0    0 -0.42219686186E+01 -0.16976890819E+02 -0.25197014840E+02  0.30674572499E+02  0.51100000000E-03 0.  1.
        -12    1    4    4    0    0 -0.64104994876E+01 -0.11581366550E+02  0.10048438413E+02  0.16619075467E+02  0.00000000000E+00 0.  1.
</event>
<event>
 8    1  0.2402194E-006  0.9118800E+02  0.7816164E-02  0.1184000E+00
        -11   -1    0    0    0    0  0.00000000000E+00  0.00000000000E+00  0.45593999997E+02  0.45594000000E+02  0.51100000000E-03 0. -1.
         11   -1    0    0    0    0 -0.00000000000E+00 -0.00000000000E+00 -0.45593999997E+02  0.45594000000E+02  0.51100000000E-03 0.  1.
         23    2    1    2    0    0  0.35527136788E-14 -0.35527136788E-14 -0.35527136788E-14  0.91188000000E+02  0.91188000000E+02 0.  0.
    9900012    2    3    3    0    0  0.26256236697E+02 -0.22195769910E+02 -0.13180957862E+02  0.54367084510E+02  0.40000000757E+02 0.  0.
         12    1    3    3    0    0 -0.26256236697E+02  0.22195769910E+02  0.13180957862E+02  0.36820915490E+02  0.00000000000E+00 0. -1.
         11    1    4    4    0    0  0.15856826484E+02  0.36740872032E+01 -0.62400687780E+00  0.16288868830E+02  0.51100000000E-03 0. -1.
        -11    1    4    4    0    0  0.14622195313E+02 -0.65484414324E+01 -0.73482653689E+01  0.17626334990E+02  0.51100000000E-03 0.  1.
         12    1    4    4    0    0 -0.42227851004E+01 -0.19321415681E+02 -0.52086856151E+01  0.20451880690E+02  0.00000000000E+00 0. -1.
</event>
<event>
 8    1  0.2402194E-006  0.9118800E+02  0.7816164E-02  0.1184000E+00
        -11   -1    0    0    0    0  0.00000000000E+00  0.00000000000E+00  0.45593999997E+02  0.45594000000E+02  0.51100000000E-03 0.  1.
         11   -1    0    0    0    0 -0.00000000000E+00 -0.00000000000E+00 -0.45593999997E+02  0.45594000000E+02  0.51100000000E-03 0. -1.
         23    2    1    2    0    0 -0.17763568394E-14  0.53290705182E-14  0.00000000000E+00  0.91188000000E+02  0.91188000000E+02 0.  0.
    9900012    2    3    3    0    0  0.92476794911E+01  0.75539953627E+01  0.34830985615E+02  0.54367082292E+02  0.39999995701E+02 0.  0.
         12    1    3    3    0    0 -0.92476794911E+01 -0.75539953627E+01 -0.34830985615E+02  0.36820917708E+02  0.00000000000E+00 0. -1.
         11    1    4    4    0    0  0.15586028876E+02  0.11642422660E+02  0.82414112003E+01  0.21127971042E+02  0.51100000000E-03 0. -1.
        -11    1    4    4    0    0 -0.59701213596E+01 -0.11122113305E+02  0.19622750201E+02  0.23332296910E+02  0.51100000000E-03 0.  1.
        -12    1    4    4    0    0 -0.36822802520E+00  0.70336860070E+01  0.69668242143E+01  0.99068143395E+01  0.00000000000E+00 0.  1.
</event>
<event>
 8    1  0.2402194E-006  0.9118800E+02  0.7816164E-02  0.1184000E+00
        -11   -1    0    0    0    0  0.00000000000E+00  0.00000000000E+00  0.45593999997E+02  0.45594000000E+02  0.51100000000E-03 0. -1.
         11   -1    0    0    0    0 -0.00000000000E+00 -0.00000000000E+00 -0.45593999997E+02  0.45594000000E+02  0.51100000000E-03 0.  1.
         23    2    1    2    0    0  0.00000000000E+00  0.00000000000E+00 -0.17763568394E-14  0.91188000000E+02  0.91188000000E+02 0.  0.
    9900012    2    3    3    0    0  0.26082237453E+02 -0.25021979375E+02  0.70283604438E+01  0.54367076425E+02  0.39999982327E+02 0.  0.
        -12    1    3    3    0    0 -0.26082237453E+02  0.25021979375E+02 -0.70283604438E+01  0.36820923575E+02  0.00000000000E+00 0.  1.
         11    1    4    4    0    0  0.21872246143E+02 -0.14178209403E+02  0.15258039089E+02  0.30203054983E+02  0.51100000000E-03 0. -1.
        -11    1    4    4    0    0 -0.43951066338E+01 -0.53505622858E+01 -0.11517500257E+02  0.13438686377E+02  0.51100000000E-03 0.  1.
        -12    1    4    4    0    0  0.86050979436E+01 -0.54932076865E+01  0.32878216118E+01  0.10725335065E+02  0.00000000000E+00 0.  1.
</event>
<event>
 8    1  0.2402194E-006  0.9118800E+02  0.7816164E-02  0.1184000E+00
        -11   -1    0    0    0    0  0.00000000000E+00  0.00000000000E+00  0.45593999997E+02  0.45594000000E+02  0.51100000000E-03 0. -1.
         11   -1    0    0    0    0 -0.00000000000E+00 -0.00000000000E+00 -0.45593999997E+02  0.45594000000E+02  0.51100000000E-03 0.  1.
         23    2    1    2    0    0 -0.17763568394E-14  0.00000000000E+00  0.00000000000E+00  0.91188000000E+02  0.91188000000E+02 0.  0.
    9900012    2    3    3    0    0 -0.14743782598E+02  0.24577948052E+02  0.23115483681E+02  0.54367078752E+02  0.39999987631E+02 0.  0.
        -12    1    3    3    0    0  0.14743782598E+02 -0.24577948052E+02 -0.23115483681E+02  0.36820921248E+02  0.00000000000E+00 0.  1.
         11    1    4    4    0    0  0.10239178922E+02  0.12609995353E+02  0.63448033211E+00  0.16255932251E+02  0.51100000000E-03 0.  1.
        -11    1    4    4    0    0 -0.11063026776E+02  0.19667363510E+01  0.16489214128E+02  0.19953766465E+02  0.51100000000E-03 0. -1.
        -12    1    4    4    0    0 -0.13919934743E+02  0.10001216348E+02  0.59917892208E+01  0.18157380036E+02  0.00000000000E+00 0.  1.
</event>
<event>
 8    1  0.2402194E-006  0.9118800E+02  0.7816164E-02  0.1184000E+00
        -11   -1    0    0    0    0  0.00000000000E+00  0.00000000000E+00  0.45593999997E+02  0.45594000000E+02  0.51100000000E-03 0. -1.
         11   -1    0    0    0    0 -0.00000000000E+00 -0.00000000000E+00 -0.45593999997E+02  0.45594000000E+02  0.51100000000E-03 0.  1.
         23    2    1    2    0    0 -0.11102230246E-14 -0.17763568394E-14  0.71054273576E-14  0.91188000000E+02  0.91188000000E+02 0.  0.
    9900012    2    3    3    0    0  0.11112516031E+01 -0.40675128134E+01  0.36578706408E+02  0.54367064337E+02  0.39999954770E+02 0.  0.
        -12    1    3    3    0    0 -0.11112516031E+01  0.40675128134E+01 -0.36578706408E+02  0.36820935663E+02  0.00000000000E+00 0.  1.
         11    1    4    4    0    0 -0.10288547319E+02  0.10630700262E+02  0.18454274633E+02  0.23652193271E+02  0.51100000000E-03 0. -1.
        -11    1    4    4    0    0  0.29405064105E+01 -0.10180477449E+02  0.44987879281E+00  0.10606181699E+02  0.51100000000E-03 0.  1.
        -12    1    4    4    0    0  0.84592925120E+01 -0.45177356270E+01  0.17674552982E+02  0.20108689368E+02  0.00000000000E+00 0.  1.
</event>
<event>
 8    1  0.2402194E-006  0.9118800E+02  0.7816164E-02  0.1184000E+00
        -11   -1    0    0    0    0  0.00000000000E+00  0.00000000000E+00  0.45593999997E+02  0.45594000000E+02  0.51100000000E-03 0.  1.
         11   -1    0    0    0    0 -0.00000000000E+00 -0.00000000000E+00 -0.45593999997E+02  0.45594000000E+02  0.51100000000E-03 0. -1.
         23    2    1    2    0    0  0.00000000000E+00 -0.61062266354E-15  0.71054273576E-14  0.91188000000E+02  0.91188000000E+02 0.  0.
    9900012    2    3    3    0    0  0.58477274279E+01 -0.40766486953E+00 -0.36351303982E+02  0.54367090072E+02  0.40000013437E+02 0.  0.
        -12    1    3    3    0    0 -0.58477274279E+01  0.40766486953E+00  0.36351303982E+02  0.36820909928E+02  0.00000000000E+00 0.  1.
         11    1    4    4    0    0  0.16935506331E+02 -0.11350216417E+01 -0.68651044613E+01  0.18309268372E+02  0.51100000000E-03 0. -1.
        -11    1    4    4    0    0 -0.10844590320E+02 -0.35993399427E+01 -0.75446221652E+01  0.13692396105E+02  0.51100000000E-03 0.  1.
         12    1    4    4    0    0 -0.24318858274E+00  0.43266967149E+01 -0.21941577356E+02  0.22365425594E+02  0.00000000000E+00 0. -1.
</event>
<event>
 8    1  0.2402194E-006  0.9118800E+02  0.7816164E-02  0.1184000E+00
        -11   -1    0    0    0    0  0.00000000000E+00  0.00000000000E+00  0.45593999997E+02  0.45594000000E+02  0.51100000000E-03 0. -1.
         11   -1    0    0    0    0 -0.00000000000E+00 -0.00000000000E+00 -0.45593999997E+02  0.45594000000E+02  0.51100000000E-03 0.  1.
         23    2    1    2    0    0  0.00000000000E+00  0.00000000000E+00 -0.35527136788E-14  0.91188000000E+02  0.91188000000E+02 0.  0.
    9900012    2    3    3    0    0  0.14831954169E+02  0.32405494577E+02 -0.92561487505E+01  0.54367092449E+02  0.40000018855E+02 0.  0.
         12    1    3    3    0    0 -0.14831954169E+02 -0.32405494577E+02  0.92561487505E+01  0.36820907551E+02  0.00000000000E+00 0. -1.
         11    1    4    4    0    0 -0.45313589828E+01  0.13577838361E+02 -0.16291495247E+02  0.21686487185E+02  0.51100000000E-03 0. -1.
        -11    1    4    4    0    0  0.12475219788E+02  0.21056931142E+02  0.69408161665E+01  0.25440133396E+02  0.51100000000E-03 0.  1.
        -12    1    4    4    0    0  0.68880933637E+01 -0.22292749264E+01  0.94530329575E-01  0.72404718678E+01  0.00000000000E+00 0.  1.
</event>
<event>
 8    1  0.2402194E-006  0.9118800E+02  0.7816164E-02  0.1184000E+00
        -11   -1    0    0    0    0  0.00000000000E+00  0.00000000000E+00  0.45593999997E+02  0.45594000000E+02  0.51100000000E-03 0.  1.
         11   -1    0    0    0    0 -0.00000000000E+00 -0.00000000000E+00 -0.45593999997E+02  0.45594000000E+02  0.51100000000E-03 0. -1.
         23    2    1    2    0    0  0.00000000000E+00 -0.17763568394E-14  0.17763568394E-14  0.91188000000E+02  0.91188000000E+02 0.  0.
    9900012    2    3    3    0    0  0.33724663842E+02 -0.10891741015E+02 -0.99897858683E+01  0.54367098391E+02  0.40000032403E+02 0.  0.
        -12    1    3    3    0    0 -0.33724663842E+02  0.10891741015E+02  0.99897858683E+01  0.36820901609E+02  0.00000000000E+00 0.  1.
         11    1    4    4    0    0  0.28667066205E+02 -0.13768961651E+01 -0.71789858636E+01  0.29584360161E+02  0.51100000000E-03 0. -1.
        -11    1    4    4    0    0  0.93697034773E+01 -0.25321177102E+01 -0.99539056109E+01  0.13902632863E+02  0.51100000000E-03 0.  1.
        -12    1    4    4    0    0 -0.43121058408E+01 -0.69827271400E+01  0.71431056062E+01  0.10880105367E+02  0.00000000000E+00 0.  1.
</event>
<event>
 8    1  0.2402194E-006  0.9118800E+02  0.7816164E-02  0.1184000E+00
        -11   -1    0    0    0    0  0.00000000000E+00  0.00000000000E+00  0.45593999997E+02  0.45594000000E+02  0.51100000000E-03 0. -1.
         11   -1    0    0    0    0 -0.00000000000E+00 -0.00000000000E+00 -0.45593999997E+02  0.45594000000E+02  0.51100000000E-03 0.  1.
         23    2    1    2    0    0 -0.26645352591E-14  0.00000000000E+00  0.00000000000E+00  0.91188000000E+02  0.91188000000E+02 0.  0.
    9900012    2    3    3    0    0 -0.50866383075E+01 -0.34505901957E+02 -0.11800365589E+02  0.54367084922E+02  0.40000001696E+02 0.  0.
         12    1    3    3    0    0  0.50866383075E+01  0.34505901957E+02  0.11800365589E+02  0.36820915078E+02  0.00000000000E+00 0. -1.
         11    1    4    4    0    0 -0.30833820186E+01 -0.85453403934E+00  0.26179757914E+01  0.41341589957E+01  0.51100000000E-03 0. -1.
        -11    1    4    4    0    0 -0.18098466857E+02 -0.16124465603E+02 -0.87566565093E+01  0.25772697318E+02  0.51100000000E-03 0.  1.
        -12    1    4    4    0    0  0.16095210568E+02 -0.17526902315E+02 -0.56616848710E+01  0.24460228608E+02  0.00000000000E+00 0.  1.
</event>
<event>
 8    1  0.2402194E-006  0.9118800E+02  0.7816164E-02  0.1184000E+00
        -11   -1    0    0    0    0  0.00000000000E+00  0.00000000000E+00  0.45593999997E+02  0.45594000000E+02  0.51100000000E-03 0. -1.
         11   -1    0    0    0    0 -0.00000000000E+00 -0.00000000000E+00 -0.45593999997E+02  0.45594000000E+02  0.51100000000E-03 0.  1.
         23    2    1    2    0    0  0.00000000000E+00 -0.17763568394E-14  0.00000000000E+00  0.91188000000E+02  0.91188000000E+02 0.  0.
    9900012    2    3    3    0    0 -0.21195747697E+02  0.14964003100E+02 -0.26126606857E+02  0.54367072593E+02  0.39999973590E+02 0.  0.
         12    1    3    3    0    0  0.21195747697E+02 -0.14964003100E+02  0.26126606857E+02  0.36820927407E+02  0.00000000000E+00 0. -1.
         11    1    4    4    0    0 -0.19893600659E+02  0.37587655359E+01  0.33236767767E+01  0.20516590680E+02  0.51100000000E-03 0. -1.
        -11    1    4    4    0    0 -0.53461165797E+01  0.10289093615E+02 -0.15892275245E+02  0.19672590644E+02  0.51100000000E-03 0.  1.
        -12    1    4    4    0    0  0.40439695415E+01  0.91614394988E+00 -0.13558008389E+02  0.14177891270E+02  0.00000000000E+00 0.  1.
</event>
<event>
 8    1  0.2402194E-006  0.9118800E+02  0.7816164E-02  0.1184000E+00
        -11   -1    0    0    0    0  0.00000000000E+00  0.00000000000E+00  0.45593999997E+02  0.45594000000E+02  0.51100000000E-03 0.  1.
         11   -1    0    0    0    0 -0.00000000000E+00 -0.00000000000E+00 -0.45593999997E+02  0.45594000000E+02  0.51100000000E-03 0. -1.
         23    2    1    2    0    0  0.00000000000E+00  0.00000000000E+00  0.00000000000E+00  0.91188000000E+02  0.91188000000E+02 0.  0.
    9900012    2    3    3    0    0 -0.11220986513E+02 -0.25894588697E+02  0.23650367372E+02  0.54367080145E+02  0.39999990808E+02 0.  0.
         12    1    3    3    0    0  0.11220986513E+02  0.25894588697E+02 -0.23650367372E+02  0.36820919855E+02  0.00000000000E+00 0. -1.
         11    1    4    4    0    0 -0.83065647192E+01  0.13511495116E+00 -0.34788261623E+01  0.90066367314E+01  0.51100000000E-03 0. -1.
        -11    1    4    4    0    0  0.57174221677E+01 -0.16099313136E+02  0.22708269588E+01  0.17234658541E+02  0.51100000000E-03 0.  1.
        -12    1    4    4    0    0 -0.86318439612E+01 -0.99303905117E+01  0.24858366576E+02  0.28125784873E+02  0.00000000000E+00 0.  1.
</event>
<event>
 8    1  0.2402194E-006  0.9118800E+02  0.7816164E-02  0.1184000E+00
        -11   -1    0    0    0    0  0.00000000000E+00  0.00000000000E+00  0.45593999997E+02  0.45594000000E+02  0.51100000000E-03 0.  1.
         11   -1    0    0    0    0 -0.00000000000E+00 -0.00000000000E+00 -0.45593999997E+02  0.45594000000E+02  0.51100000000E-03 0. -1.
         23    2    1    2    0    0 -0.17763568394E-14  0.00000000000E+00  0.00000000000E+00  0.91188000000E+02  0.91188000000E+02 0.  0.
    9900012    2    3    3    0    0 -0.11279581967E+02  0.12268400465E+02 -0.32833467276E+02  0.54367092995E+02  0.40000020101E+02 0.  0.
        -12    1    3    3    0    0  0.11279581967E+02 -0.12268400465E+02  0.32833467276E+02  0.36820907005E+02  0.00000000000E+00 0.  1.
         11    1    4    4    0    0 -0.17638247321E+01  0.23026538245E+01 -0.10479832614E+02  0.10873830245E+02  0.51100000000E-03 0. -1.
        -11    1    4    4    0    0  0.10313623421E+02  0.10484488531E+02 -0.17893451362E+02  0.23161842106E+02  0.51100000000E-03 0.  1.
        -12    1    4    4    0    0 -0.19829380656E+02 -0.51874189029E+00 -0.44601832993E+01  0.20331420644E+02  0.00000000000E+00 0.  1.
</event>
<event>
 8    1  0.2402194E-006  0.9118800E+02  0.7816164E-02  0.1184000E+00
        -11   -1    0    0    0    0  0.00000000000E+00  0.00000000000E+00  0.45593999997E+02  0.45594000000E+02  0.51100000000E-03 0. -1.
         11   -1    0    0    0    0 -0.00000000000E+00 -0.00000000000E+00 -0.45593999997E+02  0.45594000000E+02  0.51100000000E-03 0.  1.
         23    2    1    2    0    0  0.00000000000E+00 -0.17763568394E-14  0.00000000000E+00  0.91188000000E+02  0.91188000000E+02 0.  0.
    9900012    2    3    3    0    0 -0.17814880829E+02  0.97411687524E+01 -0.30716768880E+02  0.54367078800E+02  0.39999987739E+02 0.  0.
         12    1    3    3    0    0  0.17814880829E+02 -0.97411687524E+01  0.30716768880E+02  0.36820921200E+02  0.00000000000E+00 0. -1.
         11    1    4    4    0    0 -0.14304030962E+00  0.19222116579E+01 -0.24618072601E+02  0.24693417281E+02  0.51100000000E-03 0. -1.
        -11    1    4    4    0    0 -0.55129794246E+01  0.94374958135E+01 -0.11854570773E+02  0.16124209061E+02  0.51100000000E-03 0.  1.
         12    1    4    4    0    0 -0.12158861095E+02 -0.16185387190E+01  0.57558744937E+01  0.13549452457E+02  0.00000000000E+00 0. -1.
</event>
<event>
 8    1  0.2402194E-006  0.9118800E+02  0.7816164E-02  0.1184000E+00
        -11   -1    0    0    0    0  0.00000000000E+00  0.00000000000E+00  0.45593999997E+02  0.45594000000E+02  0.51100000000E-03 0. -1.
         11   -1    0    0    0    0 -0.00000000000E+00 -0.00000000000E+00 -0.45593999997E+02  0.45594000000E+02  0.51100000000E-03 0.  1.
         23    2    1    2    0    0  0.00000000000E+00  0.00000000000E+00  0.00000000000E+00  0.91188000000E+02  0.91188000000E+02 0.  0.
    9900012    2    3    3    0    0 -0.16980279130E+02 -0.28226148673E+02  0.16453973924E+02  0.54367100960E+02  0.40000038259E+02 0.  0.
        -12    1    3    3    0    0  0.16980279130E+02  0.28226148673E+02 -0.16453973924E+02  0.36820899040E+02  0.00000000000E+00 0.  1.
         11    1    4    4    0    0 -0.11193964056E+02 -0.29949021076E+02  0.15455981355E+02  0.35512477449E+02  0.51100000000E-03 0. -1.
        -11    1    4    4    0    0 -0.99609567095E+00 -0.46908666910E+01 -0.63710545432E+01  0.79741314983E+01  0.51100000000E-03 0.  1.
         12    1    4    4    0    0 -0.47902194030E+01  0.64137390940E+01  0.73690471121E+01  0.10880492013E+02  0.00000000000E+00 0. -1.
</event>
<event>
 8    1  0.2402194E-006  0.9118800E+02  0.7816164E-02  0.1184000E+00
        -11   -1    0    0    0    0  0.00000000000E+00  0.00000000000E+00  0.45593999997E+02  0.45594000000E+02  0.51100000000E-03 0.  1.
         11   -1    0    0    0    0 -0.00000000000E+00 -0.00000000000E+00 -0.45593999997E+02  0.45594000000E+02  0.51100000000E-03 0. -1.
         23    2    1    2    0    0  0.00000000000E+00  0.17763568394E-14  0.00000000000E+00  0.91188000000E+02  0.91188000000E+02 0.  0.
    9900012    2    3    3    0    0  0.17998494007E+02 -0.12900012623E+02 -0.29418085824E+02  0.54367083583E+02  0.39999998645E+02 0.  0.
        -12    1    3    3    0    0 -0.17998494007E+02  0.12900012623E+02  0.29418085824E+02  0.36820916417E+02  0.00000000000E+00 0.  1.
         11    1    4    4    0    0  0.19996956121E+01  0.26330494176E+01 -0.11532118601E+02  0.11996728365E+02  0.51100000000E-03 0. -1.
        -11    1    4    4    0    0 -0.37956516640E+01  0.31680803806E+01  0.48272932412E+01  0.69098817030E+01  0.51100000000E-03 0.  1.
         12    1    4    4    0    0  0.19794450059E+02 -0.18701142422E+02 -0.22713260464E+02  0.35460473515E+02  0.00000000000E+00 0. -1.
</event>
<event>
 8    1  0.2402194E-006  0.9118800E+02  0.7816164E-02  0.1184000E+00
        -11   -1    0    0    0    0  0.00000000000E+00  0.00000000000E+00  0.45593999997E+02  0.45594000000E+02  0.51100000000E-03 0.  1.
         11   -1    0    0    0    0 -0.00000000000E+00 -0.00000000000E+00 -0.45593999997E+02  0.45594000000E+02  0.51100000000E-03 0. -1.
         23    2    1    2    0    0  0.00000000000E+00  0.00000000000E+00 -0.35527136788E-14  0.91188000000E+02  0.91188000000E+02 0.  0.
    9900012    2    3    3    0    0  0.95990622552E+01  0.19500326875E+02 -0.29721638252E+02  0.54367074906E+02  0.39999978863E+02 0.  0.
        -12    1    3    3    0    0 -0.95990622552E+01 -0.19500326875E+02  0.29721638252E+02  0.36820925094E+02  0.00000000000E+00 0.  1.
         11    1    4    4    0    0 -0.77082634517E+01  0.18849120235E+02 -0.25345740251E+02  0.32513277414E+02  0.51100000000E-03 0. -1.
        -11    1    4    4    0    0  0.76830468504E+01 -0.59318138612E+01 -0.26892967307E+01  0.10072136901E+02  0.51100000000E-03 0.  1.
         12    1    4    4    0    0  0.96242788564E+01  0.65830205010E+01 -0.16866012697E+01  0.11781660590E+02  0.00000000000E+00 0. -1.
</event>
<event>
 8    1  0.2402194E-006  0.9118800E+02  0.7816164E-02  0.1184000E+00
        -11   -1    0    0    0    0  0.00000000000E+00  0.00000000000E+00  0.45593999997E+02  0.45594000000E+02  0.51100000000E-03 0. -1.
         11   -1    0    0    0    0 -0.00000000000E+00 -0.00000000000E+00 -0.45593999997E+02  0.45594000000E+02  0.51100000000E-03 0.  1.
         23    2    1    2    0    0  0.88817841970E-15  0.00000000000E+00  0.00000000000E+00  0.91188000000E+02  0.91188000000E+02 0.  0.
    9900012    2    3    3    0    0  0.74762371694E+01  0.12807456994E+02  0.33702457503E+02  0.54367072274E+02  0.39999972862E+02 0.  0.
        -12    1    3    3    0    0 -0.74762371694E+01 -0.12807456994E+02 -0.33702457503E+02  0.36820927726E+02  0.00000000000E+00 0.  1.
         11    1    4    4    0    0  0.13825946918E+02  0.19768327925E+02  0.14580911324E+02  0.28187702504E+02  0.51100000000E-03 0. -1.
        -11    1    4    4    0    0 -0.36092597916E+01 -0.92417412193E+01  0.40912294133E+01  0.10731947418E+02  0.51100000000E-03 0.  1.
         12    1    4    4    0    0 -0.27404499575E+01  0.22808702882E+01  0.15030316766E+02  0.15447422352E+02  0.00000000000E+00 0. -1.
</event>
<event>
 8    1  0.2402194E-006  0.9118800E+02  0.7816164E-02  0.1184000E+00
        -11   -1    0    0    0    0  0.00000000000E+00  0.00000000000E+00  0.45593999997E+02  0.45594000000E+02  0.51100000000E-03 0.  1.
         11   -1    0    0    0    0 -0.00000000000E+00 -0.00000000000E+00 -0.45593999997E+02  0.45594000000E+02  0.51100000000E-03 0. -1.
         23    2    1    2    0    0  0.00000000000E+00  0.71054273576E-14 -0.13322676296E-14  0.91188000000E+02  0.91188000000E+02 0.  0.
    9900012    2    3    3    0    0 -0.17033701294E+02 -0.32506711547E+02 -0.29885019184E+01  0.54367293610E+02  0.40000477439E+02 0.  0.
         12    1    3    3    0    0  0.17033701294E+02  0.32506711547E+02  0.29885019184E+01  0.36820706390E+02  0.00000000000E+00 0. -1.
         11    1    4    4    0    0 -0.82715320395E+01  0.68922934454E+01  0.54995209776E+01  0.12089941375E+02  0.51100000000E-03 0. -1.
        -11    1    4    4    0    0 -0.85047745064E+01 -0.17743437980E+02 -0.27052204972E+01  0.19861495385E+02  0.51100000000E-03 0.  1.
         12    1    4    4    0    0 -0.25739474819E+00 -0.21655567012E+02 -0.57828023988E+01  0.22415856849E+02  0.00000000000E+00 0. -1.
</event>
<event>
 8    1  0.2402194E-006  0.9118800E+02  0.7816164E-02  0.1184000E+00
        -11   -1    0    0    0    0  0.00000000000E+00  0.00000000000E+00  0.45593999997E+02  0.45594000000E+02  0.51100000000E-03 0. -1.
         11   -1    0    0    0    0 -0.00000000000E+00 -0.00000000000E+00 -0.45593999997E+02  0.45594000000E+02  0.51100000000E-03 0.  1.
         23    2    1    2    0    0  0.00000000000E+00 -0.17763568394E-14  0.00000000000E+00  0.91188000000E+02  0.91188000000E+02 0.  0.
    9900012    2    3    3    0    0 -0.21928557131E+02 -0.13634496111E+02  0.26249166527E+02  0.54367084131E+02  0.39999999894E+02 0.  0.
        -12    1    3    3    0    0  0.21928557131E+02  0.13634496111E+02 -0.26249166527E+02  0.36820915869E+02  0.00000000000E+00 0.  1.
         11    1    4    4    0    0  0.50897131330E+01 -0.10934473596E+02  0.11863456927E+02  0.16917727481E+02  0.51100000000E-03 0. -1.
        -11    1    4    4    0    0 -0.11828139781E+02 -0.91099347122E+01 -0.91306615900E+00  0.14957589753E+02  0.51100000000E-03 0.  1.
         12    1    4    4    0    0 -0.15190130483E+02  0.64099121969E+01  0.15298775759E+02  0.22491766898E+02  0.00000000000E+00 0. -1.
</event>
<event>
 8    1  0.2402194E-006  0.9118800E+02  0.7816164E-02  0.1184000E+00
        -11   -1    0    0    0    0  0.00000000000E+00  0.00000000000E+00  0.45593999997E+02  0.45594000000E+02  0.51100000000E-03 0.  1.
         11   -1    0    0    0    0 -0.00000000000E+00 -0.00000000000E+00 -0.45593999997E+02  0.45594000000E+02  0.51100000000E-03 0. -1.
         23    2    1    2    0    0  0.17763568394E-14 -0.17763568394E-14  0.00000000000E+00  0.91188000000E+02  0.91188000000E+02 0.  0.
    9900012    2    3    3    0    0 -0.14447862306E+02  0.14465332589E+02 -0.30623408595E+02  0.54367085751E+02  0.40000003588E+02 0.  0.
        -12    1    3    3    0    0  0.14447862306E+02 -0.14465332589E+02  0.30623408595E+02  0.36820914249E+02  0.00000000000E+00 0.  1.
         11    1    4    4    0    0  0.87524496062E-01 -0.29413739084E+00 -0.92979761384E+01  0.93030391741E+01  0.51100000000E-03 0. -1.
        -11    1    4    4    0    0 -0.68918351936E+01 -0.44950461674E+01 -0.22855441474E+02  0.24291439595E+02  0.51100000000E-03 0.  1.
         12    1    4    4    0    0 -0.76435516089E+01  0.19254516147E+02  0.15300090172E+01  0.20772606982E+02  0.00000000000E+00 0. -1.
</event>
<event>
 8    1  0.2402194E-006  0.9118800E+02  0.7816164E-02  0.1184000E+00
        -11   -1    0    0    0    0  0.00000000000E+00  0.00000000000E+00  0.45593999997E+02  0.45594000000E+02  0.51100000000E-03 0.  1.
         11   -1    0    0    0    0 -0.00000000000E+00 -0.00000000000E+00 -0.45593999997E+02  0.45594000000E+02  0.51100000000E-03 0. -1.
         23    2    1    2    0    0  0.00000000000E+00  0.00000000000E+00  0.49960036108E-15  0.91188000000E+02  0.91188000000E+02 0.  0.
    9900012    2    3    3    0    0  0.17083804106E+02 -0.32614184957E+02  0.48725965878E+00  0.54367097715E+02  0.40000030861E+02 0.  0.
        -12    1    3    3    0    0 -0.17083804106E+02  0.32614184957E+02 -0.48725965878E+00  0.36820902285E+02  0.00000000000E+00 0.  1.
         11    1    4    4    0    0  0.24351193169E+02 -0.10233712297E+02 -0.43994535242E+01  0.26778063181E+02  0.51100000000E-03 0. -1.
        -11    1    4    4    0    0  0.53823291950E+00 -0.80776212278E+01  0.75605182228E+01  0.11076962374E+02  0.51100000000E-03 0.  1.
        -12    1    4    4    0    0 -0.78056219832E+01 -0.14302851432E+02 -0.26738050398E+01  0.16512072160E+02  0.00000000000E+00 0.  1.
</event>
<event>
 8    1  0.2402194E-006  0.9118800E+02  0.7816164E-02  0.1184000E+00
        -11   -1    0    0    0    0  0.00000000000E+00  0.00000000000E+00  0.45593999997E+02  0.45594000000E+02  0.51100000000E-03 0. -1.
         11   -1    0    0    0    0 -0.00000000000E+00 -0.00000000000E+00 -0.45593999997E+02  0.45594000000E+02  0.51100000000E-03 0.  1.
         23    2    1    2    0    0  0.35527136788E-14  0.35527136788E-14  0.35527136788E-14  0.91188000000E+02  0.91188000000E+02 0.  0.
    9900012    2    3    3    0    0  0.25504739730E+02  0.25981234144E+02  0.55013643052E+01  0.54367064575E+02  0.39999955312E+02 0.  0.
         12    1    3    3    0    0 -0.25504739730E+02 -0.25981234144E+02 -0.55013643052E+01  0.36820935425E+02  0.00000000000E+00 0. -1.
         11    1    4    4    0    0  0.18668096751E+01  0.88671265989E+01 -0.13610356054E+02  0.16350923664E+02  0.51100000000E-03 0. -1.
        -11    1    4    4    0    0  0.93047000113E+01  0.10324171604E+01  0.12229410336E+02  0.15401357242E+02  0.51100000000E-03 0.  1.
         12    1    4    4    0    0  0.14333230044E+02  0.16081690384E+02  0.68823100237E+01  0.22614783669E+02  0.00000000000E+00 0. -1.
</event>
<event>
 8    1  0.2402194E-006  0.9118800E+02  0.7816164E-02  0.1184000E+00
        -11   -1    0    0    0    0  0.00000000000E+00  0.00000000000E+00  0.45593999997E+02  0.45594000000E+02  0.51100000000E-03 0. -1.
         11   -1    0    0    0    0 -0.00000000000E+00 -0.00000000000E+00 -0.45593999997E+02  0.45594000000E+02  0.51100000000E-03 0.  1.
         23    2    1    2    0    0  0.00000000000E+00  0.00000000000E+00  0.00000000000E+00  0.91188000000E+02  0.91188000000E+02 0.  0.
    9900012    2    3    3    0    0  0.22503470091E+02  0.11032806825E+02  0.26975003745E+02  0.54367084482E+02  0.40000000693E+02 0.  0.
        -12    1    3    3    0    0 -0.22503470091E+02 -0.11032806825E+02 -0.26975003745E+02  0.36820915518E+02  0.00000000000E+00 0.  1.
         11    1    4    4    0    0  0.74526933937E+01  0.11236096514E+02  0.29702954871E+02  0.32619902391E+02  0.51100000000E-03 0. -1.
        -11    1    4    4    0    0  0.15353569516E+02 -0.46605456511E+01  0.78406808546E+00  0.16064480872E+02  0.51100000000E-03 0.  1.
         12    1    4    4    0    0 -0.30279281893E+00  0.44572559615E+01 -0.35120192114E+01  0.56827012185E+01  0.00000000000E+00 0. -1.
</event>
<event>
 8    1  0.2402194E-006  0.9118800E+02  0.7816164E-02  0.1184000E+00
        -11   -1    0    0    0    0  0.00000000000E+00  0.00000000000E+00  0.45593999997E+02  0.45594000000E+02  0.51100000000E-03 0. -1.
         11   -1    0    0    0    0 -0.00000000000E+00 -0.00000000000E+00 -0.45593999997E+02  0.45594000000E+02  0.51100000000E-03 0.  1.
         23    2    1    2    0    0  0.35527136788E-14  0.00000000000E+00  0.00000000000E+00  0.91188000000E+02  0.91188000000E+02 0.  0.
    9900012    2    3    3    0    0 -0.20251404322E+02 -0.26860514932E+02 -0.14972438416E+02  0.54367074543E+02  0.39999978035E+02 0.  0.
        -12    1    3    3    0    0  0.20251404322E+02  0.26860514932E+02  0.14972438416E+02  0.36820925457E+02  0.00000000000E+00 0.  1.
         11    1    4    4    0    0 -0.49472717305E+01 -0.11477603589E+02 -0.18031107616E+02  0.21939273549E+02  0.51100000000E-03 0.  1.
        -11    1    4    4    0    0 -0.21312079026E+02 -0.85108343211E+01  0.52482928231E+00  0.22954617385E+02  0.51100000000E-03 0. -1.
         12    1    4    4    0    0  0.60079464348E+01 -0.68720770214E+01  0.25338399182E+01  0.94731836086E+01  0.00000000000E+00 0. -1.
</event>
<event>
 8    1  0.2402194E-006  0.9118800E+02  0.7816164E-02  0.1184000E+00
        -11   -1    0    0    0    0  0.00000000000E+00  0.00000000000E+00  0.45593999997E+02  0.45594000000E+02  0.51100000000E-03 0.  1.
         11   -1    0    0    0    0 -0.00000000000E+00 -0.00000000000E+00 -0.45593999997E+02  0.45594000000E+02  0.51100000000E-03 0. -1.
         23    2    1    2    0    0  0.17763568394E-14  0.35527136788E-14  0.00000000000E+00  0.91188000000E+02  0.91188000000E+02 0.  0.
    9900012    2    3    3    0    0  0.14490961416E+02  0.26522993558E+02 -0.21031495960E+02  0.54367068828E+02  0.39999965007E+02 0.  0.
        -12    1    3    3    0    0 -0.14490961416E+02 -0.26522993558E+02  0.21031495960E+02  0.36820931172E+02  0.00000000000E+00 0.  1.
         11    1    4    4    0    0  0.10836115572E+02  0.21307250498E+02 -0.16438003650E+02  0.29010830542E+02  0.51100000000E-03 0.  1.
        -11    1    4    4    0    0 -0.19741693199E+01 -0.52406938987E+01 -0.10644783060E+02  0.12028034906E+02  0.51100000000E-03 0. -1.
        -12    1    4    4    0    0  0.56290151644E+01  0.10456436959E+02  0.60512907499E+01  0.13328203380E+02  0.00000000000E+00 0.  1.
</event>
<event>
 8    1  0.2402194E-006  0.9118800E+02  0.7816164E-02  0.1184000E+00
        -11   -1    0    0    0    0  0.00000000000E+00  0.00000000000E+00  0.45593999997E+02  0.45594000000E+02  0.51100000000E-03 0. -1.
         11   -1    0    0    0    0 -0.00000000000E+00 -0.00000000000E+00 -0.45593999997E+02  0.45594000000E+02  0.51100000000E-03 0.  1.
         23    2    1    2    0    0  0.00000000000E+00 -0.35527136788E-14  0.26645352591E-14  0.91188000000E+02  0.91188000000E+02 0.  0.
    9900012    2    3    3    0    0 -0.28217684483E+02  0.23258947224E+02 -0.43085072345E+01  0.54367087760E+02  0.40000008167E+02 0.  0.
        -12    1    3    3    0    0  0.28217684483E+02 -0.23258947224E+02  0.43085072345E+01  0.36820912240E+02  0.00000000000E+00 0.  1.
         11    1    4    4    0    0 -0.24459389855E+02  0.11432136197E+02 -0.17892553145E+02  0.32389796980E+02  0.51100000000E-03 0. -1.
        -11    1    4    4    0    0  0.41247956166E+01  0.60763117996E+01  0.43092062471E+01  0.85149728541E+01  0.51100000000E-03 0.  1.
         12    1    4    4    0    0 -0.78830902446E+01  0.57504992283E+01  0.92748396632E+01  0.13462317927E+02  0.00000000000E+00 0. -1.
</event>
<event>
 8    1  0.2402194E-006  0.9118800E+02  0.7816164E-02  0.1184000E+00
        -11   -1    0    0    0    0  0.00000000000E+00  0.00000000000E+00  0.45593999997E+02  0.45594000000E+02  0.51100000000E-03 0.  1.
         11   -1    0    0    0    0 -0.00000000000E+00 -0.00000000000E+00 -0.45593999997E+02  0.45594000000E+02  0.51100000000E-03 0. -1.
         23    2    1    2    0    0 -0.88817841970E-15  0.00000000000E+00  0.88817841970E-15  0.91188000000E+02  0.91188000000E+02 0.  0.
    9900012    2    3    3    0    0 -0.23707699636E+01  0.36428405797E+02  0.48094627102E+01  0.54367078900E+02  0.39999987968E+02 0.  0.
        -12    1    3    3    0    0  0.23707699636E+01 -0.36428405797E+02 -0.48094627102E+01  0.36820921100E+02  0.00000000000E+00 0.  1.
         11    1    4    4    0    0 -0.84071427026E+01  0.21204146718E+01  0.80851246939E+01  0.11855186560E+02  0.51100000000E-03 0. -1.
        -11    1    4    4    0    0  0.52726844529E+01 -0.12735520522E+01 -0.42776234739E+01  0.69080532001E+01  0.51100000000E-03 0.  1.
         12    1    4    4    0    0  0.76368828607E+00  0.35581543177E+02  0.10019614901E+01  0.35603839140E+02  0.00000000000E+00 0. -1.
</event>
<event>
 8    1  0.2402194E-006  0.9118800E+02  0.7816164E-02  0.1184000E+00
        -11   -1    0    0    0    0  0.00000000000E+00  0.00000000000E+00  0.45593999997E+02  0.45594000000E+02  0.51100000000E-03 0.  1.
         11   -1    0    0    0    0 -0.00000000000E+00 -0.00000000000E+00 -0.45593999997E+02  0.45594000000E+02  0.51100000000E-03 0. -1.
         23    2    1    2    0    0  0.00000000000E+00  0.00000000000E+00  0.00000000000E+00  0.91188000000E+02  0.91188000000E+02 0.  0.
    9900012    2    3    3    0    0  0.15083724359E+02 -0.69220313185E+01  0.32868876513E+02  0.54366860673E+02  0.39999490472E+02 0.  0.
         12    1    3    3    0    0 -0.15083724359E+02  0.69220313185E+01 -0.32868876513E+02  0.36821139327E+02  0.00000000000E+00 0. -1.
         11    1    4    4    0    0 -0.83940886151E+01 -0.31646258940E+01 -0.29459523075E+01  0.94421510254E+01  0.51100000000E-03 0. -1.
        -11    1    4    4    0    0  0.10484545582E+02 -0.11774944792E+01  0.27065624318E+02  0.29049272096E+02  0.51100000000E-03 0.  1.
         12    1    4    4    0    0  0.12993267393E+02 -0.25799109453E+01  0.87492045023E+01  0.15875437551E+02  0.00000000000E+00 0. -1.
</event>
<event>
 8    1  0.2402194E-006  0.9118800E+02  0.7816164E-02  0.1184000E+00
        -11   -1    0    0    0    0  0.00000000000E+00  0.00000000000E+00  0.45593999997E+02  0.45594000000E+02  0.51100000000E-03 0. -1.
         11   -1    0    0    0    0 -0.00000000000E+00 -0.00000000000E+00 -0.45593999997E+02  0.45594000000E+02  0.51100000000E-03 0.  1.
         23    2    1    2    0    0  0.00000000000E+00 -0.17763568394E-14  0.00000000000E+00  0.91188000000E+02  0.91188000000E+02 0.  0.
    9900012    2    3    3    0    0  0.14356824731E+02 -0.57359904487E+01  0.33417948266E+02  0.54367091957E+02  0.40000017735E+02 0.  0.
        -12    1    3    3    0    0 -0.14356824731E+02  0.57359904487E+01 -0.33417948266E+02  0.36820908043E+02  0.00000000000E+00 0.  1.
         11    1    4    4    0    0 -0.19781076166E+01  0.13636175619E+02  0.17218004409E+02  0.22052615975E+02  0.51100000000E-03 0. -1.
        -11    1    4    4    0    0  0.10104466113E+02 -0.19150394584E+02  0.13530709219E+02  0.25532683767E+02  0.51100000000E-03 0.  1.
        -12    1    4    4    0    0  0.62304662348E+01 -0.22177148446E+00  0.26692346379E+01  0.67817922149E+01  0.00000000000E+00 0.  1.
</event>
<event>
 8    1  0.2402194E-006  0.9118800E+02  0.7816164E-02  0.1184000E+00
        -11   -1    0    0    0    0  0.00000000000E+00  0.00000000000E+00  0.45593999997E+02  0.45594000000E+02  0.51100000000E-03 0.  1.
         11   -1    0    0    0    0 -0.00000000000E+00 -0.00000000000E+00 -0.45593999997E+02  0.45594000000E+02  0.51100000000E-03 0. -1.
         23    2    1    2    0    0  0.00000000000E+00  0.00000000000E+00  0.17763568394E-14  0.91188000000E+02  0.91188000000E+02 0.  0.
    9900012    2    3    3    0    0  0.33334136590E+02 -0.80546395069E+01  0.13406632700E+02  0.54367086375E+02  0.40000005010E+02 0.  0.
         12    1    3    3    0    0 -0.33334136590E+02  0.80546395069E+01 -0.13406632700E+02  0.36820913625E+02  0.00000000000E+00 0. -1.
         11    1    4    4    0    0  0.11795465545E+01  0.19513932601E+01 -0.57809781931E+01  0.62144166950E+01  0.51100000000E-03 0. -1.
        -11    1    4    4    0    0  0.32042141283E+02 -0.47306931379E+01  0.46932439195E+01  0.32727737690E+02  0.51100000000E-03 0.  1.
         12    1    4    4    0    0  0.11244875232E+00 -0.52753396291E+01  0.14494366974E+02  0.15424931990E+02  0.00000000000E+00 0. -1.
</event>
<event>
 8    1  0.2402194E-006  0.9118800E+02  0.7816164E-02  0.1184000E+00
        -11   -1    0    0    0    0  0.00000000000E+00  0.00000000000E+00  0.45593999997E+02  0.45594000000E+02  0.51100000000E-03 0. -1.
         11   -1    0    0    0    0 -0.00000000000E+00 -0.00000000000E+00 -0.45593999997E+02  0.45594000000E+02  0.51100000000E-03 0.  1.
         23    2    1    2    0    0  0.00000000000E+00  0.00000000000E+00  0.00000000000E+00  0.91188000000E+02  0.91188000000E+02 0.  0.
    9900012    2    3    3    0    0 -0.24195614899E+02  0.12403834005E+02 -0.24829655829E+02  0.54366882595E+02  0.39999540449E+02 0.  0.
         12    1    3    3    0    0  0.24195614899E+02 -0.12403834005E+02  0.24829655829E+02  0.36821117405E+02  0.00000000000E+00 0. -1.
         11    1    4    4    0    0  0.95946898946E+00 -0.28494444672E+01  0.18975095323E+01  0.35553420651E+01  0.51100000000E-03 0. -1.
        -11    1    4    4    0    0 -0.16354833237E+02  0.10980291217E+02 -0.33535259375E+02  0.38892942638E+02  0.51100000000E-03 0.  1.
        -12    1    4    4    0    0 -0.88002506511E+01  0.42729872554E+01  0.68080940135E+01  0.11918597892E+02  0.00000000000E+00 0.  1.
</event>
<event>
 8    1  0.2402194E-006  0.9118800E+02  0.7816164E-02  0.1184000E+00
        -11   -1    0    0    0    0  0.00000000000E+00  0.00000000000E+00  0.45593999997E+02  0.45594000000E+02  0.51100000000E-03 0.  1.
         11   -1    0    0    0    0 -0.00000000000E+00 -0.00000000000E+00 -0.45593999997E+02  0.45594000000E+02  0.51100000000E-03 0. -1.
         23    2    1    2    0    0 -0.17763568394E-14  0.00000000000E+00  0.35527136788E-14  0.91188000000E+02  0.91188000000E+02 0.  0.
    9900012    2    3    3    0    0  0.13987731419E+02 -0.27038035497E+02  0.20713953416E+02  0.54367083935E+02  0.39999999446E+02 0.  0.
        -12    1    3    3    0    0 -0.13987731419E+02  0.27038035497E+02 -0.20713953416E+02  0.36820916065E+02  0.00000000000E+00 0.  1.
         11    1    4    4    0    0 -0.99170285097E+01 -0.94251103419E+01  0.26887294536E+01  0.13943078059E+02  0.51100000000E-03 0. -1.
        -11    1    4    4    0    0  0.18085581460E+02 -0.20869327801E+02  0.19225176667E+02  0.33648544066E+02  0.51100000000E-03 0.  1.
         12    1    4    4    0    0  0.58191784687E+01  0.32564026463E+01 -0.11999527043E+01  0.67754618099E+01  0.00000000000E+00 0. -1.
</event>
<event>
 8    1  0.2402194E-006  0.9118800E+02  0.7816164E-02  0.1184000E+00
        -11   -1    0    0    0    0  0.00000000000E+00  0.00000000000E+00  0.45593999997E+02  0.45594000000E+02  0.51100000000E-03 0.  1.
         11   -1    0    0    0    0 -0.00000000000E+00 -0.00000000000E+00 -0.45593999997E+02  0.45594000000E+02  0.51100000000E-03 0. -1.
         23    2    1    2    0    0  0.35527136788E-14  0.00000000000E+00 -0.71054273576E-14  0.91188000000E+02  0.91188000000E+02 0.  0.
    9900012    2    3    3    0    0 -0.17705820880E+02 -0.25002050803E+02  0.20424977307E+02  0.54367104636E+02  0.40000046639E+02 0.  0.
         12    1    3    3    0    0  0.17705820880E+02  0.25002050803E+02 -0.20424977307E+02  0.36820895364E+02  0.00000000000E+00 0. -1.
         11    1    4    4    0    0  0.21821090803E+01 -0.16733065176E+02  0.59339027597E+01  0.17887656985E+02  0.51100000000E-03 0. -1.
        -11    1    4    4    0    0 -0.74905812083E+01 -0.37746591928E+01 -0.72266974557E+01  0.11071676261E+02  0.51100000000E-03 0.  1.
        -12    1    4    4    0    0 -0.12397348752E+02 -0.44943264350E+01  0.21717772003E+02  0.25407771389E+02  0.00000000000E+00 0.  1.
</event>
<event>
 8    1  0.2402194E-006  0.9118800E+02  0.7816164E-02  0.1184000E+00
        -11   -1    0    0    0    0  0.00000000000E+00  0.00000000000E+00  0.45593999997E+02  0.45594000000E+02  0.51100000000E-03 0.  1.
         11   -1    0    0    0    0 -0.00000000000E+00 -0.00000000000E+00 -0.45593999997E+02  0.45594000000E+02  0.51100000000E-03 0. -1.
         23    2    1    2    0    0  0.00000000000E+00  0.00000000000E+00  0.17763568394E-14  0.91188000000E+02  0.91188000000E+02 0.  0.
    9900012    2    3    3    0    0 -0.20252083370E+01 -0.34130425256E+02 -0.13667214400E+02  0.54367080043E+02  0.39999990575E+02 0.  0.
        -12    1    3    3    0    0  0.20252083370E+01  0.34130425256E+02  0.13667214400E+02  0.36820919957E+02  0.00000000000E+00 0.  1.
         11    1    4    4    0    0 -0.98062991035E+01 -0.28620488371E+02 -0.13691604403E+02  0.33207768490E+02  0.51100000000E-03 0. -1.
        -11    1    4    4    0    0  0.80436001949E+01 -0.75539594467E+00 -0.82914531590E+01  0.11576628303E+02  0.51100000000E-03 0.  1.
         12    1    4    4    0    0 -0.26250942844E+00 -0.47545409407E+01  0.83158431626E+01  0.95826832496E+01  0.00000000000E+00 0. -1.
</event>
<event>
 8    1  0.2402194E-006  0.9118800E+02  0.7816164E-02  0.1184000E+00
        -11   -1    0    0    0    0  0.00000000000E+00  0.00000000000E+00  0.45593999997E+02  0.45594000000E+02  0.51100000000E-03 0.  1.
         11   -1    0    0    0    0 -0.00000000000E+00 -0.00000000000E+00 -0.45593999997E+02  0.45594000000E+02  0.51100000000E-03 0. -1.
         23    2    1    2    0    0  0.00000000000E+00  0.00000000000E+00  0.35527136788E-14  0.91188000000E+02  0.91188000000E+02 0.  0.
    9900012    2    3    3    0    0 -0.21748829641E+02  0.14061630413E+02  0.26173247861E+02  0.54367082790E+02  0.39999996835E+02 0.  0.
         12    1    3    3    0    0  0.21748829641E+02 -0.14061630413E+02 -0.26173247861E+02  0.36820917210E+02  0.00000000000E+00 0. -1.
         11    1    4    4    0    0 -0.16851676238E+02  0.70250326807E+01  0.19880842267E+02  0.26992183419E+02  0.51100000000E-03 0. -1.
        -11    1    4    4    0    0 -0.14695978002E+02  0.37943680101E+00  0.46286635000E+01  0.15412341411E+02  0.51100000000E-03 0.  1.
         12    1    4    4    0    0  0.97988245987E+01  0.66571609317E+01  0.16637420935E+01  0.11962557960E+02  0.00000000000E+00 0. -1.
</event>
<event>
 8    1  0.2402194E-006  0.9118800E+02  0.7816164E-02  0.1184000E+00
        -11   -1    0    0    0    0  0.00000000000E+00  0.00000000000E+00  0.45593999997E+02  0.45594000000E+02  0.51100000000E-03 0.  1.
         11   -1    0    0    0    0 -0.00000000000E+00 -0.00000000000E+00 -0.45593999997E+02  0.45594000000E+02  0.51100000000E-03 0. -1.
         23    2    1    2    0    0 -0.35527136788E-14  0.00000000000E+00  0.00000000000E+00  0.91188000000E+02  0.91188000000E+02 0.  0.
    9900012    2    3    3    0    0  0.31552896844E+02 -0.82448003697E+01 -0.17094364802E+02  0.54367090990E+02  0.40000015529E+02 0.  0.
         12    1    3    3    0    0 -0.31552896844E+02  0.82448003697E+01  0.17094364802E+02  0.36820909010E+02  0.00000000000E+00 0. -1.
         11    1    4    4    0    0  0.15219705513E+02  0.76881992109E+01 -0.11319542048E+01  0.17088860804E+02  0.51100000000E-03 0. -1.
        -11    1    4    4    0    0  0.89813393877E+01  0.16012568411E+01 -0.15822957674E+02  0.18264568719E+02  0.51100000000E-03 0.  1.
         12    1    4    4    0    0  0.73518519430E+01 -0.17534256422E+02 -0.13945292311E+00  0.19013661467E+02  0.00000000000E+00 0. -1.
</event>
<event>
 8    1  0.2402194E-006  0.9118800E+02  0.7816164E-02  0.1184000E+00
        -11   -1    0    0    0    0  0.00000000000E+00  0.00000000000E+00  0.45593999997E+02  0.45594000000E+02  0.51100000000E-03 0.  1.
         11   -1    0    0    0    0 -0.00000000000E+00 -0.00000000000E+00 -0.45593999997E+02  0.45594000000E+02  0.51100000000E-03 0. -1.
         23    2    1    2    0    0 -0.71054273576E-14  0.00000000000E+00  0.00000000000E+00  0.91188000000E+02  0.91188000000E+02 0.  0.
    9900012    2    3    3    0    0  0.35083032766E+02 -0.17940971219E+01  0.11033656208E+02  0.54367088253E+02  0.40000009291E+02 0.  0.
         12    1    3    3    0    0 -0.35083032766E+02  0.17940971219E+01 -0.11033656208E+02  0.36820911747E+02  0.00000000000E+00 0. -1.
         11    1    4    4    0    0 -0.49013966687E+01 -0.33422159764E+01  0.48594830575E+01  0.76686812937E+01  0.51100000000E-03 0. -1.
        -11    1    4    4    0    0  0.37427755411E+02 -0.63460280474E+01  0.56950184022E+01  0.38386744873E+02  0.51100000000E-03 0.  1.
        -12    1    4    4    0    0  0.25566740243E+01  0.78941469020E+01  0.47915474776E+00  0.83116620870E+01  0.00000000000E+00 0.  1.
</event>
<event>
 8    1  0.2402194E-006  0.9118800E+02  0.7816164E-02  0.1184000E+00
        -11   -1    0    0    0    0  0.00000000000E+00  0.00000000000E+00  0.45593999997E+02  0.45594000000E+02  0.51100000000E-03 0. -1.
         11   -1    0    0    0    0 -0.00000000000E+00 -0.00000000000E+00 -0.45593999997E+02  0.45594000000E+02  0.51100000000E-03 0.  1.
         23    2    1    2    0    0  0.35527136788E-14  0.17763568394E-14  0.35527136788E-14  0.91188000000E+02  0.91188000000E+02 0.  0.
    9900012    2    3    3    0    0 -0.22325111814E+02  0.11313461609E+02 -0.27006924418E+02  0.54367095644E+02  0.40000026140E+02 0.  0.
         12    1    3    3    0    0  0.22325111814E+02 -0.11313461609E+02  0.27006924418E+02  0.36820904356E+02  0.00000000000E+00 0. -1.
         11    1    4    4    0    0 -0.19743247032E+02 -0.12600195460E+01 -0.60404908602E+01  0.20685042487E+02  0.51100000000E-03 0. -1.
        -11    1    4    4    0    0  0.88760529130E+01  0.11784804432E+02 -0.10169669772E+02  0.17918931730E+02  0.51100000000E-03 0.  1.
        -12    1    4    4    0    0 -0.11457917695E+02  0.78867672304E+00 -0.10796763785E+02  0.15763121427E+02  0.00000000000E+00 0.  1.
</event>
<event>
 8    1  0.2402194E-006  0.9118800E+02  0.7816164E-02  0.1184000E+00
        -11   -1    0    0    0    0  0.00000000000E+00  0.00000000000E+00  0.45593999997E+02  0.45594000000E+02  0.51100000000E-03 0.  1.
         11   -1    0    0    0    0 -0.00000000000E+00 -0.00000000000E+00 -0.45593999997E+02  0.45594000000E+02  0.51100000000E-03 0. -1.
         23    2    1    2    0    0 -0.71054273576E-14  0.00000000000E+00  0.00000000000E+00  0.91188000000E+02  0.91188000000E+02 0.  0.
    9900012    2    3    3    0    0  0.33764169732E+02 -0.10612311372E+02  0.10155730506E+02  0.54367093269E+02  0.40000020726E+02 0.  0.
         12    1    3    3    0    0 -0.33764169732E+02  0.10612311372E+02 -0.10155730506E+02  0.36820906731E+02  0.00000000000E+00 0. -1.
         11    1    4    4    0    0  0.16822079422E+02  0.22765389313E+00  0.46334334658E+01  0.17450011126E+02  0.51100000000E-03 0.  1.
        -11    1    4    4    0    0  0.96452394800E+01  0.97954202957E+01  0.60588350079E+01  0.15022995218E+02  0.51100000000E-03 0. -1.
        -12    1    4    4    0    0  0.72968508301E+01 -0.20635385561E+02 -0.53653796756E+00  0.21894086925E+02  0.00000000000E+00 0.  1.
</event>
<event>
 8    1  0.2402194E-006  0.9118800E+02  0.7816164E-02  0.1184000E+00
        -11   -1    0    0    0    0  0.00000000000E+00  0.00000000000E+00  0.45593999997E+02  0.45594000000E+02  0.51100000000E-03 0.  1.
         11   -1    0    0    0    0 -0.00000000000E+00 -0.00000000000E+00 -0.45593999997E+02  0.45594000000E+02  0.51100000000E-03 0. -1.
         23    2    1    2    0    0  0.00000000000E+00  0.35527136788E-14  0.17763568394E-14  0.91188000000E+02  0.91188000000E+02 0.  0.
    9900012    2    3    3    0    0  0.27761980571E+02  0.22220091458E+02  0.95561328853E+01  0.54367086033E+02  0.40000004230E+02 0.  0.
         12    1    3    3    0    0 -0.27761980571E+02 -0.22220091458E+02 -0.95561328853E+01  0.36820913967E+02  0.00000000000E+00 0. -1.
         11    1    4    4    0    0  0.17889052339E+01  0.51901718577E+01 -0.99993519452E+01  0.11407239168E+02  0.51100000000E-03 0. -1.
        -11    1    4    4    0    0  0.70006448794E+00 -0.47789542327E+01  0.31322702495E+01  0.57567014012E+01  0.51100000000E-03 0.  1.
        -12    1    4    4    0    0  0.25273010849E+02  0.21808873833E+02  0.16423214581E+02  0.37203145464E+02  0.00000000000E+00 0.  1.
</event>
<event>
 8    1  0.2402194E-006  0.9118800E+02  0.7816164E-02  0.1184000E+00
        -11   -1    0    0    0    0  0.00000000000E+00  0.00000000000E+00  0.45593999997E+02  0.45594000000E+02  0.51100000000E-03 0.  1.
         11   -1    0    0    0    0 -0.00000000000E+00 -0.00000000000E+00 -0.45593999997E+02  0.45594000000E+02  0.51100000000E-03 0. -1.
         23    2    1    2    0    0  0.00000000000E+00  0.00000000000E+00  0.00000000000E+00  0.91188000000E+02  0.91188000000E+02 0.  0.
    9900012    2    3    3    0    0 -0.82393726146E+01  0.17136653451E+02 -0.31531406597E+02  0.54367058206E+02  0.39999940792E+02 0.  0.
        -12    1    3    3    0    0  0.82393726146E+01 -0.17136653451E+02  0.31531406597E+02  0.36820941794E+02  0.00000000000E+00 0.  1.
         11    1    4    4    0    0 -0.10731591375E+02  0.43954860814E+01 -0.23161231410E+02  0.25902316345E+02  0.51100000000E-03 0. -1.
        -11    1    4    4    0    0 -0.78165216186E+01  0.72658746440E+01 -0.12172678847E+02  0.16188423492E+02  0.51100000000E-03 0.  1.
        -12    1    4    4    0    0  0.10308740379E+02  0.54752927256E+01  0.38025036599E+01  0.12276318370E+02  0.00000000000E+00 0.  1.
</event>
<event>
 8    1  0.2402194E-006  0.9118800E+02  0.7816164E-02  0.1184000E+00
        -11   -1    0    0    0    0  0.00000000000E+00  0.00000000000E+00  0.45593999997E+02  0.45594000000E+02  0.51100000000E-03 0.  1.
         11   -1    0    0    0    0 -0.00000000000E+00 -0.00000000000E+00 -0.45593999997E+02  0.45594000000E+02  0.51100000000E-03 0. -1.
         23    2    1    2    0    0  0.22204460493E-15  0.00000000000E+00 -0.88817841970E-15  0.91188000000E+02  0.91188000000E+02 0.  0.
    9900012    2    3    3    0    0 -0.40561734663E+00 -0.36557274964E+02  0.43797086863E+01  0.54367072168E+02  0.39999972622E+02 0.  0.
        -12    1    3    3    0    0  0.40561734663E+00  0.36557274964E+02 -0.43797086863E+01  0.36820927832E+02  0.00000000000E+00 0.  1.
         11    1    4    4    0    0 -0.14007198717E+02 -0.24661280921E+02  0.12008654305E+02  0.30799158609E+02  0.51100000000E-03 0. -1.
        -11    1    4    4    0    0  0.15132398549E+02 -0.11976819870E+02 -0.91944155586E+01  0.21376879515E+02  0.51100000000E-03 0.  1.
         12    1    4    4    0    0 -0.15308171793E+01  0.80825827538E-01  0.15654699404E+01  0.21910340447E+01  0.00000000000E+00 0. -1.
</event>
<event>
 8    1  0.2402194E-006  0.9118800E+02  0.7816164E-02  0.1184000E+00
        -11   -1    0    0    0    0  0.00000000000E+00  0.00000000000E+00  0.45593999997E+02  0.45594000000E+02  0.51100000000E-03 0. -1.
         11   -1    0    0    0    0 -0.00000000000E+00 -0.00000000000E+00 -0.45593999997E+02  0.45594000000E+02  0.51100000000E-03 0.  1.
         23    2    1    2    0    0  0.00000000000E+00 -0.35527136788E-14 -0.35527136788E-14  0.91188000000E+02  0.91188000000E+02 0.  0.
    9900012    2    3    3    0    0  0.19719939003E+02  0.24609809289E+02  0.19006871242E+02  0.54367083907E+02  0.39999999383E+02 0.  0.
        -12    1    3    3    0    0 -0.19719939003E+02 -0.24609809289E+02 -0.19006871242E+02  0.36820916093E+02  0.00000000000E+00 0.  1.
         11    1    4    4    0    0  0.86728719225E+01  0.18640228752E+02  0.14824064047E+00  0.20559640339E+02  0.51100000000E-03 0. -1.
        -11    1    4    4    0    0  0.90953770310E+01  0.45002912045E+01 -0.39344221721E+01  0.10883849611E+02  0.51100000000E-03 0.  1.
         12    1    4    4    0    0  0.19516900491E+01  0.14692893328E+01  0.22793052773E+02  0.22923593957E+02  0.00000000000E+00 0. -1.
</event>
<event>
 8    1  0.2402194E-006  0.9118800E+02  0.7816164E-02  0.1184000E+00
        -11   -1    0    0    0    0  0.00000000000E+00  0.00000000000E+00  0.45593999997E+02  0.45594000000E+02  0.51100000000E-03 0.  1.
         11   -1    0    0    0    0 -0.00000000000E+00 -0.00000000000E+00 -0.45593999997E+02  0.45594000000E+02  0.51100000000E-03 0. -1.
         23    2    1    2    0    0 -0.88817841970E-15 -0.71054273576E-14  0.17763568394E-14  0.91188000000E+02  0.91188000000E+02 0.  0.
    9900012    2    3    3    0    0  0.26910002100E+01 -0.33077243691E+02  0.15950970895E+02  0.54367095546E+02  0.40000025916E+02 0.  0.
         12    1    3    3    0    0 -0.26910002100E+01  0.33077243691E+02 -0.15950970895E+02  0.36820904454E+02  0.00000000000E+00 0. -1.
         11    1    4    4    0    0  0.25777989519E+01  0.47212112079E+01  0.57502057876E+01  0.78739919715E+01  0.51100000000E-03 0. -1.
        -11    1    4    4    0    0 -0.67464230311E+01 -0.11967265776E+02  0.13862881523E+02  0.19516894175E+02  0.51100000000E-03 0.  1.
        -12    1    4    4    0    0  0.68596242891E+01 -0.25831189124E+02 -0.36621164156E+01  0.26976209400E+02  0.00000000000E+00 0.  1.
</event>
<event>
 8    1  0.2402194E-006  0.9118800E+02  0.7816164E-02  0.1184000E+00
        -11   -1    0    0    0    0  0.00000000000E+00  0.00000000000E+00  0.45593999997E+02  0.45594000000E+02  0.51100000000E-03 0.  1.
         11   -1    0    0    0    0 -0.00000000000E+00 -0.00000000000E+00 -0.45593999997E+02  0.45594000000E+02  0.51100000000E-03 0. -1.
         23    2    1    2    0    0  0.00000000000E+00  0.17763568394E-14 -0.35527136788E-14  0.91188000000E+02  0.91188000000E+02 0.  0.
    9900012    2    3    3    0    0 -0.11206200968E+02  0.14949916124E+02 -0.31728561128E+02  0.54367074923E+02  0.39999978902E+02 0.  0.
        -12    1    3    3    0    0  0.11206200968E+02 -0.14949916124E+02  0.31728561128E+02  0.36820925077E+02  0.00000000000E+00 0.  1.
         11    1    4    4    0    0 -0.67410275628E+01  0.93503403183E+01 -0.30637377989E+02  0.32734068597E+02  0.51100000000E-03 0. -1.
        -11    1    4    4    0    0  0.45494271728E+01  0.80808499150E+01  0.49395068934E+01  0.10506957293E+02  0.51100000000E-03 0.  1.
        -12    1    4    4    0    0 -0.90146005784E+01 -0.24812741090E+01 -0.60306900331E+01  0.11126049032E+02  0.00000000000E+00 0.  1.
</event>
<event>
 8    1  0.2402194E-006  0.9118800E+02  0.7816164E-02  0.1184000E+00
        -11   -1    0    0    0    0  0.00000000000E+00  0.00000000000E+00  0.45593999997E+02  0.45594000000E+02  0.51100000000E-03 0.  1.
         11   -1    0    0    0    0 -0.00000000000E+00 -0.00000000000E+00 -0.45593999997E+02  0.45594000000E+02  0.51100000000E-03 0. -1.
         23    2    1    2    0    0 -0.17763568394E-14  0.71054273576E-14  0.00000000000E+00  0.91188000000E+02  0.91188000000E+02 0.  0.
    9900012    2    3    3    0    0  0.88043716412E+01  0.34116324555E+02 -0.10692892615E+02  0.54367102216E+02  0.40000041123E+02 0.  0.
        -12    1    3    3    0    0 -0.88043716412E+01 -0.34116324555E+02  0.10692892615E+02  0.36820897784E+02  0.00000000000E+00 0.  1.
         11    1    4    4    0    0 -0.98026395268E+00  0.13980310858E+02  0.25492703296E+01  0.14244605595E+02  0.51100000000E-03 0. -1.
        -11    1    4    4    0    0 -0.99331759767E+01  0.65386007205E+01 -0.10769061416E+02  0.16043502374E+02  0.51100000000E-03 0.  1.
         12    1    4    4    0    0  0.19717811571E+02  0.13597412976E+02 -0.24731015278E+01  0.24078994247E+02  0.00000000000E+00 0. -1.
</event>
<event>
 8    1  0.2402194E-006  0.9118800E+02  0.7816164E-02  0.1184000E+00
        -11   -1    0    0    0    0  0.00000000000E+00  0.00000000000E+00  0.45593999997E+02  0.45594000000E+02  0.51100000000E-03 0.  1.
         11   -1    0    0    0    0 -0.00000000000E+00 -0.00000000000E+00 -0.45593999997E+02  0.45594000000E+02  0.51100000000E-03 0. -1.
         23    2    1    2    0    0  0.00000000000E+00  0.00000000000E+00  0.00000000000E+00  0.91188000000E+02  0.91188000000E+02 0.  0.
    9900012    2    3    3    0    0 -0.17485257872E+02  0.20412369407E+02  0.25166688679E+02  0.54367336145E+02  0.40000574406E+02 0.  0.
         12    1    3    3    0    0  0.17485257872E+02 -0.20412369407E+02 -0.25166688679E+02  0.36820663855E+02  0.00000000000E+00 0. -1.
         11    1    4    4    0    0 -0.14809123404E+02  0.18780328009E+02  0.47325082252E+01  0.24380473550E+02  0.51100000000E-03 0. -1.
        -11    1    4    4    0    0 -0.25281049973E+01  0.82372121228E+01  0.11143157637E+00  0.86171570538E+01  0.51100000000E-03 0.  1.
        -12    1    4    4    0    0 -0.14802947013E+00 -0.66051707247E+01  0.20322748877E+02  0.21369705542E+02  0.00000000000E+00 0.  1.
</event>
<event>
 8    1  0.2402194E-006  0.9118800E+02  0.7816164E-02  0.1184000E+00
        -11   -1    0    0    0    0  0.00000000000E+00  0.00000000000E+00  0.45593999997E+02  0.45594000000E+02  0.51100000000E-03 0.  1.
         11   -1    0    0    0    0 -0.00000000000E+00 -0.00000000000E+00 -0.45593999997E+02  0.45594000000E+02  0.51100000000E-03 0. -1.
         23    2    1    2    0    0 -0.17763568394E-14  0.00000000000E+00  0.00000000000E+00  0.91188000000E+02  0.91188000000E+02 0.  0.
    9900012    2    3    3    0    0 -0.12726684784E+02 -0.17323365258E+02  0.29894968814E+02  0.54367127525E+02  0.40000098819E+02 0.  0.
         12    1    3    3    0    0  0.12726684784E+02  0.17323365258E+02 -0.29894968814E+02  0.36820872475E+02  0.00000000000E+00 0. -1.
         11    1    4    4    0    0 -0.14511372069E+02 -0.14470860232E+02  0.16282180669E+02  0.26174321821E+02  0.51100000000E-03 0. -1.
        -11    1    4    4    0    0  0.50815272630E+00 -0.58862453768E+01  0.20082749771E+02  0.20933775160E+02  0.51100000000E-03 0.  1.
         12    1    4    4    0    0  0.12765345588E+01  0.30337403506E+01 -0.64699616264E+01  0.72590305442E+01  0.00000000000E+00 0. -1.
</event>
<event>
 8    1  0.2402194E-006  0.9118800E+02  0.7816164E-02  0.1184000E+00
        -11   -1    0    0    0    0  0.00000000000E+00  0.00000000000E+00  0.45593999997E+02  0.45594000000E+02  0.51100000000E-03 0. -1.
         11   -1    0    0    0    0 -0.00000000000E+00 -0.00000000000E+00 -0.45593999997E+02  0.45594000000E+02  0.51100000000E-03 0.  1.
         23    2    1    2    0    0  0.00000000000E+00  0.17763568394E-14  0.00000000000E+00  0.91188000000E+02  0.91188000000E+02 0.  0.
    9900012    2    3    3    0    0  0.71902391178E+01 -0.12995600930E+02  0.33692647928E+02  0.54367086017E+02  0.40000004193E+02 0.  0.
        -12    1    3    3    0    0 -0.71902391178E+01  0.12995600930E+02 -0.33692647928E+02  0.36820913983E+02  0.00000000000E+00 0.  1.
         11    1    4    4    0    0  0.14327738892E+02  0.28719539159E+01  0.21215201837E+01  0.14765942882E+02  0.51100000000E-03 0. -1.
        -11    1    4    4    0    0 -0.37679343787E+01  0.27620071075E+01  0.90097696161E+01  0.10148988203E+02  0.51100000000E-03 0.  1.
         12    1    4    4    0    0 -0.33695653955E+01 -0.18629561954E+02  0.22561358129E+02  0.29452154932E+02  0.00000000000E+00 0. -1.
</event>
<event>
 8    1  0.2402194E-006  0.9118800E+02  0.7816164E-02  0.1184000E+00
        -11   -1    0    0    0    0  0.00000000000E+00  0.00000000000E+00  0.45593999997E+02  0.45594000000E+02  0.51100000000E-03 0.  1.
         11   -1    0    0    0    0 -0.00000000000E+00 -0.00000000000E+00 -0.45593999997E+02  0.45594000000E+02  0.51100000000E-03 0. -1.
         23    2    1    2    0    0  0.16653345369E-15  0.00000000000E+00  0.71054273576E-14  0.91188000000E+02  0.91188000000E+02 0.  0.
    9900012    2    3    3    0    0  0.30165582195E+00 -0.16551928798E+02  0.32889557973E+02  0.54367077050E+02  0.39999983752E+02 0.  0.
         12    1    3    3    0    0 -0.30165582195E+00  0.16551928798E+02 -0.32889557973E+02  0.36820922950E+02  0.00000000000E+00 0. -1.
         11    1    4    4    0    0 -0.54088112048E+00 -0.47651621701E+01 -0.44112532810E+01  0.65160170860E+01  0.51100000000E-03 0. -1.
        -11    1    4    4    0    0  0.41664168544E+01 -0.14658298342E+02  0.39924986519E+02  0.42734404038E+02  0.51100000000E-03 0.  1.
         12    1    4    4    0    0 -0.33238799119E+01  0.28715317138E+01 -0.26241752644E+01  0.51166559266E+01  0.00000000000E+00 0. -1.
</event>
<event>
 8    1  0.2402194E-006  0.9118800E+02  0.7816164E-02  0.1184000E+00
        -11   -1    0    0    0    0  0.00000000000E+00  0.00000000000E+00  0.45593999997E+02  0.45594000000E+02  0.51100000000E-03 0.  1.
         11   -1    0    0    0    0 -0.00000000000E+00 -0.00000000000E+00 -0.45593999997E+02  0.45594000000E+02  0.51100000000E-03 0. -1.
         23    2    1    2    0    0 -0.35527136788E-14  0.00000000000E+00 -0.35527136788E-14  0.91188000000E+02  0.91188000000E+02 0.  0.
    9900012    2    3    3    0    0 -0.23158326228E+02 -0.10714904620E+02 -0.26545476957E+02  0.54367087442E+02  0.40000007442E+02 0.  0.
        -12    1    3    3    0    0  0.23158326228E+02  0.10714904620E+02  0.26545476957E+02  0.36820912558E+02  0.00000000000E+00 0.  1.
         11    1    4    4    0    0 -0.14528833948E+02 -0.64031238597E+01 -0.33854660689E+02  0.37392847734E+02  0.51100000000E-03 0. -1.
        -11    1    4    4    0    0 -0.35089342051E+01  0.28715489216E+01  0.67545285234E+01  0.81352362166E+01  0.51100000000E-03 0.  1.
         12    1    4    4    0    0 -0.51205580756E+01 -0.71833296817E+01  0.55465520845E+00  0.88390034915E+01  0.00000000000E+00 0. -1.
</event>
<event>
 8    1  0.2402194E-006  0.9118800E+02  0.7816164E-02  0.1184000E+00
        -11   -1    0    0    0    0  0.00000000000E+00  0.00000000000E+00  0.45593999997E+02  0.45594000000E+02  0.51100000000E-03 0.  1.
         11   -1    0    0    0    0 -0.00000000000E+00 -0.00000000000E+00 -0.45593999997E+02  0.45594000000E+02  0.51100000000E-03 0. -1.
         23    2    1    2    0    0  0.00000000000E+00  0.00000000000E+00  0.00000000000E+00  0.91188000000E+02  0.91188000000E+02 0.  0.
    9900012    2    3    3    0    0  0.11517664375E+02  0.29729047511E+02  0.18420302431E+02  0.54367076598E+02  0.39999982720E+02 0.  0.
        -12    1    3    3    0    0 -0.11517664375E+02 -0.29729047511E+02 -0.18420302431E+02  0.36820923402E+02  0.00000000000E+00 0.  1.
         11    1    4    4    0    0  0.46119833963E+01  0.15198889919E+02  0.15882508960E+02  0.22461761657E+02  0.51100000000E-03 0. -1.
        -11    1    4    4    0    0 -0.10011067936E+02  0.77395563618E+01  0.48061699499E+01  0.13535933058E+02  0.51100000000E-03 0.  1.
        -12    1    4    4    0    0  0.16916748914E+02  0.67906012303E+01 -0.22683764795E+01  0.18369381883E+02  0.00000000000E+00 0.  1.
</event>
<event>
 8    1  0.2402194E-006  0.9118800E+02  0.7816164E-02  0.1184000E+00
        -11   -1    0    0    0    0  0.00000000000E+00  0.00000000000E+00  0.45593999997E+02  0.45594000000E+02  0.51100000000E-03 0.  1.
         11   -1    0    0    0    0 -0.00000000000E+00 -0.00000000000E+00 -0.45593999997E+02  0.45594000000E+02  0.51100000000E-03 0. -1.
         23    2    1    2    0    0  0.35527136788E-14  0.00000000000E+00  0.00000000000E+00  0.91188000000E+02  0.91188000000E+02 0.  0.
    9900012    2    3    3    0    0 -0.25452628697E+02  0.11731583528E+02  0.23881221969E+02  0.54367093949E+02  0.40000022275E+02 0.  0.
         12    1    3    3    0    0  0.25452628697E+02 -0.11731583528E+02 -0.23881221969E+02  0.36820906051E+02  0.00000000000E+00 0. -1.
         11    1    4    4    0    0 -0.23937738039E+01  0.66418711227E+01 -0.36986140350E+01  0.79702165012E+01  0.51100000000E-03 0. -1.
        -11    1    4    4    0    0 -0.17440175200E+02 -0.92096136520E+01  0.23140148655E+02  0.30404657122E+02  0.51100000000E-03 0.  1.
         12    1    4    4    0    0 -0.56186796932E+01  0.14299326058E+02  0.44396873493E+01  0.15992220326E+02  0.00000000000E+00 0. -1.
</event>
<event>
 8    1  0.2402194E-006  0.9118800E+02  0.7816164E-02  0.1184000E+00
        -11   -1    0    0    0    0  0.00000000000E+00  0.00000000000E+00  0.45593999997E+02  0.45594000000E+02  0.51100000000E-03 0.  1.
         11   -1    0    0    0    0 -0.00000000000E+00 -0.00000000000E+00 -0.45593999997E+02  0.45594000000E+02  0.51100000000E-03 0. -1.
         23    2    1    2    0    0  0.35527136788E-14  0.00000000000E+00  0.17763568394E-14  0.91188000000E+02  0.91188000000E+02 0.  0.
    9900012    2    3    3    0    0 -0.28049769626E+02  0.22074419027E+02 -0.90393601423E+01  0.54367087691E+02  0.40000008010E+02 0.  0.
         12    1    3    3    0    0  0.28049769626E+02 -0.22074419027E+02  0.90393601423E+01  0.36820912309E+02  0.00000000000E+00 0. -1.
         11    1    4    4    0    0 -0.24617134355E+02  0.22270238291E+02 -0.12219192023E+02  0.35373372350E+02  0.51100000000E-03 0. -1.
        -11    1    4    4    0    0  0.18239454238E+01 -0.81397425726E+01 -0.13427711488E+01  0.84489774929E+01  0.51100000000E-03 0.  1.
         12    1    4    4    0    0 -0.52565806945E+01  0.79439233085E+01  0.45226030299E+01  0.10544737849E+02  0.00000000000E+00 0. -1.
</event>
<event>
 8    1  0.2402194E-006  0.9118800E+02  0.7816164E-02  0.1184000E+00
        -11   -1    0    0    0    0  0.00000000000E+00  0.00000000000E+00  0.45593999997E+02  0.45594000000E+02  0.51100000000E-03 0. -1.
         11   -1    0    0    0    0 -0.00000000000E+00 -0.00000000000E+00 -0.45593999997E+02  0.45594000000E+02  0.51100000000E-03 0.  1.
         23    2    1    2    0    0  0.00000000000E+00  0.00000000000E+00 -0.17763568394E-14  0.91188000000E+02  0.91188000000E+02 0.  0.
    9900012    2    3    3    0    0 -0.74092879781E+01 -0.34110861316E+02 -0.11718834940E+02  0.54367088816E+02  0.40000010575E+02 0.  0.
         12    1    3    3    0    0  0.74092879781E+01  0.34110861316E+02  0.11718834940E+02  0.36820911184E+02  0.00000000000E+00 0. -1.
         11    1    4    4    0    0 -0.84750399396E+01 -0.18613927031E+02  0.89998611529E+01  0.22345068416E+02  0.51100000000E-03 0. -1.
        -11    1    4    4    0    0  0.83240680696E+01 -0.15938260879E+01 -0.95471008447E+01  0.12766265140E+02  0.51100000000E-03 0.  1.
         12    1    4    4    0    0 -0.72583161080E+01 -0.13903108197E+02 -0.11171595248E+02  0.19255755260E+02  0.00000000000E+00 0. -1.
</event>
<event>
 8    1  0.2402194E-006  0.9118800E+02  0.7816164E-02  0.1184000E+00
        -11   -1    0    0    0    0  0.00000000000E+00  0.00000000000E+00  0.45593999997E+02  0.45594000000E+02  0.51100000000E-03 0.  1.
         11   -1    0    0    0    0 -0.00000000000E+00 -0.00000000000E+00 -0.45593999997E+02  0.45594000000E+02  0.51100000000E-03 0. -1.
         23    2    1    2    0    0  0.00000000000E+00  0.88817841970E-15  0.00000000000E+00  0.91188000000E+02  0.91188000000E+02 0.  0.
    9900012    2    3    3    0    0  0.29454038087E+02  0.50990238148E+01  0.21499805741E+02  0.54367054189E+02  0.39999931635E+02 0.  0.
         12    1    3    3    0    0 -0.29454038087E+02 -0.50990238148E+01 -0.21499805741E+02  0.36820945811E+02  0.00000000000E+00 0. -1.
         11    1    4    4    0    0 -0.21298696235E+01 -0.10350387917E+01 -0.74617043895E+01  0.78284533959E+01  0.51100000000E-03 0. -1.
        -11    1    4    4    0    0  0.52515606508E+01  0.20785384628E+01  0.15886083667E+02  0.16860215477E+02  0.51100000000E-03 0.  1.
        -12    1    4    4    0    0  0.26332347060E+02  0.40555241437E+01  0.13075426464E+02  0.29678385316E+02  0.00000000000E+00 0.  1.
</event>
<event>
 8    1  0.2402194E-006  0.9118800E+02  0.7816164E-02  0.1184000E+00
        -11   -1    0    0    0    0  0.00000000000E+00  0.00000000000E+00  0.45593999997E+02  0.45594000000E+02  0.51100000000E-03 0.  1.
         11   -1    0    0    0    0 -0.00000000000E+00 -0.00000000000E+00 -0.45593999997E+02  0.45594000000E+02  0.51100000000E-03 0. -1.
         23    2    1    2    0    0  0.00000000000E+00  0.00000000000E+00  0.00000000000E+00  0.91188000000E+02  0.91188000000E+02 0.  0.
    9900012    2    3    3    0    0 -0.22025677235E+02  0.16290831478E+02 -0.24602001941E+02  0.54367080030E+02  0.39999990545E+02 0.  0.
        -12    1    3    3    0    0  0.22025677235E+02 -0.16290831478E+02  0.24602001941E+02  0.36820919970E+02  0.00000000000E+00 0.  1.
         11    1    4    4    0    0 -0.10938142792E+02  0.19698366443E+02 -0.84588425037E+00  0.22547375206E+02  0.51100000000E-03 0. -1.
        -11    1    4    4    0    0 -0.13581096360E+02 -0.24120090503E+01 -0.82281782940E+01  0.16061347524E+02  0.51100000000E-03 0.  1.
        -12    1    4    4    0    0  0.24935619169E+01 -0.99552591474E+00 -0.15527939397E+02  0.15758357300E+02  0.00000000000E+00 0.  1.
</event>
<event>
 8    1  0.2402194E-006  0.9118800E+02  0.7816164E-02  0.1184000E+00
        -11   -1    0    0    0    0  0.00000000000E+00  0.00000000000E+00  0.45593999997E+02  0.45594000000E+02  0.51100000000E-03 0.  1.
         11   -1    0    0    0    0 -0.00000000000E+00 -0.00000000000E+00 -0.45593999997E+02  0.45594000000E+02  0.51100000000E-03 0. -1.
         23    2    1    2    0    0  0.35527136788E-14  0.00000000000E+00  0.88817841970E-15  0.91188000000E+02  0.91188000000E+02 0.  0.
    9900012    2    3    3    0    0 -0.30384536889E+02  0.20141667174E+02 -0.51838689021E+01  0.54367091058E+02  0.40000015685E+02 0.  0.
        -12    1    3    3    0    0  0.30384536889E+02 -0.20141667174E+02  0.51838689021E+01  0.36820908942E+02  0.00000000000E+00 0.  1.
         11    1    4    4    0    0 -0.24288921851E+02  0.17284205803E+02 -0.10751523550E+01  0.29830377935E+02  0.51100000000E-03 0.  1.
        -11    1    4    4    0    0 -0.13443161574E+02 -0.71694579248E+00 -0.78132092244E+01  0.15565308960E+02  0.51100000000E-03 0. -1.
         12    1    4    4    0    0  0.73475465353E+01  0.35744071631E+01  0.37044926773E+01  0.89714041627E+01  0.00000000000E+00 0. -1.
</event>
<event>
 8    1  0.2402194E-006  0.9118800E+02  0.7816164E-02  0.1184000E+00
        -11   -1    0    0    0    0  0.00000000000E+00  0.00000000000E+00  0.45593999997E+02  0.45594000000E+02  0.51100000000E-03 0. -1.
         11   -1    0    0    0    0 -0.00000000000E+00 -0.00000000000E+00 -0.45593999997E+02  0.45594000000E+02  0.51100000000E-03 0.  1.
         23    2    1    2    0    0  0.00000000000E+00  0.00000000000E+00  0.00000000000E+00  0.91188000000E+02  0.91188000000E+02 0.  0.
    9900012    2    3    3    0    0 -0.15805095672E+02 -0.24390462493E+02  0.22607169083E+02  0.54367084697E+02  0.40000001183E+02 0.  0.
        -12    1    3    3    0    0  0.15805095672E+02  0.24390462493E+02 -0.22607169083E+02  0.36820915303E+02  0.00000000000E+00 0.  1.
         11    1    4    4    0    0 -0.18081543584E+02 -0.18873164748E+02  0.27390500904E+02  0.37859980269E+02  0.51100000000E-03 0. -1.
        -11    1    4    4    0    0  0.31764911112E+01 -0.10101474115E+02 -0.12768212004E+01  0.10665840225E+02  0.51100000000E-03 0.  1.
         12    1    4    4    0    0 -0.90004319882E+00  0.45841763697E+01 -0.35065106203E+01  0.58412642021E+01  0.00000000000E+00 0. -1.
</event>
<event>
 8    1  0.2402194E-006  0.9118800E+02  0.7816164E-02  0.1184000E+00
        -11   -1    0    0    0    0  0.00000000000E+00  0.00000000000E+00  0.45593999997E+02  0.45594000000E+02  0.51100000000E-03 0. -1.
         11   -1    0    0    0    0 -0.00000000000E+00 -0.00000000000E+00 -0.45593999997E+02  0.45594000000E+02  0.51100000000E-03 0.  1.
         23    2    1    2    0    0 -0.35527136788E-14 -0.35527136788E-14  0.00000000000E+00  0.91188000000E+02  0.91188000000E+02 0.  0.
    9900012    2    3    3    0    0  0.31307164564E+02 -0.16619659204E+02  0.99714062460E+01  0.54367074325E+02  0.39999977538E+02 0.  0.
        -12    1    3    3    0    0 -0.31307164564E+02  0.16619659204E+02 -0.99714062460E+01  0.36820925675E+02  0.00000000000E+00 0.  1.
         11    1    4    4    0    0  0.11647234129E+02  0.10357290035E+01  0.13031936033E+01  0.11765590136E+02  0.51100000000E-03 0. -1.
        -11    1    4    4    0    0  0.17548327114E+02 -0.24954049320E+02  0.13748574440E+02  0.33461495205E+02  0.51100000000E-03 0.  1.
        -12    1    4    4    0    0  0.21116033208E+01  0.72986611129E+01 -0.50803617971E+01  0.91399889833E+01  0.00000000000E+00 0.  1.
</event>
<event>
 8    1  0.2402194E-006  0.9118800E+02  0.7816164E-02  0.1184000E+00
        -11   -1    0    0    0    0  0.00000000000E+00  0.00000000000E+00  0.45593999997E+02  0.45594000000E+02  0.51100000000E-03 0.  1.
         11   -1    0    0    0    0 -0.00000000000E+00 -0.00000000000E+00 -0.45593999997E+02  0.45594000000E+02  0.51100000000E-03 0. -1.
         23    2    1    2    0    0 -0.13322676296E-14  0.35527136788E-14  0.00000000000E+00  0.91188000000E+02  0.91188000000E+02 0.  0.
    9900012    2    3    3    0    0 -0.19371961145E+01 -0.30019830056E+02  0.21232698679E+02  0.54367212141E+02  0.40000291716E+02 0.  0.
         12    1    3    3    0    0  0.19371961145E+01  0.30019830056E+02 -0.21232698679E+02  0.36820787859E+02  0.00000000000E+00 0. -1.
         11    1    4    4    0    0  0.99267639969E+01 -0.54745011293E+01  0.13214438240E+02  0.17410691667E+02  0.51100000000E-03 0. -1.
        -11    1    4    4    0    0 -0.44103064034E+01  0.43306852838E+01  0.22723915071E+01  0.65855448538E+01  0.51100000000E-03 0.  1.
         12    1    4    4    0    0 -0.74536537080E+01 -0.28876014211E+02  0.57458689315E+01  0.30370975619E+02  0.00000000000E+00 0. -1.
</event>
<event>
 8    1  0.2402194E-006  0.9118800E+02  0.7816164E-02  0.1184000E+00
        -11   -1    0    0    0    0  0.00000000000E+00  0.00000000000E+00  0.45593999997E+02  0.45594000000E+02  0.51100000000E-03 0. -1.
         11   -1    0    0    0    0 -0.00000000000E+00 -0.00000000000E+00 -0.45593999997E+02  0.45594000000E+02  0.51100000000E-03 0.  1.
         23    2    1    2    0    0 -0.71054273576E-14 -0.17763568394E-14  0.44408920985E-15  0.91188000000E+02  0.91188000000E+02 0.  0.
    9900012    2    3    3    0    0 -0.33463359814E+02 -0.14908381218E+02 -0.37045110005E+01  0.54367086346E+02  0.40000004943E+02 0.  0.
        -12    1    3    3    0    0  0.33463359814E+02  0.14908381218E+02  0.37045110005E+01  0.36820913654E+02  0.00000000000E+00 0.  1.
         11    1    4    4    0    0 -0.27259681624E+02 -0.12367200082E+02 -0.26739006379E+01  0.30053080125E+02  0.51100000000E-03 0. -1.
        -11    1    4    4    0    0 -0.80498627717E+01  0.90676484877E+01 -0.27526876454E+01  0.12433817969E+02  0.51100000000E-03 0.  1.
        -12    1    4    4    0    0  0.18461845824E+01 -0.11608829623E+02  0.17220772828E+01  0.11880188252E+02  0.00000000000E+00 0.  1.
</event>
<event>
 8    1  0.2402194E-006  0.9118800E+02  0.7816164E-02  0.1184000E+00
        -11   -1    0    0    0    0  0.00000000000E+00  0.00000000000E+00  0.45593999997E+02  0.45594000000E+02  0.51100000000E-03 0. -1.
         11   -1    0    0    0    0 -0.00000000000E+00 -0.00000000000E+00 -0.45593999997E+02  0.45594000000E+02  0.51100000000E-03 0.  1.
         23    2    1    2    0    0  0.00000000000E+00  0.00000000000E+00  0.00000000000E+00  0.91188000000E+02  0.91188000000E+02 0.  0.
    9900012    2    3    3    0    0  0.78253784403E+01 -0.84036628315E+01  0.34984589832E+02  0.54367087159E+02  0.40000006797E+02 0.  0.
        -12    1    3    3    0    0 -0.78253784403E+01  0.84036628315E+01 -0.34984589832E+02  0.36820912841E+02  0.00000000000E+00 0.  1.
         11    1    4    4    0    0  0.16071138836E+02  0.10343437903E+02  0.18189553029E+02  0.26384238681E+02  0.51100000000E-03 0. -1.
        -11    1    4    4    0    0 -0.75237676304E+01 -0.66267696179E+01  0.95347885750E+01  0.13835944072E+02  0.51100000000E-03 0.  1.
        -12    1    4    4    0    0 -0.72199276524E+00 -0.12120331117E+02  0.72602482283E+01  0.14146904406E+02  0.00000000000E+00 0.  1.
</event>
<event>
 8    1  0.2402194E-006  0.9118800E+02  0.7816164E-02  0.1184000E+00
        -11   -1    0    0    0    0  0.00000000000E+00  0.00000000000E+00  0.45593999997E+02  0.45594000000E+02  0.51100000000E-03 0.  1.
         11   -1    0    0    0    0 -0.00000000000E+00 -0.00000000000E+00 -0.45593999997E+02  0.45594000000E+02  0.51100000000E-03 0. -1.
         23    2    1    2    0    0  0.00000000000E+00  0.00000000000E+00  0.00000000000E+00  0.91188000000E+02  0.91188000000E+02 0.  0.
    9900012    2    3    3    0    0  0.16981766475E+02  0.15960922819E+02  0.28506997516E+02  0.54367077182E+02  0.39999984051E+02 0.  0.
         12    1    3    3    0    0 -0.16981766475E+02 -0.15960922819E+02 -0.28506997516E+02  0.36820922818E+02  0.00000000000E+00 0. -1.
         11    1    4    4    0    0  0.25084479746E+01  0.79138487211E+01  0.21582102694E+02  0.23123764178E+02  0.51100000000E-03 0. -1.
        -11    1    4    4    0    0  0.34150466064E+01  0.49305138116E+01  0.15686910843E+02  0.16794394357E+02  0.51100000000E-03 0.  1.
         12    1    4    4    0    0  0.11058271894E+02  0.31165602865E+01 -0.87620160211E+01  0.14448918646E+02  0.00000000000E+00 0. -1.
</event>
<event>
 8    1  0.2402194E-006  0.9118800E+02  0.7816164E-02  0.1184000E+00
        -11   -1    0    0    0    0  0.00000000000E+00  0.00000000000E+00  0.45593999997E+02  0.45594000000E+02  0.51100000000E-03 0. -1.
         11   -1    0    0    0    0 -0.00000000000E+00 -0.00000000000E+00 -0.45593999997E+02  0.45594000000E+02  0.51100000000E-03 0.  1.
         23    2    1    2    0    0  0.00000000000E+00  0.00000000000E+00  0.00000000000E+00  0.91188000000E+02  0.91188000000E+02 0.  0.
    9900012    2    3    3    0    0 -0.15726631867E+02  0.29659060745E+02  0.15125890558E+02  0.54367090189E+02  0.40000013703E+02 0.  0.
        -12    1    3    3    0    0  0.15726631867E+02 -0.29659060745E+02 -0.15125890558E+02  0.36820909811E+02  0.00000000000E+00 0.  1.
         11    1    4    4    0    0  0.91436757131E+01  0.10137289084E+02  0.13991032382E+02  0.19547900729E+02  0.51100000000E-03 0. -1.
        -11    1    4    4    0    0 -0.61917090614E+01  0.11782307140E+02  0.50299780468E+01  0.14228868615E+02  0.51100000000E-03 0.  1.
         12    1    4    4    0    0 -0.18678598519E+02  0.77394645206E+01 -0.38951198705E+01  0.20590320845E+02  0.00000000000E+00 0. -1.
</event>
<event>
 8    1  0.2402194E-006  0.9118800E+02  0.7816164E-02  0.1184000E+00
        -11   -1    0    0    0    0  0.00000000000E+00  0.00000000000E+00  0.45593999997E+02  0.45594000000E+02  0.51100000000E-03 0. -1.
         11   -1    0    0    0    0 -0.00000000000E+00 -0.00000000000E+00 -0.45593999997E+02  0.45594000000E+02  0.51100000000E-03 0.  1.
         23    2    1    2    0    0 -0.88817841970E-15  0.35527136788E-14  0.35527136788E-14  0.91188000000E+02  0.91188000000E+02 0.  0.
    9900012    2    3    3    0    0 -0.46240340956E+01  0.28977833788E+02  0.22241465776E+02  0.54367090964E+02  0.40000015470E+02 0.  0.
        -12    1    3    3    0    0  0.46240340956E+01 -0.28977833788E+02 -0.22241465776E+02  0.36820909036E+02  0.00000000000E+00 0.  1.
         11    1    4    4    0    0 -0.99624906731E+01 -0.22110014093E-01  0.13834989232E+02  0.17048713634E+02  0.51100000000E-03 0. -1.
        -11    1    4    4    0    0  0.13858490381E+01  0.26789536076E+01  0.10205160663E+02  0.10641554135E+02  0.51100000000E-03 0.  1.
        -12    1    4    4    0    0  0.39526075394E+01  0.26320990195E+02 -0.17986841190E+01  0.26676823195E+02  0.00000000000E+00 0.  1.
</event>
<event>
 8    1  0.2402194E-006  0.9118800E+02  0.7816164E-02  0.1184000E+00
        -11   -1    0    0    0    0  0.00000000000E+00  0.00000000000E+00  0.45593999997E+02  0.45594000000E+02  0.51100000000E-03 0.  1.
         11   -1    0    0    0    0 -0.00000000000E+00 -0.00000000000E+00 -0.45593999997E+02  0.45594000000E+02  0.51100000000E-03 0. -1.
         23    2    1    2    0    0  0.35527136788E-14  0.00000000000E+00  0.17763568394E-14  0.91188000000E+02  0.91188000000E+02 0.  0.
    9900012    2    3    3    0    0  0.31460770768E+02 -0.13988191956E+02  0.13051082093E+02  0.54367077207E+02  0.39999984109E+02 0.  0.
        -12    1    3    3    0    0 -0.31460770768E+02  0.13988191956E+02 -0.13051082093E+02  0.36820922793E+02  0.00000000000E+00 0.  1.
         11    1    4    4    0    0  0.73574436664E+01 -0.26773662907E+00 -0.49619112878E+01  0.88783007437E+01  0.51100000000E-03 0. -1.
        -11    1    4    4    0    0  0.45764048877E+01 -0.18826578988E+02  0.16143369327E+02  0.25218880458E+02  0.51100000000E-03 0.  1.
         12    1    4    4    0    0  0.19526922214E+02  0.51061236604E+01  0.18696240542E+01  0.20269896006E+02  0.00000000000E+00 0. -1.
</event>
<event>
 8    1  0.2402194E-006  0.9118800E+02  0.7816164E-02  0.1184000E+00
        -11   -1    0    0    0    0  0.00000000000E+00  0.00000000000E+00  0.45593999997E+02  0.45594000000E+02  0.51100000000E-03 0. -1.
         11   -1    0    0    0    0 -0.00000000000E+00 -0.00000000000E+00 -0.45593999997E+02  0.45594000000E+02  0.51100000000E-03 0.  1.
         23    2    1    2    0    0  0.35527136788E-14 -0.35527136788E-14  0.00000000000E+00  0.91188000000E+02  0.91188000000E+02 0.  0.
    9900012    2    3    3    0    0  0.28963872779E+02  0.11185458410E+02 -0.19792930579E+02  0.54367075146E+02  0.39999979411E+02 0.  0.
         12    1    3    3    0    0 -0.28963872779E+02 -0.11185458410E+02  0.19792930579E+02  0.36820924854E+02  0.00000000000E+00 0. -1.
         11    1    4    4    0    0 -0.51422284043E+01  0.36159254075E+00 -0.15893421358E+02  0.16708503968E+02  0.51100000000E-03 0. -1.
        -11    1    4    4    0    0  0.28212103565E+02  0.11834420101E+02 -0.13823992266E+00  0.30594041858E+02  0.51100000000E-03 0.  1.
         12    1    4    4    0    0  0.58939976186E+01 -0.10105542322E+01 -0.37612692985E+01  0.70645293205E+01  0.00000000000E+00 0. -1.
</event>
<event>
 8    1  0.2402194E-006  0.9118800E+02  0.7816164E-02  0.1184000E+00
        -11   -1    0    0    0    0  0.00000000000E+00  0.00000000000E+00  0.45593999997E+02  0.45594000000E+02  0.51100000000E-03 0. -1.
         11   -1    0    0    0    0 -0.00000000000E+00 -0.00000000000E+00 -0.45593999997E+02  0.45594000000E+02  0.51100000000E-03 0.  1.
         23    2    1    2    0    0  0.17763568394E-14 -0.35527136788E-14  0.00000000000E+00  0.91188000000E+02  0.91188000000E+02 0.  0.
    9900012    2    3    3    0    0 -0.76527289203E+01 -0.14010065322E+02 -0.33180346197E+02  0.54367060794E+02  0.39999946692E+02 0.  0.
         12    1    3    3    0    0  0.76527289203E+01  0.14010065322E+02  0.33180346197E+02  0.36820939206E+02  0.00000000000E+00 0. -1.
         11    1    4    4    0    0  0.11318793179E+01 -0.52283058252E-01 -0.24796518906E+02  0.24822393809E+02  0.51100000000E-03 0. -1.
        -11    1    4    4    0    0 -0.15104289934E+02 -0.13971980141E+02 -0.10205656971E+02  0.22967612805E+02  0.51100000000E-03 0.  1.
         12    1    4    4    0    0  0.63196816955E+01  0.14197877800E-01  0.18218296795E+01  0.65770541805E+01  0.00000000000E+00 0. -1.
</event>
<event>
 8    1  0.2402194E-006  0.9118800E+02  0.7816164E-02  0.1184000E+00
        -11   -1    0    0    0    0  0.00000000000E+00  0.00000000000E+00  0.45593999997E+02  0.45594000000E+02  0.51100000000E-03 0.  1.
         11   -1    0    0    0    0 -0.00000000000E+00 -0.00000000000E+00 -0.45593999997E+02  0.45594000000E+02  0.51100000000E-03 0. -1.
         23    2    1    2    0    0  0.00000000000E+00  0.00000000000E+00 -0.35527136788E-14  0.91188000000E+02  0.91188000000E+02 0.  0.
    9900012    2    3    3    0    0 -0.10615645280E+02 -0.25256461224E+02 -0.24600783710E+02  0.54367091301E+02  0.40000016240E+02 0.  0.
        -12    1    3    3    0    0  0.10615645280E+02  0.25256461224E+02  0.24600783710E+02  0.36820908699E+02  0.00000000000E+00 0.  1.
         11    1    4    4    0    0  0.32263744420E+01 -0.11756777758E+02 -0.72340230555E+01  0.14176120948E+02  0.51100000000E-03 0. -1.
        -11    1    4    4    0    0 -0.69652958259E+00  0.25649113649E+01  0.74076259109E+01  0.78699965480E+01  0.51100000000E-03 0.  1.
        -12    1    4    4    0    0 -0.13145490139E+02 -0.16064594830E+02 -0.24774386565E+02  0.32320973806E+02  0.00000000000E+00 0.  1.
</event>
<event>
 8    1  0.2402194E-006  0.9118800E+02  0.7816164E-02  0.1184000E+00
        -11   -1    0    0    0    0  0.00000000000E+00  0.00000000000E+00  0.45593999997E+02  0.45594000000E+02  0.51100000000E-03 0.  1.
         11   -1    0    0    0    0 -0.00000000000E+00 -0.00000000000E+00 -0.45593999997E+02  0.45594000000E+02  0.51100000000E-03 0. -1.
         23    2    1    2    0    0 -0.44408920985E-15  0.17763568394E-14  0.00000000000E+00  0.91188000000E+02  0.91188000000E+02 0.  0.
    9900012    2    3    3    0    0 -0.26381448779E+01  0.15816813989E+02 -0.33145828397E+02  0.54367117973E+02  0.40000077042E+02 0.  0.
        -12    1    3    3    0    0  0.26381448779E+01 -0.15816813989E+02  0.33145828397E+02  0.36820882027E+02  0.00000000000E+00 0.  1.
         11    1    4    4    0    0 -0.59350527968E+01  0.81393264396E+01  0.15506875774E+01  0.10192061559E+02  0.51100000000E-03 0. -1.
        -11    1    4    4    0    0  0.49213462234E+01  0.68576138500E+01  0.93925226793E+00  0.84928623826E+01  0.51100000000E-03 0.  1.
        -12    1    4    4    0    0 -0.16244383046E+01  0.81987369958E+00 -0.35635768242E+02  0.35682194031E+02  0.00000000000E+00 0.  1.
</event>
<event>
 8    1  0.2402194E-006  0.9118800E+02  0.7816164E-02  0.1184000E+00
        -11   -1    0    0    0    0  0.00000000000E+00  0.00000000000E+00  0.45593999997E+02  0.45594000000E+02  0.51100000000E-03 0.  1.
         11   -1    0    0    0    0 -0.00000000000E+00 -0.00000000000E+00 -0.45593999997E+02  0.45594000000E+02  0.51100000000E-03 0. -1.
         23    2    1    2    0    0  0.00000000000E+00  0.00000000000E+00  0.00000000000E+00  0.91188000000E+02  0.91188000000E+02 0.  0.
    9900012    2    3    3    0    0 -0.12491646916E+02  0.23641776846E+02 -0.25314121210E+02  0.54367087630E+02  0.40000007870E+02 0.  0.
        -12    1    3    3    0    0  0.12491646916E+02 -0.23641776846E+02  0.25314121210E+02  0.36820912370E+02  0.00000000000E+00 0.  1.
         11    1    4    4    0    0  0.88673627580E+01 -0.34777635985E+00  0.36324306919E+01  0.95888280655E+01  0.51100000000E-03 0.  1.
        -11    1    4    4    0    0 -0.12772129145E+02  0.21803807285E+02 -0.20538599800E+02  0.32563282651E+02  0.51100000000E-03 0. -1.
        -12    1    4    4    0    0 -0.85868805287E+01  0.21857459211E+01 -0.84079521020E+01  0.12214976913E+02  0.00000000000E+00 0.  1.
</event>
<event>
 8    1  0.2402194E-006  0.9118800E+02  0.7816164E-02  0.1184000E+00
        -11   -1    0    0    0    0  0.00000000000E+00  0.00000000000E+00  0.45593999997E+02  0.45594000000E+02  0.51100000000E-03 0. -1.
         11   -1    0    0    0    0 -0.00000000000E+00 -0.00000000000E+00 -0.45593999997E+02  0.45594000000E+02  0.51100000000E-03 0.  1.
         23    2    1    2    0    0 -0.88817841970E-15  0.00000000000E+00  0.17763568394E-14  0.91188000000E+02  0.91188000000E+02 0.  0.
    9900012    2    3    3    0    0  0.72655735626E+01 -0.35500211636E+02  0.65365988706E+01  0.54367072388E+02  0.39999973123E+02 0.  0.
        -12    1    3    3    0    0 -0.72655735626E+01  0.35500211636E+02 -0.65365988706E+01  0.36820927612E+02  0.00000000000E+00 0.  1.
         11    1    4    4    0    0 -0.49110738915E+01  0.82542236298E+00 -0.47946043703E+01  0.69129009955E+01  0.51100000000E-03 0. -1.
        -11    1    4    4    0    0  0.23289982315E+01  0.12090992261E+01  0.81004064162E+01  0.85148539665E+01  0.51100000000E-03 0.  1.
         12    1    4    4    0    0  0.98476492225E+01 -0.37534733225E+02  0.32307968246E+01  0.38939317426E+02  0.00000000000E+00 0. -1.
</event>
<event>
 8    1  0.2402194E-006  0.9118800E+02  0.7816164E-02  0.1184000E+00
        -11   -1    0    0    0    0  0.00000000000E+00  0.00000000000E+00  0.45593999997E+02  0.45594000000E+02  0.51100000000E-03 0.  1.
         11   -1    0    0    0    0 -0.00000000000E+00 -0.00000000000E+00 -0.45593999997E+02  0.45594000000E+02  0.51100000000E-03 0. -1.
         23    2    1    2    0    0 -0.35527136788E-14  0.00000000000E+00  0.00000000000E+00  0.91188000000E+02  0.91188000000E+02 0.  0.
    9900012    2    3    3    0    0 -0.23778459888E+02 -0.26211590695E+02  0.10164501944E+02  0.54367085546E+02  0.40000003120E+02 0.  0.
         12    1    3    3    0    0  0.23778459888E+02  0.26211590695E+02 -0.10164501944E+02  0.36820914454E+02  0.00000000000E+00 0. -1.
         11    1    4    4    0    0  0.78559413487E+01 -0.83153226936E+01  0.11531062107E+02  0.16242715276E+02  0.51100000000E-03 0. -1.
        -11    1    4    4    0    0 -0.11336225077E+02 -0.10302935461E+02  0.39296437991E+01  0.15814631793E+02  0.51100000000E-03 0.  1.
         12    1    4    4    0    0 -0.20298176160E+02 -0.75933325409E+01 -0.52962039625E+01  0.22309738477E+02  0.00000000000E+00 0. -1.
</event>
<event>
 8    1  0.2402194E-006  0.9118800E+02  0.7816164E-02  0.1184000E+00
        -11   -1    0    0    0    0  0.00000000000E+00  0.00000000000E+00  0.45593999997E+02  0.45594000000E+02  0.51100000000E-03 0.  1.
         11   -1    0    0    0    0 -0.00000000000E+00 -0.00000000000E+00 -0.45593999997E+02  0.45594000000E+02  0.51100000000E-03 0. -1.
         23    2    1    2    0    0 -0.44408920985E-15  0.00000000000E+00  0.00000000000E+00  0.91188000000E+02  0.91188000000E+02 0.  0.
    9900012    2    3    3    0    0  0.18018541394E+01 -0.92432899005E+01  0.35596239828E+02  0.54367117658E+02  0.40000076326E+02 0.  0.
         12    1    3    3    0    0 -0.18018541394E+01  0.92432899005E+01 -0.35596239828E+02  0.36820882342E+02  0.00000000000E+00 0. -1.
         11    1    4    4    0    0 -0.93239611963E+01 -0.66526199585E+01  0.26845184939E+02  0.29186598969E+02  0.51100000000E-03 0.  1.
        -11    1    4    4    0    0  0.21009571563E+01 -0.10999223739E+02  0.31448282215E+01  0.11631289208E+02  0.51100000000E-03 0. -1.
         12    1    4    4    0    0  0.90248581794E+01  0.84085537968E+01  0.56062266677E+01  0.13549229482E+02  0.00000000000E+00 0. -1.
</event>
<event>
 8    1  0.2402194E-006  0.9118800E+02  0.7816164E-02  0.1184000E+00
        -11   -1    0    0    0    0  0.00000000000E+00  0.00000000000E+00  0.45593999997E+02  0.45594000000E+02  0.51100000000E-03 0.  1.
         11   -1    0    0    0    0 -0.00000000000E+00 -0.00000000000E+00 -0.45593999997E+02  0.45594000000E+02  0.51100000000E-03 0. -1.
         23    2    1    2    0    0  0.66613381478E-15 -0.17763568394E-14  0.00000000000E+00  0.91188000000E+02  0.91188000000E+02 0.  0.
    9900012    2    3    3    0    0  0.14348509630E+01  0.11042298040E+02  0.35096848151E+02  0.54367083480E+02  0.39999998409E+02 0.  0.
         12    1    3    3    0    0 -0.14348509630E+01 -0.11042298040E+02 -0.35096848151E+02  0.36820916520E+02  0.00000000000E+00 0. -1.
         11    1    4    4    0    0  0.49706199828E+01  0.52591094371E+01  0.24697858508E+02  0.25736151815E+02  0.51100000000E-03 0. -1.
        -11    1    4    4    0    0  0.71464402535E+01  0.11633063523E+02  0.19111821754E+01  0.13785949107E+02  0.51100000000E-03 0.  1.
         12    1    4    4    0    0 -0.10682209273E+02 -0.58498749203E+01  0.84878074672E+01  0.14844982558E+02  0.00000000000E+00 0. -1.
</event>
<event>
 8    1  0.2402194E-006  0.9118800E+02  0.7816164E-02  0.1184000E+00
        -11   -1    0    0    0    0  0.00000000000E+00  0.00000000000E+00  0.45593999997E+02  0.45594000000E+02  0.51100000000E-03 0. -1.
         11   -1    0    0    0    0 -0.00000000000E+00 -0.00000000000E+00 -0.45593999997E+02  0.45594000000E+02  0.51100000000E-03 0.  1.
         23    2    1    2    0    0  0.00000000000E+00  0.00000000000E+00  0.00000000000E+00  0.91188000000E+02  0.91188000000E+02 0.  0.
    9900012    2    3    3    0    0 -0.95773613409E+01  0.23885395923E+02 -0.26335173038E+02  0.54367091163E+02  0.40000015924E+02 0.  0.
         12    1    3    3    0    0  0.95773613409E+01 -0.23885395923E+02  0.26335173038E+02  0.36820908837E+02  0.00000000000E+00 0. -1.
         11    1    4    4    0    0  0.13840544227E+01  0.23513002558E+02 -0.84635412578E+01  0.25028152685E+02  0.51100000000E-03 0. -1.
        -11    1    4    4    0    0 -0.19625179994E+01  0.86270300722E+01 -0.13939182517E+02  0.16509934411E+02  0.51100000000E-03 0.  1.
         12    1    4    4    0    0 -0.89988977641E+01 -0.82546367074E+01 -0.39324492638E+01  0.12829004067E+02  0.00000000000E+00 0. -1.
</event>
<event>
 8    1  0.2402194E-006  0.9118800E+02  0.7816164E-02  0.1184000E+00
        -11   -1    0    0    0    0  0.00000000000E+00  0.00000000000E+00  0.45593999997E+02  0.45594000000E+02  0.51100000000E-03 0. -1.
         11   -1    0    0    0    0 -0.00000000000E+00 -0.00000000000E+00 -0.45593999997E+02  0.45594000000E+02  0.51100000000E-03 0.  1.
         23    2    1    2    0    0 -0.17763568394E-14 -0.88817841970E-15  0.00000000000E+00  0.91188000000E+02  0.91188000000E+02 0.  0.
    9900012    2    3    3    0    0  0.84093321675E+01 -0.28425917570E+01  0.35734932822E+02  0.54367046466E+02  0.39999914028E+02 0.  0.
        -12    1    3    3    0    0 -0.84093321675E+01  0.28425917570E+01 -0.35734932822E+02  0.36820953534E+02  0.00000000000E+00 0.  1.
         11    1    4    4    0    0 -0.35677796017E+01 -0.11157953005E+02  0.18002074448E+02  0.21477980614E+02  0.51100000000E-03 0. -1.
        -11    1    4    4    0    0 -0.52130333087E+01  0.80735702430E+01  0.25259532679E+01  0.99367345199E+01  0.51100000000E-03 0.  1.
        -12    1    4    4    0    0  0.17190145078E+02  0.24179100506E+00  0.15206905106E+02  0.22952331332E+02  0.00000000000E+00 0.  1.
</event>
<event>
 8    1  0.2402194E-006  0.9118800E+02  0.7816164E-02  0.1184000E+00
        -11   -1    0    0    0    0  0.00000000000E+00  0.00000000000E+00  0.45593999997E+02  0.45594000000E+02  0.51100000000E-03 0.  1.
         11   -1    0    0    0    0 -0.00000000000E+00 -0.00000000000E+00 -0.45593999997E+02  0.45594000000E+02  0.51100000000E-03 0. -1.
         23    2    1    2    0    0  0.00000000000E+00  0.00000000000E+00  0.00000000000E+00  0.91188000000E+02  0.91188000000E+02 0.  0.
    9900012    2    3    3    0    0 -0.55830598151E+01  0.32663321520E+02 -0.16053748129E+02  0.54367001119E+02  0.39999810650E+02 0.  0.
        -12    1    3    3    0    0  0.55830598151E+01 -0.32663321520E+02  0.16053748129E+02  0.36820998881E+02  0.00000000000E+00 0.  1.
         11    1    4    4    0    0 -0.76864596169E+01  0.27119022919E+02 -0.15313230573E+02  0.32078311932E+02  0.51100000000E-03 0. -1.
        -11    1    4    4    0    0  0.38344370552E+00 -0.83075257301E+01 -0.13882211626E+00  0.83175287600E+01  0.51100000000E-03 0.  1.
        -12    1    4    4    0    0  0.17199560963E+01  0.13851824331E+02 -0.60169543928E+00  0.13971160427E+02  0.00000000000E+00 0.  1.
</event>
<event>
 8    1  0.2402194E-006  0.9118800E+02  0.7816164E-02  0.1184000E+00
        -11   -1    0    0    0    0  0.00000000000E+00  0.00000000000E+00  0.45593999997E+02  0.45594000000E+02  0.51100000000E-03 0. -1.
         11   -1    0    0    0    0 -0.00000000000E+00 -0.00000000000E+00 -0.45593999997E+02  0.45594000000E+02  0.51100000000E-03 0.  1.
         23    2    1    2    0    0  0.00000000000E+00  0.00000000000E+00  0.00000000000E+00  0.91188000000E+02  0.91188000000E+02 0.  0.
    9900012    2    3    3    0    0  0.31324519279E+02  0.93464038061E+01 -0.16946925882E+02  0.54367094675E+02  0.40000023930E+02 0.  0.
         12    1    3    3    0    0 -0.31324519279E+02 -0.93464038061E+01  0.16946925882E+02  0.36820905325E+02  0.00000000000E+00 0. -1.
         11    1    4    4    0    0 -0.62348017615E+01 -0.43775131520E+01 -0.27331629048E+01  0.80935501559E+01  0.51100000000E-03 0. -1.
        -11    1    4    4    0    0  0.35659949918E+02  0.13635455112E+02 -0.70012763536E+01  0.38814630426E+02  0.51100000000E-03 0.  1.
        -12    1    4    4    0    0  0.18993711224E+01  0.88461846277E-01 -0.72124866233E+01  0.74589140932E+01  0.00000000000E+00 0.  1.
</event>
<event>
 8    1  0.2402194E-006  0.9118800E+02  0.7816164E-02  0.1184000E+00
        -11   -1    0    0    0    0  0.00000000000E+00  0.00000000000E+00  0.45593999997E+02  0.45594000000E+02  0.51100000000E-03 0. -1.
         11   -1    0    0    0    0 -0.00000000000E+00 -0.00000000000E+00 -0.45593999997E+02  0.45594000000E+02  0.51100000000E-03 0.  1.
         23    2    1    2    0    0 -0.35527136788E-14  0.00000000000E+00  0.00000000000E+00  0.91188000000E+02  0.91188000000E+02 0.  0.
    9900012    2    3    3    0    0 -0.21021844145E+02 -0.12087184332E+02 -0.27708520791E+02  0.54367080935E+02  0.39999992608E+02 0.  0.
         12    1    3    3    0    0  0.21021844145E+02  0.12087184332E+02  0.27708520791E+02  0.36820919065E+02  0.00000000000E+00 0. -1.
         11    1    4    4    0    0 -0.30539460388E+01 -0.25181617178E+01  0.16973594099E+01  0.43068264502E+01  0.51100000000E-03 0. -1.
        -11    1    4    4    0    0 -0.28061241641E+01  0.11579290915E+02 -0.16740063654E+01  0.12031484052E+02  0.51100000000E-03 0.  1.
        -12    1    4    4    0    0 -0.15161773942E+02 -0.21148313530E+02 -0.27731873836E+02  0.38028770433E+02  0.00000000000E+00 0.  1.
</event>
<event>
 8    1  0.2402194E-006  0.9118800E+02  0.7816164E-02  0.1184000E+00
        -11   -1    0    0    0    0  0.00000000000E+00  0.00000000000E+00  0.45593999997E+02  0.45594000000E+02  0.51100000000E-03 0.  1.
         11   -1    0    0    0    0 -0.00000000000E+00 -0.00000000000E+00 -0.45593999997E+02  0.45594000000E+02  0.51100000000E-03 0. -1.
         23    2    1    2    0    0  0.00000000000E+00 -0.17763568394E-14  0.00000000000E+00  0.91188000000E+02  0.91188000000E+02 0.  0.
    9900012    2    3    3    0    0  0.27453150709E+02  0.10599283726E+02  0.22130505749E+02  0.54367087681E+02  0.40000007986E+02 0.  0.
         12    1    3    3    0    0 -0.27453150709E+02 -0.10599283726E+02 -0.22130505749E+02  0.36820912319E+02  0.00000000000E+00 0. -1.
         11    1    4    4    0    0 -0.37927123952E+01 -0.28537160273E+01 -0.67909088780E+01  0.82852161183E+01  0.51100000000E-03 0. -1.
        -11    1    4    4    0    0  0.19824346934E+02  0.50260370260E+01  0.11005115771E+02  0.23224520511E+02  0.51100000000E-03 0.  1.
        -12    1    4    4    0    0  0.11421516170E+02  0.84269627273E+01  0.17916298856E+02  0.22857351052E+02  0.00000000000E+00 0.  1.
</event>
<event>
 8    1  0.2402194E-006  0.9118800E+02  0.7816164E-02  0.1184000E+00
        -11   -1    0    0    0    0  0.00000000000E+00  0.00000000000E+00  0.45593999997E+02  0.45594000000E+02  0.51100000000E-03 0.  1.
         11   -1    0    0    0    0 -0.00000000000E+00 -0.00000000000E+00 -0.45593999997E+02  0.45594000000E+02  0.51100000000E-03 0. -1.
         23    2    1    2    0    0  0.17763568394E-14  0.35527136788E-14  0.00000000000E+00  0.91188000000E+02  0.91188000000E+02 0.  0.
    9900012    2    3    3    0    0  0.13434948668E+02  0.19460075864E+02  0.28223784298E+02  0.54367158097E+02  0.40000168514E+02 0.  0.
         12    1    3    3    0    0 -0.13434948668E+02 -0.19460075864E+02 -0.28223784298E+02  0.36820841903E+02  0.00000000000E+00 0. -1.
         11    1    4    4    0    0  0.15235982187E+01  0.12960487498E+02  0.13957762079E+02  0.19107975042E+02  0.51100000000E-03 0. -1.
        -11    1    4    4    0    0 -0.90996618335E+01  0.63431312584E+01  0.33848851176E+01  0.11597267228E+02  0.51100000000E-03 0.  1.
         12    1    4    4    0    0  0.21011012283E+02  0.15645710784E+00  0.10881137102E+02  0.23661915827E+02  0.00000000000E+00 0. -1.
</event>
<event>
 8    1  0.2402194E-006  0.9118800E+02  0.7816164E-02  0.1184000E+00
        -11   -1    0    0    0    0  0.00000000000E+00  0.00000000000E+00  0.45593999997E+02  0.45594000000E+02  0.51100000000E-03 0.  1.
         11   -1    0    0    0    0 -0.00000000000E+00 -0.00000000000E+00 -0.45593999997E+02  0.45594000000E+02  0.51100000000E-03 0. -1.
         23    2    1    2    0    0  0.35527136788E-14  0.00000000000E+00 -0.35527136788E-14  0.91188000000E+02  0.91188000000E+02 0.  0.
    9900012    2    3    3    0    0 -0.31004865247E+02  0.78364247563E+01  0.18250173877E+02  0.54367081102E+02  0.39999992989E+02 0.  0.
         12    1    3    3    0    0  0.31004865247E+02 -0.78364247563E+01 -0.18250173877E+02  0.36820918898E+02  0.00000000000E+00 0. -1.
         11    1    4    4    0    0 -0.47964483774E+01  0.16459890205E+02  0.69499711352E+01  0.18499621662E+02  0.51100000000E-03 0. -1.
        -11    1    4    4    0    0 -0.23192757247E+02 -0.12605636865E+01  0.15441028574E+01  0.23278257310E+02  0.51100000000E-03 0.  1.
        -12    1    4    4    0    0 -0.30156596226E+01 -0.73629017618E+01  0.97560998846E+01  0.12589202130E+02  0.00000000000E+00 0.  1.
</event>
<event>
 8    1  0.2402194E-006  0.9118800E+02  0.7816164E-02  0.1184000E+00
        -11   -1    0    0    0    0  0.00000000000E+00  0.00000000000E+00  0.45593999997E+02  0.45594000000E+02  0.51100000000E-03 0.  1.
         11   -1    0    0    0    0 -0.00000000000E+00 -0.00000000000E+00 -0.45593999997E+02  0.45594000000E+02  0.51100000000E-03 0. -1.
         23    2    1    2    0    0 -0.71054273576E-14 -0.35527136788E-14  0.00000000000E+00  0.91188000000E+02  0.91188000000E+02 0.  0.
    9900012    2    3    3    0    0 -0.29919033505E+02 -0.21260796761E+02 -0.29357768178E+01  0.54366962123E+02  0.39999721751E+02 0.  0.
         12    1    3    3    0    0  0.29919033505E+02  0.21260796761E+02  0.29357768178E+01  0.36821037877E+02  0.00000000000E+00 0. -1.
         11    1    4    4    0    0  0.26075349159E+01  0.11462600182E+01  0.40306180643E+01  0.49354870690E+01  0.51100000000E-03 0. -1.
        -11    1    4    4    0    0 -0.45872041405E+01  0.31841464686E+01 -0.99669776469E+01  0.11424617028E+02  0.51100000000E-03 0.  1.
        -12    1    4    4    0    0 -0.27939364281E+02 -0.25591203248E+02  0.30005827648E+01  0.38006858026E+02  0.00000000000E+00 0.  1.
</event>
<event>
 8    1  0.2402194E-006  0.9118800E+02  0.7816164E-02  0.1184000E+00
        -11   -1    0    0    0    0  0.00000000000E+00  0.00000000000E+00  0.45593999997E+02  0.45594000000E+02  0.51100000000E-03 0. -1.
         11   -1    0    0    0    0 -0.00000000000E+00 -0.00000000000E+00 -0.45593999997E+02  0.45594000000E+02  0.51100000000E-03 0.  1.
         23    2    1    2    0    0  0.44408920985E-15  0.00000000000E+00  0.35527136788E-14  0.91188000000E+02  0.91188000000E+02 0.  0.
    9900012    2    3    3    0    0 -0.28641083656E+01  0.28808900266E+02 -0.22751359584E+02  0.54367079123E+02  0.39999988477E+02 0.  0.
         12    1    3    3    0    0  0.28641083656E+01 -0.28808900266E+02  0.22751359584E+02  0.36820920877E+02  0.00000000000E+00 0. -1.
         11    1    4    4    0    0 -0.25875620253E+01  0.21206889856E+02 -0.83798669833E+01  0.22948852379E+02  0.51100000000E-03 0. -1.
        -11    1    4    4    0    0  0.32778426435E+01  0.67545569844E+01 -0.21845042212E+02  0.23099224271E+02  0.51100000000E-03 0.  1.
        -12    1    4    4    0    0 -0.35543889838E+01  0.84745342566E+00  0.74735496107E+01  0.83190024726E+01  0.00000000000E+00 0.  1.
</event>
<event>
 8    1  0.2402194E-006  0.9118800E+02  0.7816164E-02  0.1184000E+00
        -11   -1    0    0    0    0  0.00000000000E+00  0.00000000000E+00  0.45593999997E+02  0.45594000000E+02  0.51100000000E-03 0. -1.
         11   -1    0    0    0    0 -0.00000000000E+00 -0.00000000000E+00 -0.45593999997E+02  0.45594000000E+02  0.51100000000E-03 0.  1.
         23    2    1    2    0    0  0.00000000000E+00 -0.35527136788E-14 -0.35527136788E-14  0.91188000000E+02  0.91188000000E+02 0.  0.
    9900012    2    3    3    0    0  0.14463488690E+02  0.27526966032E+02  0.19719364729E+02  0.54367085979E+02  0.40000004107E+02 0.  0.
        -12    1    3    3    0    0 -0.14463488690E+02 -0.27526966032E+02 -0.19719364729E+02  0.36820914021E+02  0.00000000000E+00 0.  1.
         11    1    4    4    0    0  0.24412708045E+01  0.10298632560E+02  0.19171033327E+01  0.10756250332E+02  0.51100000000E-03 0. -1.
        -11    1    4    4    0    0  0.21171132529E+02  0.18039900754E+01  0.57786502369E+01  0.22019628325E+02  0.51100000000E-03 0.  1.
         12    1    4    4    0    0 -0.91489146427E+01  0.15424343397E+02  0.12023611159E+02  0.21591207323E+02  0.00000000000E+00 0. -1.
</event>
<event>
 8    1  0.2402194E-006  0.9118800E+02  0.7816164E-02  0.1184000E+00
        -11   -1    0    0    0    0  0.00000000000E+00  0.00000000000E+00  0.45593999997E+02  0.45594000000E+02  0.51100000000E-03 0. -1.
         11   -1    0    0    0    0 -0.00000000000E+00 -0.00000000000E+00 -0.45593999997E+02  0.45594000000E+02  0.51100000000E-03 0.  1.
         23    2    1    2    0    0 -0.35527136788E-14  0.88817841970E-15  0.00000000000E+00  0.91188000000E+02  0.91188000000E+02 0.  0.
    9900012    2    3    3    0    0 -0.10013747659E+02  0.55674216331E+01  0.34992979864E+02  0.54367082499E+02  0.39999996174E+02 0.  0.
        -12    1    3    3    0    0  0.10013747659E+02 -0.55674216331E+01 -0.34992979864E+02  0.36820917501E+02  0.00000000000E+00 0.  1.
         11    1    4    4    0    0  0.28191366098E+01  0.31288482697E+01  0.39240043761E+00  0.42297991777E+01  0.51100000000E-03 0. -1.
        -11    1    4    4    0    0  0.59365934973E+01  0.40590047134E+01  0.29855723690E+02  0.30709654816E+02  0.51100000000E-03 0.  1.
         12    1    4    4    0    0 -0.18769477767E+02 -0.16204313500E+01  0.47448557363E+01  0.19427628505E+02  0.00000000000E+00 0. -1.
</event>
<event>
 8    1  0.2402194E-006  0.9118800E+02  0.7816164E-02  0.1184000E+00
        -11   -1    0    0    0    0  0.00000000000E+00  0.00000000000E+00  0.45593999997E+02  0.45594000000E+02  0.51100000000E-03 0.  1.
         11   -1    0    0    0    0 -0.00000000000E+00 -0.00000000000E+00 -0.45593999997E+02  0.45594000000E+02  0.51100000000E-03 0. -1.
         23    2    1    2    0    0  0.00000000000E+00 -0.35527136788E-14  0.00000000000E+00  0.91188000000E+02  0.91188000000E+02 0.  0.
    9900012    2    3    3    0    0  0.26647437957E+02 -0.18683881135E+02  0.17222230668E+02  0.54367101137E+02  0.40000038662E+02 0.  0.
         12    1    3    3    0    0 -0.26647437957E+02  0.18683881135E+02 -0.17222230668E+02  0.36820898863E+02  0.00000000000E+00 0. -1.
         11    1    4    4    0    0  0.85295525797E+01  0.28557606536E+01 -0.95210349376E+01  0.13098043467E+02  0.51100000000E-03 0. -1.
        -11    1    4    4    0    0  0.19890156008E+01  0.11080728634E+01  0.64696811280E+01  0.68586283388E+01  0.51100000000E-03 0.  1.
         12    1    4    4    0    0  0.16128869776E+02 -0.22647714652E+02  0.20273584477E+02  0.34410429331E+02  0.00000000000E+00 0. -1.
</event>
<event>
 8    1  0.2402194E-006  0.9118800E+02  0.7816164E-02  0.1184000E+00
        -11   -1    0    0    0    0  0.00000000000E+00  0.00000000000E+00  0.45593999997E+02  0.45594000000E+02  0.51100000000E-03 0.  1.
         11   -1    0    0    0    0 -0.00000000000E+00 -0.00000000000E+00 -0.45593999997E+02  0.45594000000E+02  0.51100000000E-03 0. -1.
         23    2    1    2    0    0  0.00000000000E+00  0.00000000000E+00 -0.88817841970E-15  0.91188000000E+02  0.91188000000E+02 0.  0.
    9900012    2    3    3    0    0  0.35353802576E+02 -0.89886553630E+01  0.50092665259E+01  0.54367081585E+02  0.39999994089E+02 0.  0.
         12    1    3    3    0    0 -0.35353802576E+02  0.89886553630E+01 -0.50092665259E+01  0.36820918415E+02  0.00000000000E+00 0. -1.
         11    1    4    4    0    0  0.12593368247E+01 -0.26171269346E+01  0.91450777707E+01  0.95951930842E+01  0.51100000000E-03 0. -1.
        -11    1    4    4    0    0  0.30546901883E+02  0.29132001046E+01  0.52147897739E+01  0.31125455533E+02  0.51100000000E-03 0.  1.
         12    1    4    4    0    0  0.35475638688E+01 -0.92847285330E+01 -0.93506010187E+01  0.13646432968E+02  0.00000000000E+00 0. -1.
</event>
<event>
 8    1  0.2402194E-006  0.9118800E+02  0.7816164E-02  0.1184000E+00
        -11   -1    0    0    0    0  0.00000000000E+00  0.00000000000E+00  0.45593999997E+02  0.45594000000E+02  0.51100000000E-03 0. -1.
         11   -1    0    0    0    0 -0.00000000000E+00 -0.00000000000E+00 -0.45593999997E+02  0.45594000000E+02  0.51100000000E-03 0.  1.
         23    2    1    2    0    0  0.00000000000E+00  0.00000000000E+00  0.35527136788E-14  0.91188000000E+02  0.91188000000E+02 0.  0.
    9900012    2    3    3    0    0  0.18423926371E+02 -0.36257399539E+01 -0.31673261546E+02  0.54367047404E+02  0.39999916167E+02 0.  0.
         12    1    3    3    0    0 -0.18423926371E+02  0.36257399539E+01  0.31673261546E+02  0.36820952596E+02  0.00000000000E+00 0. -1.
         11    1    4    4    0    0 -0.26350921391E+01  0.17644898039E+01  0.67956193546E+01  0.74991717892E+01  0.51100000000E-03 0. -1.
        -11    1    4    4    0    0  0.20801187915E+01  0.43598042638E+01 -0.11542090793E+02  0.12512179967E+02  0.51100000000E-03 0.  1.
        -12    1    4    4    0    0  0.18978899718E+02 -0.97500340216E+01 -0.26926790107E+02  0.34355695648E+02  0.00000000000E+00 0.  1.
</event>
<event>
 8    1  0.2402194E-006  0.9118800E+02  0.7816164E-02  0.1184000E+00
        -11   -1    0    0    0    0  0.00000000000E+00  0.00000000000E+00  0.45593999997E+02  0.45594000000E+02  0.51100000000E-03 0. -1.
         11   -1    0    0    0    0 -0.00000000000E+00 -0.00000000000E+00 -0.45593999997E+02  0.45594000000E+02  0.51100000000E-03 0.  1.
         23    2    1    2    0    0  0.44408920985E-15  0.00000000000E+00  0.00000000000E+00  0.91188000000E+02  0.91188000000E+02 0.  0.
    9900012    2    3    3    0    0  0.19675187502E+01  0.27394012700E+02 -0.24524993982E+02  0.54367103872E+02  0.40000044896E+02 0.  0.
         12    1    3    3    0    0 -0.19675187502E+01 -0.27394012700E+02  0.24524993982E+02  0.36820896128E+02  0.00000000000E+00 0. -1.
         11    1    4    4    0    0 -0.87941709460E+01  0.40197022113E+00  0.32291084147E+01  0.93768952272E+01  0.51100000000E-03 0. -1.
        -11    1    4    4    0    0 -0.21586405672E+00  0.21863012055E+02 -0.23623975018E+02  0.32188974655E+02  0.51100000000E-03 0.  1.
         12    1    4    4    0    0  0.10977553753E+02  0.51290304244E+01 -0.41301273789E+01  0.12801233990E+02  0.00000000000E+00 0. -1.
</event>
<event>
 8    1  0.2402194E-006  0.9118800E+02  0.7816164E-02  0.1184000E+00
        -11   -1    0    0    0    0  0.00000000000E+00  0.00000000000E+00  0.45593999997E+02  0.45594000000E+02  0.51100000000E-03 0. -1.
         11   -1    0    0    0    0 -0.00000000000E+00 -0.00000000000E+00 -0.45593999997E+02  0.45594000000E+02  0.51100000000E-03 0.  1.
         23    2    1    2    0    0  0.35527136788E-14  0.00000000000E+00  0.35527136788E-14  0.91188000000E+02  0.91188000000E+02 0.  0.
    9900012    2    3    3    0    0  0.18508147490E+02  0.16203444711E+02 -0.27398491316E+02  0.54367075644E+02  0.39999980546E+02 0.  0.
         12    1    3    3    0    0 -0.18508147490E+02 -0.16203444711E+02  0.27398491316E+02  0.36820924356E+02  0.00000000000E+00 0. -1.
         11    1    4    4    0    0  0.66338473740E+00 -0.10036030040E+01  0.53508523713E+01  0.54844251896E+01  0.51100000000E-03 0. -1.
        -11    1    4    4    0    0  0.15748176917E+02  0.13243272435E+01 -0.45423174428E+01  0.16443587409E+02  0.51100000000E-03 0.  1.
         12    1    4    4    0    0  0.20965858356E+01  0.15882720472E+02 -0.28207026244E+02  0.32439063046E+02  0.00000000000E+00 0. -1.
</event>
<event>
 8    1  0.2402194E-006  0.9118800E+02  0.7816164E-02  0.1184000E+00
        -11   -1    0    0    0    0  0.00000000000E+00  0.00000000000E+00  0.45593999997E+02  0.45594000000E+02  0.51100000000E-03 0. -1.
         11   -1    0    0    0    0 -0.00000000000E+00 -0.00000000000E+00 -0.45593999997E+02  0.45594000000E+02  0.51100000000E-03 0.  1.
         23    2    1    2    0    0  0.00000000000E+00  0.00000000000E+00  0.17763568394E-14  0.91188000000E+02  0.91188000000E+02 0.  0.
    9900012    2    3    3    0    0 -0.90843381038E+01  0.33897170295E+02  0.11146114116E+02  0.54367092723E+02  0.40000019481E+02 0.  0.
         12    1    3    3    0    0  0.90843381038E+01 -0.33897170295E+02 -0.11146114116E+02  0.36820907277E+02  0.00000000000E+00 0. -1.
         11    1    4    4    0    0 -0.67374343773E+01 -0.46180326405E+00  0.95441249663E+01  0.11691732373E+02  0.51100000000E-03 0. -1.
        -11    1    4    4    0    0 -0.57826691679E+01  0.23247029208E+01  0.76783016592E+01  0.98893793034E+01  0.51100000000E-03 0.  1.
         12    1    4    4    0    0  0.34357654413E+01  0.32034270638E+02 -0.60763125100E+01  0.32785981047E+02  0.00000000000E+00 0. -1.
</event>
<event>
 8    1  0.2402194E-006  0.9118800E+02  0.7816164E-02  0.1184000E+00
        -11   -1    0    0    0    0  0.00000000000E+00  0.00000000000E+00  0.45593999997E+02  0.45594000000E+02  0.51100000000E-03 0.  1.
         11   -1    0    0    0    0 -0.00000000000E+00 -0.00000000000E+00 -0.45593999997E+02  0.45594000000E+02  0.51100000000E-03 0. -1.
         23    2    1    2    0    0  0.17763568394E-14  0.00000000000E+00  0.00000000000E+00  0.91188000000E+02  0.91188000000E+02 0.  0.
    9900012    2    3    3    0    0 -0.10928138386E+02 -0.33885552419E+02 -0.93875444388E+01  0.54367070328E+02  0.39999968427E+02 0.  0.
         12    1    3    3    0    0  0.10928138386E+02  0.33885552419E+02  0.93875444388E+01  0.36820929672E+02  0.00000000000E+00 0. -1.
         11    1    4    4    0    0 -0.64438080300E-01  0.85783542986E+01 -0.17188376998E+01  0.87490981271E+01  0.51100000000E-03 0. -1.
        -11    1    4    4    0    0 -0.43440939581E+01 -0.31297230023E+02 -0.25116615316E+01  0.31696943123E+02  0.51100000000E-03 0.  1.
         12    1    4    4    0    0 -0.65196063472E+01 -0.11166676694E+02 -0.51570452074E+01  0.13921029078E+02  0.00000000000E+00 0. -1.
</event>
<event>
 8    1  0.2402194E-006  0.9118800E+02  0.7816164E-02  0.1184000E+00
        -11   -1    0    0    0    0  0.00000000000E+00  0.00000000000E+00  0.45593999997E+02  0.45594000000E+02  0.51100000000E-03 0. -1.
         11   -1    0    0    0    0 -0.00000000000E+00 -0.00000000000E+00 -0.45593999997E+02  0.45594000000E+02  0.51100000000E-03 0.  1.
         23    2    1    2    0    0  0.88817841970E-15  0.00000000000E+00 -0.35527136788E-14  0.91188000000E+02  0.91188000000E+02 0.  0.
    9900012    2    3    3    0    0 -0.44097951931E+01  0.18410839877E+02 -0.31581238022E+02  0.54367083205E+02  0.39999997782E+02 0.  0.
         12    1    3    3    0    0  0.44097951931E+01 -0.18410839877E+02  0.31581238022E+02  0.36820916795E+02  0.00000000000E+00 0. -1.
         11    1    4    4    0    0  0.69530212122E+01  0.95453711701E+01  0.59619160267E+01  0.13228872126E+02  0.51100000000E-03 0. -1.
        -11    1    4    4    0    0  0.80777354377E-01  0.45859088294E+01 -0.95056684003E+01  0.10554374296E+02  0.51100000000E-03 0.  1.
         12    1    4    4    0    0 -0.11443593760E+02  0.42795598774E+01 -0.28037485649E+02  0.30583836783E+02  0.00000000000E+00 0. -1.
</event>
<event>
 8    1  0.2402194E-006  0.9118800E+02  0.7816164E-02  0.1184000E+00
        -11   -1    0    0    0    0  0.00000000000E+00  0.00000000000E+00  0.45593999997E+02  0.45594000000E+02  0.51100000000E-03 0.  1.
         11   -1    0    0    0    0 -0.00000000000E+00 -0.00000000000E+00 -0.45593999997E+02  0.45594000000E+02  0.51100000000E-03 0. -1.
         23    2    1    2    0    0  0.17763568394E-14 -0.88817841970E-15  0.71054273576E-14  0.91188000000E+02  0.91188000000E+02 0.  0.
    9900012    2    3    3    0    0 -0.14566966031E+02  0.30483155526E+01 -0.33679233281E+02  0.54367089073E+02  0.40000011161E+02 0.  0.
        -12    1    3    3    0    0  0.14566966031E+02 -0.30483155526E+01  0.33679233281E+02  0.36820910927E+02  0.00000000000E+00 0.  1.
         11    1    4    4    0    0  0.83198259168E+01 -0.24898764016E+01 -0.26351640905E+02  0.27745773848E+02  0.51100000000E-03 0.  1.
        -11    1    4    4    0    0 -0.78392385586E+01 -0.18935881500E+01  0.54652452507E+00  0.80831940827E+01  0.51100000000E-03 0. -1.
        -12    1    4    4    0    0 -0.15047553389E+02  0.74317801043E+01 -0.78741169010E+01  0.18538121142E+02  0.00000000000E+00 0.  1.
</event>
<event>
 8    1  0.2402194E-006  0.9118800E+02  0.7816164E-02  0.1184000E+00
        -11   -1    0    0    0    0  0.00000000000E+00  0.00000000000E+00  0.45593999997E+02  0.45594000000E+02  0.51100000000E-03 0.  1.
         11   -1    0    0    0    0 -0.00000000000E+00 -0.00000000000E+00 -0.45593999997E+02  0.45594000000E+02  0.51100000000E-03 0. -1.
         23    2    1    2    0    0 -0.55511151231E-16  0.00000000000E+00  0.00000000000E+00  0.91188000000E+02  0.91188000000E+02 0.  0.
    9900012    2    3    3    0    0  0.22552440859E+00  0.13797119621E+02 -0.34137488500E+02  0.54367088928E+02  0.40000010829E+02 0.  0.
        -12    1    3    3    0    0 -0.22552440859E+00 -0.13797119621E+02  0.34137488500E+02  0.36820911072E+02  0.00000000000E+00 0.  1.
         11    1    4    4    0    0 -0.14747572397E+02  0.88255974332E+00 -0.14740782382E+02  0.20870085501E+02  0.51100000000E-03 0.  1.
        -11    1    4    4    0    0  0.19349942083E+02  0.10521791447E+02 -0.17604643708E+02  0.28196663530E+02  0.51100000000E-03 0. -1.
         12    1    4    4    0    0 -0.43768452775E+01  0.23927684307E+01 -0.17920624089E+01  0.53003398969E+01  0.00000000000E+00 0. -1.
</event>
<event>
 8    1  0.2402194E-006  0.9118800E+02  0.7816164E-02  0.1184000E+00
        -11   -1    0    0    0    0  0.00000000000E+00  0.00000000000E+00  0.45593999997E+02  0.45594000000E+02  0.51100000000E-03 0.  1.
         11   -1    0    0    0    0 -0.00000000000E+00 -0.00000000000E+00 -0.45593999997E+02  0.45594000000E+02  0.51100000000E-03 0. -1.
         23    2    1    2    0    0  0.00000000000E+00 -0.17763568394E-14 -0.17763568394E-14  0.91188000000E+02  0.91188000000E+02 0.  0.
    9900012    2    3    3    0    0  0.35121534914E+02 -0.20995286206E+01 -0.10855878437E+02  0.54367077527E+02  0.39999984838E+02 0.  0.
         12    1    3    3    0    0 -0.35121534914E+02  0.20995286206E+01  0.10855878437E+02  0.36820922473E+02  0.00000000000E+00 0. -1.
         11    1    4    4    0    0 -0.36885293393E+01 -0.20144832782E+01 -0.72886985850E+01  0.84135913193E+01  0.51100000000E-03 0. -1.
        -11    1    4    4    0    0  0.99986527743E+01  0.10419287100E+02  0.26000529907E+01  0.14672930068E+02  0.51100000000E-03 0.  1.
        -12    1    4    4    0    0  0.28811411479E+02 -0.10504332442E+02 -0.61672328425E+01  0.31280556139E+02  0.00000000000E+00 0.  1.
</event>
<event>
 8    1  0.2402194E-006  0.9118800E+02  0.7816164E-02  0.1184000E+00
        -11   -1    0    0    0    0  0.00000000000E+00  0.00000000000E+00  0.45593999997E+02  0.45594000000E+02  0.51100000000E-03 0. -1.
         11   -1    0    0    0    0 -0.00000000000E+00 -0.00000000000E+00 -0.45593999997E+02  0.45594000000E+02  0.51100000000E-03 0.  1.
         23    2    1    2    0    0 -0.17763568394E-14  0.00000000000E+00 -0.17763568394E-14  0.91188000000E+02  0.91188000000E+02 0.  0.
    9900012    2    3    3    0    0  0.12601404582E+02 -0.33128616394E+02  0.99739946634E+01  0.54367065856E+02  0.39999958233E+02 0.  0.
        -12    1    3    3    0    0 -0.12601404582E+02  0.33128616394E+02 -0.99739946634E+01  0.36820934144E+02  0.00000000000E+00 0.  1.
         11    1    4    4    0    0  0.11441861360E+02 -0.21785139620E+02 -0.77407108751E+01  0.25795873793E+02  0.51100000000E-03 0. -1.
        -11    1    4    4    0    0  0.92543631676E+00 -0.14414519779E+02  0.46888799407E+01  0.15186191365E+02  0.51100000000E-03 0.  1.
        -12    1    4    4    0    0  0.23410690607E+00  0.30710430044E+01  0.13025825598E+02  0.13385000698E+02  0.00000000000E+00 0.  1.
</event>
<event>
 8    1  0.2402194E-006  0.9118800E+02  0.7816164E-02  0.1184000E+00
        -11   -1    0    0    0    0  0.00000000000E+00  0.00000000000E+00  0.45593999997E+02  0.45594000000E+02  0.51100000000E-03 0.  1.
         11   -1    0    0    0    0 -0.00000000000E+00 -0.00000000000E+00 -0.45593999997E+02  0.45594000000E+02  0.51100000000E-03 0. -1.
         23    2    1    2    0    0  0.17763568394E-14  0.00000000000E+00  0.00000000000E+00  0.91188000000E+02  0.91188000000E+02 0.  0.
    9900012    2    3    3    0    0 -0.10964146326E+02  0.28359492883E+02  0.20767849743E+02  0.54367123800E+02  0.40000090326E+02 0.  0.
         12    1    3    3    0    0  0.10964146326E+02 -0.28359492883E+02 -0.20767849743E+02  0.36820876200E+02  0.00000000000E+00 0. -1.
         11    1    4    4    0    0  0.18265687677E+01 -0.75071259970E+01  0.52961510099E+01  0.93670972013E+01  0.51100000000E-03 0. -1.
        -11    1    4    4    0    0 -0.65276015844E+01  0.17356650123E+02  0.17317211363E+02  0.25372203207E+02  0.51100000000E-03 0.  1.
         12    1    4    4    0    0 -0.62631135092E+01  0.18509968757E+02 -0.18455126302E+01  0.19627823391E+02  0.00000000000E+00 0. -1.
</event>
<event>
 8    1  0.2402194E-006  0.9118800E+02  0.7816164E-02  0.1184000E+00
        -11   -1    0    0    0    0  0.00000000000E+00  0.00000000000E+00  0.45593999997E+02  0.45594000000E+02  0.51100000000E-03 0. -1.
         11   -1    0    0    0    0 -0.00000000000E+00 -0.00000000000E+00 -0.45593999997E+02  0.45594000000E+02  0.51100000000E-03 0.  1.
         23    2    1    2    0    0  0.22204460493E-15 -0.14210854715E-13 -0.35527136788E-14  0.91188000000E+02  0.91188000000E+02 0.  0.
    9900012    2    3    3    0    0 -0.13427982446E+01 -0.30713153652E+02 -0.20265219618E+02  0.54367081482E+02  0.39999993854E+02 0.  0.
         12    1    3    3    0    0  0.13427982446E+01  0.30713153652E+02  0.20265219618E+02  0.36820918518E+02  0.00000000000E+00 0. -1.
         11    1    4    4    0    0 -0.69432996759E+01  0.57277328670E+01 -0.83026010374E+00  0.90391186675E+01  0.51100000000E-03 0. -1.
        -11    1    4    4    0    0  0.33383860675E+01 -0.43118540101E+00 -0.58988910117E+01  0.67917345218E+01  0.51100000000E-03 0.  1.
        -12    1    4    4    0    0  0.22621153638E+01 -0.36009701118E+02 -0.13536068503E+02  0.38536228292E+02  0.00000000000E+00 0.  1.
</event>
<event>
 8    1  0.2402194E-006  0.9118800E+02  0.7816164E-02  0.1184000E+00
        -11   -1    0    0    0    0  0.00000000000E+00  0.00000000000E+00  0.45593999997E+02  0.45594000000E+02  0.51100000000E-03 0. -1.
         11   -1    0    0    0    0 -0.00000000000E+00 -0.00000000000E+00 -0.45593999997E+02  0.45594000000E+02  0.51100000000E-03 0.  1.
         23    2    1    2    0    0  0.00000000000E+00  0.00000000000E+00  0.00000000000E+00  0.91188000000E+02  0.91188000000E+02 0.  0.
    9900012    2    3    3    0    0 -0.47812519136E+01  0.35930929328E+02 -0.64720619537E+01  0.54367086946E+02  0.40000006310E+02 0.  0.
         12    1    3    3    0    0  0.47812519136E+01 -0.35930929328E+02  0.64720619537E+01  0.36820913054E+02  0.00000000000E+00 0. -1.
         11    1    4    4    0    0 -0.11827522939E+01 -0.50340802922E+01  0.20351912685E+01  0.55572359260E+01  0.51100000000E-03 0. -1.
        -11    1    4    4    0    0 -0.39994292898E+01  0.41527808392E+01 -0.10459955026E+02  0.11943687987E+02  0.51100000000E-03 0.  1.
        -12    1    4    4    0    0  0.40092967010E+00  0.36812228781E+02  0.19527018034E+01  0.36866163032E+02  0.00000000000E+00 0.  1.
</event>
<event>
 8    1  0.2402194E-006  0.9118800E+02  0.7816164E-02  0.1184000E+00
        -11   -1    0    0    0    0  0.00000000000E+00  0.00000000000E+00  0.45593999997E+02  0.45594000000E+02  0.51100000000E-03 0. -1.
         11   -1    0    0    0    0 -0.00000000000E+00 -0.00000000000E+00 -0.45593999997E+02  0.45594000000E+02  0.51100000000E-03 0.  1.
         23    2    1    2    0    0  0.71054273576E-14  0.17763568394E-14  0.00000000000E+00  0.91188000000E+02  0.91188000000E+02 0.  0.
    9900012    2    3    3    0    0  0.35154141659E+02  0.10723487706E+02 -0.22297969658E+01  0.54367097527E+02  0.40000030433E+02 0.  0.
         12    1    3    3    0    0 -0.35154141659E+02 -0.10723487706E+02  0.22297969658E+01  0.36820902473E+02  0.00000000000E+00 0. -1.
         11    1    4    4    0    0  0.16434978669E+02 -0.54757803117E+01 -0.54141577097E+01  0.18149539880E+02  0.51100000000E-03 0. -1.
        -11    1    4    4    0    0 -0.37990467234E+01  0.11804671943E+02 -0.23377113750E+01  0.12619347465E+02  0.51100000000E-03 0.  1.
         12    1    4    4    0    0  0.22518209713E+02  0.43945960748E+01  0.55220721190E+01  0.23598210183E+02  0.00000000000E+00 0. -1.
</event>
<event>
 8    1  0.2402194E-006  0.9118800E+02  0.7816164E-02  0.1184000E+00
        -11   -1    0    0    0    0  0.00000000000E+00  0.00000000000E+00  0.45593999997E+02  0.45594000000E+02  0.51100000000E-03 0.  1.
         11   -1    0    0    0    0 -0.00000000000E+00 -0.00000000000E+00 -0.45593999997E+02  0.45594000000E+02  0.51100000000E-03 0. -1.
         23    2    1    2    0    0  0.71054273576E-14  0.17763568394E-14  0.00000000000E+00  0.91188000000E+02  0.91188000000E+02 0.  0.
    9900012    2    3    3    0    0 -0.27155178817E+02 -0.91476426066E+01  0.23123518088E+02  0.54367079444E+02  0.39999989209E+02 0.  0.
         12    1    3    3    0    0  0.27155178817E+02  0.91476426066E+01 -0.23123518088E+02  0.36820920556E+02  0.00000000000E+00 0. -1.
         11    1    4    4    0    0  0.32097026287E+01  0.60228451081E+01  0.10671678897E+02  0.12667343246E+02  0.51100000000E-03 0. -1.
        -11    1    4    4    0    0 -0.40655335622E+01 -0.56381850507E+01  0.11827892907E+02  0.13719210790E+02  0.51100000000E-03 0.  1.
         12    1    4    4    0    0 -0.26299347884E+02 -0.95323026641E+01  0.62394628357E+00  0.27980525409E+02  0.00000000000E+00 0. -1.
</event>
<event>
 8    1  0.2402194E-006  0.9118800E+02  0.7816164E-02  0.1184000E+00
        -11   -1    0    0    0    0  0.00000000000E+00  0.00000000000E+00  0.45593999997E+02  0.45594000000E+02  0.51100000000E-03 0.  1.
         11   -1    0    0    0    0 -0.00000000000E+00 -0.00000000000E+00 -0.45593999997E+02  0.45594000000E+02  0.51100000000E-03 0. -1.
         23    2    1    2    0    0  0.88817841970E-15  0.00000000000E+00  0.17763568394E-14  0.91188000000E+02  0.91188000000E+02 0.  0.
    9900012    2    3    3    0    0  0.19343370528E+01  0.35295263501E+02  0.10309318672E+02  0.54367091036E+02  0.40000015636E+02 0.  0.
         12    1    3    3    0    0 -0.19343370528E+01 -0.35295263501E+02 -0.10309318672E+02  0.36820908964E+02  0.00000000000E+00 0. -1.
         11    1    4    4    0    0  0.38604237150E+01  0.24255904698E+02 -0.89324238972E+01  0.26135033593E+02  0.51100000000E-03 0. -1.
        -11    1    4    4    0    0 -0.71646262393E+01  0.10923752406E+02  0.67903798326E+01  0.14723093911E+02  0.51100000000E-03 0.  1.
        -12    1    4    4    0    0  0.52385395771E+01  0.11560639725E+00  0.12451362736E+02  0.13508963533E+02  0.00000000000E+00 0.  1.
</event>
<event>
 8    1  0.2402194E-006  0.9118800E+02  0.7816164E-02  0.1184000E+00
        -11   -1    0    0    0    0  0.00000000000E+00  0.00000000000E+00  0.45593999997E+02  0.45594000000E+02  0.51100000000E-03 0.  1.
         11   -1    0    0    0    0 -0.00000000000E+00 -0.00000000000E+00 -0.45593999997E+02  0.45594000000E+02  0.51100000000E-03 0. -1.
         23    2    1    2    0    0 -0.35527136788E-14  0.17763568394E-14 -0.35527136788E-14  0.91188000000E+02  0.91188000000E+02 0.  0.
    9900012    2    3    3    0    0  0.25093342863E+02  0.11646733124E+02 -0.24299331939E+02  0.54367085004E+02  0.40000001883E+02 0.  0.
        -12    1    3    3    0    0 -0.25093342863E+02 -0.11646733124E+02  0.24299331939E+02  0.36820914996E+02  0.00000000000E+00 0.  1.
         11    1    4    4    0    0  0.91173079416E+01  0.10768532181E+02 -0.22791295751E+02  0.26805405271E+02  0.51100000000E-03 0. -1.
        -11    1    4    4    0    0  0.16944753041E+00 -0.28298859507E+01 -0.91776940300E+01  0.96055731182E+01  0.51100000000E-03 0.  1.
         12    1    4    4    0    0  0.15806587391E+02  0.37080868932E+01  0.76696578427E+01  0.17956106615E+02  0.00000000000E+00 0. -1.
</event>
<event>
 8    1  0.2402194E-006  0.9118800E+02  0.7816164E-02  0.1184000E+00
        -11   -1    0    0    0    0  0.00000000000E+00  0.00000000000E+00  0.45593999997E+02  0.45594000000E+02  0.51100000000E-03 0.  1.
         11   -1    0    0    0    0 -0.00000000000E+00 -0.00000000000E+00 -0.45593999997E+02  0.45594000000E+02  0.51100000000E-03 0. -1.
         23    2    1    2    0    0  0.00000000000E+00  0.22204460493E-15  0.71054273576E-14  0.91188000000E+02  0.91188000000E+02 0.  0.
    9900012    2    3    3    0    0 -0.15585209396E+02  0.41597007106E+00  0.33357271741E+02  0.54367090709E+02  0.40000014889E+02 0.  0.
         12    1    3    3    0    0  0.15585209396E+02 -0.41597007106E+00 -0.33357271741E+02  0.36820909291E+02  0.00000000000E+00 0. -1.
         11    1    4    4    0    0 -0.21674615482E+02 -0.41235921707E+01  0.19389235794E+02  0.29372358326E+02  0.51100000000E-03 0. -1.
        -11    1    4    4    0    0  0.56304374172E+01 -0.50404741910E+01 -0.56950116097E+00  0.75784257872E+01  0.51100000000E-03 0.  1.
        -12    1    4    4    0    0  0.45896866839E+00  0.95800364327E+01  0.14537537107E+02  0.17416306596E+02  0.00000000000E+00 0.  1.
</event>
<event>
 8    1  0.2402194E-006  0.9118800E+02  0.7816164E-02  0.1184000E+00
        -11   -1    0    0    0    0  0.00000000000E+00  0.00000000000E+00  0.45593999997E+02  0.45594000000E+02  0.51100000000E-03 0.  1.
         11   -1    0    0    0    0 -0.00000000000E+00 -0.00000000000E+00 -0.45593999997E+02  0.45594000000E+02  0.51100000000E-03 0. -1.
         23    2    1    2    0    0  0.00000000000E+00  0.17763568394E-14  0.00000000000E+00  0.91188000000E+02  0.91188000000E+02 0.  0.
    9900012    2    3    3    0    0 -0.35617186960E+02  0.86593064307E+01  0.34947497601E+01  0.54367070208E+02  0.39999968154E+02 0.  0.
         12    1    3    3    0    0  0.35617186960E+02 -0.86593064307E+01 -0.34947497601E+01  0.36820929792E+02  0.00000000000E+00 0. -1.
         11    1    4    4    0    0  0.14121196633E+01  0.42070110731E+01  0.51276824362E+01  0.67813089843E+01  0.51100000000E-03 0. -1.
        -11    1    4    4    0    0 -0.39947888628E+02 -0.78582459068E+00  0.29120690900E+01  0.40061595984E+02  0.51100000000E-03 0.  1.
         12    1    4    4    0    0  0.29185820044E+01  0.52381199483E+01 -0.45450017661E+01  0.75241652403E+01  0.00000000000E+00 0. -1.
</event>
<event>
 8    1  0.2402194E-006  0.9118800E+02  0.7816164E-02  0.1184000E+00
        -11   -1    0    0    0    0  0.00000000000E+00  0.00000000000E+00  0.45593999997E+02  0.45594000000E+02  0.51100000000E-03 0. -1.
         11   -1    0    0    0    0 -0.00000000000E+00 -0.00000000000E+00 -0.45593999997E+02  0.45594000000E+02  0.51100000000E-03 0.  1.
         23    2    1    2    0    0  0.00000000000E+00  0.17763568394E-14  0.00000000000E+00  0.91188000000E+02  0.91188000000E+02 0.  0.
    9900012    2    3    3    0    0  0.33332916847E+02  0.59898748233E+01 -0.14450373288E+02  0.54367146750E+02  0.40000142646E+02 0.  0.
         12    1    3    3    0    0 -0.33332916847E+02 -0.59898748233E+01  0.14450373288E+02  0.36820853250E+02  0.00000000000E+00 0. -1.
         11    1    4    4    0    0  0.21269203354E+02  0.86802507222E+01 -0.12203676047E+01  0.23004674770E+02  0.51100000000E-03 0. -1.
        -11    1    4    4    0    0  0.93586182703E+01 -0.10854829199E+02 -0.16771339903E+02  0.22061026614E+02  0.51100000000E-03 0.  1.
        -12    1    4    4    0    0  0.27050952218E+01  0.81644532999E+01  0.35413342197E+01  0.93014453662E+01  0.00000000000E+00 0.  1.
</event>
<event>
 8    1  0.2402194E-006  0.9118800E+02  0.7816164E-02  0.1184000E+00
        -11   -1    0    0    0    0  0.00000000000E+00  0.00000000000E+00  0.45593999997E+02  0.45594000000E+02  0.51100000000E-03 0.  1.
         11   -1    0    0    0    0 -0.00000000000E+00 -0.00000000000E+00 -0.45593999997E+02  0.45594000000E+02  0.51100000000E-03 0. -1.
         23    2    1    2    0    0  0.00000000000E+00  0.00000000000E+00  0.00000000000E+00  0.91188000000E+02  0.91188000000E+02 0.  0.
    9900012    2    3    3    0    0  0.17753828812E+02  0.31767710787E+02  0.56031712403E+01  0.54367062830E+02  0.39999951334E+02 0.  0.
        -12    1    3    3    0    0 -0.17753828812E+02 -0.31767710787E+02 -0.56031712403E+01  0.36820937170E+02  0.00000000000E+00 0.  1.
         11    1    4    4    0    0 -0.10331452924E+02  0.64748582662E+01 -0.33264640038E+01  0.12638357177E+02  0.51100000000E-03 0. -1.
        -11    1    4    4    0    0  0.11358115304E+02  0.56970111860E+01  0.96479276317E+01  0.15954473591E+02  0.51100000000E-03 0.  1.
         12    1    4    4    0    0  0.16727166433E+02  0.19595841334E+02 -0.71829238751E+00  0.25774232063E+02  0.00000000000E+00 0. -1.
</event>
<event>
 8    1  0.2402194E-006  0.9118800E+02  0.7816164E-02  0.1184000E+00
        -11   -1    0    0    0    0  0.00000000000E+00  0.00000000000E+00  0.45593999997E+02  0.45594000000E+02  0.51100000000E-03 0.  1.
         11   -1    0    0    0    0 -0.00000000000E+00 -0.00000000000E+00 -0.45593999997E+02  0.45594000000E+02  0.51100000000E-03 0. -1.
         23    2    1    2    0    0  0.35527136788E-14 -0.35527136788E-14  0.00000000000E+00  0.91188000000E+02  0.91188000000E+02 0.  0.
    9900012    2    3    3    0    0  0.27008942568E+02 -0.23261025701E+02 -0.92315441861E+01  0.54367086060E+02  0.40000004292E+02 0.  0.
        -12    1    3    3    0    0 -0.27008942568E+02  0.23261025701E+02  0.92315441861E+01  0.36820913940E+02  0.00000000000E+00 0.  1.
         11    1    4    4    0    0  0.17129270179E+02 -0.10836616307E+02 -0.52976441004E+01  0.20950159501E+02  0.51100000000E-03 0. -1.
        -11    1    4    4    0    0  0.11694227463E+02  0.44200526331E+01 -0.93709952856E+01  0.15623935937E+02  0.51100000000E-03 0.  1.
         12    1    4    4    0    0 -0.18145550742E+01 -0.16844462027E+02  0.54370951999E+01  0.17792990623E+02  0.00000000000E+00 0. -1.
</event>
<event>
 8    1  0.2402194E-006  0.9118800E+02  0.7816164E-02  0.1184000E+00
        -11   -1    0    0    0    0  0.00000000000E+00  0.00000000000E+00  0.45593999997E+02  0.45594000000E+02  0.51100000000E-03 0.  1.
         11   -1    0    0    0    0 -0.00000000000E+00 -0.00000000000E+00 -0.45593999997E+02  0.45594000000E+02  0.51100000000E-03 0. -1.
         23    2    1    2    0    0  0.17763568394E-14  0.00000000000E+00 -0.35527136788E-14  0.91188000000E+02  0.91188000000E+02 0.  0.
    9900012    2    3    3    0    0  0.13786160274E+02 -0.27124569778E+02 -0.20735926470E+02  0.54367093611E+02  0.40000021505E+02 0.  0.
        -12    1    3    3    0    0 -0.13786160274E+02  0.27124569778E+02  0.20735926470E+02  0.36820906389E+02  0.00000000000E+00 0.  1.
         11    1    4    4    0    0 -0.49529347058E+01 -0.53628070908E+01  0.19674859830E+01  0.75605729576E+01  0.51100000000E-03 0. -1.
        -11    1    4    4    0    0 -0.71488942997E+01 -0.23858687804E+01 -0.44368680633E+00  0.75495640794E+01  0.51100000000E-03 0.  1.
         12    1    4    4    0    0  0.25887989279E+02 -0.19375893907E+02 -0.22259725646E+02  0.39256956574E+02  0.00000000000E+00 0. -1.
</event>
<event>
 8    1  0.2402194E-006  0.9118800E+02  0.7816164E-02  0.1184000E+00
        -11   -1    0    0    0    0  0.00000000000E+00  0.00000000000E+00  0.45593999997E+02  0.45594000000E+02  0.51100000000E-03 0. -1.
         11   -1    0    0    0    0 -0.00000000000E+00 -0.00000000000E+00 -0.45593999997E+02  0.45594000000E+02  0.51100000000E-03 0.  1.
         23    2    1    2    0    0  0.00000000000E+00  0.00000000000E+00  0.00000000000E+00  0.91188000000E+02  0.91188000000E+02 0.  0.
    9900012    2    3    3    0    0 -0.48405458466E+01 -0.21351408369E+02 -0.29605175898E+02  0.54367082530E+02  0.39999996243E+02 0.  0.
         12    1    3    3    0    0  0.48405458466E+01  0.21351408369E+02  0.29605175898E+02  0.36820917470E+02  0.00000000000E+00 0. -1.
         11    1    4    4    0    0 -0.85849541160E+01 -0.27660087070E+01 -0.15906499626E+02  0.18285758720E+02  0.51100000000E-03 0. -1.
        -11    1    4    4    0    0  0.12066288094E+02 -0.12924940114E+02 -0.17913153885E+02  0.25170031142E+02  0.51100000000E-03 0.  1.
        -12    1    4    4    0    0 -0.83218798251E+01 -0.56604595481E+01  0.42144776143E+01  0.10911292668E+02  0.00000000000E+00 0.  1.
</event>
<event>
 8    1  0.2402194E-006  0.9118800E+02  0.7816164E-02  0.1184000E+00
        -11   -1    0    0    0    0  0.00000000000E+00  0.00000000000E+00  0.45593999997E+02  0.45594000000E+02  0.51100000000E-03 0. -1.
         11   -1    0    0    0    0 -0.00000000000E+00 -0.00000000000E+00 -0.45593999997E+02  0.45594000000E+02  0.51100000000E-03 0.  1.
         23    2    1    2    0    0  0.00000000000E+00  0.00000000000E+00  0.00000000000E+00  0.91188000000E+02  0.91188000000E+02 0.  0.
    9900012    2    3    3    0    0 -0.28035433675E+02  0.12109802544E+02  0.20570519059E+02  0.54367094072E+02  0.40000022557E+02 0.  0.
        -12    1    3    3    0    0  0.28035433675E+02 -0.12109802544E+02 -0.20570519059E+02  0.36820905928E+02  0.00000000000E+00 0.  1.
         11    1    4    4    0    0  0.17346377105E+01  0.11920043102E+02  0.16187314737E+01  0.12153875406E+02  0.51100000000E-03 0. -1.
        -11    1    4    4    0    0 -0.20300698550E+01 -0.17996492914E+01 -0.48829034047E+01  0.55859347570E+01  0.51100000000E-03 0.  1.
         12    1    4    4    0    0 -0.27740001530E+02  0.19894087334E+01  0.23834690990E+02  0.36627283910E+02  0.00000000000E+00 0. -1.
</event>
<event>
 8    1  0.2402194E-006  0.9118800E+02  0.7816164E-02  0.1184000E+00
        -11   -1    0    0    0    0  0.00000000000E+00  0.00000000000E+00  0.45593999997E+02  0.45594000000E+02  0.51100000000E-03 0. -1.
         11   -1    0    0    0    0 -0.00000000000E+00 -0.00000000000E+00 -0.45593999997E+02  0.45594000000E+02  0.51100000000E-03 0.  1.
         23    2    1    2    0    0  0.22204460493E-15  0.00000000000E+00  0.00000000000E+00  0.91188000000E+02  0.91188000000E+02 0.  0.
    9900012    2    3    3    0    0 -0.58679554008E+00 -0.95271241683E+01  0.35562184704E+02  0.54367090114E+02  0.40000013533E+02 0.  0.
        -12    1    3    3    0    0  0.58679554008E+00  0.95271241683E+01 -0.35562184704E+02  0.36820909886E+02  0.00000000000E+00 0.  1.
         11    1    4    4    0    0  0.73959533903E+01  0.21244978594E+01  0.12512508702E+02  0.14689332592E+02  0.51100000000E-03 0. -1.
        -11    1    4    4    0    0 -0.41919082112E+01  0.30723346069E+01  0.23891586111E+02  0.24450341951E+02  0.51100000000E-03 0.  1.
        -12    1    4    4    0    0 -0.37908407192E+01 -0.14723956635E+02 -0.84191010895E+00  0.15227415571E+02  0.00000000000E+00 0.  1.
</event>
<event>
 8    1  0.2402194E-006  0.9118800E+02  0.7816164E-02  0.1184000E+00
        -11   -1    0    0    0    0  0.00000000000E+00  0.00000000000E+00  0.45593999997E+02  0.45594000000E+02  0.51100000000E-03 0.  1.
         11   -1    0    0    0    0 -0.00000000000E+00 -0.00000000000E+00 -0.45593999997E+02  0.45594000000E+02  0.51100000000E-03 0. -1.
         23    2    1    2    0    0  0.00000000000E+00  0.00000000000E+00 -0.35527136788E-14  0.91188000000E+02  0.91188000000E+02 0.  0.
    9900012    2    3    3    0    0 -0.19055756201E+02  0.72606167392E+01  0.30658464697E+02  0.54367083969E+02  0.39999999523E+02 0.  0.
         12    1    3    3    0    0  0.19055756201E+02 -0.72606167392E+01 -0.30658464697E+02  0.36820916031E+02  0.00000000000E+00 0. -1.
         11    1    4    4    0    0  0.88909582254E+00  0.78269774821E+01 -0.15435774546E+01  0.80271227415E+01  0.51100000000E-03 0. -1.
        -11    1    4    4    0    0 -0.11919010161E+02 -0.13546807701E+02  0.18201611765E+02  0.25629621012E+02  0.51100000000E-03 0.  1.
         12    1    4    4    0    0 -0.80258418618E+01  0.12980446958E+02  0.14000430387E+02  0.20710340215E+02  0.00000000000E+00 0. -1.
</event>
<event>
 8    1  0.2402194E-006  0.9118800E+02  0.7816164E-02  0.1184000E+00
        -11   -1    0    0    0    0  0.00000000000E+00  0.00000000000E+00  0.45593999997E+02  0.45594000000E+02  0.51100000000E-03 0. -1.
         11   -1    0    0    0    0 -0.00000000000E+00 -0.00000000000E+00 -0.45593999997E+02  0.45594000000E+02  0.51100000000E-03 0.  1.
         23    2    1    2    0    0  0.35527136788E-14  0.00000000000E+00  0.00000000000E+00  0.91188000000E+02  0.91188000000E+02 0.  0.
    9900012    2    3    3    0    0 -0.30529405633E+02  0.16392343073E+02  0.12450770736E+02  0.54367147055E+02  0.40000143340E+02 0.  0.
         12    1    3    3    0    0  0.30529405633E+02 -0.16392343073E+02 -0.12450770736E+02  0.36820852945E+02  0.00000000000E+00 0. -1.
         11    1    4    4    0    0 -0.22623379442E+02  0.37702904447E+01  0.12954267694E+02  0.26340946056E+02  0.51100000000E-03 0. -1.
        -11    1    4    4    0    0 -0.13618046853E+02  0.42154629877E+01 -0.70836284416E+01  0.15918515020E+02  0.51100000000E-03 0.  1.
         12    1    4    4    0    0  0.57120206612E+01  0.84065896401E+01  0.65801314833E+01  0.12107685978E+02  0.00000000000E+00 0. -1.
</event>
<event>
 8    1  0.2402194E-006  0.9118800E+02  0.7816164E-02  0.1184000E+00
        -11   -1    0    0    0    0  0.00000000000E+00  0.00000000000E+00  0.45593999997E+02  0.45594000000E+02  0.51100000000E-03 0.  1.
         11   -1    0    0    0    0 -0.00000000000E+00 -0.00000000000E+00 -0.45593999997E+02  0.45594000000E+02  0.51100000000E-03 0. -1.
         23    2    1    2    0    0  0.00000000000E+00  0.00000000000E+00  0.00000000000E+00  0.91188000000E+02  0.91188000000E+02 0.  0.
    9900012    2    3    3    0    0 -0.55148440127E+01 -0.19281702899E+02 -0.30880146934E+02  0.54367067830E+02  0.39999962733E+02 0.  0.
        -12    1    3    3    0    0  0.55148440127E+01  0.19281702899E+02  0.30880146934E+02  0.36820932170E+02  0.00000000000E+00 0.  1.
         11    1    4    4    0    0  0.14131225162E+02 -0.36853351523E+01 -0.16419238894E+02  0.21974180892E+02  0.51100000000E-03 0. -1.
        -11    1    4    4    0    0 -0.36154105637E+01 -0.71738053798E+01  0.15964031010E+01  0.81904322409E+01  0.51100000000E-03 0.  1.
        -12    1    4    4    0    0 -0.16030658611E+02 -0.84225623672E+01 -0.16057311141E+02  0.24202454698E+02  0.00000000000E+00 0.  1.
</event>
<event>
 8    1  0.2402194E-006  0.9118800E+02  0.7816164E-02  0.1184000E+00
        -11   -1    0    0    0    0  0.00000000000E+00  0.00000000000E+00  0.45593999997E+02  0.45594000000E+02  0.51100000000E-03 0. -1.
         11   -1    0    0    0    0 -0.00000000000E+00 -0.00000000000E+00 -0.45593999997E+02  0.45594000000E+02  0.51100000000E-03 0.  1.
         23    2    1    2    0    0  0.00000000000E+00  0.00000000000E+00  0.00000000000E+00  0.91188000000E+02  0.91188000000E+02 0.  0.
    9900012    2    3    3    0    0  0.17431475438E+02  0.20075807334E+02  0.25473229462E+02  0.54367084812E+02  0.40000001446E+02 0.  0.
        -12    1    3    3    0    0 -0.17431475438E+02 -0.20075807334E+02 -0.25473229462E+02  0.36820915188E+02  0.00000000000E+00 0.  1.
         11    1    4    4    0    0 -0.20919901444E+01 -0.10634651583E+02  0.90775864888E+01  0.14137708930E+02  0.51100000000E-03 0. -1.
        -11    1    4    4    0    0  0.17555169563E+01  0.63093664259E+01  0.27268007297E+01  0.70940388328E+01  0.51100000000E-03 0.  1.
         12    1    4    4    0    0  0.17767948626E+02  0.24401092491E+02  0.13668842243E+02  0.33135337050E+02  0.00000000000E+00 0. -1.
</event>
<event>
 8    1  0.2402194E-006  0.9118800E+02  0.7816164E-02  0.1184000E+00
        -11   -1    0    0    0    0  0.00000000000E+00  0.00000000000E+00  0.45593999997E+02  0.45594000000E+02  0.51100000000E-03 0.  1.
         11   -1    0    0    0    0 -0.00000000000E+00 -0.00000000000E+00 -0.45593999997E+02  0.45594000000E+02  0.51100000000E-03 0. -1.
         23    2    1    2    0    0  0.00000000000E+00 -0.88817841970E-15  0.00000000000E+00  0.91188000000E+02  0.91188000000E+02 0.  0.
    9900012    2    3    3    0    0  0.11159583666E+02 -0.19276278300E+01  0.35036088321E+02  0.54367088258E+02  0.40000009302E+02 0.  0.
         12    1    3    3    0    0 -0.11159583666E+02  0.19276278300E+01 -0.35036088321E+02  0.36820911742E+02  0.00000000000E+00 0. -1.
         11    1    4    4    0    0  0.66679466541E+01  0.59881613217E+00 -0.61065000816E+01  0.90614257625E+01  0.51100000000E-03 0. -1.
        -11    1    4    4    0    0  0.32777473633E+01  0.78063286505E+01  0.16166345335E+02  0.18249194956E+02  0.51100000000E-03 0.  1.
        -12    1    4    4    0    0  0.12138896484E+01 -0.10332772613E+02  0.24976243068E+02  0.27056467540E+02  0.00000000000E+00 0.  1.
</event>
<event>
 8    1  0.2402194E-006  0.9118800E+02  0.7816164E-02  0.1184000E+00
        -11   -1    0    0    0    0  0.00000000000E+00  0.00000000000E+00  0.45593999997E+02  0.45594000000E+02  0.51100000000E-03 0. -1.
         11   -1    0    0    0    0 -0.00000000000E+00 -0.00000000000E+00 -0.45593999997E+02  0.45594000000E+02  0.51100000000E-03 0.  1.
         23    2    1    2    0    0 -0.17763568394E-14  0.71054273576E-14  0.13322676296E-14  0.91188000000E+02  0.91188000000E+02 0.  0.
    9900012    2    3    3    0    0 -0.15782983591E+02  0.33248061929E+02 -0.11155185542E+01  0.54367074228E+02  0.39999977319E+02 0.  0.
         12    1    3    3    0    0  0.15782983591E+02 -0.33248061929E+02  0.11155185542E+01  0.36820925772E+02  0.00000000000E+00 0. -1.
         11    1    4    4    0    0 -0.23940497039E+01  0.56299714560E+01 -0.68595895099E+01  0.91914101794E+01  0.51100000000E-03 0. -1.
        -11    1    4    4    0    0 -0.14328541061E+02  0.21997588553E+02 -0.10260780730E+02  0.28186603423E+02  0.51100000000E-03 0.  1.
         12    1    4    4    0    0  0.93960717383E+00  0.56205019199E+01  0.16004851686E+02  0.16989060626E+02  0.00000000000E+00 0. -1.
</event>
<event>
 8    1  0.2402194E-006  0.9118800E+02  0.7816164E-02  0.1184000E+00
        -11   -1    0    0    0    0  0.00000000000E+00  0.00000000000E+00  0.45593999997E+02  0.45594000000E+02  0.51100000000E-03 0.  1.
         11   -1    0    0    0    0 -0.00000000000E+00 -0.00000000000E+00 -0.45593999997E+02  0.45594000000E+02  0.51100000000E-03 0. -1.
         23    2    1    2    0    0 -0.35527136788E-14 -0.35527136788E-14  0.35527136788E-14  0.91188000000E+02  0.91188000000E+02 0.  0.
    9900012    2    3    3    0    0  0.26606078274E+02  0.12749873694E+02 -0.22030388334E+02  0.54367072656E+02  0.39999973734E+02 0.  0.
        -12    1    3    3    0    0 -0.26606078274E+02 -0.12749873694E+02  0.22030388334E+02  0.36820927344E+02  0.00000000000E+00 0.  1.
         11    1    4    4    0    0 -0.86511921340E+00  0.12797730950E+02 -0.14195683656E+02  0.19132375270E+02  0.51100000000E-03 0. -1.
        -11    1    4    4    0    0  0.19815747115E+02  0.94945013586E+01 -0.34672082852E+01  0.22244795421E+02  0.51100000000E-03 0.  1.
        -12    1    4    4    0    0  0.76554503715E+01 -0.95423586145E+01 -0.43674963928E+01  0.12989901965E+02  0.00000000000E+00 0.  1.
</event>
<event>
 8    1  0.2402194E-006  0.9118800E+02  0.7816164E-02  0.1184000E+00
        -11   -1    0    0    0    0  0.00000000000E+00  0.00000000000E+00  0.45593999997E+02  0.45594000000E+02  0.51100000000E-03 0.  1.
         11   -1    0    0    0    0 -0.00000000000E+00 -0.00000000000E+00 -0.45593999997E+02  0.45594000000E+02  0.51100000000E-03 0. -1.
         23    2    1    2    0    0  0.00000000000E+00  0.00000000000E+00  0.00000000000E+00  0.91188000000E+02  0.91188000000E+02 0.  0.
    9900012    2    3    3    0    0 -0.23865716147E+01 -0.27238615574E+02  0.24660563699E+02  0.54367064319E+02  0.39999954727E+02 0.  0.
         12    1    3    3    0    0  0.23865716147E+01  0.27238615574E+02 -0.24660563699E+02  0.36820935681E+02  0.00000000000E+00 0. -1.
         11    1    4    4    0    0  0.11217772508E+02 -0.21459562867E+01  0.38930708667E+01  0.12066463834E+02  0.51100000000E-03 0. -1.
        -11    1    4    4    0    0 -0.13028422173E+02 -0.99199014118E+01  0.21586702691E+02  0.27094832749E+02  0.51100000000E-03 0.  1.
        -12    1    4    4    0    0 -0.57592194945E+00 -0.15172757876E+02 -0.81920985837E+00  0.15205767736E+02  0.00000000000E+00 0.  1.
</event>
<event>
 8    1  0.2402194E-006  0.9118800E+02  0.7816164E-02  0.1184000E+00
        -11   -1    0    0    0    0  0.00000000000E+00  0.00000000000E+00  0.45593999997E+02  0.45594000000E+02  0.51100000000E-03 0.  1.
         11   -1    0    0    0    0 -0.00000000000E+00 -0.00000000000E+00 -0.45593999997E+02  0.45594000000E+02  0.51100000000E-03 0. -1.
         23    2    1    2    0    0  0.88817841970E-15  0.71054273576E-14 -0.44408920985E-15  0.91188000000E+02  0.91188000000E+02 0.  0.
    9900012    2    3    3    0    0 -0.40745891359E+01 -0.36411030530E+02  0.36625728467E+01  0.54367083924E+02  0.39999999421E+02 0.  0.
         12    1    3    3    0    0  0.40745891359E+01  0.36411030530E+02 -0.36625728467E+01  0.36820916076E+02  0.00000000000E+00 0. -1.
         11    1    4    4    0    0 -0.13291085424E+01 -0.19683745859E+02 -0.79148996170E+00  0.19744438133E+02  0.51100000000E-03 0. -1.
        -11    1    4    4    0    0 -0.54065431105E+01 -0.18957338304E+02  0.14187979939E+02  0.24288066184E+02  0.51100000000E-03 0.  1.
         12    1    4    4    0    0  0.26610625170E+01  0.22300536336E+01 -0.97339171305E+01  0.10334579606E+02  0.00000000000E+00 0. -1.
</event>
<event>
 8    1  0.2402194E-006  0.9118800E+02  0.7816164E-02  0.1184000E+00
        -11   -1    0    0    0    0  0.00000000000E+00  0.00000000000E+00  0.45593999997E+02  0.45594000000E+02  0.51100000000E-03 0. -1.
         11   -1    0    0    0    0 -0.00000000000E+00 -0.00000000000E+00 -0.45593999997E+02  0.45594000000E+02  0.51100000000E-03 0.  1.
         23    2    1    2    0    0  0.00000000000E+00  0.17763568394E-14  0.00000000000E+00  0.91188000000E+02  0.91188000000E+02 0.  0.
    9900012    2    3    3    0    0  0.18750636997E+02  0.12908157076E+02 -0.28940714253E+02  0.54367192725E+02  0.40000247455E+02 0.  0.
         12    1    3    3    0    0 -0.18750636997E+02 -0.12908157076E+02  0.28940714253E+02  0.36820807275E+02  0.00000000000E+00 0. -1.
         11    1    4    4    0    0  0.11273293052E+02  0.20759178950E+02 -0.67246414039E+01  0.24561177683E+02  0.51100000000E-03 0. -1.
        -11    1    4    4    0    0  0.37475693724E+01 -0.92271732446E+01 -0.33225819662E+01  0.10498788191E+02  0.51100000000E-03 0.  1.
         12    1    4    4    0    0  0.37297745724E+01  0.13761513712E+01 -0.18893490883E+02  0.19307226852E+02  0.00000000000E+00 0. -1.
</event>
<event>
 8    1  0.2402194E-006  0.9118800E+02  0.7816164E-02  0.1184000E+00
        -11   -1    0    0    0    0  0.00000000000E+00  0.00000000000E+00  0.45593999997E+02  0.45594000000E+02  0.51100000000E-03 0.  1.
         11   -1    0    0    0    0 -0.00000000000E+00 -0.00000000000E+00 -0.45593999997E+02  0.45594000000E+02  0.51100000000E-03 0. -1.
         23    2    1    2    0    0 -0.22204460493E-15  0.00000000000E+00  0.35527136788E-14  0.91188000000E+02  0.91188000000E+02 0.  0.
    9900012    2    3    3    0    0  0.12077948261E+01 -0.25275607829E+02  0.26748202471E+02  0.54367062276E+02  0.39999950070E+02 0.  0.
         12    1    3    3    0    0 -0.12077948261E+01  0.25275607829E+02 -0.26748202471E+02  0.36820937724E+02  0.00000000000E+00 0. -1.
         11    1    4    4    0    0  0.37886969283E+01 -0.69618873056E+01 -0.30433725885E+01  0.84902424137E+01  0.51100000000E-03 0. -1.
        -11    1    4    4    0    0  0.11815990693E+02 -0.54528385051E+00  0.12476106789E+02  0.17192097354E+02  0.51100000000E-03 0.  1.
         12    1    4    4    0    0 -0.14396892795E+02 -0.17768436673E+02  0.17315468270E+02  0.28684722508E+02  0.00000000000E+00 0. -1.
</event>
<event>
 8    1  0.2402194E-006  0.9118800E+02  0.7816164E-02  0.1184000E+00
        -11   -1    0    0    0    0  0.00000000000E+00  0.00000000000E+00  0.45593999997E+02  0.45594000000E+02  0.51100000000E-03 0.  1.
         11   -1    0    0    0    0 -0.00000000000E+00 -0.00000000000E+00 -0.45593999997E+02  0.45594000000E+02  0.51100000000E-03 0. -1.
         23    2    1    2    0    0  0.00000000000E+00  0.00000000000E+00 -0.35527136788E-14  0.91188000000E+02  0.91188000000E+02 0.  0.
    9900012    2    3    3    0    0  0.20745404043E+02 -0.84053030860E+01  0.29236263073E+02  0.54367082204E+02  0.39999995500E+02 0.  0.
         12    1    3    3    0    0 -0.20745404043E+02  0.84053030860E+01 -0.29236263073E+02  0.36820917796E+02  0.00000000000E+00 0. -1.
         11    1    4    4    0    0 -0.35635279304E+00 -0.14911278821E+01 -0.60511204452E+01  0.62423159626E+01  0.51100000000E-03 0. -1.
        -11    1    4    4    0    0  0.11706760251E+01 -0.12045774881E+02  0.14217324263E+02  0.18670926177E+02  0.51100000000E-03 0.  1.
        -12    1    4    4    0    0  0.19931080810E+02  0.51315996771E+01  0.21070059255E+02  0.29453840064E+02  0.00000000000E+00 0.  1.
</event>
<event>
 8    1  0.2402194E-006  0.9118800E+02  0.7816164E-02  0.1184000E+00
        -11   -1    0    0    0    0  0.00000000000E+00  0.00000000000E+00  0.45593999997E+02  0.45594000000E+02  0.51100000000E-03 0.  1.
         11   -1    0    0    0    0 -0.00000000000E+00 -0.00000000000E+00 -0.45593999997E+02  0.45594000000E+02  0.51100000000E-03 0. -1.
         23    2    1    2    0    0  0.00000000000E+00 -0.17763568394E-14  0.00000000000E+00  0.91188000000E+02  0.91188000000E+02 0.  0.
    9900012    2    3    3    0    0  0.19609257155E+02 -0.14160069232E+02  0.27762367899E+02  0.54367087489E+02  0.40000007548E+02 0.  0.
         12    1    3    3    0    0 -0.19609257155E+02  0.14160069232E+02 -0.27762367899E+02  0.36820912511E+02  0.00000000000E+00 0. -1.
         11    1    4    4    0    0  0.25008610947E+02 -0.70238989219E+01  0.14524554521E+02  0.29761190531E+02  0.51100000000E-03 0. -1.
        -11    1    4    4    0    0 -0.34198148205E+01 -0.27371968180E+01  0.17578833313E+02  0.18116367206E+02  0.51100000000E-03 0.  1.
         12    1    4    4    0    0 -0.19795389715E+01 -0.43989734923E+01 -0.43410199351E+01  0.64895297520E+01  0.00000000000E+00 0. -1.
</event>
<event>
 8    1  0.2402194E-006  0.9118800E+02  0.7816164E-02  0.1184000E+00
        -11   -1    0    0    0    0  0.00000000000E+00  0.00000000000E+00  0.45593999997E+02  0.45594000000E+02  0.51100000000E-03 0. -1.
         11   -1    0    0    0    0 -0.00000000000E+00 -0.00000000000E+00 -0.45593999997E+02  0.45594000000E+02  0.51100000000E-03 0.  1.
         23    2    1    2    0    0  0.00000000000E+00  0.88817841970E-15 -0.17763568394E-14  0.91188000000E+02  0.91188000000E+02 0.  0.
    9900012    2    3    3    0    0  0.34675105150E+02  0.72431145549E+01  0.10047559731E+02  0.54367094495E+02  0.40000023521E+02 0.  0.
         12    1    3    3    0    0 -0.34675105150E+02 -0.72431145549E+01 -0.10047559731E+02  0.36820905505E+02  0.00000000000E+00 0. -1.
         11    1    4    4    0    0  0.13335864130E+02  0.17556885911E+02  0.70349649622E+00  0.22058658675E+02  0.51100000000E-03 0. -1.
        -11    1    4    4    0    0  0.13394669249E+02  0.26189009503E+01 -0.13892436831E+01  0.13718812075E+02  0.51100000000E-03 0.  1.
         12    1    4    4    0    0  0.79445717722E+01 -0.12932672306E+02  0.10733306917E+02  0.18589623746E+02  0.00000000000E+00 0. -1.
</event>
<event>
 8    1  0.2402194E-006  0.9118800E+02  0.7816164E-02  0.1184000E+00
        -11   -1    0    0    0    0  0.00000000000E+00  0.00000000000E+00  0.45593999997E+02  0.45594000000E+02  0.51100000000E-03 0. -1.
         11   -1    0    0    0    0 -0.00000000000E+00 -0.00000000000E+00 -0.45593999997E+02  0.45594000000E+02  0.51100000000E-03 0.  1.
         23    2    1    2    0    0 -0.17763568394E-14  0.00000000000E+00  0.00000000000E+00  0.91188000000E+02  0.91188000000E+02 0.  0.
    9900012    2    3    3    0    0  0.11938806996E+02 -0.92868552962E+01  0.33570786507E+02  0.54367102394E+02  0.40000041528E+02 0.  0.
        -12    1    3    3    0    0 -0.11938806996E+02  0.92868552962E+01 -0.33570786507E+02  0.36820897606E+02  0.00000000000E+00 0.  1.
         11    1    4    4    0    0 -0.81987771654E+01  0.58916489119E+01  0.72487801427E+00  0.10122100686E+02  0.51100000000E-03 0. -1.
        -11    1    4    4    0    0  0.16368389294E+02 -0.40074590115E+01  0.13512091062E+02  0.21600011596E+02  0.51100000000E-03 0.  1.
         12    1    4    4    0    0  0.37691948676E+01 -0.11171045197E+02  0.19333817430E+02  0.22644990112E+02  0.00000000000E+00 0. -1.
</event>
<event>
 8    1  0.2402194E-006  0.9118800E+02  0.7816164E-02  0.1184000E+00
        -11   -1    0    0    0    0  0.00000000000E+00  0.00000000000E+00  0.45593999997E+02  0.45594000000E+02  0.51100000000E-03 0. -1.
         11   -1    0    0    0    0 -0.00000000000E+00 -0.00000000000E+00 -0.45593999997E+02  0.45594000000E+02  0.51100000000E-03 0.  1.
         23    2    1    2    0    0  0.44408920985E-15  0.00000000000E+00  0.00000000000E+00  0.91188000000E+02  0.91188000000E+02 0.  0.
    9900012    2    3    3    0    0 -0.21297119547E+01  0.82602869917E+01 -0.35819155029E+02  0.54367083645E+02  0.39999998786E+02 0.  0.
         12    1    3    3    0    0  0.21297119547E+01 -0.82602869917E+01  0.35819155029E+02  0.36820916355E+02  0.00000000000E+00 0. -1.
         11    1    4    4    0    0 -0.11042204814E+02  0.83751192434E+01 -0.20168928766E+01  0.14005026477E+02  0.51100000000E-03 0. -1.
        -11    1    4    4    0    0  0.11056591973E+02 -0.45615957347E+01 -0.87283150435E+01  0.14806750672E+02  0.51100000000E-03 0.  1.
        -12    1    4    4    0    0 -0.21440991145E+01  0.44467634830E+01 -0.25073947109E+02  0.25555306496E+02  0.00000000000E+00 0.  1.
</event>
<event>
 8    1  0.2402194E-006  0.9118800E+02  0.7816164E-02  0.1184000E+00
        -11   -1    0    0    0    0  0.00000000000E+00  0.00000000000E+00  0.45593999997E+02  0.45594000000E+02  0.51100000000E-03 0.  1.
         11   -1    0    0    0    0 -0.00000000000E+00 -0.00000000000E+00 -0.45593999997E+02  0.45594000000E+02  0.51100000000E-03 0. -1.
         23    2    1    2    0    0  0.88817841970E-15  0.71054273576E-14 -0.35527136788E-14  0.91188000000E+02  0.91188000000E+02 0.  0.
    9900012    2    3    3    0    0 -0.59350727608E+01 -0.32911537037E+02  0.15407310162E+02  0.54367087936E+02  0.40000008567E+02 0.  0.
        -12    1    3    3    0    0  0.59350727608E+01  0.32911537037E+02 -0.15407310162E+02  0.36820912064E+02  0.00000000000E+00 0.  1.
         11    1    4    4    0    0 -0.24793142928E+01 -0.19535549603E+02  0.20112112714E+02  0.28147500346E+02  0.51100000000E-03 0. -1.
        -11    1    4    4    0    0 -0.10127202976E+02 -0.15067072466E+02 -0.51380398593E+00  0.18161522723E+02  0.51100000000E-03 0.  1.
        -12    1    4    4    0    0  0.66714445083E+01  0.16910850325E+01 -0.41909985659E+01  0.80580648665E+01  0.00000000000E+00 0.  1.
</event>
<event>
 8    1  0.2402194E-006  0.9118800E+02  0.7816164E-02  0.1184000E+00
        -11   -1    0    0    0    0  0.00000000000E+00  0.00000000000E+00  0.45593999997E+02  0.45594000000E+02  0.51100000000E-03 0.  1.
         11   -1    0    0    0    0 -0.00000000000E+00 -0.00000000000E+00 -0.45593999997E+02  0.45594000000E+02  0.51100000000E-03 0. -1.
         23    2    1    2    0    0  0.00000000000E+00  0.00000000000E+00 -0.17763568394E-14  0.91188000000E+02  0.91188000000E+02 0.  0.
    9900012    2    3    3    0    0 -0.30310468842E+01  0.36681437915E+02  0.10318715159E+01  0.54367083504E+02  0.39999998465E+02 0.  0.
         12    1    3    3    0    0  0.30310468842E+01 -0.36681437915E+02 -0.10318715159E+01  0.36820916496E+02  0.00000000000E+00 0. -1.
         11    1    4    4    0    0 -0.55134288861E+01  0.20472376194E+01 -0.13530245788E+02  0.14753190547E+02  0.51100000000E-03 0. -1.
        -11    1    4    4    0    0 -0.44548956112E-01  0.16270121402E+02  0.13334194050E+02  0.21036149037E+02  0.51100000000E-03 0.  1.
         12    1    4    4    0    0  0.25269309581E+01  0.18364078894E+02  0.12279232536E+01  0.18577743921E+02  0.00000000000E+00 0. -1.
</event>
<event>
 8    1  0.2402194E-006  0.9118800E+02  0.7816164E-02  0.1184000E+00
        -11   -1    0    0    0    0  0.00000000000E+00  0.00000000000E+00  0.45593999997E+02  0.45594000000E+02  0.51100000000E-03 0. -1.
         11   -1    0    0    0    0 -0.00000000000E+00 -0.00000000000E+00 -0.45593999997E+02  0.45594000000E+02  0.51100000000E-03 0.  1.
         23    2    1    2    0    0 -0.22204460493E-14  0.88817841970E-15 -0.71054273576E-14  0.91188000000E+02  0.91188000000E+02 0.  0.
    9900012    2    3    3    0    0  0.22375772663E+01 -0.68524730594E+01 -0.36108412798E+02  0.54367073697E+02  0.39999976106E+02 0.  0.
         12    1    3    3    0    0 -0.22375772663E+01  0.68524730594E+01  0.36108412798E+02  0.36820926303E+02  0.00000000000E+00 0. -1.
         11    1    4    4    0    0 -0.64789234395E+01  0.10526440674E+02 -0.44589341627E+01  0.13140186312E+02  0.51100000000E-03 0. -1.
        -11    1    4    4    0    0 -0.49233053338E+01 -0.90266400844E+01 -0.10329418627E+02  0.14574500200E+02  0.51100000000E-03 0.  1.
         12    1    4    4    0    0  0.13639806040E+02 -0.83522736489E+01 -0.21320060008E+02  0.26652387185E+02  0.00000000000E+00 0. -1.
</event>
<event>
 8    1  0.2402194E-006  0.9118800E+02  0.7816164E-02  0.1184000E+00
        -11   -1    0    0    0    0  0.00000000000E+00  0.00000000000E+00  0.45593999997E+02  0.45594000000E+02  0.51100000000E-03 0.  1.
         11   -1    0    0    0    0 -0.00000000000E+00 -0.00000000000E+00 -0.45593999997E+02  0.45594000000E+02  0.51100000000E-03 0. -1.
         23    2    1    2    0    0 -0.17763568394E-14  0.88817841970E-15  0.00000000000E+00  0.91188000000E+02  0.91188000000E+02 0.  0.
    9900012    2    3    3    0    0 -0.88698375101E+01  0.31827800726E+01 -0.35594581855E+02  0.54367104249E+02  0.40000045756E+02 0.  0.
        -12    1    3    3    0    0  0.88698375101E+01 -0.31827800726E+01  0.35594581855E+02  0.36820895751E+02  0.00000000000E+00 0.  1.
         11    1    4    4    0    0  0.21949354149E+01  0.11656372268E+02 -0.81946976336E+01  0.14416720344E+02  0.51100000000E-03 0. -1.
        -11    1    4    4    0    0  0.58728567017E+01 -0.78743662727E+01 -0.30556071913E+01  0.10287508231E+02  0.51100000000E-03 0.  1.
         12    1    4    4    0    0 -0.16937629627E+02 -0.59922592257E+00 -0.24344277031E+02  0.29662875673E+02  0.00000000000E+00 0. -1.
</event>
<event>
 8    1  0.2402194E-006  0.9118800E+02  0.7816164E-02  0.1184000E+00
        -11   -1    0    0    0    0  0.00000000000E+00  0.00000000000E+00  0.45593999997E+02  0.45594000000E+02  0.51100000000E-03 0.  1.
         11   -1    0    0    0    0 -0.00000000000E+00 -0.00000000000E+00 -0.45593999997E+02  0.45594000000E+02  0.51100000000E-03 0. -1.
         23    2    1    2    0    0  0.00000000000E+00  0.88817841970E-15  0.88817841970E-15  0.91188000000E+02  0.91188000000E+02 0.  0.
    9900012    2    3    3    0    0 -0.35672521643E+02 -0.79020310386E+01  0.45616998535E+01  0.54367082026E+02  0.39999995094E+02 0.  0.
         12    1    3    3    0    0  0.35672521643E+02  0.79020310386E+01 -0.45616998535E+01  0.36820917974E+02  0.00000000000E+00 0. -1.
         11    1    4    4    0    0 -0.43126918863E+01 -0.14379319261E+02  0.75034272306E+01  0.16782894690E+02  0.51100000000E-03 0. -1.
        -11    1    4    4    0    0 -0.30779136276E+02  0.12260855003E+00 -0.59480148183E+00  0.30785127120E+02  0.51100000000E-03 0.  1.
        -12    1    4    4    0    0 -0.58069348067E+00  0.63546796722E+01 -0.23469258952E+01  0.67990602153E+01  0.00000000000E+00 0.  1.
</event>
<event>
 8    1  0.2402194E-006  0.9118800E+02  0.7816164E-02  0.1184000E+00
        -11   -1    0    0    0    0  0.00000000000E+00  0.00000000000E+00  0.45593999997E+02  0.45594000000E+02  0.51100000000E-03 0.  1.
         11   -1    0    0    0    0 -0.00000000000E+00 -0.00000000000E+00 -0.45593999997E+02  0.45594000000E+02  0.51100000000E-03 0. -1.
         23    2    1    2    0    0 -0.17763568394E-14  0.88817841970E-15  0.00000000000E+00  0.91188000000E+02  0.91188000000E+02 0.  0.
    9900012    2    3    3    0    0 -0.90365583800E+01  0.21843293630E+01  0.35627924238E+02  0.54367086545E+02  0.40000005397E+02 0.  0.
         12    1    3    3    0    0  0.90365583800E+01 -0.21843293630E+01 -0.35627924238E+02  0.36820913455E+02  0.00000000000E+00 0. -1.
         11    1    4    4    0    0  0.58819114538E+01 -0.90403556087E+01 -0.19774854290E+01  0.10965188588E+02  0.51100000000E-03 0. -1.
        -11    1    4    4    0    0 -0.85380462486E+01 -0.16105580251E+00  0.13101251734E+02  0.15638637088E+02  0.51100000000E-03 0.  1.
        -12    1    4    4    0    0 -0.63804235852E+01  0.11385740774E+02  0.24504157933E+02  0.27763260870E+02  0.00000000000E+00 0.  1.
</event>
<event>
 8    1  0.2402194E-006  0.9118800E+02  0.7816164E-02  0.1184000E+00
        -11   -1    0    0    0    0  0.00000000000E+00  0.00000000000E+00  0.45593999997E+02  0.45594000000E+02  0.51100000000E-03 0.  1.
         11   -1    0    0    0    0 -0.00000000000E+00 -0.00000000000E+00 -0.45593999997E+02  0.45594000000E+02  0.51100000000E-03 0. -1.
         23    2    1    2    0    0 -0.11102230246E-14  0.00000000000E+00  0.35527136788E-14  0.91188000000E+02  0.91188000000E+02 0.  0.
    9900012    2    3    3    0    0  0.15145642755E+01 -0.29762555620E+02 -0.21625828831E+02  0.54367080747E+02  0.39999992179E+02 0.  0.
        -12    1    3    3    0    0 -0.15145642755E+01  0.29762555620E+02  0.21625828831E+02  0.36820919253E+02  0.00000000000E+00 0.  1.
         11    1    4    4    0    0 -0.17204501505E+01 -0.31564913399E+02 -0.32198381495E+01  0.31775321628E+02  0.51100000000E-03 0. -1.
        -11    1    4    4    0    0 -0.44010297589E+01  0.27713741649E+01 -0.94145701963E+01  0.10755636194E+02  0.51100000000E-03 0.  1.
         12    1    4    4    0    0  0.76360441849E+01 -0.96901638624E+00 -0.89914204853E+01  0.11836122925E+02  0.00000000000E+00 0. -1.
</event>
<event>
 8    1  0.2402194E-006  0.9118800E+02  0.7816164E-02  0.1184000E+00
        -11   -1    0    0    0    0  0.00000000000E+00  0.00000000000E+00  0.45593999997E+02  0.45594000000E+02  0.51100000000E-03 0. -1.
         11   -1    0    0    0    0 -0.00000000000E+00 -0.00000000000E+00 -0.45593999997E+02  0.45594000000E+02  0.51100000000E-03 0.  1.
         23    2    1    2    0    0  0.00000000000E+00 -0.26645352591E-14  0.00000000000E+00  0.91188000000E+02  0.91188000000E+02 0.  0.
    9900012    2    3    3    0    0 -0.36090928143E+02  0.50723593413E+01 -0.52435758952E+01  0.54367095453E+02  0.40000025705E+02 0.  0.
        -12    1    3    3    0    0  0.36090928143E+02 -0.50723593413E+01  0.52435758952E+01  0.36820904547E+02  0.00000000000E+00 0.  1.
         11    1    4    4    0    0 -0.19349000608E+02  0.65654184404E+01  0.71587601113E+01  0.21650320793E+02  0.51100000000E-03 0. -1.
        -11    1    4    4    0    0 -0.32398061450E+01 -0.12417503792E+02 -0.41473612240E+01  0.13486710113E+02  0.51100000000E-03 0.  1.
        -12    1    4    4    0    0 -0.13502121389E+02  0.10924444693E+02 -0.82549747825E+01  0.19230064548E+02  0.00000000000E+00 0.  1.
</event>
<event>
 8    1  0.2402194E-006  0.9118800E+02  0.7816164E-02  0.1184000E+00
        -11   -1    0    0    0    0  0.00000000000E+00  0.00000000000E+00  0.45593999997E+02  0.45594000000E+02  0.51100000000E-03 0.  1.
         11   -1    0    0    0    0 -0.00000000000E+00 -0.00000000000E+00 -0.45593999997E+02  0.45594000000E+02  0.51100000000E-03 0. -1.
         23    2    1    2    0    0  0.00000000000E+00  0.00000000000E+00  0.00000000000E+00  0.91188000000E+02  0.91188000000E+02 0.  0.
    9900012    2    3    3    0    0 -0.12300698006E+02 -0.19340329399E+02 -0.28817078672E+02  0.54367088335E+02  0.40000009476E+02 0.  0.
        -12    1    3    3    0    0  0.12300698006E+02  0.19340329399E+02  0.28817078672E+02  0.36820911665E+02  0.00000000000E+00 0.  1.
         11    1    4    4    0    0  0.39615566590E+01  0.76959283959E+01 -0.79553764415E+01  0.11756243432E+02  0.51100000000E-03 0. -1.
        -11    1    4    4    0    0  0.68750176787E+00 -0.11478359888E+02 -0.14941337724E+02  0.18853884948E+02  0.51100000000E-03 0.  1.
        -12    1    4    4    0    0 -0.16949756433E+02 -0.15557897907E+02 -0.59203645070E+01  0.23756959955E+02  0.00000000000E+00 0.  1.
</event>
<event>
 8    1  0.2402194E-006  0.9118800E+02  0.7816164E-02  0.1184000E+00
        -11   -1    0    0    0    0  0.00000000000E+00  0.00000000000E+00  0.45593999997E+02  0.45594000000E+02  0.51100000000E-03 0. -1.
         11   -1    0    0    0    0 -0.00000000000E+00 -0.00000000000E+00 -0.45593999997E+02  0.45594000000E+02  0.51100000000E-03 0.  1.
         23    2    1    2    0    0  0.35527136788E-14  0.00000000000E+00  0.00000000000E+00  0.91188000000E+02  0.91188000000E+02 0.  0.
    9900012    2    3    3    0    0 -0.17881568097E+02 -0.31693920073E+02 -0.56148192992E+01  0.54367065154E+02  0.39999956632E+02 0.  0.
         12    1    3    3    0    0  0.17881568097E+02  0.31693920073E+02  0.56148192992E+01  0.36820934846E+02  0.00000000000E+00 0. -1.
         11    1    4    4    0    0 -0.88157788987E+00 -0.14329213487E+02  0.33622536988E+01  0.14744771580E+02  0.51100000000E-03 0. -1.
        -11    1    4    4    0    0 -0.25554675268E+02 -0.15316427929E+02 -0.67501347515E+01  0.30548301294E+02  0.51100000000E-03 0.  1.
        -12    1    4    4    0    0  0.85546850609E+01 -0.20482786567E+01 -0.22269382465E+01  0.90739922801E+01  0.00000000000E+00 0.  1.
</event>
<event>
 8    1  0.2402194E-006  0.9118800E+02  0.7816164E-02  0.1184000E+00
        -11   -1    0    0    0    0  0.00000000000E+00  0.00000000000E+00  0.45593999997E+02  0.45594000000E+02  0.51100000000E-03 0.  1.
         11   -1    0    0    0    0 -0.00000000000E+00 -0.00000000000E+00 -0.45593999997E+02  0.45594000000E+02  0.51100000000E-03 0. -1.
         23    2    1    2    0    0  0.00000000000E+00  0.00000000000E+00  0.88817841970E-15  0.91188000000E+02  0.91188000000E+02 0.  0.
    9900012    2    3    3    0    0 -0.21365394105E+02  0.29503225628E+02 -0.53725588927E+01  0.54367017167E+02  0.39999847235E+02 0.  0.
        -12    1    3    3    0    0  0.21365394105E+02 -0.29503225628E+02  0.53725588927E+01  0.36820982833E+02  0.00000000000E+00 0.  1.
         11    1    4    4    0    0 -0.13022940675E+02  0.17707159714E+02  0.81062124976E+01  0.23427572864E+02  0.51100000000E-03 0. -1.
        -11    1    4    4    0    0 -0.11014163514E+02  0.79071707886E+01  0.29250899919E+01  0.13870519079E+02  0.51100000000E-03 0.  1.
        -12    1    4    4    0    0  0.26717100842E+01  0.38888951257E+01 -0.16403861382E+02  0.17068925225E+02  0.00000000000E+00 0.  1.
</event>
<event>
 8    1  0.2402194E-006  0.9118800E+02  0.7816164E-02  0.1184000E+00
        -11   -1    0    0    0    0  0.00000000000E+00  0.00000000000E+00  0.45593999997E+02  0.45594000000E+02  0.51100000000E-03 0. -1.
         11   -1    0    0    0    0 -0.00000000000E+00 -0.00000000000E+00 -0.45593999997E+02  0.45594000000E+02  0.51100000000E-03 0.  1.
         23    2    1    2    0    0  0.00000000000E+00  0.13322676296E-14 -0.71054273576E-14  0.91188000000E+02  0.91188000000E+02 0.  0.
    9900012    2    3    3    0    0  0.11386073970E+02 -0.27476377197E+01 -0.34908285536E+02  0.54367073986E+02  0.39999976765E+02 0.  0.
         12    1    3    3    0    0 -0.11386073970E+02  0.27476377197E+01  0.34908285536E+02  0.36820926014E+02  0.00000000000E+00 0. -1.
         11    1    4    4    0    0  0.94613082628E+01 -0.13339168181E+02 -0.10131426962E+02  0.19237868238E+02  0.51100000000E-03 0. -1.
        -11    1    4    4    0    0 -0.85961528421E+01 -0.10339889680E+00 -0.14789300352E+02  0.17106371333E+02  0.51100000000E-03 0.  1.
         12    1    4    4    0    0  0.10520918549E+02  0.10694929358E+02 -0.99875582215E+01  0.18022834414E+02  0.00000000000E+00 0. -1.
</event>
<event>
 8    1  0.2402194E-006  0.9118800E+02  0.7816164E-02  0.1184000E+00
        -11   -1    0    0    0    0  0.00000000000E+00  0.00000000000E+00  0.45593999997E+02  0.45594000000E+02  0.51100000000E-03 0.  1.
         11   -1    0    0    0    0 -0.00000000000E+00 -0.00000000000E+00 -0.45593999997E+02  0.45594000000E+02  0.51100000000E-03 0. -1.
         23    2    1    2    0    0  0.71054273576E-14  0.00000000000E+00  0.00000000000E+00  0.91188000000E+02  0.91188000000E+02 0.  0.
    9900012    2    3    3    0    0  0.30644888083E+02 -0.20402942882E+02 -0.62482127079E+00  0.54367086846E+02  0.40000006083E+02 0.  0.
        -12    1    3    3    0    0 -0.30644888083E+02  0.20402942882E+02  0.62482127079E+00  0.36820913154E+02  0.00000000000E+00 0.  1.
         11    1    4    4    0    0  0.18392699121E+02 -0.66243174606E+01  0.54427769590E+01  0.20292776648E+02  0.51100000000E-03 0. -1.
        -11    1    4    4    0    0  0.16450214251E+01 -0.19214007713E+02 -0.97376200268E+01  0.21603366217E+02  0.51100000000E-03 0.  1.
        -12    1    4    4    0    0  0.10607167537E+02  0.54353822911E+01  0.36700217971E+01  0.12470943981E+02  0.00000000000E+00 0.  1.
</event>
<event>
 8    1  0.2402194E-006  0.9118800E+02  0.7816164E-02  0.1184000E+00
        -11   -1    0    0    0    0  0.00000000000E+00  0.00000000000E+00  0.45593999997E+02  0.45594000000E+02  0.51100000000E-03 0.  1.
         11   -1    0    0    0    0 -0.00000000000E+00 -0.00000000000E+00 -0.45593999997E+02  0.45594000000E+02  0.51100000000E-03 0. -1.
         23    2    1    2    0    0  0.00000000000E+00 -0.35527136788E-14  0.00000000000E+00  0.91188000000E+02  0.91188000000E+02 0.  0.
    9900012    2    3    3    0    0 -0.33675577281E+02 -0.13415185920E+02  0.64627541550E+01  0.54367096837E+02  0.40000028860E+02 0.  0.
         12    1    3    3    0    0  0.33675577281E+02  0.13415185920E+02 -0.64627541550E+01  0.36820903163E+02  0.00000000000E+00 0. -1.
         11    1    4    4    0    0 -0.27626535895E+02  0.33124379618E+01  0.77821672859E-01  0.27824517737E+02  0.51100000000E-03 0. -1.
        -11    1    4    4    0    0 -0.62693081288E+01  0.16648105341E+01  0.48220005503E+01  0.80825434175E+01  0.51100000000E-03 0.  1.
        -12    1    4    4    0    0  0.22026674315E+00 -0.18392434416E+02  0.15629319318E+01  0.18460035683E+02  0.00000000000E+00 0.  1.
</event>
<event>
 8    1  0.2402194E-006  0.9118800E+02  0.7816164E-02  0.1184000E+00
        -11   -1    0    0    0    0  0.00000000000E+00  0.00000000000E+00  0.45593999997E+02  0.45594000000E+02  0.51100000000E-03 0.  1.
         11   -1    0    0    0    0 -0.00000000000E+00 -0.00000000000E+00 -0.45593999997E+02  0.45594000000E+02  0.51100000000E-03 0. -1.
         23    2    1    2    0    0  0.00000000000E+00  0.44408920985E-15  0.00000000000E+00  0.91188000000E+02  0.91188000000E+02 0.  0.
    9900012    2    3    3    0    0  0.26541860062E+02 -0.24632199366E+01  0.25401657777E+02  0.54367054795E+02  0.39999933016E+02 0.  0.
         12    1    3    3    0    0 -0.26541860062E+02  0.24632199366E+01 -0.25401657777E+02  0.36820945205E+02  0.00000000000E+00 0. -1.
         11    1    4    4    0    0 -0.63666014426E+01  0.73092884528E+00  0.18706492143E+01  0.66758669587E+01  0.51100000000E-03 0. -1.
        -11    1    4    4    0    0  0.10838780119E+02 -0.73160688229E+01  0.21478612590E+02  0.25146268442E+02  0.51100000000E-03 0.  1.
        -12    1    4    4    0    0  0.22069681385E+02  0.41219200410E+01  0.20523959728E+01  0.22544919395E+02  0.00000000000E+00 0.  1.
</event>
<event>
 8    1  0.2402194E-006  0.9118800E+02  0.7816164E-02  0.1184000E+00
        -11   -1    0    0    0    0  0.00000000000E+00  0.00000000000E+00  0.45593999997E+02  0.45594000000E+02  0.51100000000E-03 0. -1.
         11   -1    0    0    0    0 -0.00000000000E+00 -0.00000000000E+00 -0.45593999997E+02  0.45594000000E+02  0.51100000000E-03 0.  1.
         23    2    1    2    0    0  0.00000000000E+00 -0.88817841970E-15  0.00000000000E+00  0.91188000000E+02  0.91188000000E+02 0.  0.
    9900012    2    3    3    0    0  0.16282248153E+02 -0.50294797065E+01  0.32640008169E+02  0.54367117280E+02  0.40000075463E+02 0.  0.
        -12    1    3    3    0    0 -0.16282248153E+02  0.50294797065E+01 -0.32640008169E+02  0.36820882720E+02  0.00000000000E+00 0.  1.
         11    1    4    4    0    0  0.29605550576E+01 -0.28887150079E+01  0.65788747600E+01  0.77711745582E+01  0.51100000000E-03 0. -1.
        -11    1    4    4    0    0 -0.21103906747E+01  0.14515944477E+02  0.46538732817E+01  0.15389117247E+02  0.51100000000E-03 0.  1.
        -12    1    4    4    0    0  0.15432083770E+02 -0.16656709176E+02  0.21407260127E+02  0.31206825475E+02  0.00000000000E+00 0.  1.
</event>
<event>
 8    1  0.2402194E-006  0.9118800E+02  0.7816164E-02  0.1184000E+00
        -11   -1    0    0    0    0  0.00000000000E+00  0.00000000000E+00  0.45593999997E+02  0.45594000000E+02  0.51100000000E-03 0. -1.
         11   -1    0    0    0    0 -0.00000000000E+00 -0.00000000000E+00 -0.45593999997E+02  0.45594000000E+02  0.51100000000E-03 0.  1.
         23    2    1    2    0    0  0.00000000000E+00 -0.35527136788E-14  0.00000000000E+00  0.91188000000E+02  0.91188000000E+02 0.  0.
    9900012    2    3    3    0    0  0.11056487266E+02  0.30042810069E+02 -0.18192395128E+02  0.54367087627E+02  0.40000007863E+02 0.  0.
         12    1    3    3    0    0 -0.11056487266E+02 -0.30042810069E+02  0.18192395128E+02  0.36820912373E+02  0.00000000000E+00 0. -1.
         11    1    4    4    0    0  0.93844219479E+01  0.11281241367E+02 -0.26960478069E+02  0.30695295405E+02  0.51100000000E-03 0. -1.
        -11    1    4    4    0    0  0.43181105347E+00  0.68711760265E-01 -0.20111080082E+01  0.20580908080E+01  0.51100000000E-03 0.  1.
         12    1    4    4    0    0  0.12402542650E+01  0.18692856942E+02  0.10779190949E+02  0.21613701414E+02  0.00000000000E+00 0. -1.
</event>
<event>
 8    1  0.2402194E-006  0.9118800E+02  0.7816164E-02  0.1184000E+00
        -11   -1    0    0    0    0  0.00000000000E+00  0.00000000000E+00  0.45593999997E+02  0.45594000000E+02  0.51100000000E-03 0. -1.
         11   -1    0    0    0    0 -0.00000000000E+00 -0.00000000000E+00 -0.45593999997E+02  0.45594000000E+02  0.51100000000E-03 0.  1.
         23    2    1    2    0    0  0.17763568394E-14 -0.35527136788E-14  0.00000000000E+00  0.91188000000E+02  0.91188000000E+02 0.  0.
    9900012    2    3    3    0    0  0.10733126249E+02 -0.29725075056E+02 -0.18894506841E+02  0.54367048425E+02  0.39999918494E+02 0.  0.
         12    1    3    3    0    0 -0.10733126249E+02  0.29725075056E+02  0.18894506841E+02  0.36820951575E+02  0.00000000000E+00 0. -1.
         11    1    4    4    0    0  0.60897139961E+01  0.47317621789E+01 -0.11457862003E+02  0.13811473194E+02  0.51100000000E-03 0. -1.
        -11    1    4    4    0    0  0.12053092476E+02 -0.19926214117E+02 -0.66804671132E+01  0.24227250946E+02  0.51100000000E-03 0.  1.
         12    1    4    4    0    0 -0.74096802230E+01 -0.14530623117E+02 -0.75617772527E+00  0.16328324284E+02  0.00000000000E+00 0. -1.
</event>
<event>
 8    1  0.2402194E-006  0.9118800E+02  0.7816164E-02  0.1184000E+00
        -11   -1    0    0    0    0  0.00000000000E+00  0.00000000000E+00  0.45593999997E+02  0.45594000000E+02  0.51100000000E-03 0.  1.
         11   -1    0    0    0    0 -0.00000000000E+00 -0.00000000000E+00 -0.45593999997E+02  0.45594000000E+02  0.51100000000E-03 0. -1.
         23    2    1    2    0    0  0.00000000000E+00  0.00000000000E+00  0.17763568394E-14  0.91188000000E+02  0.91188000000E+02 0.  0.
    9900012    2    3    3    0    0  0.30604026955E+02 -0.14699971343E+02 -0.14250759515E+02  0.54367085154E+02  0.40000002226E+02 0.  0.
        -12    1    3    3    0    0 -0.30604026955E+02  0.14699971343E+02  0.14250759515E+02  0.36820914846E+02  0.00000000000E+00 0.  1.
         11    1    4    4    0    0  0.11049872749E+02 -0.25168994490E+02 -0.15003165725E+02  0.31315698195E+02  0.51100000000E-03 0. -1.
        -11    1    4    4    0    0  0.13687686228E+02  0.46133434807E+01 -0.13289959617E+01  0.14505237774E+02  0.51100000000E-03 0.  1.
         12    1    4    4    0    0  0.58664679772E+01  0.58556796670E+01  0.20814021718E+01  0.85461491849E+01  0.00000000000E+00 0. -1.
</event>
<event>
 8    1  0.2402194E-006  0.9118800E+02  0.7816164E-02  0.1184000E+00
        -11   -1    0    0    0    0  0.00000000000E+00  0.00000000000E+00  0.45593999997E+02  0.45594000000E+02  0.51100000000E-03 0.  1.
         11   -1    0    0    0    0 -0.00000000000E+00 -0.00000000000E+00 -0.45593999997E+02  0.45594000000E+02  0.51100000000E-03 0. -1.
         23    2    1    2    0    0  0.17763568394E-14  0.00000000000E+00  0.00000000000E+00  0.91188000000E+02  0.91188000000E+02 0.  0.
    9900012    2    3    3    0    0  0.13201052829E+02  0.33060596240E+02  0.94076534852E+01  0.54367153138E+02  0.40000157208E+02 0.  0.
         12    1    3    3    0    0 -0.13201052829E+02 -0.33060596240E+02 -0.94076534852E+01  0.36820846862E+02  0.00000000000E+00 0. -1.
         11    1    4    4    0    0 -0.81460507839E+01  0.19469790252E+02  0.11804040674E+02  0.24181940623E+02  0.51100000000E-03 0. -1.
        -11    1    4    4    0    0  0.13285954900E+02  0.16050897673E+02  0.15199192677E+01  0.20891578891E+02  0.51100000000E-03 0.  1.
         12    1    4    4    0    0  0.80611487132E+01 -0.24600916844E+01 -0.39163064560E+01  0.92936336236E+01  0.00000000000E+00 0. -1.
</event>
<event>
 8    1  0.2402194E-006  0.9118800E+02  0.7816164E-02  0.1184000E+00
        -11   -1    0    0    0    0  0.00000000000E+00  0.00000000000E+00  0.45593999997E+02  0.45594000000E+02  0.51100000000E-03 0.  1.
         11   -1    0    0    0    0 -0.00000000000E+00 -0.00000000000E+00 -0.45593999997E+02  0.45594000000E+02  0.51100000000E-03 0. -1.
         23    2    1    2    0    0  0.17763568394E-14  0.00000000000E+00  0.00000000000E+00  0.91188000000E+02  0.91188000000E+02 0.  0.
    9900012    2    3    3    0    0  0.83648115383E+01 -0.35815954533E+02  0.17401501099E+01  0.54367071256E+02  0.39999970543E+02 0.  0.
        -12    1    3    3    0    0 -0.83648115383E+01  0.35815954533E+02 -0.17401501099E+01  0.36820928744E+02  0.00000000000E+00 0.  1.
         11    1    4    4    0    0  0.21566559307E+01 -0.17311895603E+02 -0.30411974196E+00  0.17448363340E+02  0.51100000000E-03 0. -1.
        -11    1    4    4    0    0 -0.12585816858E+02 -0.82861287024E+01 -0.18278222825E+01  0.15179052982E+02  0.51100000000E-03 0.  1.
        -12    1    4    4    0    0  0.18793972466E+02 -0.10217930228E+02  0.38720921343E+01  0.21739654935E+02  0.00000000000E+00 0.  1.
</event>
<event>
 8    1  0.2402194E-006  0.9118800E+02  0.7816164E-02  0.1184000E+00
        -11   -1    0    0    0    0  0.00000000000E+00  0.00000000000E+00  0.45593999997E+02  0.45594000000E+02  0.51100000000E-03 0. -1.
         11   -1    0    0    0    0 -0.00000000000E+00 -0.00000000000E+00 -0.45593999997E+02  0.45594000000E+02  0.51100000000E-03 0.  1.
         23    2    1    2    0    0  0.00000000000E+00  0.00000000000E+00 -0.17763568394E-14  0.91188000000E+02  0.91188000000E+02 0.  0.
    9900012    2    3    3    0    0 -0.34805273334E+02 -0.27784490540E+01  0.11689890084E+02  0.54367077127E+02  0.39999983927E+02 0.  0.
         12    1    3    3    0    0  0.34805273334E+02  0.27784490540E+01 -0.11689890084E+02  0.36820922873E+02  0.00000000000E+00 0. -1.
         11    1    4    4    0    0 -0.14367609850E+01 -0.48928713242E+01  0.14935649106E+02  0.15782207907E+02  0.51100000000E-03 0. -1.
        -11    1    4    4    0    0 -0.25191440399E+02  0.31282484421E+01  0.61182389726E+01  0.26111825982E+02  0.51100000000E-03 0.  1.
         12    1    4    4    0    0 -0.81770719498E+01 -0.10138261719E+01 -0.93639979952E+01  0.12473043239E+02  0.00000000000E+00 0. -1.
</event>
<event>
 8    1  0.2402194E-006  0.9118800E+02  0.7816164E-02  0.1184000E+00
        -11   -1    0    0    0    0  0.00000000000E+00  0.00000000000E+00  0.45593999997E+02  0.45594000000E+02  0.51100000000E-03 0. -1.
         11   -1    0    0    0    0 -0.00000000000E+00 -0.00000000000E+00 -0.45593999997E+02  0.45594000000E+02  0.51100000000E-03 0.  1.
         23    2    1    2    0    0  0.00000000000E+00  0.88817841970E-15  0.00000000000E+00  0.91188000000E+02  0.91188000000E+02 0.  0.
    9900012    2    3    3    0    0 -0.31996491680E+02  0.33158743337E+01 -0.17916217648E+02  0.54367335187E+02  0.40000572223E+02 0.  0.
         12    1    3    3    0    0  0.31996491680E+02 -0.33158743337E+01  0.17916217648E+02  0.36820664813E+02  0.00000000000E+00 0. -1.
         11    1    4    4    0    0  0.41881063923E+00  0.12561979413E+02 -0.45977980359E+01  0.13383515090E+02  0.51100000000E-03 0. -1.
        -11    1    4    4    0    0 -0.93371321112E+01 -0.10358396160E+02  0.69230619118E+00  0.13962725206E+02  0.51100000000E-03 0.  1.
         12    1    4    4    0    0 -0.23078170208E+02  0.11122910809E+01 -0.14010725803E+02  0.27021094892E+02  0.00000000000E+00 0. -1.
</event>
<event>
 8    1  0.2402194E-006  0.9118800E+02  0.7816164E-02  0.1184000E+00
        -11   -1    0    0    0    0  0.00000000000E+00  0.00000000000E+00  0.45593999997E+02  0.45594000000E+02  0.51100000000E-03 0.  1.
         11   -1    0    0    0    0 -0.00000000000E+00 -0.00000000000E+00 -0.45593999997E+02  0.45594000000E+02  0.51100000000E-03 0. -1.
         23    2    1    2    0    0  0.00000000000E+00 -0.35527136788E-14  0.00000000000E+00  0.91188000000E+02  0.91188000000E+02 0.  0.
    9900012    2    3    3    0    0  0.20783121569E+02 -0.90073414689E+01  0.29029484050E+02  0.54367064559E+02  0.39999955276E+02 0.  0.
         12    1    3    3    0    0 -0.20783121569E+02  0.90073414689E+01 -0.29029484050E+02  0.36820935441E+02  0.00000000000E+00 0. -1.
         11    1    4    4    0    0 -0.16659209835E+01  0.36644378877E+01  0.96300840933E+01  0.10437524499E+02  0.51100000000E-03 0. -1.
        -11    1    4    4    0    0  0.20659905749E+02 -0.21705028905E+02  0.16832939392E+02  0.34369868114E+02  0.51100000000E-03 0.  1.
        -12    1    4    4    0    0  0.17891368035E+01  0.90332495480E+01  0.25664605646E+01  0.95596719467E+01  0.00000000000E+00 0.  1.
</event>
<event>
 8    1  0.2402194E-006  0.9118800E+02  0.7816164E-02  0.1184000E+00
        -11   -1    0    0    0    0  0.00000000000E+00  0.00000000000E+00  0.45593999997E+02  0.45594000000E+02  0.51100000000E-03 0.  1.
         11   -1    0    0    0    0 -0.00000000000E+00 -0.00000000000E+00 -0.45593999997E+02  0.45594000000E+02  0.51100000000E-03 0. -1.
         23    2    1    2    0    0  0.00000000000E+00  0.00000000000E+00  0.00000000000E+00  0.91188000000E+02  0.91188000000E+02 0.  0.
    9900012    2    3    3    0    0  0.24867630153E+02 -0.23831193354E+02 -0.13017392803E+02  0.54367118404E+02  0.40000078025E+02 0.  0.
        -12    1    3    3    0    0 -0.24867630153E+02  0.23831193354E+02  0.13017392803E+02  0.36820881596E+02  0.00000000000E+00 0.  1.
         11    1    4    4    0    0  0.15184675644E+02 -0.20508153180E+02 -0.71575137795E+01  0.26502617324E+02  0.51100000000E-03 0. -1.
        -11    1    4    4    0    0 -0.32351260407E+01  0.82493602899E+01 -0.56702292770E+01  0.10519956559E+02  0.51100000000E-03 0.  1.
        -12    1    4    4    0    0  0.12918080550E+02 -0.11572400465E+02 -0.18964974648E+00  0.17344544521E+02  0.00000000000E+00 0.  1.
</event>
<event>
 8    1  0.2402194E-006  0.9118800E+02  0.7816164E-02  0.1184000E+00
        -11   -1    0    0    0    0  0.00000000000E+00  0.00000000000E+00  0.45593999997E+02  0.45594000000E+02  0.51100000000E-03 0. -1.
         11   -1    0    0    0    0 -0.00000000000E+00 -0.00000000000E+00 -0.45593999997E+02  0.45594000000E+02  0.51100000000E-03 0.  1.
         23    2    1    2    0    0  0.35527136788E-14 -0.35527136788E-14 -0.17763568394E-14  0.91188000000E+02  0.91188000000E+02 0.  0.
    9900012    2    3    3    0    0  0.22937398926E+02 -0.26473740167E+02 -0.11348879736E+02  0.54367078513E+02  0.39999987086E+02 0.  0.
         12    1    3    3    0    0 -0.22937398926E+02  0.26473740167E+02  0.11348879736E+02  0.36820921487E+02  0.00000000000E+00 0. -1.
         11    1    4    4    0    0  0.18916946322E+02 -0.30939607922E+01  0.84635376026E+01  0.20953637406E+02  0.51100000000E-03 0. -1.
        -11    1    4    4    0    0 -0.15904261435E+01 -0.50169775760E+01  0.70834277841E+00  0.53104867074E+01  0.51100000000E-03 0.  1.
        -12    1    4    4    0    0  0.56108787476E+01 -0.18362801799E+02 -0.20520760117E+02  0.28102954400E+02  0.00000000000E+00 0.  1.
</event>
<event>
 8    1  0.2402194E-006  0.9118800E+02  0.7816164E-02  0.1184000E+00
        -11   -1    0    0    0    0  0.00000000000E+00  0.00000000000E+00  0.45593999997E+02  0.45594000000E+02  0.51100000000E-03 0.  1.
         11   -1    0    0    0    0 -0.00000000000E+00 -0.00000000000E+00 -0.45593999997E+02  0.45594000000E+02  0.51100000000E-03 0. -1.
         23    2    1    2    0    0  0.00000000000E+00 -0.35527136788E-14 -0.35527136788E-14  0.91188000000E+02  0.91188000000E+02 0.  0.
    9900012    2    3    3    0    0  0.12462908012E+02 -0.21885725730E+02  0.26860199877E+02  0.54367090121E+02  0.40000013550E+02 0.  0.
         12    1    3    3    0    0 -0.12462908012E+02  0.21885725730E+02 -0.26860199877E+02  0.36820909879E+02  0.00000000000E+00 0. -1.
         11    1    4    4    0    0 -0.28111505185E+01  0.26290495895E+01 -0.32239745729E+01  0.50208048448E+01  0.51100000000E-03 0. -1.
        -11    1    4    4    0    0  0.12611325216E+02 -0.14223263704E+02  0.33210273583E+02  0.38265768329E+02  0.51100000000E-03 0.  1.
        -12    1    4    4    0    0  0.26627333147E+01 -0.10291511616E+02 -0.31260991328E+01  0.11080516948E+02  0.00000000000E+00 0.  1.
</event>
<event>
 8    1  0.2402194E-006  0.9118800E+02  0.7816164E-02  0.1184000E+00
        -11   -1    0    0    0    0  0.00000000000E+00  0.00000000000E+00  0.45593999997E+02  0.45594000000E+02  0.51100000000E-03 0. -1.
         11   -1    0    0    0    0 -0.00000000000E+00 -0.00000000000E+00 -0.45593999997E+02  0.45594000000E+02  0.51100000000E-03 0.  1.
         23    2    1    2    0    0  0.19984014443E-14 -0.35527136788E-14  0.00000000000E+00  0.91188000000E+02  0.91188000000E+02 0.  0.
    9900012    2    3    3    0    0 -0.10081272542E+01  0.23096950802E+02  0.28658242178E+02  0.54367077936E+02  0.39999985770E+02 0.  0.
        -12    1    3    3    0    0  0.10081272542E+01 -0.23096950802E+02 -0.28658242178E+02  0.36820922064E+02  0.00000000000E+00 0.  1.
         11    1    4    4    0    0  0.91391212692E+01  0.59287709808E+01  0.25057701111E+02  0.27323291313E+02  0.51100000000E-03 0. -1.
        -11    1    4    4    0    0 -0.14583397426E+02  0.16892423676E+02  0.35610114105E+01  0.22598899546E+02  0.51100000000E-03 0.  1.
         12    1    4    4    0    0  0.44361489028E+01  0.27575614505E+00  0.39529656793E-01  0.44448870776E+01  0.00000000000E+00 0. -1.
</event>
<event>
 8    1  0.2402194E-006  0.9118800E+02  0.7816164E-02  0.1184000E+00
        -11   -1    0    0    0    0  0.00000000000E+00  0.00000000000E+00  0.45593999997E+02  0.45594000000E+02  0.51100000000E-03 0.  1.
         11   -1    0    0    0    0 -0.00000000000E+00 -0.00000000000E+00 -0.45593999997E+02  0.45594000000E+02  0.51100000000E-03 0. -1.
         23    2    1    2    0    0 -0.17763568394E-14  0.00000000000E+00  0.00000000000E+00  0.91188000000E+02  0.91188000000E+02 0.  0.
    9900012    2    3    3    0    0 -0.12404817121E+02  0.22801855667E+02 -0.26114623622E+02  0.54367113583E+02  0.40000067034E+02 0.  0.
        -12    1    3    3    0    0  0.12404817121E+02 -0.22801855667E+02  0.26114623622E+02  0.36820886417E+02  0.00000000000E+00 0.  1.
         11    1    4    4    0    0 -0.29722734606E+01  0.24373537320E+02 -0.24414198334E+02  0.34625955750E+02  0.51100000000E-03 0. -1.
        -11    1    4    4    0    0 -0.54368188099E+01 -0.39657412797E+01 -0.89050941712E+01  0.11161845955E+02  0.51100000000E-03 0.  1.
        -12    1    4    4    0    0 -0.39957248502E+01  0.23940596258E+01  0.72046688834E+01  0.85793118774E+01  0.00000000000E+00 0.  1.
</event>
<event>
 8    1  0.2402194E-006  0.9118800E+02  0.7816164E-02  0.1184000E+00
        -11   -1    0    0    0    0  0.00000000000E+00  0.00000000000E+00  0.45593999997E+02  0.45594000000E+02  0.51100000000E-03 0. -1.
         11   -1    0    0    0    0 -0.00000000000E+00 -0.00000000000E+00 -0.45593999997E+02  0.45594000000E+02  0.51100000000E-03 0.  1.
         23    2    1    2    0    0  0.00000000000E+00 -0.35527136788E-14 -0.17763568394E-14  0.91188000000E+02  0.91188000000E+02 0.  0.
    9900012    2    3    3    0    0 -0.18463020582E+02 -0.27819652660E+02  0.15523002826E+02  0.54367084478E+02  0.40000000685E+02 0.  0.
        -12    1    3    3    0    0  0.18463020582E+02  0.27819652660E+02 -0.15523002826E+02  0.36820915522E+02  0.00000000000E+00 0.  1.
         11    1    4    4    0    0 -0.57476060888E+01 -0.20196943105E+02  0.24754875823E+01  0.21144255144E+02  0.51100000000E-03 0. -1.
        -11    1    4    4    0    0 -0.15117876459E+02 -0.93695020312E-01 -0.29282712712E+01  0.15399147388E+02  0.51100000000E-03 0.  1.
         12    1    4    4    0    0  0.24024619659E+01 -0.75290145339E+01  0.15975786515E+02  0.17823681947E+02  0.00000000000E+00 0. -1.
</event>
<event>
 8    1  0.2402194E-006  0.9118800E+02  0.7816164E-02  0.1184000E+00
        -11   -1    0    0    0    0  0.00000000000E+00  0.00000000000E+00  0.45593999997E+02  0.45594000000E+02  0.51100000000E-03 0. -1.
         11   -1    0    0    0    0 -0.00000000000E+00 -0.00000000000E+00 -0.45593999997E+02  0.45594000000E+02  0.51100000000E-03 0.  1.
         23    2    1    2    0    0  0.35527136788E-14  0.00000000000E+00 -0.71054273576E-14  0.91188000000E+02  0.91188000000E+02 0.  0.
    9900012    2    3    3    0    0 -0.16352149285E+02 -0.17937744424E+02  0.27687984433E+02  0.54367082803E+02  0.39999996867E+02 0.  0.
        -12    1    3    3    0    0  0.16352149285E+02  0.17937744424E+02 -0.27687984433E+02  0.36820917197E+02  0.00000000000E+00 0.  1.
         11    1    4    4    0    0 -0.63625946230E+01  0.62230387244E+01  0.31417496520E+01  0.94381890445E+01  0.51100000000E-03 0. -1.
        -11    1    4    4    0    0  0.72977982892E+01  0.11125904804E+00  0.20181931721E+01  0.75725387015E+01  0.51100000000E-03 0.  1.
         12    1    4    4    0    0 -0.17287352951E+02 -0.24272042197E+02  0.22528041609E+02  0.37356355057E+02  0.00000000000E+00 0. -1.
</event>
<event>
 8    1  0.2402194E-006  0.9118800E+02  0.7816164E-02  0.1184000E+00
        -11   -1    0    0    0    0  0.00000000000E+00  0.00000000000E+00  0.45593999997E+02  0.45594000000E+02  0.51100000000E-03 0. -1.
         11   -1    0    0    0    0 -0.00000000000E+00 -0.00000000000E+00 -0.45593999997E+02  0.45594000000E+02  0.51100000000E-03 0.  1.
         23    2    1    2    0    0  0.00000000000E+00  0.35527136788E-14 -0.88817841970E-15  0.91188000000E+02  0.91188000000E+02 0.  0.
    9900012    2    3    3    0    0 -0.24658610738E+02 -0.26464271477E+02 -0.68829144417E+01  0.54367092087E+02  0.40000018030E+02 0.  0.
         12    1    3    3    0    0  0.24658610738E+02  0.26464271477E+02  0.68829144417E+01  0.36820907913E+02  0.00000000000E+00 0. -1.
         11    1    4    4    0    0  0.32149160733E+01 -0.34821471657E+01 -0.29441903888E+01  0.55793630056E+01  0.51100000000E-03 0. -1.
        -11    1    4    4    0    0  0.15252476026E+01 -0.15108460433E+02 -0.94106718815E+01  0.17864845436E+02  0.51100000000E-03 0.  1.
         12    1    4    4    0    0 -0.29398774414E+02 -0.78736638776E+01  0.54719478286E+01  0.30922883646E+02  0.00000000000E+00 0. -1.
</event>
<event>
 8    1  0.2402194E-006  0.9118800E+02  0.7816164E-02  0.1184000E+00
        -11   -1    0    0    0    0  0.00000000000E+00  0.00000000000E+00  0.45593999997E+02  0.45594000000E+02  0.51100000000E-03 0.  1.
         11   -1    0    0    0    0 -0.00000000000E+00 -0.00000000000E+00 -0.45593999997E+02  0.45594000000E+02  0.51100000000E-03 0. -1.
         23    2    1    2    0    0 -0.35527136788E-14  0.22204460493E-14  0.00000000000E+00  0.91188000000E+02  0.91188000000E+02 0.  0.
    9900012    2    3    3    0    0 -0.18907416733E+02 -0.12443166384E+01  0.31571197220E+02  0.54367092551E+02  0.40000019089E+02 0.  0.
        -12    1    3    3    0    0  0.18907416733E+02  0.12443166384E+01 -0.31571197220E+02  0.36820907449E+02  0.00000000000E+00 0.  1.
         11    1    4    4    0    0 -0.11347970450E+02  0.14274709987E+02  0.57556685810E+01  0.19122539048E+02  0.51100000000E-03 0. -1.
        -11    1    4    4    0    0 -0.21649209095E+01  0.57074198915E+00  0.14899581794E+02  0.15066856568E+02  0.51100000000E-03 0.  1.
        -12    1    4    4    0    0 -0.53945253735E+01 -0.16089768615E+02  0.10915946846E+02  0.20177696935E+02  0.00000000000E+00 0.  1.
</event>
<event>
 8    1  0.2402194E-006  0.9118800E+02  0.7816164E-02  0.1184000E+00
        -11   -1    0    0    0    0  0.00000000000E+00  0.00000000000E+00  0.45593999997E+02  0.45594000000E+02  0.51100000000E-03 0.  1.
         11   -1    0    0    0    0 -0.00000000000E+00 -0.00000000000E+00 -0.45593999997E+02  0.45594000000E+02  0.51100000000E-03 0. -1.
         23    2    1    2    0    0 -0.17763568394E-14  0.00000000000E+00  0.35527136788E-14  0.91188000000E+02  0.91188000000E+02 0.  0.
    9900012    2    3    3    0    0 -0.11385013324E+02 -0.14280856712E+02  0.31972095935E+02  0.54367132067E+02  0.40000109174E+02 0.  0.
         12    1    3    3    0    0  0.11385013324E+02  0.14280856712E+02 -0.31972095935E+02  0.36820867933E+02  0.00000000000E+00 0. -1.
         11    1    4    4    0    0 -0.21967273516E+01 -0.97549578031E+01 -0.24847944040E+01  0.10303349761E+02  0.51100000000E-03 0. -1.
        -11    1    4    4    0    0 -0.23720933513E+01 -0.13810868282E+02  0.26770522847E+02  0.30216349934E+02  0.51100000000E-03 0.  1.
        -12    1    4    4    0    0 -0.68161926208E+01  0.92849693729E+01  0.76863674926E+01  0.13847432373E+02  0.00000000000E+00 0.  1.
</event>
<event>
 8    1  0.2402194E-006  0.9118800E+02  0.7816164E-02  0.1184000E+00
        -11   -1    0    0    0    0  0.00000000000E+00  0.00000000000E+00  0.45593999997E+02  0.45594000000E+02  0.51100000000E-03 0. -1.
         11   -1    0    0    0    0 -0.00000000000E+00 -0.00000000000E+00 -0.45593999997E+02  0.45594000000E+02  0.51100000000E-03 0.  1.
         23    2    1    2    0    0 -0.35527136788E-14  0.00000000000E+00  0.17763568394E-14  0.91188000000E+02  0.91188000000E+02 0.  0.
    9900012    2    3    3    0    0 -0.28449129461E+02 -0.22279899204E+02  0.70733423196E+01  0.54367094970E+02  0.40000024604E+02 0.  0.
        -12    1    3    3    0    0  0.28449129461E+02  0.22279899204E+02 -0.70733423196E+01  0.36820905030E+02  0.00000000000E+00 0.  1.
         11    1    4    4    0    0  0.17306383365E+01  0.41594687996E+01  0.10913755487E+02  0.11807046576E+02  0.51100000000E-03 0. -1.
        -11    1    4    4    0    0 -0.23068778166E+02 -0.26408882525E+02 -0.47697219548E+01  0.35388527097E+02  0.51100000000E-03 0.  1.
        -12    1    4    4    0    0 -0.71109896312E+01 -0.30485478257E-01  0.92930878712E+00  0.71715212975E+01  0.00000000000E+00 0.  1.
</event>
<event>
 8    1  0.2402194E-006  0.9118800E+02  0.7816164E-02  0.1184000E+00
        -11   -1    0    0    0    0  0.00000000000E+00  0.00000000000E+00  0.45593999997E+02  0.45594000000E+02  0.51100000000E-03 0. -1.
         11   -1    0    0    0    0 -0.00000000000E+00 -0.00000000000E+00 -0.45593999997E+02  0.45594000000E+02  0.51100000000E-03 0.  1.
         23    2    1    2    0    0 -0.14432899320E-14 -0.35527136788E-14  0.00000000000E+00  0.91188000000E+02  0.91188000000E+02 0.  0.
    9900012    2    3    3    0    0 -0.81805929241E+00 -0.17559330754E+02 -0.32353988493E+02  0.54367083540E+02  0.39999998547E+02 0.  0.
         12    1    3    3    0    0  0.81805929241E+00  0.17559330754E+02  0.32353988493E+02  0.36820916460E+02  0.00000000000E+00 0. -1.
         11    1    4    4    0    0 -0.15439269814E+02  0.36140891393E+01 -0.72384835561E+01  0.17430672309E+02  0.51100000000E-03 0. -1.
        -11    1    4    4    0    0  0.31638166281E+01 -0.86830282395E+01 -0.13609256669E+02  0.16450428032E+02  0.51100000000E-03 0.  1.
        -12    1    4    4    0    0  0.11457393893E+02 -0.12490391654E+02 -0.11506248267E+02  0.20485983200E+02  0.00000000000E+00 0.  1.
</event>
<event>
 8    1  0.2402194E-006  0.9118800E+02  0.7816164E-02  0.1184000E+00
        -11   -1    0    0    0    0  0.00000000000E+00  0.00000000000E+00  0.45593999997E+02  0.45594000000E+02  0.51100000000E-03 0. -1.
         11   -1    0    0    0    0 -0.00000000000E+00 -0.00000000000E+00 -0.45593999997E+02  0.45594000000E+02  0.51100000000E-03 0.  1.
         23    2    1    2    0    0  0.00000000000E+00  0.00000000000E+00  0.00000000000E+00  0.91188000000E+02  0.91188000000E+02 0.  0.
    9900012    2    3    3    0    0  0.21357024931E+02 -0.96539815059E+01 -0.28398178729E+02  0.54367103379E+02  0.40000043774E+02 0.  0.
         12    1    3    3    0    0 -0.21357024931E+02  0.96539815059E+01  0.28398178729E+02  0.36820896621E+02  0.00000000000E+00 0. -1.
         11    1    4    4    0    0 -0.13977722835E+01  0.55236939595E+01  0.70688918419E+01  0.90793278633E+01  0.51100000000E-03 0. -1.
        -11    1    4    4    0    0  0.16674117908E+02 -0.11261971232E+02 -0.20828602970E+02  0.28960126139E+02  0.51100000000E-03 0.  1.
         12    1    4    4    0    0  0.60806793072E+01 -0.39157042329E+01 -0.14638467601E+02  0.16327649377E+02  0.00000000000E+00 0. -1.
</event>
<event>
 8    1  0.2402194E-006  0.9118800E+02  0.7816164E-02  0.1184000E+00
        -11   -1    0    0    0    0  0.00000000000E+00  0.00000000000E+00  0.45593999997E+02  0.45594000000E+02  0.51100000000E-03 0. -1.
         11   -1    0    0    0    0 -0.00000000000E+00 -0.00000000000E+00 -0.45593999997E+02  0.45594000000E+02  0.51100000000E-03 0.  1.
         23    2    1    2    0    0  0.00000000000E+00 -0.71054273576E-14  0.17763568394E-14  0.91188000000E+02  0.91188000000E+02 0.  0.
    9900012    2    3    3    0    0  0.11269573407E+02  0.31768685721E+02 -0.14816043993E+02  0.54367247199E+02  0.40000371638E+02 0.  0.
         12    1    3    3    0    0 -0.11269573407E+02 -0.31768685721E+02  0.14816043993E+02  0.36820752801E+02  0.00000000000E+00 0. -1.
         11    1    4    4    0    0  0.36563850514E+01  0.71426438921E+01 -0.24436065518E+02  0.25719794161E+02  0.51100000000E-03 0. -1.
        -11    1    4    4    0    0  0.22185966712E+00  0.14191495837E+02  0.52918345768E+01  0.15147649628E+02  0.51100000000E-03 0.  1.
        -12    1    4    4    0    0  0.73913286883E+01  0.10434545992E+02  0.43281869485E+01  0.13499803410E+02  0.00000000000E+00 0.  1.
</event>
<event>
 8    1  0.2402194E-006  0.9118800E+02  0.7816164E-02  0.1184000E+00
        -11   -1    0    0    0    0  0.00000000000E+00  0.00000000000E+00  0.45593999997E+02  0.45594000000E+02  0.51100000000E-03 0. -1.
         11   -1    0    0    0    0 -0.00000000000E+00 -0.00000000000E+00 -0.45593999997E+02  0.45594000000E+02  0.51100000000E-03 0.  1.
         23    2    1    2    0    0  0.10658141036E-13 -0.33306690739E-15  0.35527136788E-14  0.91188000000E+02  0.91188000000E+02 0.  0.
    9900012    2    3    3    0    0 -0.25274002404E+02 -0.42153663332E+00 -0.26773614151E+02  0.54367091465E+02  0.40000016612E+02 0.  0.
         12    1    3    3    0    0  0.25274002404E+02  0.42153663332E+00  0.26773614151E+02  0.36820908535E+02  0.00000000000E+00 0. -1.
         11    1    4    4    0    0 -0.11431553292E+02 -0.11161667171E+01 -0.13745199086E+01  0.11567866875E+02  0.51100000000E-03 0. -1.
        -11    1    4    4    0    0 -0.16840991848E+02  0.69487719043E+01 -0.19223625040E+01  0.18319386323E+02  0.51100000000E-03 0.  1.
         12    1    4    4    0    0  0.29985427353E+01 -0.62541418205E+01 -0.23476731738E+02  0.24479838266E+02  0.00000000000E+00 0. -1.
</event>
<event>
 8    1  0.2402194E-006  0.9118800E+02  0.7816164E-02  0.1184000E+00
        -11   -1    0    0    0    0  0.00000000000E+00  0.00000000000E+00  0.45593999997E+02  0.45594000000E+02  0.51100000000E-03 0. -1.
         11   -1    0    0    0    0 -0.00000000000E+00 -0.00000000000E+00 -0.45593999997E+02  0.45594000000E+02  0.51100000000E-03 0.  1.
         23    2    1    2    0    0 -0.17763568394E-14 -0.17763568394E-14  0.35527136788E-14  0.91188000000E+02  0.91188000000E+02 0.  0.
    9900012    2    3    3    0    0  0.97169130501E+01  0.15606681501E+02 -0.31902848404E+02  0.54367100460E+02  0.40000037118E+02 0.  0.
         12    1    3    3    0    0 -0.97169130501E+01 -0.15606681501E+02  0.31902848404E+02  0.36820899540E+02  0.00000000000E+00 0. -1.
         11    1    4    4    0    0  0.40857115386E+01  0.15846485067E+02 -0.12369430872E+02  0.20513579602E+02  0.51100000000E-03 0. -1.
        -11    1    4    4    0    0 -0.21796820501E+01 -0.39112775364E+01 -0.23805781383E+02  0.24223218889E+02  0.51100000000E-03 0.  1.
        -12    1    4    4    0    0  0.78108835616E+01  0.36714739700E+01  0.42723638512E+01  0.96303019684E+01  0.00000000000E+00 0.  1.
</event>
<event>
 8    1  0.2402194E-006  0.9118800E+02  0.7816164E-02  0.1184000E+00
        -11   -1    0    0    0    0  0.00000000000E+00  0.00000000000E+00  0.45593999997E+02  0.45594000000E+02  0.51100000000E-03 0.  1.
         11   -1    0    0    0    0 -0.00000000000E+00 -0.00000000000E+00 -0.45593999997E+02  0.45594000000E+02  0.51100000000E-03 0. -1.
         23    2    1    2    0    0  0.00000000000E+00  0.00000000000E+00  0.10658141036E-13  0.91188000000E+02  0.91188000000E+02 0.  0.
    9900012    2    3    3    0    0 -0.18111701917E+02  0.19700761591E+02 -0.25290877834E+02  0.54367051408E+02  0.39999925295E+02 0.  0.
        -12    1    3    3    0    0  0.18111701917E+02 -0.19700761591E+02  0.25290877834E+02  0.36820948592E+02  0.00000000000E+00 0.  1.
         11    1    4    4    0    0 -0.71433486435E+01  0.48703687953E+01 -0.11164939321E+02  0.14121040767E+02  0.51100000000E-03 0. -1.
        -11    1    4    4    0    0 -0.46678188299E+01  0.16042115237E+02  0.70392048092E+01  0.18129765539E+02  0.51100000000E-03 0.  1.
        -12    1    4    4    0    0 -0.63005344438E+01 -0.12117224408E+01 -0.21165143322E+02  0.22116245101E+02  0.00000000000E+00 0.  1.
</event>
<event>
 8    1  0.2402194E-006  0.9118800E+02  0.7816164E-02  0.1184000E+00
        -11   -1    0    0    0    0  0.00000000000E+00  0.00000000000E+00  0.45593999997E+02  0.45594000000E+02  0.51100000000E-03 0. -1.
         11   -1    0    0    0    0 -0.00000000000E+00 -0.00000000000E+00 -0.45593999997E+02  0.45594000000E+02  0.51100000000E-03 0.  1.
         23    2    1    2    0    0 -0.71054273576E-14  0.17763568394E-14 -0.17763568394E-14  0.91188000000E+02  0.91188000000E+02 0.  0.
    9900012    2    3    3    0    0  0.33252164398E+02 -0.97771813396E+01  0.12428989304E+02  0.54367088995E+02  0.40000010982E+02 0.  0.
        -12    1    3    3    0    0 -0.33252164398E+02  0.97771813396E+01 -0.12428989304E+02  0.36820911005E+02  0.00000000000E+00 0.  1.
         11    1    4    4    0    0  0.24498087763E+02  0.27485976034E+01  0.15888952558E+02  0.29328653336E+02  0.51100000000E-03 0. -1.
        -11    1    4    4    0    0 -0.58819829231E+01 -0.61424852767E+00 -0.47214218192E+00  0.59327854219E+01  0.51100000000E-03 0.  1.
         12    1    4    4    0    0  0.14636059559E+02 -0.11911530415E+02 -0.29878210722E+01  0.19105650238E+02  0.00000000000E+00 0. -1.
</event>
<event>
 8    1  0.2402194E-006  0.9118800E+02  0.7816164E-02  0.1184000E+00
        -11   -1    0    0    0    0  0.00000000000E+00  0.00000000000E+00  0.45593999997E+02  0.45594000000E+02  0.51100000000E-03 0.  1.
         11   -1    0    0    0    0 -0.00000000000E+00 -0.00000000000E+00 -0.45593999997E+02  0.45594000000E+02  0.51100000000E-03 0. -1.
         23    2    1    2    0    0  0.00000000000E+00 -0.35527136788E-14  0.00000000000E+00  0.91188000000E+02  0.91188000000E+02 0.  0.
    9900012    2    3    3    0    0 -0.13397125064E+02 -0.29206150299E+02  0.17980477882E+02  0.54367085289E+02  0.40000002534E+02 0.  0.
         12    1    3    3    0    0  0.13397125064E+02  0.29206150299E+02 -0.17980477882E+02  0.36820914711E+02  0.00000000000E+00 0. -1.
         11    1    4    4    0    0 -0.14447046059E+02 -0.13166820826E+02 -0.53122238159E+01  0.20255913522E+02  0.51100000000E-03 0. -1.
        -11    1    4    4    0    0  0.66747021841E+01 -0.89715897688E+01  0.22397979666E+02  0.25034187936E+02  0.51100000000E-03 0.  1.
        -12    1    4    4    0    0 -0.56247811889E+01 -0.70677397044E+01  0.89472203194E+00  0.90769838310E+01  0.00000000000E+00 0.  1.
</event>
<event>
 8    1  0.2402194E-006  0.9118800E+02  0.7816164E-02  0.1184000E+00
        -11   -1    0    0    0    0  0.00000000000E+00  0.00000000000E+00  0.45593999997E+02  0.45594000000E+02  0.51100000000E-03 0. -1.
         11   -1    0    0    0    0 -0.00000000000E+00 -0.00000000000E+00 -0.45593999997E+02  0.45594000000E+02  0.51100000000E-03 0.  1.
         23    2    1    2    0    0 -0.35527136788E-14  0.00000000000E+00  0.35527136788E-14  0.91188000000E+02  0.91188000000E+02 0.  0.
    9900012    2    3    3    0    0 -0.24247901528E+02 -0.21041059826E+02 -0.18030330259E+02  0.54367085612E+02  0.40000003270E+02 0.  0.
         12    1    3    3    0    0  0.24247901528E+02  0.21041059826E+02  0.18030330259E+02  0.36820914388E+02  0.00000000000E+00 0. -1.
         11    1    4    4    0    0 -0.10831449874E+02 -0.14365417853E+02 -0.28260390870E+01  0.18211865189E+02  0.51100000000E-03 0. -1.
        -11    1    4    4    0    0  0.22683240431E+01 -0.10998980543E+02  0.31147610116E+01  0.11654381295E+02  0.51100000000E-03 0.  1.
        -12    1    4    4    0    0 -0.15684775697E+02  0.43233385703E+01 -0.18319052183E+02  0.24500839128E+02  0.00000000000E+00 0.  1.
</event>
<event>
 8    1  0.2402194E-006  0.9118800E+02  0.7816164E-02  0.1184000E+00
        -11   -1    0    0    0    0  0.00000000000E+00  0.00000000000E+00  0.45593999997E+02  0.45594000000E+02  0.51100000000E-03 0.  1.
         11   -1    0    0    0    0 -0.00000000000E+00 -0.00000000000E+00 -0.45593999997E+02  0.45594000000E+02  0.51100000000E-03 0. -1.
         23    2    1    2    0    0  0.00000000000E+00  0.00000000000E+00 -0.55511151231E-15  0.91188000000E+02  0.91188000000E+02 0.  0.
    9900012    2    3    3    0    0 -0.12402528102E+02  0.34655753250E+02 -0.96710703190E+00  0.54367092452E+02  0.40000018863E+02 0.  0.
         12    1    3    3    0    0  0.12402528102E+02 -0.34655753250E+02  0.96710703190E+00  0.36820907548E+02  0.00000000000E+00 0. -1.
         11    1    4    4    0    0 -0.68854211876E+01  0.47295465090E+00 -0.89843691313E+01  0.11329236514E+02  0.51100000000E-03 0. -1.
        -11    1    4    4    0    0 -0.92345528191E+01  0.35177755095E+02  0.26940406165E+01  0.36469292211E+02  0.51100000000E-03 0.  1.
        -12    1    4    4    0    0  0.37174459046E+01 -0.99495649617E+00  0.53232214829E+01  0.65685637273E+01  0.00000000000E+00 0.  1.
</event>
<event>
 8    1  0.2402194E-006  0.9118800E+02  0.7816164E-02  0.1184000E+00
        -11   -1    0    0    0    0  0.00000000000E+00  0.00000000000E+00  0.45593999997E+02  0.45594000000E+02  0.51100000000E-03 0.  1.
         11   -1    0    0    0    0 -0.00000000000E+00 -0.00000000000E+00 -0.45593999997E+02  0.45594000000E+02  0.51100000000E-03 0. -1.
         23    2    1    2    0    0  0.88817841970E-15 -0.35527136788E-14  0.00000000000E+00  0.91188000000E+02  0.91188000000E+02 0.  0.
    9900012    2    3    3    0    0 -0.24046012978E+01 -0.29651371579E+02  0.21697791600E+02  0.54367080617E+02  0.39999991883E+02 0.  0.
         12    1    3    3    0    0  0.24046012978E+01  0.29651371579E+02 -0.21697791600E+02  0.36820919383E+02  0.00000000000E+00 0. -1.
         11    1    4    4    0    0  0.47212642036E+01  0.53734667126E+01  0.11438598547E+02  0.13490960572E+02  0.51100000000E-03 0. -1.
        -11    1    4    4    0    0  0.53708689090E+01 -0.11437610830E+02  0.54135182152E+01  0.13746685203E+02  0.51100000000E-03 0.  1.
        -12    1    4    4    0    0 -0.12496734410E+02 -0.23587227461E+02  0.48456748377E+01  0.27129434842E+02  0.00000000000E+00 0.  1.
</event>
<event>
 8    1  0.2402194E-006  0.9118800E+02  0.7816164E-02  0.1184000E+00
        -11   -1    0    0    0    0  0.00000000000E+00  0.00000000000E+00  0.45593999997E+02  0.45594000000E+02  0.51100000000E-03 0. -1.
         11   -1    0    0    0    0 -0.00000000000E+00 -0.00000000000E+00 -0.45593999997E+02  0.45594000000E+02  0.51100000000E-03 0.  1.
         23    2    1    2    0    0 -0.17763568394E-14  0.35527136788E-14  0.00000000000E+00  0.91188000000E+02  0.91188000000E+02 0.  0.
    9900012    2    3    3    0    0  0.55479979169E+01  0.27041501019E+02 -0.24367204940E+02  0.54367031316E+02  0.39999879491E+02 0.  0.
         12    1    3    3    0    0 -0.55479979169E+01 -0.27041501019E+02  0.24367204940E+02  0.36820968684E+02  0.00000000000E+00 0. -1.
         11    1    4    4    0    0 -0.11041280991E+02  0.24992039815E+02 -0.15763835731E+02  0.31543786349E+02  0.51100000000E-03 0. -1.
        -11    1    4    4    0    0  0.12038470133E+02  0.32738495364E+01 -0.11765150745E+02  0.17148225163E+02  0.51100000000E-03 0.  1.
         12    1    4    4    0    0  0.45508087749E+01 -0.12243883324E+01  0.31617815355E+01  0.56750198037E+01  0.00000000000E+00 0. -1.
</event>
<event>
 8    1  0.2402194E-006  0.9118800E+02  0.7816164E-02  0.1184000E+00
        -11   -1    0    0    0    0  0.00000000000E+00  0.00000000000E+00  0.45593999997E+02  0.45594000000E+02  0.51100000000E-03 0. -1.
         11   -1    0    0    0    0 -0.00000000000E+00 -0.00000000000E+00 -0.45593999997E+02  0.45594000000E+02  0.51100000000E-03 0.  1.
         23    2    1    2    0    0 -0.35527136788E-14 -0.35527136788E-14  0.00000000000E+00  0.91188000000E+02  0.91188000000E+02 0.  0.
    9900012    2    3    3    0    0 -0.24771683074E+02 -0.24878928168E+02  0.11098768727E+02  0.54367081810E+02  0.39999994602E+02 0.  0.
         12    1    3    3    0    0  0.24771683074E+02  0.24878928168E+02 -0.11098768727E+02  0.36820918190E+02  0.00000000000E+00 0. -1.
         11    1    4    4    0    0 -0.27851028800E+02 -0.19638638930E+02  0.18028887245E+02  0.38553815892E+02  0.51100000000E-03 0. -1.
        -11    1    4    4    0    0 -0.13791318598E+01  0.37712499408E+01 -0.99103393924E+00  0.41359979851E+01  0.51100000000E-03 0.  1.
        -12    1    4    4    0    0  0.44584775862E+01 -0.90115391787E+01 -0.59390845786E+01  0.11677267933E+02  0.00000000000E+00 0.  1.
</event>
<event>
 8    1  0.2402194E-006  0.9118800E+02  0.7816164E-02  0.1184000E+00
        -11   -1    0    0    0    0  0.00000000000E+00  0.00000000000E+00  0.45593999997E+02  0.45594000000E+02  0.51100000000E-03 0.  1.
         11   -1    0    0    0    0 -0.00000000000E+00 -0.00000000000E+00 -0.45593999997E+02  0.45594000000E+02  0.51100000000E-03 0. -1.
         23    2    1    2    0    0  0.35527136788E-14  0.00000000000E+00  0.00000000000E+00  0.91188000000E+02  0.91188000000E+02 0.  0.
    9900012    2    3    3    0    0  0.19920712468E+02  0.16384353842E+02  0.26277321999E+02  0.54367088992E+02  0.40000010975E+02 0.  0.
         12    1    3    3    0    0 -0.19920712468E+02 -0.16384353842E+02 -0.26277321999E+02  0.36820911008E+02  0.00000000000E+00 0. -1.
         11    1    4    4    0    0 -0.34391184363E+01 -0.28402359803E+01 -0.34521213962E+01  0.56401789367E+01  0.51100000000E-03 0. -1.
        -11    1    4    4    0    0  0.11954189902E+02  0.13982864414E+01  0.23926146331E+02  0.26782799325E+02  0.51100000000E-03 0.  1.
         12    1    4    4    0    0  0.11405641002E+02  0.17826303381E+02  0.58032970638E+01  0.21944110730E+02  0.00000000000E+00 0. -1.
</event>
<event>
 8    1  0.2402194E-006  0.9118800E+02  0.7816164E-02  0.1184000E+00
        -11   -1    0    0    0    0  0.00000000000E+00  0.00000000000E+00  0.45593999997E+02  0.45594000000E+02  0.51100000000E-03 0.  1.
         11   -1    0    0    0    0 -0.00000000000E+00 -0.00000000000E+00 -0.45593999997E+02  0.45594000000E+02  0.51100000000E-03 0. -1.
         23    2    1    2    0    0  0.00000000000E+00  0.17763568394E-14 -0.11102230246E-14  0.91188000000E+02  0.91188000000E+02 0.  0.
    9900012    2    3    3    0    0  0.34080607567E+02  0.13908881983E+02  0.91203310868E+00  0.54367128004E+02  0.40000099910E+02 0.  0.
         12    1    3    3    0    0 -0.34080607567E+02 -0.13908881983E+02 -0.91203310868E+00  0.36820871996E+02  0.00000000000E+00 0. -1.
         11    1    4    4    0    0  0.21955405204E+02  0.11151323928E+02 -0.12497749122E+02  0.27614952044E+02  0.51100000000E-03 0. -1.
        -11    1    4    4    0    0  0.70737598545E+00 -0.72092615178E+01  0.13161388916E+01  0.73624760957E+01  0.51100000000E-03 0.  1.
        -12    1    4    4    0    0  0.11417826378E+02  0.99668195726E+01  0.12093643339E+02  0.19389699864E+02  0.00000000000E+00 0.  1.
</event>
<event>
 8    1  0.2402194E-006  0.9118800E+02  0.7816164E-02  0.1184000E+00
        -11   -1    0    0    0    0  0.00000000000E+00  0.00000000000E+00  0.45593999997E+02  0.45594000000E+02  0.51100000000E-03 0.  1.
         11   -1    0    0    0    0 -0.00000000000E+00 -0.00000000000E+00 -0.45593999997E+02  0.45594000000E+02  0.51100000000E-03 0. -1.
         23    2    1    2    0    0 -0.71054273576E-14 -0.22204460493E-14  0.00000000000E+00  0.91188000000E+02  0.91188000000E+02 0.  0.
    9900012    2    3    3    0    0 -0.34503547901E+02 -0.24297790068E+01  0.12624606124E+02  0.54367091218E+02  0.40000016050E+02 0.  0.
         12    1    3    3    0    0  0.34503547901E+02  0.24297790068E+01 -0.12624606124E+02  0.36820908782E+02  0.00000000000E+00 0. -1.
         11    1    4    4    0    0 -0.10665611182E+02  0.11467096980E+02  0.96634141395E+01  0.18401933272E+02  0.51100000000E-03 0. -1.
        -11    1    4    4    0    0 -0.10685657256E+02  0.45809391909E+01 -0.39107476094E+01  0.12266304333E+02  0.51100000000E-03 0.  1.
        -12    1    4    4    0    0 -0.13152279462E+02 -0.18477815178E+02  0.68719395936E+01  0.23698853613E+02  0.00000000000E+00 0.  1.
</event>
<event>
 8    1  0.2402194E-006  0.9118800E+02  0.7816164E-02  0.1184000E+00
        -11   -1    0    0    0    0  0.00000000000E+00  0.00000000000E+00  0.45593999997E+02  0.45594000000E+02  0.51100000000E-03 0.  1.
         11   -1    0    0    0    0 -0.00000000000E+00 -0.00000000000E+00 -0.45593999997E+02  0.45594000000E+02  0.51100000000E-03 0. -1.
         23    2    1    2    0    0  0.00000000000E+00 -0.44408920985E-15  0.00000000000E+00  0.91188000000E+02  0.91188000000E+02 0.  0.
    9900012    2    3    3    0    0 -0.18553274014E+02 -0.39125700008E+01  0.31563392586E+02  0.54367082953E+02  0.39999997208E+02 0.  0.
         12    1    3    3    0    0  0.18553274014E+02  0.39125700008E+01 -0.31563392586E+02  0.36820917047E+02  0.00000000000E+00 0. -1.
         11    1    4    4    0    0  0.17132166491E+01  0.59755138349E+01 -0.58369812719E+01  0.85271465044E+01  0.51100000000E-03 0. -1.
        -11    1    4    4    0    0 -0.10802825917E+02 -0.12648434855E+02  0.24175065657E+02  0.29344807920E+02  0.51100000000E-03 0.  1.
         12    1    4    4    0    0 -0.94636647458E+01  0.27603510189E+01  0.13225308200E+02  0.16495128528E+02  0.00000000000E+00 0. -1.
</event>
<event>
 8    1  0.2402194E-006  0.9118800E+02  0.7816164E-02  0.1184000E+00
        -11   -1    0    0    0    0  0.00000000000E+00  0.00000000000E+00  0.45593999997E+02  0.45594000000E+02  0.51100000000E-03 0. -1.
         11   -1    0    0    0    0 -0.00000000000E+00 -0.00000000000E+00 -0.45593999997E+02  0.45594000000E+02  0.51100000000E-03 0.  1.
         23    2    1    2    0    0  0.00000000000E+00  0.00000000000E+00  0.00000000000E+00  0.91188000000E+02  0.91188000000E+02 0.  0.
    9900012    2    3    3    0    0  0.11491031956E+02  0.11447595042E+02 -0.33055766240E+02  0.54367150888E+02  0.40000152079E+02 0.  0.
         12    1    3    3    0    0 -0.11491031956E+02 -0.11447595042E+02  0.33055766240E+02  0.36820849112E+02  0.00000000000E+00 0. -1.
         11    1    4    4    0    0  0.32548215635E+01  0.37507975707E+01  0.74111392307E+01  0.89211731731E+01  0.51100000000E-03 0. -1.
        -11    1    4    4    0    0  0.10355126701E+02  0.62641723528E+01 -0.12632298159E+02  0.17494097899E+02  0.51100000000E-03 0.  1.
         12    1    4    4    0    0 -0.21189163088E+01  0.14326251180E+01 -0.27834607311E+02  0.27951879816E+02  0.00000000000E+00 0. -1.
</event>
<event>
 8    1  0.2402194E-006  0.9118800E+02  0.7816164E-02  0.1184000E+00
        -11   -1    0    0    0    0  0.00000000000E+00  0.00000000000E+00  0.45593999997E+02  0.45594000000E+02  0.51100000000E-03 0. -1.
         11   -1    0    0    0    0 -0.00000000000E+00 -0.00000000000E+00 -0.45593999997E+02  0.45594000000E+02  0.51100000000E-03 0.  1.
         23    2    1    2    0    0  0.00000000000E+00  0.00000000000E+00  0.00000000000E+00  0.91188000000E+02  0.91188000000E+02 0.  0.
    9900012    2    3    3    0    0  0.14595762538E+02 -0.31795446812E+02  0.11480095229E+02  0.54367091421E+02  0.40000016513E+02 0.  0.
         12    1    3    3    0    0 -0.14595762538E+02  0.31795446812E+02 -0.11480095229E+02  0.36820908579E+02  0.00000000000E+00 0. -1.
         11    1    4    4    0    0 -0.11119654334E+02 -0.15499461440E+02 -0.37791313422E+01  0.19446384019E+02  0.51100000000E-03 0. -1.
        -11    1    4    4    0    0  0.25375843955E+01 -0.29849118800E+01 -0.40824805310E+00  0.39389973635E+01  0.51100000000E-03 0.  1.
        -12    1    4    4    0    0  0.23177832477E+02 -0.13311073492E+02  0.15667474625E+02  0.30981710039E+02  0.00000000000E+00 0.  1.
</event>
<event>
 8    1  0.2402194E-006  0.9118800E+02  0.7816164E-02  0.1184000E+00
        -11   -1    0    0    0    0  0.00000000000E+00  0.00000000000E+00  0.45593999997E+02  0.45594000000E+02  0.51100000000E-03 0.  1.
         11   -1    0    0    0    0 -0.00000000000E+00 -0.00000000000E+00 -0.45593999997E+02  0.45594000000E+02  0.51100000000E-03 0. -1.
         23    2    1    2    0    0  0.00000000000E+00  0.35527136788E-14  0.00000000000E+00  0.91188000000E+02  0.91188000000E+02 0.  0.
    9900012    2    3    3    0    0  0.22432961260E+02  0.16136956419E+02  0.24333946793E+02  0.54367080947E+02  0.39999992635E+02 0.  0.
         12    1    3    3    0    0 -0.22432961260E+02 -0.16136956419E+02 -0.24333946793E+02  0.36820919053E+02  0.00000000000E+00 0. -1.
         11    1    4    4    0    0  0.35979122448E+01  0.20575049981E+02  0.10991600995E+02  0.23602816504E+02  0.51100000000E-03 0. -1.
        -11    1    4    4    0    0  0.12141308351E+02  0.53991626607E+01  0.13391987528E+02  0.18865514997E+02  0.51100000000E-03 0.  1.
         12    1    4    4    0    0  0.66937406641E+01 -0.98372562223E+01 -0.49641729184E-01  0.11898749445E+02  0.00000000000E+00 0. -1.
</event>
<event>
 8    1  0.2402194E-006  0.9118800E+02  0.7816164E-02  0.1184000E+00
        -11   -1    0    0    0    0  0.00000000000E+00  0.00000000000E+00  0.45593999997E+02  0.45594000000E+02  0.51100000000E-03 0.  1.
         11   -1    0    0    0    0 -0.00000000000E+00 -0.00000000000E+00 -0.45593999997E+02  0.45594000000E+02  0.51100000000E-03 0. -1.
         23    2    1    2    0    0  0.00000000000E+00 -0.19984014443E-14  0.71054273576E-14  0.91188000000E+02  0.91188000000E+02 0.  0.
    9900012    2    3    3    0    0 -0.16256472743E+00 -0.12999890169E+01  0.36797595193E+02  0.54367090034E+02  0.40000013349E+02 0.  0.
         12    1    3    3    0    0  0.16256472743E+00  0.12999890169E+01 -0.36797595193E+02  0.36820909966E+02  0.00000000000E+00 0. -1.
         11    1    4    4    0    0  0.11203516341E+02  0.67743982087E+01  0.61025351699E+00  0.13106626534E+02  0.51100000000E-03 0. -1.
        -11    1    4    4    0    0 -0.51383248401E+01 -0.37483115434E+01  0.26731369611E+01  0.68991219052E+01  0.51100000000E-03 0.  1.
         12    1    4    4    0    0 -0.62277562282E+01 -0.43260756823E+01  0.33514204715E+02  0.34361341594E+02  0.00000000000E+00 0. -1.
</event>
<event>
 8    1  0.2402194E-006  0.9118800E+02  0.7816164E-02  0.1184000E+00
        -11   -1    0    0    0    0  0.00000000000E+00  0.00000000000E+00  0.45593999997E+02  0.45594000000E+02  0.51100000000E-03 0.  1.
         11   -1    0    0    0    0 -0.00000000000E+00 -0.00000000000E+00 -0.45593999997E+02  0.45594000000E+02  0.51100000000E-03 0. -1.
         23    2    1    2    0    0  0.35527136788E-14  0.00000000000E+00  0.17763568394E-14  0.91188000000E+02  0.91188000000E+02 0.  0.
    9900012    2    3    3    0    0  0.24404369617E+02 -0.24732299560E+02 -0.12186897310E+02  0.54367077090E+02  0.39999983841E+02 0.  0.
         12    1    3    3    0    0 -0.24404369617E+02  0.24732299560E+02  0.12186897310E+02  0.36820922910E+02  0.00000000000E+00 0. -1.
         11    1    4    4    0    0 -0.31945353412E+01 -0.94229640608E+00  0.19434290036E+01  0.38561502974E+01  0.51100000000E-03 0. -1.
        -11    1    4    4    0    0 -0.13597262418E+01 -0.22946662425E+01  0.78399532920E+01  0.82812569396E+01  0.51100000000E-03 0.  1.
         12    1    4    4    0    0  0.28958631200E+02 -0.21495336911E+02 -0.21970279606E+02  0.42229669853E+02  0.00000000000E+00 0. -1.
</event>
<event>
 8    1  0.2402194E-006  0.9118800E+02  0.7816164E-02  0.1184000E+00
        -11   -1    0    0    0    0  0.00000000000E+00  0.00000000000E+00  0.45593999997E+02  0.45594000000E+02  0.51100000000E-03 0.  1.
         11   -1    0    0    0    0 -0.00000000000E+00 -0.00000000000E+00 -0.45593999997E+02  0.45594000000E+02  0.51100000000E-03 0. -1.
         23    2    1    2    0    0  0.00000000000E+00  0.88817841970E-15 -0.44408920985E-15  0.91188000000E+02  0.91188000000E+02 0.  0.
    9900012    2    3    3    0    0 -0.35817160478E+02  0.79567854282E+01 -0.30980851855E+01  0.54367115290E+02  0.40000070925E+02 0.  0.
         12    1    3    3    0    0  0.35817160478E+02 -0.79567854282E+01  0.30980851855E+01  0.36820884710E+02  0.00000000000E+00 0. -1.
         11    1    4    4    0    0 -0.18842139621E+02  0.91283884481E+01  0.15519889314E+02  0.26061862284E+02  0.51100000000E-03 0. -1.
        -11    1    4    4    0    0 -0.82255457352E+01 -0.16270412280E+01 -0.76674445783E+00  0.84199027977E+01  0.51100000000E-03 0.  1.
         12    1    4    4    0    0 -0.87494751222E+01  0.45543820810E+00 -0.17851230042E+02  0.19885350208E+02  0.00000000000E+00 0. -1.
</event>
<event>
 8    1  0.2402194E-006  0.9118800E+02  0.7816164E-02  0.1184000E+00
        -11   -1    0    0    0    0  0.00000000000E+00  0.00000000000E+00  0.45593999997E+02  0.45594000000E+02  0.51100000000E-03 0. -1.
         11   -1    0    0    0    0 -0.00000000000E+00 -0.00000000000E+00 -0.45593999997E+02  0.45594000000E+02  0.51100000000E-03 0.  1.
         23    2    1    2    0    0  0.00000000000E+00  0.00000000000E+00 -0.17763568394E-14  0.91188000000E+02  0.91188000000E+02 0.  0.
    9900012    2    3    3    0    0 -0.27728758624E+02  0.22166043809E+02  0.97751361166E+01  0.54367206431E+02  0.40000278699E+02 0.  0.
         12    1    3    3    0    0  0.27728758624E+02 -0.22166043809E+02 -0.97751361166E+01  0.36820793569E+02  0.00000000000E+00 0. -1.
         11    1    4    4    0    0 -0.13135914206E+02 -0.63882619691E+01 -0.10551710132E+01  0.14644982730E+02  0.51100000000E-03 0. -1.
        -11    1    4    4    0    0  0.22843719836E+01  0.12610731212E+02  0.10393833319E+02  0.16500929319E+02  0.51100000000E-03 0.  1.
        -12    1    4    4    0    0 -0.16877216401E+02  0.15943574566E+02  0.43647381078E+00  0.23221294382E+02  0.00000000000E+00 0.  1.
</event>
<event>
 8    1  0.2402194E-006  0.9118800E+02  0.7816164E-02  0.1184000E+00
        -11   -1    0    0    0    0  0.00000000000E+00  0.00000000000E+00  0.45593999997E+02  0.45594000000E+02  0.51100000000E-03 0. -1.
         11   -1    0    0    0    0 -0.00000000000E+00 -0.00000000000E+00 -0.45593999997E+02  0.45594000000E+02  0.51100000000E-03 0.  1.
         23    2    1    2    0    0  0.00000000000E+00  0.35527136788E-14 -0.35527136788E-14  0.91188000000E+02  0.91188000000E+02 0.  0.
    9900012    2    3    3    0    0 -0.14691082727E+02  0.27282036089E+02  0.19890790943E+02  0.54367068871E+02  0.39999965106E+02 0.  0.
        -12    1    3    3    0    0  0.14691082727E+02 -0.27282036089E+02 -0.19890790943E+02  0.36820931129E+02  0.00000000000E+00 0.  1.
         11    1    4    4    0    0 -0.12856448672E+02  0.10011190456E+02  0.25811271143E+02  0.30524316947E+02  0.51100000000E-03 0. -1.
        -11    1    4    4    0    0 -0.31723963223E+00 -0.25974420324E+01  0.92212827537E+00  0.27744669602E+01  0.51100000000E-03 0.  1.
         12    1    4    4    0    0 -0.15173944227E+01  0.19868287665E+02 -0.68426084755E+01  0.21068284964E+02  0.00000000000E+00 0. -1.
</event>
<event>
 8    1  0.2402194E-006  0.9118800E+02  0.7816164E-02  0.1184000E+00
        -11   -1    0    0    0    0  0.00000000000E+00  0.00000000000E+00  0.45593999997E+02  0.45594000000E+02  0.51100000000E-03 0.  1.
         11   -1    0    0    0    0 -0.00000000000E+00 -0.00000000000E+00 -0.45593999997E+02  0.45594000000E+02  0.51100000000E-03 0. -1.
         23    2    1    2    0    0  0.17763568394E-14  0.17763568394E-14  0.71054273576E-14  0.91188000000E+02  0.91188000000E+02 0.  0.
    9900012    2    3    3    0    0  0.12050253713E+02 -0.82036199891E+01  0.33812297089E+02  0.54367089773E+02  0.40000012756E+02 0.  0.
         12    1    3    3    0    0 -0.12050253713E+02  0.82036199891E+01 -0.33812297089E+02  0.36820910227E+02  0.00000000000E+00 0. -1.
         11    1    4    4    0    0  0.83345995958E+01  0.21502224954E+01  0.17568367377E+01  0.87849577566E+01  0.51100000000E-03 0. -1.
        -11    1    4    4    0    0  0.57036671366E+00  0.10829964283E+02  0.12861818472E+02  0.16823787303E+02  0.51100000000E-03 0.  1.
        -12    1    4    4    0    0  0.31452874035E+01 -0.21183806768E+02  0.19193641880E+02  0.28758344713E+02  0.00000000000E+00 0.  1.
</event>
<event>
 8    1  0.2402194E-006  0.9118800E+02  0.7816164E-02  0.1184000E+00
        -11   -1    0    0    0    0  0.00000000000E+00  0.00000000000E+00  0.45593999997E+02  0.45594000000E+02  0.51100000000E-03 0.  1.
         11   -1    0    0    0    0 -0.00000000000E+00 -0.00000000000E+00 -0.45593999997E+02  0.45594000000E+02  0.51100000000E-03 0. -1.
         23    2    1    2    0    0 -0.17763568394E-14 -0.35527136788E-14  0.35527136788E-14  0.91188000000E+02  0.91188000000E+02 0.  0.
    9900012    2    3    3    0    0  0.12542702234E+02 -0.28414133910E+02  0.19776204683E+02  0.54367073112E+02  0.39999974774E+02 0.  0.
        -12    1    3    3    0    0 -0.12542702234E+02  0.28414133910E+02 -0.19776204683E+02  0.36820926888E+02  0.00000000000E+00 0.  1.
         11    1    4    4    0    0  0.18097795508E+02 -0.22743583684E+02  0.11825352885E+01  0.29089503106E+02  0.51100000000E-03 0. -1.
        -11    1    4    4    0    0 -0.63079158843E+01 -0.88062347678E+01  0.62211274603E+01  0.12491677258E+02  0.51100000000E-03 0.  1.
         12    1    4    4    0    0  0.75282261120E+00  0.31356845417E+01  0.12372541935E+02  0.12785892748E+02  0.00000000000E+00 0. -1.
</event>
<event>
 8    1  0.2402194E-006  0.9118800E+02  0.7816164E-02  0.1184000E+00
        -11   -1    0    0    0    0  0.00000000000E+00  0.00000000000E+00  0.45593999997E+02  0.45594000000E+02  0.51100000000E-03 0.  1.
         11   -1    0    0    0    0 -0.00000000000E+00 -0.00000000000E+00 -0.45593999997E+02  0.45594000000E+02  0.51100000000E-03 0. -1.
         23    2    1    2    0    0  0.35527136788E-14 -0.35527136788E-14  0.17763568394E-14  0.91188000000E+02  0.91188000000E+02 0.  0.
    9900012    2    3    3    0    0 -0.18712423177E+02  0.28690715463E+02  0.13508058363E+02  0.54367087795E+02  0.40000008245E+02 0.  0.
        -12    1    3    3    0    0  0.18712423177E+02 -0.28690715463E+02 -0.13508058363E+02  0.36820912205E+02  0.00000000000E+00 0.  1.
         11    1    4    4    0    0 -0.79967993653E+01 -0.59548688462E+01 -0.23683222228E+01  0.10247839454E+02  0.51100000000E-03 0. -1.
        -11    1    4    4    0    0 -0.40990205729E+01 -0.13373307422E+01  0.20085409650E+00  0.43163370814E+01  0.51100000000E-03 0.  1.
         12    1    4    4    0    0 -0.66166032386E+01  0.35982915051E+02  0.15675526489E+02  0.39802911259E+02  0.00000000000E+00 0. -1.
</event>
<event>
 8    1  0.2402194E-006  0.9118800E+02  0.7816164E-02  0.1184000E+00
        -11   -1    0    0    0    0  0.00000000000E+00  0.00000000000E+00  0.45593999997E+02  0.45594000000E+02  0.51100000000E-03 0. -1.
         11   -1    0    0    0    0 -0.00000000000E+00 -0.00000000000E+00 -0.45593999997E+02  0.45594000000E+02  0.51100000000E-03 0.  1.
         23    2    1    2    0    0  0.35527136788E-14 -0.35527136788E-14 -0.35527136788E-14  0.91188000000E+02  0.91188000000E+02 0.  0.
    9900012    2    3    3    0    0 -0.20000617178E+02  0.15788962138E+02  0.26579395852E+02  0.54367078002E+02  0.39999985921E+02 0.  0.
        -12    1    3    3    0    0  0.20000617178E+02 -0.15788962138E+02 -0.26579395852E+02  0.36820921998E+02  0.00000000000E+00 0.  1.
         11    1    4    4    0    0 -0.11741668147E+02 -0.76217617509E+01  0.16259005308E+02  0.21454912653E+02  0.51100000000E-03 0. -1.
        -11    1    4    4    0    0 -0.55454971067E+00  0.19510757941E+02  0.13475597172E+02  0.23718535373E+02  0.51100000000E-03 0.  1.
        -12    1    4    4    0    0 -0.77043993204E+01  0.38999659479E+01 -0.31552066278E+01  0.91936299766E+01  0.00000000000E+00 0.  1.
</event>
<event>
 8    1  0.2402194E-006  0.9118800E+02  0.7816164E-02  0.1184000E+00
        -11   -1    0    0    0    0  0.00000000000E+00  0.00000000000E+00  0.45593999997E+02  0.45594000000E+02  0.51100000000E-03 0.  1.
         11   -1    0    0    0    0 -0.00000000000E+00 -0.00000000000E+00 -0.45593999997E+02  0.45594000000E+02  0.51100000000E-03 0. -1.
         23    2    1    2    0    0 -0.88817841970E-15  0.00000000000E+00  0.00000000000E+00  0.91188000000E+02  0.91188000000E+02 0.  0.
    9900012    2    3    3    0    0  0.36251419637E+01  0.20228323950E+02  0.30552463245E+02  0.54367085366E+02  0.40000002710E+02 0.  0.
         12    1    3    3    0    0 -0.36251419637E+01 -0.20228323950E+02 -0.30552463245E+02  0.36820914634E+02  0.00000000000E+00 0. -1.
         11    1    4    4    0    0 -0.14974677836E+02 -0.51918030549E-01  0.69595217128E+01  0.16512983211E+02  0.51100000000E-03 0. -1.
        -11    1    4    4    0    0  0.42418818954E+01  0.48722758718E+01  0.32226241910E+00  0.64681131339E+01  0.51100000000E-03 0.  1.
        -12    1    4    4    0    0  0.14357937905E+02  0.15407966109E+02  0.23270679113E+02  0.31385989022E+02  0.00000000000E+00 0.  1.
</event>
<event>
 8    1  0.2402194E-006  0.9118800E+02  0.7816164E-02  0.1184000E+00
        -11   -1    0    0    0    0  0.00000000000E+00  0.00000000000E+00  0.45593999997E+02  0.45594000000E+02  0.51100000000E-03 0.  1.
         11   -1    0    0    0    0 -0.00000000000E+00 -0.00000000000E+00 -0.45593999997E+02  0.45594000000E+02  0.51100000000E-03 0. -1.
         23    2    1    2    0    0 -0.71054273576E-14  0.52041704279E-15  0.00000000000E+00  0.91188000000E+02  0.91188000000E+02 0.  0.
    9900012    2    3    3    0    0 -0.28477149591E+02  0.50164361462E-01 -0.23341564376E+02  0.54367092993E+02  0.40000020096E+02 0.  0.
        -12    1    3    3    0    0  0.28477149591E+02 -0.50164361462E-01  0.23341564376E+02  0.36820907007E+02  0.00000000000E+00 0.  1.
         11    1    4    4    0    0 -0.18502316800E+02  0.52724474061E+01 -0.24641699411E+01  0.19396045019E+02  0.51100000000E-03 0.  1.
        -11    1    4    4    0    0 -0.11909758776E+02  0.39995825809E+01 -0.56102124443E+00  0.12575919848E+02  0.51100000000E-03 0. -1.
        -12    1    4    4    0    0  0.19349259843E+01 -0.92218656256E+01 -0.20316373191E+02  0.22395128127E+02  0.00000000000E+00 0.  1.
</event>
<event>
 8    1  0.2402194E-006  0.9118800E+02  0.7816164E-02  0.1184000E+00
        -11   -1    0    0    0    0  0.00000000000E+00  0.00000000000E+00  0.45593999997E+02  0.45594000000E+02  0.51100000000E-03 0.  1.
         11   -1    0    0    0    0 -0.00000000000E+00 -0.00000000000E+00 -0.45593999997E+02  0.45594000000E+02  0.51100000000E-03 0. -1.
         23    2    1    2    0    0  0.35527136788E-14  0.00000000000E+00  0.00000000000E+00  0.91188000000E+02  0.91188000000E+02 0.  0.
    9900012    2    3    3    0    0 -0.27932648918E+02  0.16061353623E+02  0.17820755259E+02  0.54367091894E+02  0.40000017590E+02 0.  0.
         12    1    3    3    0    0  0.27932648918E+02 -0.16061353623E+02 -0.17820755259E+02  0.36820908106E+02  0.00000000000E+00 0. -1.
         11    1    4    4    0    0 -0.11959413756E+02  0.17815630510E+02  0.98974488243E+01  0.23630145182E+02  0.51100000000E-03 0. -1.
        -11    1    4    4    0    0 -0.19752596568E+02  0.98749631433E+00 -0.18921135781E+01  0.19867569408E+02  0.51100000000E-03 0.  1.
         12    1    4    4    0    0  0.37793614059E+01 -0.27417732007E+01  0.98154200132E+01  0.10869377303E+02  0.00000000000E+00 0. -1.
</event>
<event>
 8    1  0.2402194E-006  0.9118800E+02  0.7816164E-02  0.1184000E+00
        -11   -1    0    0    0    0  0.00000000000E+00  0.00000000000E+00  0.45593999997E+02  0.45594000000E+02  0.51100000000E-03 0.  1.
         11   -1    0    0    0    0 -0.00000000000E+00 -0.00000000000E+00 -0.45593999997E+02  0.45594000000E+02  0.51100000000E-03 0. -1.
         23    2    1    2    0    0 -0.35527136788E-14  0.44408920985E-15  0.00000000000E+00  0.91188000000E+02  0.91188000000E+02 0.  0.
    9900012    2    3    3    0    0 -0.28560118392E+02  0.37270687214E+01  0.22939229520E+02  0.54367086720E+02  0.40000005795E+02 0.  0.
         12    1    3    3    0    0  0.28560118392E+02 -0.37270687214E+01 -0.22939229520E+02  0.36820913280E+02  0.00000000000E+00 0. -1.
         11    1    4    4    0    0  0.61309898586E+01  0.33619300055E+01 -0.12629267191E+00  0.69933940335E+01  0.51100000000E-03 0. -1.
        -11    1    4    4    0    0 -0.36123258530E+01 -0.83393604959E+01  0.45196114560E+01  0.10149912291E+02  0.51100000000E-03 0.  1.
        -12    1    4    4    0    0 -0.31078782398E+02  0.87044992118E+01  0.18545910736E+02  0.37223780395E+02  0.00000000000E+00 0.  1.
</event>
<event>
 8    1  0.2402194E-006  0.9118800E+02  0.7816164E-02  0.1184000E+00
        -11   -1    0    0    0    0  0.00000000000E+00  0.00000000000E+00  0.45593999997E+02  0.45594000000E+02  0.51100000000E-03 0. -1.
         11   -1    0    0    0    0 -0.00000000000E+00 -0.00000000000E+00 -0.45593999997E+02  0.45594000000E+02  0.51100000000E-03 0.  1.
         23    2    1    2    0    0  0.00000000000E+00  0.00000000000E+00  0.00000000000E+00  0.91188000000E+02  0.91188000000E+02 0.  0.
    9900012    2    3    3    0    0 -0.16290127629E+02 -0.28119190005E+02  0.17312468452E+02  0.54367100111E+02  0.40000036324E+02 0.  0.
        -12    1    3    3    0    0  0.16290127629E+02  0.28119190005E+02 -0.17312468452E+02  0.36820899889E+02  0.00000000000E+00 0.  1.
         11    1    4    4    0    0  0.39557866416E+01 -0.74962183800E+01 -0.23422807981E+01  0.87936236872E+01  0.51100000000E-03 0. -1.
        -11    1    4    4    0    0 -0.10438143743E+01  0.70269686517E+01  0.12698465635E+01  0.72166714928E+01  0.51100000000E-03 0.  1.
         12    1    4    4    0    0 -0.19202099897E+02 -0.27649940276E+02  0.18384902687E+02  0.38356804931E+02  0.00000000000E+00 0. -1.
</event>
<event>
 8    1  0.2402194E-006  0.9118800E+02  0.7816164E-02  0.1184000E+00
        -11   -1    0    0    0    0  0.00000000000E+00  0.00000000000E+00  0.45593999997E+02  0.45594000000E+02  0.51100000000E-03 0. -1.
         11   -1    0    0    0    0 -0.00000000000E+00 -0.00000000000E+00 -0.45593999997E+02  0.45594000000E+02  0.51100000000E-03 0.  1.
         23    2    1    2    0    0  0.00000000000E+00  0.00000000000E+00  0.83266726847E-16  0.91188000000E+02  0.91188000000E+02 0.  0.
    9900012    2    3    3    0    0 -0.25423230513E+02  0.26634894667E+02 -0.14432105720E+00  0.54367094359E+02  0.40000023210E+02 0.  0.
        -12    1    3    3    0    0  0.25423230513E+02 -0.26634894667E+02  0.14432105720E+00  0.36820905641E+02  0.00000000000E+00 0.  1.
         11    1    4    4    0    0 -0.88754869640E+01  0.66167676006E+01  0.14450322621E+02  0.18203508081E+02  0.51100000000E-03 0. -1.
        -11    1    4    4    0    0 -0.39360544597E+01  0.19015021946E+02 -0.43867902820E+01  0.19907473811E+02  0.51100000000E-03 0.  1.
        -12    1    4    4    0    0 -0.12611689089E+02  0.10031051206E+01 -0.10207853396E+02  0.16256112467E+02  0.00000000000E+00 0.  1.
</event>
<event>
 8    1  0.2402194E-006  0.9118800E+02  0.7816164E-02  0.1184000E+00
        -11   -1    0    0    0    0  0.00000000000E+00  0.00000000000E+00  0.45593999997E+02  0.45594000000E+02  0.51100000000E-03 0.  1.
         11   -1    0    0    0    0 -0.00000000000E+00 -0.00000000000E+00 -0.45593999997E+02  0.45594000000E+02  0.51100000000E-03 0. -1.
         23    2    1    2    0    0  0.00000000000E+00  0.00000000000E+00 -0.17763568394E-14  0.91188000000E+02  0.91188000000E+02 0.  0.
    9900012    2    3    3    0    0  0.36089583353E+02 -0.28452796482E+01  0.67250368206E+01  0.54367085249E+02  0.40000002442E+02 0.  0.
         12    1    3    3    0    0 -0.36089583353E+02  0.28452796482E+01 -0.67250368206E+01  0.36820914751E+02  0.00000000000E+00 0. -1.
         11    1    4    4    0    0  0.41396708224E+02 -0.10415961564E+02  0.82898010085E+01  0.43484485833E+02  0.51100000000E-03 0.  1.
        -11    1    4    4    0    0 -0.13864476099E+01  0.65722203316E+01 -0.11640261854E+01  0.68169842513E+01  0.51100000000E-03 0. -1.
        -12    1    4    4    0    0 -0.39206772611E+01  0.99846158474E+00 -0.40073800243E+00  0.40656151648E+01  0.00000000000E+00 0.  1.
</event>
<event>
 8    1  0.2402194E-006  0.9118800E+02  0.7816164E-02  0.1184000E+00
        -11   -1    0    0    0    0  0.00000000000E+00  0.00000000000E+00  0.45593999997E+02  0.45594000000E+02  0.51100000000E-03 0.  1.
         11   -1    0    0    0    0 -0.00000000000E+00 -0.00000000000E+00 -0.45593999997E+02  0.45594000000E+02  0.51100000000E-03 0. -1.
         23    2    1    2    0    0  0.00000000000E+00  0.17763568394E-14  0.00000000000E+00  0.91188000000E+02  0.91188000000E+02 0.  0.
    9900012    2    3    3    0    0  0.33898461932E+02  0.14184477534E+02  0.23397910519E+01  0.54367085475E+02  0.40000002957E+02 0.  0.
         12    1    3    3    0    0 -0.33898461932E+02 -0.14184477534E+02 -0.23397910519E+01  0.36820914525E+02  0.00000000000E+00 0. -1.
         11    1    4    4    0    0  0.12318353381E+02 -0.51911712989E+01  0.75385612489E+00  0.13388741120E+02  0.51100000000E-03 0. -1.
        -11    1    4    4    0    0 -0.49994102322E+01  0.96201586305E+01 -0.49535399880E+01  0.11919694351E+02  0.51100000000E-03 0.  1.
        -12    1    4    4    0    0  0.26579518784E+02  0.97554902024E+01  0.65394749151E+01  0.29058650004E+02  0.00000000000E+00 0.  1.
</event>
<event>
 8    1  0.2402194E-006  0.9118800E+02  0.7816164E-02  0.1184000E+00
        -11   -1    0    0    0    0  0.00000000000E+00  0.00000000000E+00  0.45593999997E+02  0.45594000000E+02  0.51100000000E-03 0. -1.
         11   -1    0    0    0    0 -0.00000000000E+00 -0.00000000000E+00 -0.45593999997E+02  0.45594000000E+02  0.51100000000E-03 0.  1.
         23    2    1    2    0    0  0.00000000000E+00  0.00000000000E+00  0.00000000000E+00  0.91188000000E+02  0.91188000000E+02 0.  0.
    9900012    2    3    3    0    0  0.75773982750E+01 -0.10217039420E+02  0.34553858227E+02  0.54367163813E+02  0.40000181545E+02 0.  0.
        -12    1    3    3    0    0 -0.75773982750E+01  0.10217039420E+02 -0.34553858227E+02  0.36820836187E+02  0.00000000000E+00 0.  1.
         11    1    4    4    0    0  0.17000163283E+01 -0.30136839608E+01  0.99621090188E+01  0.10545897918E+02  0.51100000000E-03 0. -1.
        -11    1    4    4    0    0  0.12479212634E+02 -0.11639527593E+02  0.29781423875E+02  0.34324081325E+02  0.51100000000E-03 0.  1.
        -12    1    4    4    0    0 -0.66018306868E+01  0.44361721332E+01 -0.51896746670E+01  0.94971845702E+01  0.00000000000E+00 0.  1.
</event>
<event>
 8    1  0.2402194E-006  0.9118800E+02  0.7816164E-02  0.1184000E+00
        -11   -1    0    0    0    0  0.00000000000E+00  0.00000000000E+00  0.45593999997E+02  0.45594000000E+02  0.51100000000E-03 0. -1.
         11   -1    0    0    0    0 -0.00000000000E+00 -0.00000000000E+00 -0.45593999997E+02  0.45594000000E+02  0.51100000000E-03 0.  1.
         23    2    1    2    0    0  0.00000000000E+00 -0.88817841970E-15  0.71054273576E-14  0.91188000000E+02  0.91188000000E+02 0.  0.
    9900012    2    3    3    0    0 -0.61136219737E+01 -0.60527214829E+01 -0.35801785457E+02  0.54367086745E+02  0.40000005853E+02 0.  0.
         12    1    3    3    0    0  0.61136219737E+01  0.60527214829E+01  0.35801785457E+02  0.36820913255E+02  0.00000000000E+00 0. -1.
         11    1    4    4    0    0  0.56601265729E+01  0.43662424957E+01 -0.21806765101E+01  0.74737177265E+01  0.51100000000E-03 0. -1.
        -11    1    4    4    0    0  0.36672608835E+01 -0.14782856338E+02 -0.95931901488E+01  0.18000303925E+02  0.51100000000E-03 0.  1.
         12    1    4    4    0    0 -0.15441009430E+02  0.43638923592E+01 -0.24027918798E+02  0.28893065094E+02  0.00000000000E+00 0. -1.
</event>
<event>
 8    1  0.2402194E-006  0.9118800E+02  0.7816164E-02  0.1184000E+00
        -11   -1    0    0    0    0  0.00000000000E+00  0.00000000000E+00  0.45593999997E+02  0.45594000000E+02  0.51100000000E-03 0. -1.
         11   -1    0    0    0    0 -0.00000000000E+00 -0.00000000000E+00 -0.45593999997E+02  0.45594000000E+02  0.51100000000E-03 0.  1.
         23    2    1    2    0    0  0.00000000000E+00  0.44408920985E-15  0.00000000000E+00  0.91188000000E+02  0.91188000000E+02 0.  0.
    9900012    2    3    3    0    0  0.28779340238E+02  0.38766066609E+01 -0.22638505249E+02  0.54367076279E+02  0.39999981993E+02 0.  0.
         12    1    3    3    0    0 -0.28779340238E+02 -0.38766066609E+01  0.22638505249E+02  0.36820923721E+02  0.00000000000E+00 0. -1.
         11    1    4    4    0    0  0.15268722011E+02  0.40021384898E+01  0.32174360179E+01  0.16109093057E+02  0.51100000000E-03 0. -1.
        -11    1    4    4    0    0  0.12569238728E+02  0.29128497470E+01 -0.72089735126E+00  0.12922466835E+02  0.51100000000E-03 0.  1.
        -12    1    4    4    0    0  0.94137950022E+00 -0.30383815759E+01 -0.25135043916E+02  0.25335516387E+02  0.00000000000E+00 0.  1.
</event>
<event>
 8    1  0.2402194E-006  0.9118800E+02  0.7816164E-02  0.1184000E+00
        -11   -1    0    0    0    0  0.00000000000E+00  0.00000000000E+00  0.45593999997E+02  0.45594000000E+02  0.51100000000E-03 0.  1.
         11   -1    0    0    0    0 -0.00000000000E+00 -0.00000000000E+00 -0.45593999997E+02  0.45594000000E+02  0.51100000000E-03 0. -1.
         23    2    1    2    0    0  0.00000000000E+00 -0.35527136788E-14  0.00000000000E+00  0.91188000000E+02  0.91188000000E+02 0.  0.
    9900012    2    3    3    0    0  0.25962617607E+02 -0.18910367061E+02  0.18003332127E+02  0.54367089323E+02  0.40000011730E+02 0.  0.
         12    1    3    3    0    0 -0.25962617607E+02  0.18910367061E+02 -0.18003332127E+02  0.36820910677E+02  0.00000000000E+00 0. -1.
         11    1    4    4    0    0  0.93609850725E+00 -0.16435845505E+02  0.80247929550E+00  0.16482028734E+02  0.51100000000E-03 0. -1.
        -11    1    4    4    0    0  0.32619479784E+01 -0.61504733227E+01  0.13927820826E+02  0.15570896568E+02  0.51100000000E-03 0.  1.
        -12    1    4    4    0    0  0.21764571121E+02  0.36759517667E+01  0.32730320052E+01  0.22314164021E+02  0.00000000000E+00 0.  1.
</event>
<event>
 8    1  0.2402194E-006  0.9118800E+02  0.7816164E-02  0.1184000E+00
        -11   -1    0    0    0    0  0.00000000000E+00  0.00000000000E+00  0.45593999997E+02  0.45594000000E+02  0.51100000000E-03 0. -1.
         11   -1    0    0    0    0 -0.00000000000E+00 -0.00000000000E+00 -0.45593999997E+02  0.45594000000E+02  0.51100000000E-03 0.  1.
         23    2    1    2    0    0  0.00000000000E+00  0.00000000000E+00  0.00000000000E+00  0.91188000000E+02  0.91188000000E+02 0.  0.
    9900012    2    3    3    0    0  0.94831455170E+01 -0.77479378447E+01  0.34724913023E+02  0.54367079667E+02  0.39999989717E+02 0.  0.
        -12    1    3    3    0    0 -0.94831455170E+01  0.77479378447E+01 -0.34724913023E+02  0.36820920333E+02  0.00000000000E+00 0.  1.
         11    1    4    4    0    0 -0.37845204936E+01  0.37864877577E+01  0.18058369449E+02  0.18835200884E+02  0.51100000000E-03 0. -1.
        -11    1    4    4    0    0  0.19880472000E+01  0.82859839300E+01  0.54760119021E+01  0.10128996395E+02  0.51100000000E-03 0.  1.
         12    1    4    4    0    0  0.11279618811E+02 -0.19820409532E+02  0.11190531671E+02  0.25402882388E+02  0.00000000000E+00 0. -1.
</event>
<event>
 8    1  0.2402194E-006  0.9118800E+02  0.7816164E-02  0.1184000E+00
        -11   -1    0    0    0    0  0.00000000000E+00  0.00000000000E+00  0.45593999997E+02  0.45594000000E+02  0.51100000000E-03 0.  1.
         11   -1    0    0    0    0 -0.00000000000E+00 -0.00000000000E+00 -0.45593999997E+02  0.45594000000E+02  0.51100000000E-03 0. -1.
         23    2    1    2    0    0  0.00000000000E+00 -0.35527136788E-14  0.00000000000E+00  0.91188000000E+02  0.91188000000E+02 0.  0.
    9900012    2    3    3    0    0  0.28689068687E+02  0.21762413830E+02  0.76885696538E+01  0.54367089892E+02  0.40000013028E+02 0.  0.
         12    1    3    3    0    0 -0.28689068687E+02 -0.21762413830E+02 -0.76885696538E+01  0.36820910108E+02  0.00000000000E+00 0. -1.
         11    1    4    4    0    0 -0.75013568328E+01  0.36613691366E+01 -0.31843813771E+01  0.89339948122E+01  0.51100000000E-03 0. -1.
        -11    1    4    4    0    0  0.29579911055E+02  0.21460262001E+02  0.75938354460E+01  0.37325330812E+02  0.51100000000E-03 0.  1.
        -12    1    4    4    0    0  0.66105144649E+01 -0.33592173078E+01  0.32791155849E+01  0.81077642683E+01  0.00000000000E+00 0.  1.
</event>
<event>
 8    1  0.2402194E-006  0.9118800E+02  0.7816164E-02  0.1184000E+00
        -11   -1    0    0    0    0  0.00000000000E+00  0.00000000000E+00  0.45593999997E+02  0.45594000000E+02  0.51100000000E-03 0.  1.
         11   -1    0    0    0    0 -0.00000000000E+00 -0.00000000000E+00 -0.45593999997E+02  0.45594000000E+02  0.51100000000E-03 0. -1.
         23    2    1    2    0    0  0.00000000000E+00  0.00000000000E+00  0.00000000000E+00  0.91188000000E+02  0.91188000000E+02 0.  0.
    9900012    2    3    3    0    0 -0.13125952457E+02  0.34009583801E+02  0.51804418027E+01  0.54367090241E+02  0.40000013822E+02 0.  0.
         12    1    3    3    0    0  0.13125952457E+02 -0.34009583801E+02 -0.51804418027E+01  0.36820909759E+02  0.00000000000E+00 0. -1.
         11    1    4    4    0    0 -0.85420175358E+01 -0.48671341222E+00  0.12470636227E+02  0.15123482459E+02  0.51100000000E-03 0. -1.
        -11    1    4    4    0    0 -0.39494737834E+00  0.12286149975E+02  0.52834351837E+01  0.13379841264E+02  0.51100000000E-03 0.  1.
         12    1    4    4    0    0 -0.41889875424E+01  0.22210147238E+02 -0.12573629608E+02  0.25863766518E+02  0.00000000000E+00 0. -1.
</event>
<event>
 8    1  0.2402194E-006  0.9118800E+02  0.7816164E-02  0.1184000E+00
        -11   -1    0    0    0    0  0.00000000000E+00  0.00000000000E+00  0.45593999997E+02  0.45594000000E+02  0.51100000000E-03 0.  1.
         11   -1    0    0    0    0 -0.00000000000E+00 -0.00000000000E+00 -0.45593999997E+02  0.45594000000E+02  0.51100000000E-03 0. -1.
         23    2    1    2    0    0  0.35527136788E-14  0.00000000000E+00 -0.17763568394E-14  0.91188000000E+02  0.91188000000E+02 0.  0.
    9900012    2    3    3    0    0  0.24474759494E+02 -0.25792385008E+02  0.95665836209E+01  0.54367075257E+02  0.39999979664E+02 0.  0.
         12    1    3    3    0    0 -0.24474759494E+02  0.25792385008E+02 -0.95665836209E+01  0.36820924743E+02  0.00000000000E+00 0. -1.
         11    1    4    4    0    0  0.19934509379E+02 -0.17999325612E+02  0.96353731694E+01  0.28534204089E+02  0.51100000000E-03 0. -1.
        -11    1    4    4    0    0  0.99373096715E+01 -0.88398249914E+01 -0.84879099124E+01  0.15777745223E+02  0.51100000000E-03 0.  1.
         12    1    4    4    0    0 -0.53970595559E+01  0.10467655947E+01  0.84191203640E+01  0.10055125945E+02  0.00000000000E+00 0. -1.
</event>
<event>
 8    1  0.2402194E-006  0.9118800E+02  0.7816164E-02  0.1184000E+00
        -11   -1    0    0    0    0  0.00000000000E+00  0.00000000000E+00  0.45593999997E+02  0.45594000000E+02  0.51100000000E-03 0. -1.
         11   -1    0    0    0    0 -0.00000000000E+00 -0.00000000000E+00 -0.45593999997E+02  0.45594000000E+02  0.51100000000E-03 0.  1.
         23    2    1    2    0    0  0.00000000000E+00  0.00000000000E+00  0.35527136788E-14  0.91188000000E+02  0.91188000000E+02 0.  0.
    9900012    2    3    3    0    0  0.16523262205E+02  0.25707300954E+02 -0.20540162284E+02  0.54367057822E+02  0.39999939917E+02 0.  0.
         12    1    3    3    0    0 -0.16523262205E+02 -0.25707300954E+02  0.20540162284E+02  0.36820942178E+02  0.00000000000E+00 0. -1.
         11    1    4    4    0    0 -0.47187321726E+01  0.14510381287E+02  0.56590636119E+01  0.16273985364E+02  0.51100000000E-03 0. -1.
        -11    1    4    4    0    0  0.20062045022E+02  0.10781172668E+02 -0.16039248216E+02  0.27856360462E+02  0.51100000000E-03 0.  1.
        -12    1    4    4    0    0  0.11799493551E+01  0.41574699918E+00 -0.10159977679E+02  0.10236711996E+02  0.00000000000E+00 0.  1.
</event>
<event>
 8    1  0.2402194E-006  0.9118800E+02  0.7816164E-02  0.1184000E+00
        -11   -1    0    0    0    0  0.00000000000E+00  0.00000000000E+00  0.45593999997E+02  0.45594000000E+02  0.51100000000E-03 0. -1.
         11   -1    0    0    0    0 -0.00000000000E+00 -0.00000000000E+00 -0.45593999997E+02  0.45594000000E+02  0.51100000000E-03 0.  1.
         23    2    1    2    0    0  0.00000000000E+00  0.00000000000E+00  0.00000000000E+00  0.91188000000E+02  0.91188000000E+02 0.  0.
    9900012    2    3    3    0    0 -0.32471763328E+02  0.11744018954E+02 -0.12784490035E+02  0.54367074153E+02  0.39999977146E+02 0.  0.
         12    1    3    3    0    0  0.32471763328E+02 -0.11744018954E+02  0.12784490035E+02  0.36820925847E+02  0.00000000000E+00 0. -1.
         11    1    4    4    0    0 -0.11872664912E+02 -0.33814587000E+01  0.51741596987E+01  0.13385304027E+02  0.51100000000E-03 0. -1.
        -11    1    4    4    0    0 -0.23892135892E+02  0.89120225372E+01 -0.46374886189E+01  0.25918422100E+02  0.51100000000E-03 0.  1.
        -12    1    4    4    0    0  0.32930374760E+01  0.62134551165E+01 -0.13321161114E+02  0.15063348026E+02  0.00000000000E+00 0.  1.
</event>
<event>
 8    1  0.2402194E-006  0.9118800E+02  0.7816164E-02  0.1184000E+00
        -11   -1    0    0    0    0  0.00000000000E+00  0.00000000000E+00  0.45593999997E+02  0.45594000000E+02  0.51100000000E-03 0.  1.
         11   -1    0    0    0    0 -0.00000000000E+00 -0.00000000000E+00 -0.45593999997E+02  0.45594000000E+02  0.51100000000E-03 0. -1.
         23    2    1    2    0    0  0.00000000000E+00  0.33306690739E-15  0.00000000000E+00  0.91188000000E+02  0.91188000000E+02 0.  0.
    9900012    2    3    3    0    0  0.18346202907E+02 -0.84089916342E+00  0.31913782183E+02  0.54367085213E+02  0.40000002361E+02 0.  0.
         12    1    3    3    0    0 -0.18346202907E+02  0.84089916342E+00 -0.31913782183E+02  0.36820914787E+02  0.00000000000E+00 0. -1.
         11    1    4    4    0    0  0.27187272299E+02  0.31720018775E+01  0.24671392748E+02  0.36849518197E+02  0.51100000000E-03 0. -1.
        -11    1    4    4    0    0 -0.35640091086E+01 -0.19183164956E+01  0.10301650196E+02  0.11068247202E+02  0.51100000000E-03 0.  1.
        -12    1    4    4    0    0 -0.52770602842E+01 -0.20945845453E+01 -0.30592607606E+01  0.64493198139E+01  0.00000000000E+00 0.  1.
</event>
<event>
 8    1  0.2402194E-006  0.9118800E+02  0.7816164E-02  0.1184000E+00
        -11   -1    0    0    0    0  0.00000000000E+00  0.00000000000E+00  0.45593999997E+02  0.45594000000E+02  0.51100000000E-03 0.  1.
         11   -1    0    0    0    0 -0.00000000000E+00 -0.00000000000E+00 -0.45593999997E+02  0.45594000000E+02  0.51100000000E-03 0. -1.
         23    2    1    2    0    0  0.00000000000E+00  0.00000000000E+00  0.00000000000E+00  0.91188000000E+02  0.91188000000E+02 0.  0.
    9900012    2    3    3    0    0 -0.97811205173E+01  0.21459405647E+02  0.28277263127E+02  0.54367081771E+02  0.39999994513E+02 0.  0.
         12    1    3    3    0    0  0.97811205173E+01 -0.21459405647E+02 -0.28277263127E+02  0.36820918229E+02  0.00000000000E+00 0. -1.
         11    1    4    4    0    0  0.58648102275E+01 -0.10220266401E+01 -0.36556728324E+01  0.69860204392E+01  0.51100000000E-03 0. -1.
        -11    1    4    4    0    0  0.27595537584E+01  0.40915339831E+01  0.16292681861E+02  0.17023726671E+02  0.51100000000E-03 0.  1.
         12    1    4    4    0    0 -0.18405484503E+02  0.18389898304E+02  0.15640254098E+02  0.30357334660E+02  0.00000000000E+00 0. -1.
</event>
<event>
 8    1  0.2402194E-006  0.9118800E+02  0.7816164E-02  0.1184000E+00
        -11   -1    0    0    0    0  0.00000000000E+00  0.00000000000E+00  0.45593999997E+02  0.45594000000E+02  0.51100000000E-03 0. -1.
         11   -1    0    0    0    0 -0.00000000000E+00 -0.00000000000E+00 -0.45593999997E+02  0.45594000000E+02  0.51100000000E-03 0.  1.
         23    2    1    2    0    0  0.44408920985E-15  0.00000000000E+00  0.00000000000E+00  0.91188000000E+02  0.91188000000E+02 0.  0.
    9900012    2    3    3    0    0 -0.10032667047E+01 -0.23077671879E+02 -0.28673972141E+02  0.54367052677E+02  0.39999928187E+02 0.  0.
         12    1    3    3    0    0  0.10032667047E+01  0.23077671879E+02  0.28673972141E+02  0.36820947323E+02  0.00000000000E+00 0. -1.
         11    1    4    4    0    0 -0.44622978320E+01 -0.47757022526E+01  0.16018742433E+01  0.67294453932E+01  0.51100000000E-03 0. -1.
        -11    1    4    4    0    0  0.59137645772E+01 -0.26440203099E+02 -0.17368484883E+02  0.32182622932E+02  0.51100000000E-03 0.  1.
         12    1    4    4    0    0 -0.24547334499E+01  0.81382334729E+01 -0.12907361501E+02  0.15454984351E+02  0.00000000000E+00 0. -1.
</event>
<event>
 8    1  0.2402194E-006  0.9118800E+02  0.7816164E-02  0.1184000E+00
        -11   -1    0    0    0    0  0.00000000000E+00  0.00000000000E+00  0.45593999997E+02  0.45594000000E+02  0.51100000000E-03 0.  1.
         11   -1    0    0    0    0 -0.00000000000E+00 -0.00000000000E+00 -0.45593999997E+02  0.45594000000E+02  0.51100000000E-03 0. -1.
         23    2    1    2    0    0  0.17763568394E-14  0.00000000000E+00  0.11102230246E-14  0.91188000000E+02  0.91188000000E+02 0.  0.
    9900012    2    3    3    0    0  0.12493331882E+02 -0.34615376687E+02 -0.12134150697E+01  0.54367081750E+02  0.39999994465E+02 0.  0.
        -12    1    3    3    0    0 -0.12493331882E+02  0.34615376687E+02  0.12134150697E+01  0.36820918250E+02  0.00000000000E+00 0.  1.
         11    1    4    4    0    0  0.28635947913E+01 -0.18815966875E+02  0.10700998068E+02  0.21834654668E+02  0.51100000000E-03 0. -1.
        -11    1    4    4    0    0  0.72147906755E+01  0.16460813793E+01  0.43291732542E+01  0.85734782745E+01  0.51100000000E-03 0.  1.
         12    1    4    4    0    0  0.24149464152E+01 -0.17445491191E+02 -0.16243586392E+02  0.23958948807E+02  0.00000000000E+00 0. -1.
</event>
<event>
 8    1  0.2402194E-006  0.9118800E+02  0.7816164E-02  0.1184000E+00
        -11   -1    0    0    0    0  0.00000000000E+00  0.00000000000E+00  0.45593999997E+02  0.45594000000E+02  0.51100000000E-03 0.  1.
         11   -1    0    0    0    0 -0.00000000000E+00 -0.00000000000E+00 -0.45593999997E+02  0.45594000000E+02  0.51100000000E-03 0. -1.
         23    2    1    2    0    0  0.00000000000E+00  0.00000000000E+00  0.00000000000E+00  0.91188000000E+02  0.91188000000E+02 0.  0.
    9900012    2    3    3    0    0 -0.10253812608E+02 -0.10594652979E+01  0.35348500868E+02  0.54367086740E+02  0.40000005841E+02 0.  0.
         12    1    3    3    0    0  0.10253812608E+02  0.10594652979E+01 -0.35348500868E+02  0.36820913260E+02  0.00000000000E+00 0. -1.
         11    1    4    4    0    0  0.21848544489E+01 -0.13197032334E+02  0.87582436795E+01  0.15988811212E+02  0.51100000000E-03 0. -1.
        -11    1    4    4    0    0 -0.17515612709E+02  0.47647795447E+01  0.13969475330E+02  0.22905153436E+02  0.51100000000E-03 0.  1.
         12    1    4    4    0    0  0.50769456522E+01  0.73727874910E+01  0.12620781858E+02  0.15473122092E+02  0.00000000000E+00 0. -1.
</event>
<event>
 8    1  0.2402194E-006  0.9118800E+02  0.7816164E-02  0.1184000E+00
        -11   -1    0    0    0    0  0.00000000000E+00  0.00000000000E+00  0.45593999997E+02  0.45594000000E+02  0.51100000000E-03 0.  1.
         11   -1    0    0    0    0 -0.00000000000E+00 -0.00000000000E+00 -0.45593999997E+02  0.45594000000E+02  0.51100000000E-03 0. -1.
         23    2    1    2    0    0  0.00000000000E+00  0.10658141036E-13 -0.17763568394E-14  0.91188000000E+02  0.91188000000E+02 0.  0.
    9900012    2    3    3    0    0  0.24693133440E+02  0.26634919218E+02 -0.60506348342E+01  0.54367082810E+02  0.39999996881E+02 0.  0.
         12    1    3    3    0    0 -0.24693133440E+02 -0.26634919218E+02  0.60506348342E+01  0.36820917190E+02  0.00000000000E+00 0. -1.
         11    1    4    4    0    0  0.72442223758E+01 -0.34549973959E+01 -0.19571570039E+01  0.82611275644E+01  0.51100000000E-03 0. -1.
        -11    1    4    4    0    0 -0.12590700912E+01 -0.50707005784E+01  0.24046473170E+01  0.57514859672E+01  0.51100000000E-03 0.  1.
        -12    1    4    4    0    0  0.18707981156E+02  0.35160617193E+02 -0.64981251472E+01  0.40354469278E+02  0.00000000000E+00 0.  1.
</event>
<event>
 8    1  0.2402194E-006  0.9118800E+02  0.7816164E-02  0.1184000E+00
        -11   -1    0    0    0    0  0.00000000000E+00  0.00000000000E+00  0.45593999997E+02  0.45594000000E+02  0.51100000000E-03 0. -1.
         11   -1    0    0    0    0 -0.00000000000E+00 -0.00000000000E+00 -0.45593999997E+02  0.45594000000E+02  0.51100000000E-03 0.  1.
         23    2    1    2    0    0 -0.35527136788E-14  0.35527136788E-14  0.17763568394E-14  0.91188000000E+02  0.91188000000E+02 0.  0.
    9900012    2    3    3    0    0 -0.26508901400E+02  0.21293890811E+02  0.14129029531E+02  0.54367066894E+02  0.39999960598E+02 0.  0.
         12    1    3    3    0    0  0.26508901400E+02 -0.21293890811E+02 -0.14129029531E+02  0.36820933106E+02  0.00000000000E+00 0. -1.
         11    1    4    4    0    0 -0.88008815973E+01  0.11658279935E+02  0.17593649589E+02  0.22867171099E+02  0.51100000000E-03 0. -1.
        -11    1    4    4    0    0 -0.74820839087E+01  0.89595298736E+01  0.94461354392E+01  0.15016132331E+02  0.51100000000E-03 0.  1.
        -12    1    4    4    0    0 -0.10225935894E+02  0.67608100321E+00 -0.12910755498E+02  0.16483763465E+02  0.00000000000E+00 0.  1.
</event>
<event>
 8    1  0.2402194E-006  0.9118800E+02  0.7816164E-02  0.1184000E+00
        -11   -1    0    0    0    0  0.00000000000E+00  0.00000000000E+00  0.45593999997E+02  0.45594000000E+02  0.51100000000E-03 0. -1.
         11   -1    0    0    0    0 -0.00000000000E+00 -0.00000000000E+00 -0.45593999997E+02  0.45594000000E+02  0.51100000000E-03 0.  1.
         23    2    1    2    0    0  0.00000000000E+00 -0.35527136788E-14  0.00000000000E+00  0.91188000000E+02  0.91188000000E+02 0.  0.
    9900012    2    3    3    0    0 -0.11007816373E+02  0.24097492397E+02 -0.25571858293E+02  0.54367067127E+02  0.39999961128E+02 0.  0.
         12    1    3    3    0    0  0.11007816373E+02 -0.24097492397E+02  0.25571858293E+02  0.36820932873E+02  0.00000000000E+00 0. -1.
         11    1    4    4    0    0  0.93953864297E+01  0.18758924774E+02 -0.99586254314E+01  0.23223797398E+02  0.51100000000E-03 0. -1.
        -11    1    4    4    0    0 -0.95160102080E+01  0.57382168386E+01  0.11279639358E+01  0.11169327897E+02  0.51100000000E-03 0.  1.
         12    1    4    4    0    0 -0.10887192595E+02 -0.39964921555E+00 -0.16741196797E+02  0.19973941832E+02  0.00000000000E+00 0. -1.
</event>
<event>
 8    1  0.2402194E-006  0.9118800E+02  0.7816164E-02  0.1184000E+00
        -11   -1    0    0    0    0  0.00000000000E+00  0.00000000000E+00  0.45593999997E+02  0.45594000000E+02  0.51100000000E-03 0.  1.
         11   -1    0    0    0    0 -0.00000000000E+00 -0.00000000000E+00 -0.45593999997E+02  0.45594000000E+02  0.51100000000E-03 0. -1.
         23    2    1    2    0    0  0.00000000000E+00  0.35527136788E-14 -0.35527136788E-14  0.91188000000E+02  0.91188000000E+02 0.  0.
    9900012    2    3    3    0    0  0.27605351900E+02 -0.20915942712E+02 -0.12499888664E+02  0.54367091135E+02  0.40000015860E+02 0.  0.
        -12    1    3    3    0    0 -0.27605351900E+02  0.20915942712E+02  0.12499888664E+02  0.36820908865E+02  0.00000000000E+00 0.  1.
         11    1    4    4    0    0 -0.60963444538E+01 -0.37067909736E+01 -0.73177595341E+01  0.10220338540E+02  0.51100000000E-03 0. -1.
        -11    1    4    4    0    0  0.14942730766E+02 -0.15735236369E-02  0.63058105201E+01  0.16218768504E+02  0.51100000000E-03 0.  1.
        -12    1    4    4    0    0  0.18758965588E+02 -0.17207578215E+02 -0.11487939650E+02  0.27927984090E+02  0.00000000000E+00 0.  1.
</event>
<event>
 8    1  0.2402194E-006  0.9118800E+02  0.7816164E-02  0.1184000E+00
        -11   -1    0    0    0    0  0.00000000000E+00  0.00000000000E+00  0.45593999997E+02  0.45594000000E+02  0.51100000000E-03 0.  1.
         11   -1    0    0    0    0 -0.00000000000E+00 -0.00000000000E+00 -0.45593999997E+02  0.45594000000E+02  0.51100000000E-03 0. -1.
         23    2    1    2    0    0  0.00000000000E+00  0.00000000000E+00  0.00000000000E+00  0.91188000000E+02  0.91188000000E+02 0.  0.
    9900012    2    3    3    0    0  0.18070421361E+02 -0.26065343895E+02  0.18703988372E+02  0.54367062186E+02  0.39999949864E+02 0.  0.
         12    1    3    3    0    0 -0.18070421361E+02  0.26065343895E+02 -0.18703988372E+02  0.36820937814E+02  0.00000000000E+00 0. -1.
         11    1    4    4    0    0  0.16838666459E+02 -0.63334069706E+01  0.85557163550E+01  0.19921170010E+02  0.51100000000E-03 0.  1.
        -11    1    4    4    0    0  0.12716008353E+02 -0.14209539199E+02  0.16729011602E+01  0.19141746818E+02  0.51100000000E-03 0. -1.
         12    1    4    4    0    0 -0.11484253451E+02 -0.55223977256E+01  0.84753708571E+01  0.15304145358E+02  0.00000000000E+00 0. -1.
</event>
<event>
 8    1  0.2402194E-006  0.9118800E+02  0.7816164E-02  0.1184000E+00
        -11   -1    0    0    0    0  0.00000000000E+00  0.00000000000E+00  0.45593999997E+02  0.45594000000E+02  0.51100000000E-03 0.  1.
         11   -1    0    0    0    0 -0.00000000000E+00 -0.00000000000E+00 -0.45593999997E+02  0.45594000000E+02  0.51100000000E-03 0. -1.
         23    2    1    2    0    0 -0.35527136788E-14  0.21510571102E-15  0.35527136788E-14  0.91188000000E+02  0.91188000000E+02 0.  0.
    9900012    2    3    3    0    0 -0.24146981130E+02  0.28298050162E-01  0.27797475836E+02  0.54367120579E+02  0.40000082984E+02 0.  0.
         12    1    3    3    0    0  0.24146981130E+02 -0.28298050162E-01 -0.27797475836E+02  0.36820879421E+02  0.00000000000E+00 0. -1.
         11    1    4    4    0    0 -0.41904406262E+01  0.60432607349E+01  0.35552814140E+01  0.81682812847E+01  0.51100000000E-03 0.  1.
        -11    1    4    4    0    0 -0.56297853195E+01 -0.79341818238E+01 -0.68585242525E+01  0.11903154168E+02  0.51100000000E-03 0. -1.
         12    1    4    4    0    0 -0.14326755184E+02  0.19192191390E+01  0.31100718675E+02  0.34295685127E+02  0.00000000000E+00 0. -1.
</event>
<event>
 8    1  0.2402194E-006  0.9118800E+02  0.7816164E-02  0.1184000E+00
        -11   -1    0    0    0    0  0.00000000000E+00  0.00000000000E+00  0.45593999997E+02  0.45594000000E+02  0.51100000000E-03 0.  1.
         11   -1    0    0    0    0 -0.00000000000E+00 -0.00000000000E+00 -0.45593999997E+02  0.45594000000E+02  0.51100000000E-03 0. -1.
         23    2    1    2    0    0  0.00000000000E+00  0.44408920985E-15 -0.35527136788E-14  0.91188000000E+02  0.91188000000E+02 0.  0.
    9900012    2    3    3    0    0 -0.28681069910E+02  0.23209100673E+01 -0.22973722469E+02  0.54367050545E+02  0.39999923327E+02 0.  0.
        -12    1    3    3    0    0  0.28681069910E+02 -0.23209100673E+01  0.22973722469E+02  0.36820949455E+02  0.00000000000E+00 0.  1.
         11    1    4    4    0    0 -0.10055096505E+02  0.59440148062E+01 -0.11104380847E+02  0.16116561420E+02  0.51100000000E-03 0. -1.
        -11    1    4    4    0    0  0.40623667418E+01  0.90601693263E+01 -0.60066547875E+01  0.11604714290E+02  0.51100000000E-03 0.  1.
         12    1    4    4    0    0 -0.22688340146E+02 -0.12683274065E+02 -0.58626868339E+01  0.26645774834E+02  0.00000000000E+00 0. -1.
</event>
<event>
 8    1  0.2402194E-006  0.9118800E+02  0.7816164E-02  0.1184000E+00
        -11   -1    0    0    0    0  0.00000000000E+00  0.00000000000E+00  0.45593999997E+02  0.45594000000E+02  0.51100000000E-03 0.  1.
         11   -1    0    0    0    0 -0.00000000000E+00 -0.00000000000E+00 -0.45593999997E+02  0.45594000000E+02  0.51100000000E-03 0. -1.
         23    2    1    2    0    0 -0.88817841970E-15  0.88817841970E-15  0.71054273576E-14  0.91188000000E+02  0.91188000000E+02 0.  0.
    9900012    2    3    3    0    0 -0.51535721225E+01  0.66011644143E+01  0.35855891153E+02  0.54367087360E+02  0.40000007255E+02 0.  0.
         12    1    3    3    0    0  0.51535721225E+01 -0.66011644143E+01 -0.35855891153E+02  0.36820912640E+02  0.00000000000E+00 0. -1.
         11    1    4    4    0    0  0.96968194686E+01 -0.23879774827E+00  0.42236738782E+01  0.10579449582E+02  0.51100000000E-03 0. -1.
        -11    1    4    4    0    0 -0.98593271402E+01 -0.52861524425E+01  0.28043236721E+02  0.30192264992E+02  0.51100000000E-03 0.  1.
         12    1    4    4    0    0 -0.49910644510E+01  0.12126114605E+02  0.35889805536E+01  0.13595372786E+02  0.00000000000E+00 0. -1.
</event>
<event>
 8    1  0.2402194E-006  0.9118800E+02  0.7816164E-02  0.1184000E+00
        -11   -1    0    0    0    0  0.00000000000E+00  0.00000000000E+00  0.45593999997E+02  0.45594000000E+02  0.51100000000E-03 0.  1.
         11   -1    0    0    0    0 -0.00000000000E+00 -0.00000000000E+00 -0.45593999997E+02  0.45594000000E+02  0.51100000000E-03 0. -1.
         23    2    1    2    0    0  0.00000000000E+00 -0.35527136788E-14 -0.17763568394E-14  0.91188000000E+02  0.91188000000E+02 0.  0.
    9900012    2    3    3    0    0 -0.18450905631E+02 -0.31538901141E+02 -0.45433632600E+01  0.54367077232E+02  0.39999984166E+02 0.  0.
        -12    1    3    3    0    0  0.18450905631E+02  0.31538901141E+02  0.45433632600E+01  0.36820922768E+02  0.00000000000E+00 0.  1.
         11    1    4    4    0    0 -0.35152066598E+01 -0.19227205655E+02  0.26453962746E+01  0.19724102942E+02  0.51100000000E-03 0. -1.
        -11    1    4    4    0    0 -0.21249105342E+02 -0.60568637719E+01  0.15879601757E+01  0.22152464747E+02  0.51100000000E-03 0.  1.
        -12    1    4    4    0    0  0.63134063708E+01 -0.62548317141E+01 -0.87767197103E+01  0.12490509543E+02  0.00000000000E+00 0.  1.
</event>
<event>
 8    1  0.2402194E-006  0.9118800E+02  0.7816164E-02  0.1184000E+00
        -11   -1    0    0    0    0  0.00000000000E+00  0.00000000000E+00  0.45593999997E+02  0.45594000000E+02  0.51100000000E-03 0.  1.
         11   -1    0    0    0    0 -0.00000000000E+00 -0.00000000000E+00 -0.45593999997E+02  0.45594000000E+02  0.51100000000E-03 0. -1.
         23    2    1    2    0    0  0.00000000000E+00  0.00000000000E+00  0.00000000000E+00  0.91188000000E+02  0.91188000000E+02 0.  0.
    9900012    2    3    3    0    0 -0.31696638706E+02 -0.72984071161E+01  0.17257924741E+02  0.54367087218E+02  0.40000006932E+02 0.  0.
         12    1    3    3    0    0  0.31696638706E+02  0.72984071161E+01 -0.17257924741E+02  0.36820912782E+02  0.00000000000E+00 0. -1.
         11    1    4    4    0    0 -0.78081522257E+01 -0.88538353356E+01  0.18457848848E+02  0.21910039381E+02  0.51100000000E-03 0. -1.
        -11    1    4    4    0    0 -0.14785185808E+01  0.77439277331E+01  0.36820364365E+01  0.87012543067E+01  0.51100000000E-03 0.  1.
         12    1    4    4    0    0 -0.22409967900E+02 -0.61884995136E+01 -0.48819605441E+01  0.23755793530E+02  0.00000000000E+00 0. -1.
</event>
<event>
 8    1  0.2402194E-006  0.9118800E+02  0.7816164E-02  0.1184000E+00
        -11   -1    0    0    0    0  0.00000000000E+00  0.00000000000E+00  0.45593999997E+02  0.45594000000E+02  0.51100000000E-03 0. -1.
         11   -1    0    0    0    0 -0.00000000000E+00 -0.00000000000E+00 -0.45593999997E+02  0.45594000000E+02  0.51100000000E-03 0.  1.
         23    2    1    2    0    0  0.71054273576E-14  0.00000000000E+00 -0.88817841970E-15  0.91188000000E+02  0.91188000000E+02 0.  0.
    9900012    2    3    3    0    0 -0.33434379170E+02  0.13775573090E+02  0.69395088193E+01  0.54367069715E+02  0.39999967028E+02 0.  0.
        -12    1    3    3    0    0  0.33434379170E+02 -0.13775573090E+02 -0.69395088193E+01  0.36820930285E+02  0.00000000000E+00 0.  1.
         11    1    4    4    0    0 -0.20403428685E+01 -0.23149102541E+01  0.45653169336E+01  0.55103473095E+01  0.51100000000E-03 0. -1.
        -11    1    4    4    0    0 -0.10972870407E+02 -0.49988003285E+01  0.12911870277E+02  0.17666586654E+02  0.51100000000E-03 0.  1.
         12    1    4    4    0    0 -0.20421165895E+02  0.21089283672E+02 -0.10537678391E+02  0.31190135751E+02  0.00000000000E+00 0. -1.
</event>
<event>
 8    1  0.2402194E-006  0.9118800E+02  0.7816164E-02  0.1184000E+00
        -11   -1    0    0    0    0  0.00000000000E+00  0.00000000000E+00  0.45593999997E+02  0.45594000000E+02  0.51100000000E-03 0.  1.
         11   -1    0    0    0    0 -0.00000000000E+00 -0.00000000000E+00 -0.45593999997E+02  0.45594000000E+02  0.51100000000E-03 0. -1.
         23    2    1    2    0    0  0.88817841970E-15 -0.17763568394E-14  0.00000000000E+00  0.91188000000E+02  0.91188000000E+02 0.  0.
    9900012    2    3    3    0    0 -0.49110231287E+01  0.14933328656E+02 -0.33296509660E+02  0.54367081918E+02  0.39999994848E+02 0.  0.
        -12    1    3    3    0    0  0.49110231287E+01 -0.14933328656E+02  0.33296509660E+02  0.36820918082E+02  0.00000000000E+00 0.  1.
         11    1    4    4    0    0 -0.17742576052E+02  0.26482246361E+01 -0.12318216979E+02  0.21761217072E+02  0.51100000000E-03 0. -1.
        -11    1    4    4    0    0  0.25654273515E+01  0.12299022921E+02 -0.48086791074E+01  0.13452537952E+02  0.51100000000E-03 0.  1.
        -12    1    4    4    0    0  0.10266125571E+02 -0.13918901840E-01 -0.16169613573E+02  0.19153326894E+02  0.00000000000E+00 0.  1.
</event>
<event>
 8    1  0.2402194E-006  0.9118800E+02  0.7816164E-02  0.1184000E+00
        -11   -1    0    0    0    0  0.00000000000E+00  0.00000000000E+00  0.45593999997E+02  0.45594000000E+02  0.51100000000E-03 0.  1.
         11   -1    0    0    0    0 -0.00000000000E+00 -0.00000000000E+00 -0.45593999997E+02  0.45594000000E+02  0.51100000000E-03 0. -1.
         23    2    1    2    0    0  0.00000000000E+00  0.00000000000E+00  0.00000000000E+00  0.91188000000E+02  0.91188000000E+02 0.  0.
    9900012    2    3    3    0    0  0.32702008678E+02 -0.82447889843E+01 -0.14777718041E+02  0.54367097411E+02  0.40000030167E+02 0.  0.
        -12    1    3    3    0    0 -0.32702008678E+02  0.82447889843E+01  0.14777718041E+02  0.36820902589E+02  0.00000000000E+00 0.  1.
         11    1    4    4    0    0  0.57080840787E+01 -0.34436978219E+01  0.44074615411E+01  0.79916829289E+01  0.51100000000E-03 0. -1.
        -11    1    4    4    0    0 -0.44536177042E+01 -0.90539493172E+01 -0.19972250680E+01  0.10285796864E+02  0.51100000000E-03 0.  1.
        -12    1    4    4    0    0  0.31447542304E+02  0.42528581547E+01 -0.17187954514E+02  0.36089617618E+02  0.00000000000E+00 0.  1.
</event>
<event>
 8    1  0.2402194E-006  0.9118800E+02  0.7816164E-02  0.1184000E+00
        -11   -1    0    0    0    0  0.00000000000E+00  0.00000000000E+00  0.45593999997E+02  0.45594000000E+02  0.51100000000E-03 0. -1.
         11   -1    0    0    0    0 -0.00000000000E+00 -0.00000000000E+00 -0.45593999997E+02  0.45594000000E+02  0.51100000000E-03 0.  1.
         23    2    1    2    0    0  0.00000000000E+00  0.00000000000E+00  0.00000000000E+00  0.91188000000E+02  0.91188000000E+02 0.  0.
    9900012    2    3    3    0    0 -0.18210996836E+02 -0.93176956838E+01  0.30615684545E+02  0.54367082048E+02  0.39999995146E+02 0.  0.
        -12    1    3    3    0    0  0.18210996836E+02  0.93176956838E+01 -0.30615684545E+02  0.36820917952E+02  0.00000000000E+00 0.  1.
         11    1    4    4    0    0  0.73643564810E-01 -0.50815559279E+01  0.11722996707E+02  0.12777178330E+02  0.51100000000E-03 0. -1.
        -11    1    4    4    0    0  0.18730124277E+01  0.10912587005E+02  0.97968177048E+01  0.14784125544E+02  0.51100000000E-03 0.  1.
        -12    1    4    4    0    0 -0.20157652828E+02 -0.15148726761E+02  0.90958701333E+01  0.26805778174E+02  0.00000000000E+00 0.  1.
</event>
<event>
 8    1  0.2402194E-006  0.9118800E+02  0.7816164E-02  0.1184000E+00
        -11   -1    0    0    0    0  0.00000000000E+00  0.00000000000E+00  0.45593999997E+02  0.45594000000E+02  0.51100000000E-03 0.  1.
         11   -1    0    0    0    0 -0.00000000000E+00 -0.00000000000E+00 -0.45593999997E+02  0.45594000000E+02  0.51100000000E-03 0. -1.
         23    2    1    2    0    0  0.00000000000E+00  0.00000000000E+00  0.17763568394E-14  0.91188000000E+02  0.91188000000E+02 0.  0.
    9900012    2    3    3    0    0  0.27317934890E+02 -0.21399190097E+02  0.12312007351E+02  0.54367076214E+02  0.39999981845E+02 0.  0.
         12    1    3    3    0    0 -0.27317934890E+02  0.21399190097E+02 -0.12312007351E+02  0.36820923786E+02  0.00000000000E+00 0. -1.
         11    1    4    4    0    0  0.22652413733E+02  0.76321394767E+00  0.11540548959E+02  0.25434201659E+02  0.51100000000E-03 0.  1.
        -11    1    4    4    0    0  0.80917622936E+01 -0.43645373368E+01  0.47919209219E+01  0.10367656898E+02  0.51100000000E-03 0. -1.
         12    1    4    4    0    0 -0.34262411367E+01 -0.17797866708E+02 -0.40204625308E+01  0.18565217657E+02  0.00000000000E+00 0. -1.
</event>
<event>
 8    1  0.2402194E-006  0.9118800E+02  0.7816164E-02  0.1184000E+00
        -11   -1    0    0    0    0  0.00000000000E+00  0.00000000000E+00  0.45593999997E+02  0.45594000000E+02  0.51100000000E-03 0. -1.
         11   -1    0    0    0    0 -0.00000000000E+00 -0.00000000000E+00 -0.45593999997E+02  0.45594000000E+02  0.51100000000E-03 0.  1.
         23    2    1    2    0    0  0.00000000000E+00  0.35527136788E-14 -0.35527136788E-14  0.91188000000E+02  0.91188000000E+02 0.  0.
    9900012    2    3    3    0    0  0.16833252922E+02 -0.19332930128E+02  0.26432190591E+02  0.54367064506E+02  0.39999955153E+02 0.  0.
        -12    1    3    3    0    0 -0.16833252922E+02  0.19332930128E+02 -0.26432190591E+02  0.36820935494E+02  0.00000000000E+00 0.  1.
         11    1    4    4    0    0  0.45648194667E+01  0.15628112994E+01  0.11220183809E+01  0.49536735287E+01  0.51100000000E-03 0. -1.
        -11    1    4    4    0    0  0.11954235319E+01  0.81898930782E+01 -0.14082081059E+01  0.83956200714E+01  0.51100000000E-03 0.  1.
        -12    1    4    4    0    0  0.11073009923E+02 -0.29085634505E+02  0.26718380316E+02  0.41017770905E+02  0.00000000000E+00 0.  1.
</event>
<event>
 8    1  0.2402194E-006  0.9118800E+02  0.7816164E-02  0.1184000E+00
        -11   -1    0    0    0    0  0.00000000000E+00  0.00000000000E+00  0.45593999997E+02  0.45594000000E+02  0.51100000000E-03 0.  1.
         11   -1    0    0    0    0 -0.00000000000E+00 -0.00000000000E+00 -0.45593999997E+02  0.45594000000E+02  0.51100000000E-03 0. -1.
         23    2    1    2    0    0 -0.17763568394E-14  0.35527136788E-14  0.35527136788E-14  0.91188000000E+02  0.91188000000E+02 0.  0.
    9900012    2    3    3    0    0 -0.15911602802E+02  0.27498001674E+02  0.18613436815E+02  0.54367092490E+02  0.40000018950E+02 0.  0.
         12    1    3    3    0    0  0.15911602802E+02 -0.27498001674E+02 -0.18613436815E+02  0.36820907510E+02  0.00000000000E+00 0. -1.
         11    1    4    4    0    0 -0.36742466571E+01  0.14087298425E+01 -0.73014535316E+01  0.82943253012E+01  0.51100000000E-03 0. -1.
        -11    1    4    4    0    0 -0.14961844524E+02  0.26969471887E+02  0.14092853153E+02  0.33908962173E+02  0.51100000000E-03 0.  1.
        -12    1    4    4    0    0  0.27244883787E+01 -0.88020005518E+00  0.11822037194E+02  0.12163805016E+02  0.00000000000E+00 0.  1.
</event>
<event>
 8    1  0.2402194E-006  0.9118800E+02  0.7816164E-02  0.1184000E+00
        -11   -1    0    0    0    0  0.00000000000E+00  0.00000000000E+00  0.45593999997E+02  0.45594000000E+02  0.51100000000E-03 0.  1.
         11   -1    0    0    0    0 -0.00000000000E+00 -0.00000000000E+00 -0.45593999997E+02  0.45594000000E+02  0.51100000000E-03 0. -1.
         23    2    1    2    0    0  0.44408920985E-15 -0.35527136788E-14  0.71054273576E-14  0.91188000000E+02  0.91188000000E+02 0.  0.
    9900012    2    3    3    0    0  0.76043823985E+00 -0.13892299144E+02  0.34091150728E+02  0.54367071172E+02  0.39999970351E+02 0.  0.
         12    1    3    3    0    0 -0.76043823985E+00  0.13892299144E+02 -0.34091150728E+02  0.36820928828E+02  0.00000000000E+00 0. -1.
         11    1    4    4    0    0 -0.54039734042E+00  0.36910867350E+01 -0.38554256567E+01  0.53647421025E+01  0.51100000000E-03 0. -1.
        -11    1    4    4    0    0  0.40394798084E+01 -0.23175618051E+02  0.34852764629E+02  0.42049279087E+02  0.51100000000E-03 0.  1.
        -12    1    4    4    0    0 -0.27386442281E+01  0.55922321725E+01  0.30938117551E+01  0.69530499822E+01  0.00000000000E+00 0.  1.
</event>
<event>
 8    1  0.2402194E-006  0.9118800E+02  0.7816164E-02  0.1184000E+00
        -11   -1    0    0    0    0  0.00000000000E+00  0.00000000000E+00  0.45593999997E+02  0.45594000000E+02  0.51100000000E-03 0.  1.
         11   -1    0    0    0    0 -0.00000000000E+00 -0.00000000000E+00 -0.45593999997E+02  0.45594000000E+02  0.51100000000E-03 0. -1.
         23    2    1    2    0    0  0.00000000000E+00  0.00000000000E+00  0.35527136788E-14  0.91188000000E+02  0.91188000000E+02 0.  0.
    9900012    2    3    3    0    0  0.88657810022E+01  0.22451468304E+02 -0.27804825807E+02  0.54367097785E+02  0.40000031019E+02 0.  0.
        -12    1    3    3    0    0 -0.88657810022E+01 -0.22451468304E+02  0.27804825807E+02  0.36820902215E+02  0.00000000000E+00 0.  1.
         11    1    4    4    0    0  0.60365982588E+01  0.74291913845E-01 -0.39625906475E+01  0.72213684803E+01  0.51100000000E-03 0. -1.
        -11    1    4    4    0    0  0.14681928682E+02 -0.72887080207E+00 -0.89326097908E+01  0.17201215086E+02  0.51100000000E-03 0.  1.
        -12    1    4    4    0    0 -0.11852745939E+02  0.23106047192E+02 -0.14909625369E+02  0.29944514219E+02  0.00000000000E+00 0.  1.
</event>
<event>
 8    1  0.2402194E-006  0.9118800E+02  0.7816164E-02  0.1184000E+00
        -11   -1    0    0    0    0  0.00000000000E+00  0.00000000000E+00  0.45593999997E+02  0.45594000000E+02  0.51100000000E-03 0. -1.
         11   -1    0    0    0    0 -0.00000000000E+00 -0.00000000000E+00 -0.45593999997E+02  0.45594000000E+02  0.51100000000E-03 0.  1.
         23    2    1    2    0    0  0.00000000000E+00  0.00000000000E+00  0.00000000000E+00  0.91188000000E+02  0.91188000000E+02 0.  0.
    9900012    2    3    3    0    0 -0.89819151132E+01 -0.34169140084E+02  0.10371881867E+02  0.54367070263E+02  0.39999968280E+02 0.  0.
        -12    1    3    3    0    0  0.89819151132E+01  0.34169140084E+02 -0.10371881867E+02  0.36820929737E+02  0.00000000000E+00 0.  1.
         11    1    4    4    0    0  0.14289196910E+02 -0.14512344699E+02  0.77482507726E+01  0.21790472397E+02  0.51100000000E-03 0. -1.
        -11    1    4    4    0    0 -0.64609116903E+01 -0.15470760439E+01  0.41280931438E+01  0.78216352140E+01  0.51100000000E-03 0.  1.
         12    1    4    4    0    0 -0.16810200333E+02 -0.18109719341E+02 -0.15044620494E+01  0.24754962652E+02  0.00000000000E+00 0. -1.
</event>
<event>
 8    1  0.2402194E-006  0.9118800E+02  0.7816164E-02  0.1184000E+00
        -11   -1    0    0    0    0  0.00000000000E+00  0.00000000000E+00  0.45593999997E+02  0.45594000000E+02  0.51100000000E-03 0. -1.
         11   -1    0    0    0    0 -0.00000000000E+00 -0.00000000000E+00 -0.45593999997E+02  0.45594000000E+02  0.51100000000E-03 0.  1.
         23    2    1    2    0    0  0.00000000000E+00  0.00000000000E+00  0.17763568394E-14  0.91188000000E+02  0.91188000000E+02 0.  0.
    9900012    2    3    3    0    0 -0.21451950435E+02 -0.26130395347E+02  0.14587522142E+02  0.54367088269E+02  0.40000009327E+02 0.  0.
         12    1    3    3    0    0  0.21451950435E+02  0.26130395347E+02 -0.14587522142E+02  0.36820911731E+02  0.00000000000E+00 0. -1.
         11    1    4    4    0    0 -0.74227848378E+01 -0.24456555932E+01  0.13207685829E+02  0.15346723796E+02  0.51100000000E-03 0. -1.
        -11    1    4    4    0    0 -0.21230385340E+02 -0.22674352762E+02  0.39401859384E+01  0.31311030011E+02  0.51100000000E-03 0.  1.
         12    1    4    4    0    0  0.72012197426E+01 -0.10103869921E+01 -0.25603496257E+01  0.77093344628E+01  0.00000000000E+00 0. -1.
</event>
<event>
 8    1  0.2402194E-006  0.9118800E+02  0.7816164E-02  0.1184000E+00
        -11   -1    0    0    0    0  0.00000000000E+00  0.00000000000E+00  0.45593999997E+02  0.45594000000E+02  0.51100000000E-03 0. -1.
         11   -1    0    0    0    0 -0.00000000000E+00 -0.00000000000E+00 -0.45593999997E+02  0.45594000000E+02  0.51100000000E-03 0.  1.
         23    2    1    2    0    0 -0.35527136788E-14 -0.35527136788E-14  0.35527136788E-14  0.91188000000E+02  0.91188000000E+02 0.  0.
    9900012    2    3    3    0    0  0.27196568979E+02  0.10878786130E+02 -0.22310963195E+02  0.54367076185E+02  0.39999981779E+02 0.  0.
         12    1    3    3    0    0 -0.27196568979E+02 -0.10878786130E+02  0.22310963195E+02  0.36820923815E+02  0.00000000000E+00 0. -1.
         11    1    4    4    0    0  0.52982546485E+01  0.28033554949E+01 -0.67533354409E+01  0.90298307952E+01  0.51100000000E-03 0. -1.
        -11    1    4    4    0    0  0.10559451733E+02  0.19487827222E+02 -0.18635406094E+02  0.28957827807E+02  0.51100000000E-03 0.  1.
         12    1    4    4    0    0  0.11338862598E+02 -0.11412396587E+02  0.30777783400E+01  0.16379417583E+02  0.00000000000E+00 0. -1.
</event>
<event>
 8    1  0.2402194E-006  0.9118800E+02  0.7816164E-02  0.1184000E+00
        -11   -1    0    0    0    0  0.00000000000E+00  0.00000000000E+00  0.45593999997E+02  0.45594000000E+02  0.51100000000E-03 0. -1.
         11   -1    0    0    0    0 -0.00000000000E+00 -0.00000000000E+00 -0.45593999997E+02  0.45594000000E+02  0.51100000000E-03 0.  1.
         23    2    1    2    0    0  0.00000000000E+00  0.00000000000E+00  0.88817841970E-15  0.91188000000E+02  0.91188000000E+02 0.  0.
    9900012    2    3    3    0    0 -0.16692285066E+02  0.32543469923E+02 -0.42508540706E+01  0.54367087794E+02  0.40000008245E+02 0.  0.
         12    1    3    3    0    0  0.16692285066E+02 -0.32543469923E+02  0.42508540706E+01  0.36820912206E+02  0.00000000000E+00 0. -1.
         11    1    4    4    0    0  0.13749356155E+01 -0.50751122253E+01  0.37394404528E+01  0.64521800353E+01  0.51100000000E-03 0. -1.
        -11    1    4    4    0    0 -0.22517254531E+02  0.26295811909E+02 -0.88060315519E+01  0.35721739425E+02  0.51100000000E-03 0.  1.
         12    1    4    4    0    0  0.44500338494E+01  0.11322770238E+02  0.81573702851E+00  0.12193168334E+02  0.00000000000E+00 0. -1.
</event>
<event>
 8    1  0.2402194E-006  0.9118800E+02  0.7816164E-02  0.1184000E+00
        -11   -1    0    0    0    0  0.00000000000E+00  0.00000000000E+00  0.45593999997E+02  0.45594000000E+02  0.51100000000E-03 0.  1.
         11   -1    0    0    0    0 -0.00000000000E+00 -0.00000000000E+00 -0.45593999997E+02  0.45594000000E+02  0.51100000000E-03 0. -1.
         23    2    1    2    0    0  0.17763568394E-14  0.26645352591E-14  0.71054273576E-14  0.91188000000E+02  0.91188000000E+02 0.  0.
    9900012    2    3    3    0    0 -0.14130337892E+02  0.74582821986E+01  0.33173605527E+02  0.54367074890E+02  0.39999978826E+02 0.  0.
         12    1    3    3    0    0  0.14130337892E+02 -0.74582821986E+01 -0.33173605527E+02  0.36820925110E+02  0.00000000000E+00 0. -1.
         11    1    4    4    0    0 -0.32141752490E+01  0.13709605175E+01  0.84934415315E+01  0.91841714151E+01  0.51100000000E-03 0. -1.
        -11    1    4    4    0    0 -0.40163221313E+01  0.12116416163E+02  0.31350315705E+02  0.33849382257E+02  0.51100000000E-03 0.  1.
         12    1    4    4    0    0 -0.68998405120E+01 -0.60290944821E+01 -0.66701517092E+01  0.11333521218E+02  0.00000000000E+00 0. -1.
</event>
<event>
 8    1  0.2402194E-006  0.9118800E+02  0.7816164E-02  0.1184000E+00
        -11   -1    0    0    0    0  0.00000000000E+00  0.00000000000E+00  0.45593999997E+02  0.45594000000E+02  0.51100000000E-03 0.  1.
         11   -1    0    0    0    0 -0.00000000000E+00 -0.00000000000E+00 -0.45593999997E+02  0.45594000000E+02  0.51100000000E-03 0. -1.
         23    2    1    2    0    0  0.35527136788E-14 -0.35527136788E-14  0.00000000000E+00  0.91188000000E+02  0.91188000000E+02 0.  0.
    9900012    2    3    3    0    0  0.24373490245E+02 -0.27065200392E+02 -0.54025493959E+01  0.54367086935E+02  0.40000006286E+02 0.  0.
        -12    1    3    3    0    0 -0.24373490245E+02  0.27065200392E+02  0.54025493959E+01  0.36820913065E+02  0.00000000000E+00 0.  1.
         11    1    4    4    0    0  0.16750261667E+02 -0.26555411545E+02 -0.77949252558E+01  0.32349992400E+02  0.51100000000E-03 0. -1.
        -11    1    4    4    0    0  0.13668638720E+02 -0.11238630508E+01 -0.28312560024E+01  0.14003955278E+02  0.51100000000E-03 0.  1.
        -12    1    4    4    0    0 -0.60454101427E+01  0.61407420414E+00  0.52236318624E+01  0.80131392572E+01  0.00000000000E+00 0.  1.
</event>
<event>
 8    1  0.2402194E-006  0.9118800E+02  0.7816164E-02  0.1184000E+00
        -11   -1    0    0    0    0  0.00000000000E+00  0.00000000000E+00  0.45593999997E+02  0.45594000000E+02  0.51100000000E-03 0.  1.
         11   -1    0    0    0    0 -0.00000000000E+00 -0.00000000000E+00 -0.45593999997E+02  0.45594000000E+02  0.51100000000E-03 0. -1.
         23    2    1    2    0    0  0.35527136788E-14  0.35527136788E-14 -0.17763568394E-14  0.91188000000E+02  0.91188000000E+02 0.  0.
    9900012    2    3    3    0    0 -0.30497224884E+02 -0.16507623645E+02  0.12377285933E+02  0.54367087856E+02  0.40000008386E+02 0.  0.
         12    1    3    3    0    0  0.30497224884E+02  0.16507623645E+02 -0.12377285933E+02  0.36820912144E+02  0.00000000000E+00 0. -1.
         11    1    4    4    0    0 -0.20950969642E+02 -0.11931715120E+02  0.19235766644E+02  0.30843535357E+02  0.51100000000E-03 0.  1.
        -11    1    4    4    0    0 -0.68535928880E+01  0.68230875304E+01  0.51258444955E+00  0.96844722108E+01  0.51100000000E-03 0. -1.
        -12    1    4    4    0    0 -0.26926623540E+01 -0.11398996055E+02 -0.73710651612E+01  0.13839080288E+02  0.00000000000E+00 0.  1.
</event>
<event>
 8    1  0.2402194E-006  0.9118800E+02  0.7816164E-02  0.1184000E+00
        -11   -1    0    0    0    0  0.00000000000E+00  0.00000000000E+00  0.45593999997E+02  0.45594000000E+02  0.51100000000E-03 0. -1.
         11   -1    0    0    0    0 -0.00000000000E+00 -0.00000000000E+00 -0.45593999997E+02  0.45594000000E+02  0.51100000000E-03 0.  1.
         23    2    1    2    0    0  0.00000000000E+00  0.00000000000E+00  0.00000000000E+00  0.91188000000E+02  0.91188000000E+02 0.  0.
    9900012    2    3    3    0    0 -0.12953910487E+02 -0.33926678700E+02 -0.60794404126E+01  0.54367042377E+02  0.39999904708E+02 0.  0.
        -12    1    3    3    0    0  0.12953910487E+02  0.33926678700E+02  0.60794404126E+01  0.36820957623E+02  0.00000000000E+00 0.  1.
         11    1    4    4    0    0 -0.22743515002E+02 -0.14575980396E+02 -0.12457037200E+02  0.29747343666E+02  0.51100000000E-03 0. -1.
        -11    1    4    4    0    0  0.41032140541E+01 -0.64656678525E+01  0.72009461020E+01  0.10511653123E+02  0.51100000000E-03 0.  1.
         12    1    4    4    0    0  0.56863904613E+01 -0.12885030452E+02 -0.82334931507E+00  0.14108045588E+02  0.00000000000E+00 0. -1.
</event>
<event>
 8    1  0.2402194E-006  0.9118800E+02  0.7816164E-02  0.1184000E+00
        -11   -1    0    0    0    0  0.00000000000E+00  0.00000000000E+00  0.45593999997E+02  0.45594000000E+02  0.51100000000E-03 0.  1.
         11   -1    0    0    0    0 -0.00000000000E+00 -0.00000000000E+00 -0.45593999997E+02  0.45594000000E+02  0.51100000000E-03 0. -1.
         23    2    1    2    0    0  0.17763568394E-14 -0.71054273576E-14 -0.13322676296E-14  0.91188000000E+02  0.91188000000E+02 0.  0.
    9900012    2    3    3    0    0  0.12456311568E+02 -0.34547385865E+02 -0.26648270907E+01  0.54367043041E+02  0.39999906219E+02 0.  0.
        -12    1    3    3    0    0 -0.12456311568E+02  0.34547385865E+02  0.26648270907E+01  0.36820956959E+02  0.00000000000E+00 0.  1.
         11    1    4    4    0    0  0.74496025518E+01 -0.33812067161E+01 -0.29907452220E+01  0.87105507450E+01  0.51100000000E-03 0. -1.
        -11    1    4    4    0    0  0.14247802612E+02 -0.18443085224E+02 -0.11492845714E+02  0.25985241479E+02  0.51100000000E-03 0.  1.
         12    1    4    4    0    0 -0.92410935960E+01 -0.12723093925E+02  0.11818763845E+02  0.19671250817E+02  0.00000000000E+00 0. -1.
</event>
<event>
 8    1  0.2402194E-006  0.9118800E+02  0.7816164E-02  0.1184000E+00
        -11   -1    0    0    0    0  0.00000000000E+00  0.00000000000E+00  0.45593999997E+02  0.45594000000E+02  0.51100000000E-03 0. -1.
         11   -1    0    0    0    0 -0.00000000000E+00 -0.00000000000E+00 -0.45593999997E+02  0.45594000000E+02  0.51100000000E-03 0.  1.
         23    2    1    2    0    0  0.00000000000E+00  0.35527136788E-14  0.00000000000E+00  0.91188000000E+02  0.91188000000E+02 0.  0.
    9900012    2    3    3    0    0 -0.30116010633E+02 -0.17240330258E+02  0.12311565915E+02  0.54367112733E+02  0.40000065097E+02 0.  0.
         12    1    3    3    0    0  0.30116010633E+02  0.17240330258E+02 -0.12311565915E+02  0.36820887267E+02  0.00000000000E+00 0. -1.
         11    1    4    4    0    0 -0.13542213297E+02  0.66276437257E+01 -0.95609745861E+01  0.17852995200E+02  0.51100000000E-03 0. -1.
        -11    1    4    4    0    0 -0.13482100467E+02 -0.21350661455E+02  0.18936502712E+02  0.31562777330E+02  0.51100000000E-03 0.  1.
         12    1    4    4    0    0 -0.30916968698E+01 -0.25173125290E+01  0.29360377883E+01  0.49513402022E+01  0.00000000000E+00 0. -1.
</event>
<event>
 8    1  0.2402194E-006  0.9118800E+02  0.7816164E-02  0.1184000E+00
        -11   -1    0    0    0    0  0.00000000000E+00  0.00000000000E+00  0.45593999997E+02  0.45594000000E+02  0.51100000000E-03 0. -1.
         11   -1    0    0    0    0 -0.00000000000E+00 -0.00000000000E+00 -0.45593999997E+02  0.45594000000E+02  0.51100000000E-03 0.  1.
         23    2    1    2    0    0 -0.35527136788E-14 -0.22204460493E-15 -0.35527136788E-14  0.91188000000E+02  0.91188000000E+02 0.  0.
    9900012    2    3    3    0    0 -0.27559422184E+02 -0.99705594080E+00  0.24398027784E+02  0.54367087037E+02  0.40000006519E+02 0.  0.
        -12    1    3    3    0    0  0.27559422184E+02  0.99705594080E+00 -0.24398027784E+02  0.36820912963E+02  0.00000000000E+00 0.  1.
         11    1    4    4    0    0 -0.19457947616E+01  0.79860459444E+01 -0.26195634148E+01  0.86270017866E+01  0.51100000000E-03 0. -1.
        -11    1    4    4    0    0 -0.10896998951E+01  0.72769840631E+01  0.69684831926E+01  0.10134184781E+02  0.51100000000E-03 0.  1.
         12    1    4    4    0    0 -0.24523927527E+02 -0.16260085948E+02  0.20049108006E+02  0.35605900469E+02  0.00000000000E+00 0. -1.
</event>
<event>
 8    1  0.2402194E-006  0.9118800E+02  0.7816164E-02  0.1184000E+00
        -11   -1    0    0    0    0  0.00000000000E+00  0.00000000000E+00  0.45593999997E+02  0.45594000000E+02  0.51100000000E-03 0. -1.
         11   -1    0    0    0    0 -0.00000000000E+00 -0.00000000000E+00 -0.45593999997E+02  0.45594000000E+02  0.51100000000E-03 0.  1.
         23    2    1    2    0    0  0.35527136788E-14 -0.88817841970E-15 -0.71054273576E-14  0.91188000000E+02  0.91188000000E+02 0.  0.
    9900012    2    3    3    0    0  0.14417260638E+02 -0.25407686712E+01 -0.33785600447E+02  0.54367086007E+02  0.40000004170E+02 0.  0.
         12    1    3    3    0    0 -0.14417260638E+02  0.25407686712E+01  0.33785600447E+02  0.36820913993E+02  0.00000000000E+00 0. -1.
         11    1    4    4    0    0  0.17504501349E+01  0.24047123827E+01 -0.20056495553E+02  0.20275841079E+02  0.51100000000E-03 0. -1.
        -11    1    4    4    0    0  0.26298632505E+01  0.27115126195E+01 -0.19747736617E+02  0.20105759949E+02  0.51100000000E-03 0.  1.
         12    1    4    4    0    0  0.10036947252E+02 -0.76569936734E+01  0.60186317235E+01  0.13985484979E+02  0.00000000000E+00 0. -1.
</event>
<event>
 8    1  0.2402194E-006  0.9118800E+02  0.7816164E-02  0.1184000E+00
        -11   -1    0    0    0    0  0.00000000000E+00  0.00000000000E+00  0.45593999997E+02  0.45594000000E+02  0.51100000000E-03 0. -1.
         11   -1    0    0    0    0 -0.00000000000E+00 -0.00000000000E+00 -0.45593999997E+02  0.45594000000E+02  0.51100000000E-03 0.  1.
         23    2    1    2    0    0  0.00000000000E+00 -0.35527136788E-14  0.17763568394E-14  0.91188000000E+02  0.91188000000E+02 0.  0.
    9900012    2    3    3    0    0 -0.32783937132E+02  0.10977495921E+02 -0.12668394740E+02  0.54367079644E+02  0.39999989664E+02 0.  0.
        -12    1    3    3    0    0  0.32783937132E+02 -0.10977495921E+02  0.12668394740E+02  0.36820920356E+02  0.00000000000E+00 0.  1.
         11    1    4    4    0    0 -0.12428890514E+02  0.16328799865E+02  0.33651842167E+01  0.20794987125E+02  0.51100000000E-03 0. -1.
        -11    1    4    4    0    0 -0.19006645141E+02 -0.66482572216E+01 -0.29445082095E+01  0.20349988021E+02  0.51100000000E-03 0.  1.
        -12    1    4    4    0    0 -0.13484014774E+01  0.12969532780E+01 -0.13089070747E+02  0.13222104499E+02  0.00000000000E+00 0.  1.
</event>
<event>
 8    1  0.2402194E-006  0.9118800E+02  0.7816164E-02  0.1184000E+00
        -11   -1    0    0    0    0  0.00000000000E+00  0.00000000000E+00  0.45593999997E+02  0.45594000000E+02  0.51100000000E-03 0.  1.
         11   -1    0    0    0    0 -0.00000000000E+00 -0.00000000000E+00 -0.45593999997E+02  0.45594000000E+02  0.51100000000E-03 0. -1.
         23    2    1    2    0    0 -0.17763568394E-14 -0.35527136788E-14 -0.35527136788E-14  0.91188000000E+02  0.91188000000E+02 0.  0.
    9900012    2    3    3    0    0 -0.38583439868E+01 -0.19894394011E+02  0.30742592355E+02  0.54367072308E+02  0.39999972941E+02 0.  0.
         12    1    3    3    0    0  0.38583439868E+01  0.19894394011E+02 -0.30742592355E+02  0.36820927692E+02  0.00000000000E+00 0. -1.
         11    1    4    4    0    0 -0.39669955052E+01 -0.17614573270E+02  0.88982865203E+01  0.20129325574E+02  0.51100000000E-03 0. -1.
        -11    1    4    4    0    0 -0.84965593720E+01 -0.33319089105E+01 -0.15785564548E+01  0.92620180788E+01  0.51100000000E-03 0.  1.
        -12    1    4    4    0    0  0.86052108904E+01  0.10520881700E+01  0.23422862290E+02  0.24975728655E+02  0.00000000000E+00 0.  1.
</event>
<event>
 8    1  0.2402194E-006  0.9118800E+02  0.7816164E-02  0.1184000E+00
        -11   -1    0    0    0    0  0.00000000000E+00  0.00000000000E+00  0.45593999997E+02  0.45594000000E+02  0.51100000000E-03 0.  1.
         11   -1    0    0    0    0 -0.00000000000E+00 -0.00000000000E+00 -0.45593999997E+02  0.45594000000E+02  0.51100000000E-03 0. -1.
         23    2    1    2    0    0  0.00000000000E+00  0.46317116809E-14  0.00000000000E+00  0.91188000000E+02  0.91188000000E+02 0.  0.
    9900012    2    3    3    0    0 -0.68051369158E+01  0.19927851036E-01 -0.36186601071E+02  0.54367076836E+02  0.39999983264E+02 0.  0.
        -12    1    3    3    0    0  0.68051369158E+01 -0.19927851036E-01  0.36186601071E+02  0.36820923164E+02  0.00000000000E+00 0.  1.
         11    1    4    4    0    0 -0.46750266354E+01 -0.50784314993E+01 -0.72028022009E+01  0.99763069491E+01  0.51100000000E-03 0. -1.
        -11    1    4    4    0    0 -0.38509351073E+01  0.18280210781E+02 -0.99264381453E+01  0.21154904441E+02  0.51100000000E-03 0.  1.
        -12    1    4    4    0    0  0.17208248268E+01 -0.13181851431E+02 -0.19057360725E+02  0.23235865446E+02  0.00000000000E+00 0.  1.
</event>
<event>
 8    1  0.2402194E-006  0.9118800E+02  0.7816164E-02  0.1184000E+00
        -11   -1    0    0    0    0  0.00000000000E+00  0.00000000000E+00  0.45593999997E+02  0.45594000000E+02  0.51100000000E-03 0. -1.
         11   -1    0    0    0    0 -0.00000000000E+00 -0.00000000000E+00 -0.45593999997E+02  0.45594000000E+02  0.51100000000E-03 0.  1.
         23    2    1    2    0    0  0.00000000000E+00 -0.35527136788E-14 -0.17763568394E-14  0.91188000000E+02  0.91188000000E+02 0.  0.
    9900012    2    3    3    0    0  0.22936428668E+02 -0.27011267769E+02  0.10004561470E+02  0.54367087508E+02  0.40000007592E+02 0.  0.
        -12    1    3    3    0    0 -0.22936428668E+02  0.27011267769E+02 -0.10004561470E+02  0.36820912492E+02  0.00000000000E+00 0.  1.
         11    1    4    4    0    0  0.18810227846E+02 -0.48620254060E+01  0.20080304101E+02  0.27940697481E+02  0.51100000000E-03 0. -1.
        -11    1    4    4    0    0 -0.15446922878E+01 -0.96605787780E+01 -0.69204694056E+00  0.98077411170E+01  0.51100000000E-03 0.  1.
         12    1    4    4    0    0  0.56708931097E+01 -0.12488663585E+02 -0.93836956898E+01  0.16618648910E+02  0.00000000000E+00 0. -1.
</event>
<event>
 8    1  0.2402194E-006  0.9118800E+02  0.7816164E-02  0.1184000E+00
        -11   -1    0    0    0    0  0.00000000000E+00  0.00000000000E+00  0.45593999997E+02  0.45594000000E+02  0.51100000000E-03 0.  1.
         11   -1    0    0    0    0 -0.00000000000E+00 -0.00000000000E+00 -0.45593999997E+02  0.45594000000E+02  0.51100000000E-03 0. -1.
         23    2    1    2    0    0  0.17763568394E-14 -0.71054273576E-14 -0.26645352591E-14  0.91188000000E+02  0.91188000000E+02 0.  0.
    9900012    2    3    3    0    0 -0.97147489368E+01  0.35073782480E+02  0.55886967507E+01  0.54367080732E+02  0.39999992144E+02 0.  0.
         12    1    3    3    0    0  0.97147489368E+01 -0.35073782480E+02 -0.55886967507E+01  0.36820919268E+02  0.00000000000E+00 0. -1.
         11    1    4    4    0    0  0.19267775081E+01 -0.20269176841E+01  0.48005336670E+00  0.28374845127E+01  0.51100000000E-03 0.  1.
        -11    1    4    4    0    0  0.79532892160E+01  0.75013914189E+01 -0.81504980941E+01  0.13636579557E+02  0.51100000000E-03 0. -1.
        -12    1    4    4    0    0 -0.19594815661E+02  0.29599308746E+02  0.13259141478E+02  0.37893016662E+02  0.00000000000E+00 0.  1.
</event>
<event>
 8    1  0.2402194E-006  0.9118800E+02  0.7816164E-02  0.1184000E+00
        -11   -1    0    0    0    0  0.00000000000E+00  0.00000000000E+00  0.45593999997E+02  0.45594000000E+02  0.51100000000E-03 0. -1.
         11   -1    0    0    0    0 -0.00000000000E+00 -0.00000000000E+00 -0.45593999997E+02  0.45594000000E+02  0.51100000000E-03 0.  1.
         23    2    1    2    0    0  0.44408920985E-15 -0.88817841970E-15  0.71054273576E-14  0.91188000000E+02  0.91188000000E+02 0.  0.
    9900012    2    3    3    0    0 -0.38442059327E+01  0.77998633273E+01 -0.35779377426E+02  0.54367086973E+02  0.40000006372E+02 0.  0.
         12    1    3    3    0    0  0.38442059327E+01 -0.77998633273E+01  0.35779377426E+02  0.36820913027E+02  0.00000000000E+00 0. -1.
         11    1    4    4    0    0 -0.25568099395E+01 -0.52311834296E+01 -0.85061241196E+01  0.10308089296E+02  0.51100000000E-03 0. -1.
        -11    1    4    4    0    0  0.83228977537E+01 -0.71840115575E+01 -0.14793920605E+02  0.18432057297E+02  0.51100000000E-03 0.  1.
        -12    1    4    4    0    0 -0.96102937468E+01  0.20215058314E+02 -0.12479332701E+02  0.25626940380E+02  0.00000000000E+00 0.  1.
</event>
<event>
 8    1  0.2402194E-006  0.9118800E+02  0.7816164E-02  0.1184000E+00
        -11   -1    0    0    0    0  0.00000000000E+00  0.00000000000E+00  0.45593999997E+02  0.45594000000E+02  0.51100000000E-03 0. -1.
         11   -1    0    0    0    0 -0.00000000000E+00 -0.00000000000E+00 -0.45593999997E+02  0.45594000000E+02  0.51100000000E-03 0.  1.
         23    2    1    2    0    0  0.26645352591E-14  0.00000000000E+00  0.35527136788E-14  0.91188000000E+02  0.91188000000E+02 0.  0.
    9900012    2    3    3    0    0 -0.73635527967E+01  0.26499301460E+02 -0.24481517097E+02  0.54367087912E+02  0.40000008512E+02 0.  0.
         12    1    3    3    0    0  0.73635527967E+01 -0.26499301460E+02  0.24481517097E+02  0.36820912088E+02  0.00000000000E+00 0. -1.
         11    1    4    4    0    0 -0.10849875014E+02  0.92798825433E+01 -0.20954914781E+02  0.25356349531E+02  0.51100000000E-03 0. -1.
        -11    1    4    4    0    0  0.73979394809E+01  0.37309880901E+01 -0.10463572434E+02  0.13346764740E+02  0.51100000000E-03 0.  1.
        -12    1    4    4    0    0 -0.39116172635E+01  0.13488430827E+02  0.69369701176E+01  0.15663973640E+02  0.00000000000E+00 0.  1.
</event>
<event>
 8    1  0.2402194E-006  0.9118800E+02  0.7816164E-02  0.1184000E+00
        -11   -1    0    0    0    0  0.00000000000E+00  0.00000000000E+00  0.45593999997E+02  0.45594000000E+02  0.51100000000E-03 0.  1.
         11   -1    0    0    0    0 -0.00000000000E+00 -0.00000000000E+00 -0.45593999997E+02  0.45594000000E+02  0.51100000000E-03 0. -1.
         23    2    1    2    0    0  0.00000000000E+00  0.00000000000E+00 -0.71054273576E-14  0.91188000000E+02  0.91188000000E+02 0.  0.
    9900012    2    3    3    0    0  0.73711810051E+01 -0.93492370978E+01  0.34843061555E+02  0.54367061904E+02  0.39999949223E+02 0.  0.
         12    1    3    3    0    0 -0.73711810051E+01  0.93492370978E+01 -0.34843061555E+02  0.36820938096E+02  0.00000000000E+00 0. -1.
         11    1    4    4    0    0 -0.30844281923E+01  0.47202130848E+01 -0.30166146057E-02  0.56386273330E+01  0.51100000000E-03 0. -1.
        -11    1    4    4    0    0  0.10785234314E+02 -0.99251587282E+01  0.10685070352E+01  0.14695977767E+02  0.51100000000E-03 0.  1.
        -12    1    4    4    0    0 -0.32962511693E+00 -0.41442914544E+01  0.33777571134E+02  0.34032456804E+02  0.00000000000E+00 0.  1.
</event>
<event>
 8    1  0.2402194E-006  0.9118800E+02  0.7816164E-02  0.1184000E+00
        -11   -1    0    0    0    0  0.00000000000E+00  0.00000000000E+00  0.45593999997E+02  0.45594000000E+02  0.51100000000E-03 0.  1.
         11   -1    0    0    0    0 -0.00000000000E+00 -0.00000000000E+00 -0.45593999997E+02  0.45594000000E+02  0.51100000000E-03 0. -1.
         23    2    1    2    0    0  0.44408920985E-15  0.71054273576E-14  0.71054273576E-14  0.91188000000E+02  0.91188000000E+02 0.  0.
    9900012    2    3    3    0    0 -0.12541697546E+01 -0.24314312019E+02  0.27622843543E+02  0.54367079369E+02  0.39999989038E+02 0.  0.
         12    1    3    3    0    0  0.12541697546E+01  0.24314312019E+02 -0.27622843543E+02  0.36820920631E+02  0.00000000000E+00 0. -1.
         11    1    4    4    0    0  0.19735635610E+01  0.36128357875E+01  0.48951163021E+01  0.63960690607E+01  0.51100000000E-03 0. -1.
        -11    1    4    4    0    0 -0.25028792274E+01  0.19940745972E+01 -0.57993672875E+01  0.66236998062E+01  0.51100000000E-03 0.  1.
        -12    1    4    4    0    0 -0.72485408815E+00 -0.29921222403E+02  0.28527094528E+02  0.41347310502E+02  0.00000000000E+00 0.  1.
</event>
<event>
 8    1  0.2402194E-006  0.9118800E+02  0.7816164E-02  0.1184000E+00
        -11   -1    0    0    0    0  0.00000000000E+00  0.00000000000E+00  0.45593999997E+02  0.45594000000E+02  0.51100000000E-03 0. -1.
         11   -1    0    0    0    0 -0.00000000000E+00 -0.00000000000E+00 -0.45593999997E+02  0.45594000000E+02  0.51100000000E-03 0.  1.
         23    2    1    2    0    0  0.00000000000E+00  0.00000000000E+00  0.88817841970E-15  0.91188000000E+02  0.91188000000E+02 0.  0.
    9900012    2    3    3    0    0  0.34629089138E+02  0.11373408421E+02  0.52203204583E+01  0.54367082313E+02  0.39999995749E+02 0.  0.
        -12    1    3    3    0    0 -0.34629089138E+02 -0.11373408421E+02 -0.52203204583E+01  0.36820917687E+02  0.00000000000E+00 0.  1.
         11    1    4    4    0    0  0.19493651179E+02  0.75191550768E+01  0.17369676364E+01  0.20965619146E+02  0.51100000000E-03 0. -1.
        -11    1    4    4    0    0  0.93493300130E+00  0.48196324605E+01  0.14560354016E+02  0.15365769297E+02  0.51100000000E-03 0.  1.
        -12    1    4    4    0    0  0.14200504958E+02 -0.96537911656E+00 -0.11077001194E+02  0.18035693869E+02  0.00000000000E+00 0.  1.
</event>
<event>
 8    1  0.2402194E-006  0.9118800E+02  0.7816164E-02  0.1184000E+00
        -11   -1    0    0    0    0  0.00000000000E+00  0.00000000000E+00  0.45593999997E+02  0.45594000000E+02  0.51100000000E-03 0. -1.
         11   -1    0    0    0    0 -0.00000000000E+00 -0.00000000000E+00 -0.45593999997E+02  0.45594000000E+02  0.51100000000E-03 0.  1.
         23    2    1    2    0    0 -0.71054273576E-14  0.88817841970E-15  0.17763568394E-14  0.91188000000E+02  0.91188000000E+02 0.  0.
    9900012    2    3    3    0    0  0.33381857348E+02  0.62605083294E+01 -0.14221006248E+02  0.54367090407E+02  0.40000014200E+02 0.  0.
         12    1    3    3    0    0 -0.33381857348E+02 -0.62605083294E+01  0.14221006248E+02  0.36820909593E+02  0.00000000000E+00 0. -1.
         11    1    4    4    0    0  0.13660295362E+02 -0.15067481081E+01  0.71602501061E+01  0.15496552555E+02  0.51100000000E-03 0. -1.
        -11    1    4    4    0    0  0.10717495373E+02 -0.81422447939E+01 -0.13167371774E+02  0.18829246853E+02  0.51100000000E-03 0.  1.
        -12    1    4    4    0    0  0.90040666130E+01  0.15909501231E+02 -0.82138845805E+01  0.20041290999E+02  0.00000000000E+00 0.  1.
</event>
<event>
 8    1  0.2402194E-006  0.9118800E+02  0.7816164E-02  0.1184000E+00
        -11   -1    0    0    0    0  0.00000000000E+00  0.00000000000E+00  0.45593999997E+02  0.45594000000E+02  0.51100000000E-03 0. -1.
         11   -1    0    0    0    0 -0.00000000000E+00 -0.00000000000E+00 -0.45593999997E+02  0.45594000000E+02  0.51100000000E-03 0.  1.
         23    2    1    2    0    0  0.00000000000E+00  0.00000000000E+00  0.00000000000E+00  0.91188000000E+02  0.91188000000E+02 0.  0.
    9900012    2    3    3    0    0  0.10185969282E+02 -0.34606629684E+02  0.73763219334E+01  0.54367042468E+02  0.39999904913E+02 0.  0.
        -12    1    3    3    0    0 -0.10185969282E+02  0.34606629684E+02 -0.73763219334E+01  0.36820957532E+02  0.00000000000E+00 0.  1.
         11    1    4    4    0    0  0.11751158091E+02 -0.21636791983E+01  0.44224613767E+00  0.11956872754E+02  0.51100000000E-03 0. -1.
        -11    1    4    4    0    0  0.10404624025E+02 -0.59944612750E+01 -0.16877527978E+01  0.12125934060E+02  0.51100000000E-03 0.  1.
        -12    1    4    4    0    0 -0.11969812833E+02 -0.26448489211E+02  0.86218285935E+01  0.30284235653E+02  0.00000000000E+00 0.  1.
</event>
<event>
 8    1  0.2402194E-006  0.9118800E+02  0.7816164E-02  0.1184000E+00
        -11   -1    0    0    0    0  0.00000000000E+00  0.00000000000E+00  0.45593999997E+02  0.45594000000E+02  0.51100000000E-03 0.  1.
         11   -1    0    0    0    0 -0.00000000000E+00 -0.00000000000E+00 -0.45593999997E+02  0.45594000000E+02  0.51100000000E-03 0. -1.
         23    2    1    2    0    0  0.00000000000E+00  0.17763568394E-14  0.00000000000E+00  0.91188000000E+02  0.91188000000E+02 0.  0.
    9900012    2    3    3    0    0  0.53981811980E+01  0.18920287409E+01  0.36373889710E+02  0.54367082227E+02  0.39999995553E+02 0.  0.
         12    1    3    3    0    0 -0.53981811980E+01 -0.18920287409E+01 -0.36373889710E+02  0.36820917773E+02  0.00000000000E+00 0. -1.
         11    1    4    4    0    0  0.12510880857E+02  0.17161891616E+02  0.16656096486E+02  0.26990335568E+02  0.51100000000E-03 0. -1.
        -11    1    4    4    0    0 -0.66401475787E+01 -0.14632706864E+02  0.13156827105E+02  0.20767998695E+02  0.51100000000E-03 0.  1.
         12    1    4    4    0    0 -0.47255208012E+00 -0.63715601049E+00  0.65609661186E+01  0.66087479646E+01  0.00000000000E+00 0. -1.
</event>
<event>
 8    1  0.2402194E-006  0.9118800E+02  0.7816164E-02  0.1184000E+00
        -11   -1    0    0    0    0  0.00000000000E+00  0.00000000000E+00  0.45593999997E+02  0.45594000000E+02  0.51100000000E-03 0.  1.
         11   -1    0    0    0    0 -0.00000000000E+00 -0.00000000000E+00 -0.45593999997E+02  0.45594000000E+02  0.51100000000E-03 0. -1.
         23    2    1    2    0    0  0.35527136788E-14  0.00000000000E+00  0.00000000000E+00  0.91188000000E+02  0.91188000000E+02 0.  0.
    9900012    2    3    3    0    0  0.94848072445E+01 -0.11334532536E+02 -0.33724562109E+02  0.54367091731E+02  0.40000017220E+02 0.  0.
        -12    1    3    3    0    0 -0.94848072445E+01  0.11334532536E+02  0.33724562109E+02  0.36820908269E+02  0.00000000000E+00 0.  1.
         11    1    4    4    0    0  0.22869292983E+02 -0.33296006617E+01 -0.29443127573E+02  0.37429781774E+02  0.51100000000E-03 0. -1.
        -11    1    4    4    0    0 -0.61926949501E+01 -0.57364749306E+01 -0.41232918561E+01  0.93945809574E+01  0.51100000000E-03 0.  1.
        -12    1    4    4    0    0 -0.71917907889E+01 -0.22684569433E+01 -0.15814268009E+00  0.75427289996E+01  0.00000000000E+00 0.  1.
</event>
<event>
 8    1  0.2402194E-006  0.9118800E+02  0.7816164E-02  0.1184000E+00
        -11   -1    0    0    0    0  0.00000000000E+00  0.00000000000E+00  0.45593999997E+02  0.45594000000E+02  0.51100000000E-03 0. -1.
         11   -1    0    0    0    0 -0.00000000000E+00 -0.00000000000E+00 -0.45593999997E+02  0.45594000000E+02  0.51100000000E-03 0.  1.
         23    2    1    2    0    0 -0.17763568394E-14 -0.71054273576E-14 -0.17763568394E-14  0.91188000000E+02  0.91188000000E+02 0.  0.
    9900012    2    3    3    0    0  0.14424618273E+02  0.32447053071E+02  0.97415746735E+01  0.54367093677E+02  0.40000021656E+02 0.  0.
        -12    1    3    3    0    0 -0.14424618273E+02 -0.32447053071E+02 -0.97415746735E+01  0.36820906323E+02  0.00000000000E+00 0.  1.
         11    1    4    4    0    0 -0.17695166604E+00  0.21993736518E+01  0.53886736645E+01  0.58229168358E+01  0.51100000000E-03 0. -1.
        -11    1    4    4    0    0  0.75814790928E+01  0.22601070926E+02  0.19074644199E+02  0.30530792388E+02  0.51100000000E-03 0.  1.
        -12    1    4    4    0    0  0.70200908465E+01  0.76466084930E+01 -0.14721743190E+02  0.18013384454E+02  0.00000000000E+00 0.  1.
</event>
<event>
 8    1  0.2402194E-006  0.9118800E+02  0.7816164E-02  0.1184000E+00
        -11   -1    0    0    0    0  0.00000000000E+00  0.00000000000E+00  0.45593999997E+02  0.45594000000E+02  0.51100000000E-03 0.  1.
         11   -1    0    0    0    0 -0.00000000000E+00 -0.00000000000E+00 -0.45593999997E+02  0.45594000000E+02  0.51100000000E-03 0. -1.
         23    2    1    2    0    0  0.71054273576E-14  0.11102230246E-14  0.00000000000E+00  0.91188000000E+02  0.91188000000E+02 0.  0.
    9900012    2    3    3    0    0  0.36550015531E+02  0.87312855650E+00  0.43720149222E+01  0.54367075198E+02  0.39999979529E+02 0.  0.
        -12    1    3    3    0    0 -0.36550015531E+02 -0.87312855650E+00 -0.43720149222E+01  0.36820924802E+02  0.00000000000E+00 0.  1.
         11    1    4    4    0    0 -0.98894023531E+00 -0.15281253982E+01 -0.85269805853E+01  0.87190921652E+01  0.51100000000E-03 0.  1.
        -11    1    4    4    0    0  0.10126035369E+02 -0.69214094276E+01  0.11254523855E+02  0.16646525410E+02  0.51100000000E-03 0. -1.
         12    1    4    4    0    0  0.27412920397E+02  0.93226633824E+01  0.16444716523E+01  0.29001457623E+02  0.00000000000E+00 0. -1.
</event>
<event>
 8    1  0.2402194E-006  0.9118800E+02  0.7816164E-02  0.1184000E+00
        -11   -1    0    0    0    0  0.00000000000E+00  0.00000000000E+00  0.45593999997E+02  0.45594000000E+02  0.51100000000E-03 0.  1.
         11   -1    0    0    0    0 -0.00000000000E+00 -0.00000000000E+00 -0.45593999997E+02  0.45594000000E+02  0.51100000000E-03 0. -1.
         23    2    1    2    0    0  0.00000000000E+00  0.00000000000E+00  0.88817841970E-15  0.91188000000E+02  0.91188000000E+02 0.  0.
    9900012    2    3    3    0    0 -0.23742123834E+02 -0.27102594705E+02 -0.75854829071E+01  0.54367100570E+02  0.40000037369E+02 0.  0.
        -12    1    3    3    0    0  0.23742123834E+02  0.27102594705E+02  0.75854829071E+01  0.36820899430E+02  0.00000000000E+00 0.  1.
         11    1    4    4    0    0 -0.16628889707E+02 -0.18586494090E+02 -0.12062340039E+02  0.27703389376E+02  0.51100000000E-03 0. -1.
        -11    1    4    4    0    0  0.81984421640E+00 -0.12702382431E+02 -0.49443140609E+01  0.13655361795E+02  0.51100000000E-03 0.  1.
        -12    1    4    4    0    0 -0.79330783434E+01  0.41862818153E+01  0.94211711926E+01  0.13008349399E+02  0.00000000000E+00 0.  1.
</event>
<event>
 8    1  0.2402194E-006  0.9118800E+02  0.7816164E-02  0.1184000E+00
        -11   -1    0    0    0    0  0.00000000000E+00  0.00000000000E+00  0.45593999997E+02  0.45594000000E+02  0.51100000000E-03 0.  1.
         11   -1    0    0    0    0 -0.00000000000E+00 -0.00000000000E+00 -0.45593999997E+02  0.45594000000E+02  0.51100000000E-03 0. -1.
         23    2    1    2    0    0  0.00000000000E+00  0.35527136788E-14  0.00000000000E+00  0.91188000000E+02  0.91188000000E+02 0.  0.
    9900012    2    3    3    0    0  0.21601723208E+02 -0.17255608569E+02 -0.24318432972E+02  0.54367127457E+02  0.40000098663E+02 0.  0.
        -12    1    3    3    0    0 -0.21601723208E+02  0.17255608569E+02  0.24318432972E+02  0.36820872543E+02  0.00000000000E+00 0.  1.
         11    1    4    4    0    0  0.37772783321E+01 -0.80382812365E+01 -0.21025690900E+02  0.22824580498E+02  0.51100000000E-03 0. -1.
        -11    1    4    4    0    0 -0.34496566126E+01 -0.93909832204E+01 -0.21760395702E+01  0.10238449349E+02  0.51100000000E-03 0.  1.
         12    1    4    4    0    0  0.21274101488E+02  0.17365588749E+00 -0.11167025012E+01  0.21304097610E+02  0.00000000000E+00 0. -1.
</event>
<event>
 8    1  0.2402194E-006  0.9118800E+02  0.7816164E-02  0.1184000E+00
        -11   -1    0    0    0    0  0.00000000000E+00  0.00000000000E+00  0.45593999997E+02  0.45594000000E+02  0.51100000000E-03 0. -1.
         11   -1    0    0    0    0 -0.00000000000E+00 -0.00000000000E+00 -0.45593999997E+02  0.45594000000E+02  0.51100000000E-03 0.  1.
         23    2    1    2    0    0  0.00000000000E+00 -0.35527136788E-14  0.00000000000E+00  0.91188000000E+02  0.91188000000E+02 0.  0.
    9900012    2    3    3    0    0  0.95808678198E+01  0.20323969847E+02 -0.29170500961E+02  0.54367151220E+02  0.40000152837E+02 0.  0.
         12    1    3    3    0    0 -0.95808678198E+01 -0.20323969847E+02  0.29170500961E+02  0.36820848780E+02  0.00000000000E+00 0. -1.
         11    1    4    4    0    0  0.15032011739E+02 -0.58715393998E+01 -0.13903138324E+02  0.21301023623E+02  0.51100000000E-03 0. -1.
        -11    1    4    4    0    0 -0.44988606315E+01  0.87074835470E+01 -0.11575205250E+02  0.15167247395E+02  0.51100000000E-03 0.  1.
         12    1    4    4    0    0 -0.95228328784E+00  0.17488025700E+02 -0.36921573870E+01  0.17898880203E+02  0.00000000000E+00 0. -1.
</event>
<event>
 8    1  0.2402194E-006  0.9118800E+02  0.7816164E-02  0.1184000E+00
        -11   -1    0    0    0    0  0.00000000000E+00  0.00000000000E+00  0.45593999997E+02  0.45594000000E+02  0.51100000000E-03 0. -1.
         11   -1    0    0    0    0 -0.00000000000E+00 -0.00000000000E+00 -0.45593999997E+02  0.45594000000E+02  0.51100000000E-03 0.  1.
         23    2    1    2    0    0  0.00000000000E+00  0.00000000000E+00  0.00000000000E+00  0.91188000000E+02  0.91188000000E+02 0.  0.
    9900012    2    3    3    0    0  0.24252286026E+02  0.97923120120E+01  0.25917476867E+02  0.54367104313E+02  0.40000045903E+02 0.  0.
        -12    1    3    3    0    0 -0.24252286026E+02 -0.97923120120E+01 -0.25917476867E+02  0.36820895687E+02  0.00000000000E+00 0.  1.
         11    1    4    4    0    0  0.28926391221E+01  0.85844307819E+01  0.11579855972E+02  0.14702138536E+02  0.51100000000E-03 0. -1.
        -11    1    4    4    0    0 -0.22353573261E+01  0.99383357656E+01  0.97324172873E+01  0.14088551618E+02  0.51100000000E-03 0.  1.
         12    1    4    4    0    0  0.23595004230E+02 -0.87304545355E+01  0.46052036079E+01  0.25576414160E+02  0.00000000000E+00 0. -1.
</event>
<event>
 8    1  0.2402194E-006  0.9118800E+02  0.7816164E-02  0.1184000E+00
        -11   -1    0    0    0    0  0.00000000000E+00  0.00000000000E+00  0.45593999997E+02  0.45594000000E+02  0.51100000000E-03 0.  1.
         11   -1    0    0    0    0 -0.00000000000E+00 -0.00000000000E+00 -0.45593999997E+02  0.45594000000E+02  0.51100000000E-03 0. -1.
         23    2    1    2    0    0 -0.17763568394E-14 -0.71054273576E-14  0.00000000000E+00  0.91188000000E+02  0.91188000000E+02 0.  0.
    9900012    2    3    3    0    0  0.49776236013E+01 -0.34550416347E+02  0.11716295201E+02  0.54367087740E+02  0.40000008120E+02 0.  0.
         12    1    3    3    0    0 -0.49776236013E+01  0.34550416347E+02 -0.11716295201E+02  0.36820912260E+02  0.00000000000E+00 0. -1.
         11    1    4    4    0    0 -0.56846418114E+01  0.73381494637E+00  0.80358912749E+01  0.98706223584E+01  0.51100000000E-03 0. -1.
        -11    1    4    4    0    0  0.18744329284E+02 -0.25633766276E+02  0.27110867985E+01  0.31871458167E+02  0.51100000000E-03 0.  1.
        -12    1    4    4    0    0 -0.80820638712E+01 -0.96504650172E+01  0.96931712781E+00  0.12625007214E+02  0.00000000000E+00 0.  1.
</event>
<event>
 8    1  0.2402194E-006  0.9118800E+02  0.7816164E-02  0.1184000E+00
        -11   -1    0    0    0    0  0.00000000000E+00  0.00000000000E+00  0.45593999997E+02  0.45594000000E+02  0.51100000000E-03 0. -1.
         11   -1    0    0    0    0 -0.00000000000E+00 -0.00000000000E+00 -0.45593999997E+02  0.45594000000E+02  0.51100000000E-03 0.  1.
         23    2    1    2    0    0  0.00000000000E+00  0.88817841970E-15 -0.35527136788E-14  0.91188000000E+02  0.91188000000E+02 0.  0.
    9900012    2    3    3    0    0  0.32962076064E+02 -0.55348463446E+01  0.15448206674E+02  0.54367081055E+02  0.39999992882E+02 0.  0.
        -12    1    3    3    0    0 -0.32962076064E+02  0.55348463446E+01 -0.15448206674E+02  0.36820918945E+02  0.00000000000E+00 0.  1.
         11    1    4    4    0    0  0.22193329320E+02  0.17154555852E+01  0.16090452388E+02  0.27466148483E+02  0.51100000000E-03 0. -1.
        -11    1    4    4    0    0 -0.67637836291E+01 -0.57411850652E+01  0.20318372522E+01  0.91015568896E+01  0.51100000000E-03 0.  1.
        -12    1    4    4    0    0  0.17532530373E+02 -0.15091168646E+01 -0.26740829662E+01  0.17799375683E+02  0.00000000000E+00 0.  1.
</event>
<event>
 8    1  0.2402194E-006  0.9118800E+02  0.7816164E-02  0.1184000E+00
        -11   -1    0    0    0    0  0.00000000000E+00  0.00000000000E+00  0.45593999997E+02  0.45594000000E+02  0.51100000000E-03 0.  1.
         11   -1    0    0    0    0 -0.00000000000E+00 -0.00000000000E+00 -0.45593999997E+02  0.45594000000E+02  0.51100000000E-03 0. -1.
         23    2    1    2    0    0  0.00000000000E+00 -0.71054273576E-14 -0.35527136788E-14  0.91188000000E+02  0.91188000000E+02 0.  0.
    9900012    2    3    3    0    0 -0.16189642339E+01 -0.33678140634E+02 -0.14796542560E+02  0.54367138067E+02  0.40000122852E+02 0.  0.
         12    1    3    3    0    0  0.16189642339E+01  0.33678140634E+02  0.14796542560E+02  0.36820861933E+02  0.00000000000E+00 0. -1.
         11    1    4    4    0    0  0.70035339530E+01 -0.88895412857E-02  0.35886651105E+00  0.70127278779E+01  0.51100000000E-03 0. -1.
        -11    1    4    4    0    0 -0.31720912981E+01 -0.21276872386E+02 -0.23174182994E+02  0.31619775765E+02  0.51100000000E-03 0.  1.
        -12    1    4    4    0    0 -0.54504068888E+01 -0.12392378706E+02  0.80187739223E+01  0.15734634425E+02  0.00000000000E+00 0.  1.
</event>
<event>
 8    1  0.2402194E-006  0.9118800E+02  0.7816164E-02  0.1184000E+00
        -11   -1    0    0    0    0  0.00000000000E+00  0.00000000000E+00  0.45593999997E+02  0.45594000000E+02  0.51100000000E-03 0. -1.
         11   -1    0    0    0    0 -0.00000000000E+00 -0.00000000000E+00 -0.45593999997E+02  0.45594000000E+02  0.51100000000E-03 0.  1.
         23    2    1    2    0    0  0.00000000000E+00  0.00000000000E+00  0.71054273576E-14  0.91188000000E+02  0.91188000000E+02 0.  0.
    9900012    2    3    3    0    0 -0.11535422231E+02 -0.94476707898E+01  0.33666899331E+02  0.54367020112E+02  0.39999853949E+02 0.  0.
        -12    1    3    3    0    0  0.11535422231E+02  0.94476707898E+01 -0.33666899331E+02  0.36820979888E+02  0.00000000000E+00 0.  1.
         11    1    4    4    0    0  0.50415812752E+01 -0.11074675416E+02  0.41008267331E+01  0.12840668109E+02  0.51100000000E-03 0. -1.
        -11    1    4    4    0    0 -0.35740967716E+01  0.97896979410E-01 -0.40786743184E+01  0.54239594401E+01  0.51100000000E-03 0.  1.
         12    1    4    4    0    0 -0.13002906734E+02  0.15291076468E+01  0.33644746916E+02  0.36102392563E+02  0.00000000000E+00 0. -1.
</event>
<event>
 8    1  0.2402194E-006  0.9118800E+02  0.7816164E-02  0.1184000E+00
        -11   -1    0    0    0    0  0.00000000000E+00  0.00000000000E+00  0.45593999997E+02  0.45594000000E+02  0.51100000000E-03 0.  1.
         11   -1    0    0    0    0 -0.00000000000E+00 -0.00000000000E+00 -0.45593999997E+02  0.45594000000E+02  0.51100000000E-03 0. -1.
         23    2    1    2    0    0 -0.35527136788E-14  0.00000000000E+00  0.00000000000E+00  0.91188000000E+02  0.91188000000E+02 0.  0.
    9900012    2    3    3    0    0 -0.15385583610E+02  0.22248900720E+02 -0.24980988361E+02  0.54367088201E+02  0.40000009171E+02 0.  0.
        -12    1    3    3    0    0  0.15385583610E+02 -0.22248900720E+02  0.24980988361E+02  0.36820911799E+02  0.00000000000E+00 0.  1.
         11    1    4    4    0    0 -0.14267782223E+02 -0.80674729106E+00 -0.15406424447E+02  0.21013766089E+02  0.51100000000E-03 0.  1.
        -11    1    4    4    0    0  0.11389849923E+01  0.37437486025E+01 -0.13030375845E+02  0.13605279686E+02  0.51100000000E-03 0. -1.
        -12    1    4    4    0    0 -0.22567863795E+01  0.19311899408E+02  0.34558119317E+01  0.19748042425E+02  0.00000000000E+00 0.  1.
</event>
<event>
 8    1  0.2402194E-006  0.9118800E+02  0.7816164E-02  0.1184000E+00
        -11   -1    0    0    0    0  0.00000000000E+00  0.00000000000E+00  0.45593999997E+02  0.45594000000E+02  0.51100000000E-03 0. -1.
         11   -1    0    0    0    0 -0.00000000000E+00 -0.00000000000E+00 -0.45593999997E+02  0.45594000000E+02  0.51100000000E-03 0.  1.
         23    2    1    2    0    0  0.00000000000E+00  0.35527136788E-14  0.44408920985E-15  0.91188000000E+02  0.91188000000E+02 0.  0.
    9900012    2    3    3    0    0  0.18578448311E+02 -0.31550813911E+02 -0.38946136749E+01  0.54367073670E+02  0.39999976046E+02 0.  0.
        -12    1    3    3    0    0 -0.18578448311E+02  0.31550813911E+02  0.38946136749E+01  0.36820926330E+02  0.00000000000E+00 0.  1.
         11    1    4    4    0    0  0.13167005857E+02 -0.20372977662E+02 -0.58037080244E+01  0.24942158871E+02  0.51100000000E-03 0. -1.
        -11    1    4    4    0    0  0.41948101509E+01 -0.11161634945E+02  0.13361343382E+02  0.17908211080E+02  0.51100000000E-03 0.  1.
         12    1    4    4    0    0  0.12166323028E+01 -0.16201304703E-01 -0.11452249033E+02  0.11516703719E+02  0.00000000000E+00 0. -1.
</event>
<event>
 8    1  0.2402194E-006  0.9118800E+02  0.7816164E-02  0.1184000E+00
        -11   -1    0    0    0    0  0.00000000000E+00  0.00000000000E+00  0.45593999997E+02  0.45594000000E+02  0.51100000000E-03 0. -1.
         11   -1    0    0    0    0 -0.00000000000E+00 -0.00000000000E+00 -0.45593999997E+02  0.45594000000E+02  0.51100000000E-03 0.  1.
         23    2    1    2    0    0  0.00000000000E+00  0.00000000000E+00  0.00000000000E+00  0.91188000000E+02  0.91188000000E+02 0.  0.
    9900012    2    3    3    0    0  0.20633486850E+01 -0.32413929328E+02  0.17345474313E+02  0.54367004611E+02  0.39999818612E+02 0.  0.
        -12    1    3    3    0    0 -0.20633486850E+01  0.32413929328E+02 -0.17345474313E+02  0.36820995389E+02  0.00000000000E+00 0.  1.
         11    1    4    4    0    0 -0.82033580328E+01 -0.50156258924E+01  0.34563057071E+01  0.10217516113E+02  0.51100000000E-03 0. -1.
        -11    1    4    4    0    0  0.22366134400E+01 -0.26488645146E+02 -0.16504368902E+01  0.26634089125E+02  0.51100000000E-03 0.  1.
         12    1    4    4    0    0  0.80300932779E+01 -0.90965828994E+00  0.15539605496E+02  0.17515399374E+02  0.00000000000E+00 0. -1.
</event>
<event>
 8    1  0.2402194E-006  0.9118800E+02  0.7816164E-02  0.1184000E+00
        -11   -1    0    0    0    0  0.00000000000E+00  0.00000000000E+00  0.45593999997E+02  0.45594000000E+02  0.51100000000E-03 0.  1.
         11   -1    0    0    0    0 -0.00000000000E+00 -0.00000000000E+00 -0.45593999997E+02  0.45594000000E+02  0.51100000000E-03 0. -1.
         23    2    1    2    0    0  0.00000000000E+00 -0.44408920985E-15 -0.44408920985E-15  0.91188000000E+02  0.91188000000E+02 0.  0.
    9900012    2    3    3    0    0  0.36729102833E+02 -0.22240546707E+01  0.13438365891E+01  0.54367091390E+02  0.40000016441E+02 0.  0.
         12    1    3    3    0    0 -0.36729102833E+02  0.22240546707E+01 -0.13438365891E+01  0.36820908610E+02  0.00000000000E+00 0. -1.
         11    1    4    4    0    0  0.45018576472E+01  0.60447956513E+01 -0.74048875874E+01  0.10565918663E+02  0.51100000000E-03 0. -1.
        -11    1    4    4    0    0 -0.48777071482E+01  0.88986894963E-01  0.77410475848E+00  0.49395530293E+01  0.51100000000E-03 0.  1.
        -12    1    4    4    0    0  0.37104952334E+02 -0.83578372170E+01  0.79746194180E+01  0.38861619698E+02  0.00000000000E+00 0.  1.
</event>
<event>
 8    1  0.2402194E-006  0.9118800E+02  0.7816164E-02  0.1184000E+00
        -11   -1    0    0    0    0  0.00000000000E+00  0.00000000000E+00  0.45593999997E+02  0.45594000000E+02  0.51100000000E-03 0. -1.
         11   -1    0    0    0    0 -0.00000000000E+00 -0.00000000000E+00 -0.45593999997E+02  0.45594000000E+02  0.51100000000E-03 0.  1.
         23    2    1    2    0    0  0.22204460493E-15  0.00000000000E+00  0.00000000000E+00  0.91188000000E+02  0.91188000000E+02 0.  0.
    9900012    2    3    3    0    0  0.44196631929E+00  0.31238837644E+02 -0.19486362980E+02  0.54367100313E+02  0.40000036783E+02 0.  0.
         12    1    3    3    0    0 -0.44196631929E+00 -0.31238837644E+02  0.19486362980E+02  0.36820899687E+02  0.00000000000E+00 0. -1.
         11    1    4    4    0    0 -0.64924580543E+01  0.52724241974E+01  0.18435203848E+01  0.85644051851E+01  0.51100000000E-03 0. -1.
        -11    1    4    4    0    0  0.24973410364E+01  0.46222142960E+01 -0.23326613361E+02  0.23910927803E+02  0.51100000000E-03 0.  1.
        -12    1    4    4    0    0  0.44370833372E+01  0.21344199151E+02  0.19967299964E+01  0.21891767325E+02  0.00000000000E+00 0.  1.
</event>
<event>
 8    1  0.2402194E-006  0.9118800E+02  0.7816164E-02  0.1184000E+00
        -11   -1    0    0    0    0  0.00000000000E+00  0.00000000000E+00  0.45593999997E+02  0.45594000000E+02  0.51100000000E-03 0. -1.
         11   -1    0    0    0    0 -0.00000000000E+00 -0.00000000000E+00 -0.45593999997E+02  0.45594000000E+02  0.51100000000E-03 0.  1.
         23    2    1    2    0    0  0.35527136788E-14  0.88817841970E-15  0.00000000000E+00  0.91188000000E+02  0.91188000000E+02 0.  0.
    9900012    2    3    3    0    0 -0.28806709527E+02  0.42044499233E+01  0.22544969914E+02  0.54367087717E+02  0.40000008069E+02 0.  0.
        -12    1    3    3    0    0  0.28806709527E+02 -0.42044499233E+01 -0.22544969914E+02  0.36820912283E+02  0.00000000000E+00 0.  1.
         11    1    4    4    0    0  0.25349033961E+01  0.62778528305E+01  0.10171267653E+02  0.12218504709E+02  0.51100000000E-03 0. -1.
        -11    1    4    4    0    0 -0.42417664986E+01 -0.26459296074E+01  0.14127525487E+02  0.14986010248E+02  0.51100000000E-03 0.  1.
        -12    1    4    4    0    0 -0.27099846424E+02  0.57252670023E+00 -0.17538232264E+01  0.27162572760E+02  0.00000000000E+00 0.  1.
</event>
<event>
 8    1  0.2402194E-006  0.9118800E+02  0.7816164E-02  0.1184000E+00
        -11   -1    0    0    0    0  0.00000000000E+00  0.00000000000E+00  0.45593999997E+02  0.45594000000E+02  0.51100000000E-03 0. -1.
         11   -1    0    0    0    0 -0.00000000000E+00 -0.00000000000E+00 -0.45593999997E+02  0.45594000000E+02  0.51100000000E-03 0.  1.
         23    2    1    2    0    0 -0.35527136788E-14 -0.17763568394E-14  0.00000000000E+00  0.91188000000E+02  0.91188000000E+02 0.  0.
    9900012    2    3    3    0    0 -0.30384960800E+02 -0.12058290704E+02  0.16945015910E+02  0.54367057838E+02  0.39999939953E+02 0.  0.
        -12    1    3    3    0    0  0.30384960800E+02  0.12058290704E+02 -0.16945015910E+02  0.36820942162E+02  0.00000000000E+00 0.  1.
         11    1    4    4    0    0 -0.95683384527E+01 -0.92073120825E+01  0.98226502268E+00  0.13315124534E+02  0.51100000000E-03 0. -1.
        -11    1    4    4    0    0 -0.84971515968E+01  0.14146945824E+02  0.97114643251E+01  0.19148112205E+02  0.51100000000E-03 0.  1.
        -12    1    4    4    0    0 -0.12319470750E+02 -0.16997924446E+02  0.62512865627E+01  0.21903821099E+02  0.00000000000E+00 0.  1.
</event>
<event>
 8    1  0.2402194E-006  0.9118800E+02  0.7816164E-02  0.1184000E+00
        -11   -1    0    0    0    0  0.00000000000E+00  0.00000000000E+00  0.45593999997E+02  0.45594000000E+02  0.51100000000E-03 0.  1.
         11   -1    0    0    0    0 -0.00000000000E+00 -0.00000000000E+00 -0.45593999997E+02  0.45594000000E+02  0.51100000000E-03 0. -1.
         23    2    1    2    0    0  0.71054273576E-14 -0.88817841970E-15  0.17763568394E-14  0.91188000000E+02  0.91188000000E+02 0.  0.
    9900012    2    3    3    0    0  0.33064896979E+02  0.79473447401E+01  0.14118462885E+02  0.54367099754E+02  0.40000035510E+02 0.  0.
         12    1    3    3    0    0 -0.33064896979E+02 -0.79473447401E+01 -0.14118462885E+02  0.36820900246E+02  0.00000000000E+00 0. -1.
         11    1    4    4    0    0  0.28946314281E+01 -0.11549144580E+02 -0.11455269626E+01  0.11961348750E+02  0.51100000000E-03 0. -1.
        -11    1    4    4    0    0  0.14240603922E+02  0.10541122388E+00  0.77320324607E+01  0.16204636307E+02  0.51100000000E-03 0.  1.
         12    1    4    4    0    0  0.15929661629E+02  0.19391078096E+02  0.75319573873E+01  0.26201114698E+02  0.00000000000E+00 0. -1.
</event>
<event>
 8    1  0.2402194E-006  0.9118800E+02  0.7816164E-02  0.1184000E+00
        -11   -1    0    0    0    0  0.00000000000E+00  0.00000000000E+00  0.45593999997E+02  0.45594000000E+02  0.51100000000E-03 0.  1.
         11   -1    0    0    0    0 -0.00000000000E+00 -0.00000000000E+00 -0.45593999997E+02  0.45594000000E+02  0.51100000000E-03 0. -1.
         23    2    1    2    0    0  0.00000000000E+00  0.17763568394E-14 -0.35527136788E-14  0.91188000000E+02  0.91188000000E+02 0.  0.
    9900012    2    3    3    0    0 -0.13956353212E+02  0.11798919570E+02 -0.31965384759E+02  0.54367080392E+02  0.39999991370E+02 0.  0.
        -12    1    3    3    0    0  0.13956353212E+02 -0.11798919570E+02  0.31965384759E+02  0.36820919608E+02  0.00000000000E+00 0.  1.
         11    1    4    4    0    0 -0.94577225597E+01  0.21283556646E+02 -0.15007335220E+02  0.27706649205E+02  0.51100000000E-03 0. -1.
        -11    1    4    4    0    0  0.10424518027E+01  0.40803617621E+01  0.48791068431E-01  0.42117025892E+01  0.51100000000E-03 0.  1.
         12    1    4    4    0    0 -0.55410824546E+01 -0.13564998838E+02 -0.17006840607E+02  0.22448728598E+02  0.00000000000E+00 0. -1.
</event>
<event>
 8    1  0.2402194E-006  0.9118800E+02  0.7816164E-02  0.1184000E+00
        -11   -1    0    0    0    0  0.00000000000E+00  0.00000000000E+00  0.45593999997E+02  0.45594000000E+02  0.51100000000E-03 0. -1.
         11   -1    0    0    0    0 -0.00000000000E+00 -0.00000000000E+00 -0.45593999997E+02  0.45594000000E+02  0.51100000000E-03 0.  1.
         23    2    1    2    0    0  0.88817841970E-15  0.17763568394E-14  0.00000000000E+00  0.91188000000E+02  0.91188000000E+02 0.  0.
    9900012    2    3    3    0    0 -0.21097577024E+01  0.13735448763E+02 -0.34097890765E+02  0.54367084953E+02  0.40000001768E+02 0.  0.
         12    1    3    3    0    0  0.21097577024E+01 -0.13735448763E+02  0.34097890765E+02  0.36820915047E+02  0.00000000000E+00 0. -1.
         11    1    4    4    0    0  0.12044360373E+02  0.66588995646E+01 -0.47715866692E+01  0.14566248652E+02  0.51100000000E-03 0. -1.
        -11    1    4    4    0    0 -0.25629050276E+01 -0.77054884725E+01 -0.91432773657E+01  0.12228759382E+02  0.51100000000E-03 0.  1.
         12    1    4    4    0    0 -0.11591213048E+02  0.14782037671E+02 -0.20183026730E+02  0.27572076918E+02  0.00000000000E+00 0. -1.
</event>
<event>
 8    1  0.2402194E-006  0.9118800E+02  0.7816164E-02  0.1184000E+00
        -11   -1    0    0    0    0  0.00000000000E+00  0.00000000000E+00  0.45593999997E+02  0.45594000000E+02  0.51100000000E-03 0. -1.
         11   -1    0    0    0    0 -0.00000000000E+00 -0.00000000000E+00 -0.45593999997E+02  0.45594000000E+02  0.51100000000E-03 0.  1.
         23    2    1    2    0    0 -0.17763568394E-14 -0.35527136788E-14  0.00000000000E+00  0.91188000000E+02  0.91188000000E+02 0.  0.
    9900012    2    3    3    0    0 -0.15401821603E+01  0.18278076526E+02  0.31926784631E+02  0.54367084484E+02  0.40000000698E+02 0.  0.
        -12    1    3    3    0    0  0.15401821603E+01 -0.18278076526E+02 -0.31926784631E+02  0.36820915516E+02  0.00000000000E+00 0.  1.
         11    1    4    4    0    0  0.15462135488E+02  0.19601616457E+02  0.19415690514E+02  0.31627046021E+02  0.51100000000E-03 0. -1.
        -11    1    4    4    0    0 -0.15030227636E+02 -0.52897261573E+00  0.13665456900E+02  0.20320734912E+02  0.51100000000E-03 0.  1.
        -12    1    4    4    0    0 -0.19720900130E+01 -0.79456731505E+00 -0.11543627838E+01  0.24193035515E+01  0.00000000000E+00 0.  1.
</event>
<event>
 8    1  0.2402194E-006  0.9118800E+02  0.7816164E-02  0.1184000E+00
        -11   -1    0    0    0    0  0.00000000000E+00  0.00000000000E+00  0.45593999997E+02  0.45594000000E+02  0.51100000000E-03 0.  1.
         11   -1    0    0    0    0 -0.00000000000E+00 -0.00000000000E+00 -0.45593999997E+02  0.45594000000E+02  0.51100000000E-03 0. -1.
         23    2    1    2    0    0  0.00000000000E+00  0.00000000000E+00  0.00000000000E+00  0.91188000000E+02  0.91188000000E+02 0.  0.
    9900012    2    3    3    0    0  0.31999473308E+02 -0.42729576502E+01 -0.17707603545E+02  0.54367032029E+02  0.39999881116E+02 0.  0.
        -12    1    3    3    0    0 -0.31999473308E+02  0.42729576502E+01  0.17707603545E+02  0.36820967971E+02  0.00000000000E+00 0.  1.
         11    1    4    4    0    0  0.36794201363E+02 -0.10790773424E+01 -0.22356928039E+02  0.43067503915E+02  0.51100000000E-03 0. -1.
        -11    1    4    4    0    0 -0.47625200935E+01 -0.77965506041E+00  0.66134992173E+01  0.81870526939E+01  0.51100000000E-03 0.  1.
         12    1    4    4    0    0 -0.32207961790E-01 -0.24142252473E+01 -0.19641747226E+01  0.31124754198E+01  0.00000000000E+00 0. -1.
</event>
<event>
 8    1  0.2402194E-006  0.9118800E+02  0.7816164E-02  0.1184000E+00
        -11   -1    0    0    0    0  0.00000000000E+00  0.00000000000E+00  0.45593999997E+02  0.45594000000E+02  0.51100000000E-03 0.  1.
         11   -1    0    0    0    0 -0.00000000000E+00 -0.00000000000E+00 -0.45593999997E+02  0.45594000000E+02  0.51100000000E-03 0. -1.
         23    2    1    2    0    0 -0.35527136788E-14  0.00000000000E+00  0.00000000000E+00  0.91188000000E+02  0.91188000000E+02 0.  0.
    9900012    2    3    3    0    0 -0.28248985684E+02  0.97262653032E+01 -0.21521333531E+02  0.54367174020E+02  0.40000204812E+02 0.  0.
        -12    1    3    3    0    0  0.28248985684E+02 -0.97262653032E+01  0.21521333531E+02  0.36820825980E+02  0.00000000000E+00 0.  1.
         11    1    4    4    0    0 -0.10076388107E+02 -0.23616023905E+01 -0.13799148118E+02  0.17248978294E+02  0.51100000000E-03 0. -1.
        -11    1    4    4    0    0 -0.25460384604E+02  0.48537225972E+01 -0.68719643026E+01  0.26814430833E+02  0.51100000000E-03 0.  1.
         12    1    4    4    0    0  0.72877870271E+01  0.72341450965E+01 -0.85022110949E+00  0.10303764893E+02  0.00000000000E+00 0. -1.
</event>
<event>
 8    1  0.2402194E-006  0.9118800E+02  0.7816164E-02  0.1184000E+00
        -11   -1    0    0    0    0  0.00000000000E+00  0.00000000000E+00  0.45593999997E+02  0.45594000000E+02  0.51100000000E-03 0. -1.
         11   -1    0    0    0    0 -0.00000000000E+00 -0.00000000000E+00 -0.45593999997E+02  0.45594000000E+02  0.51100000000E-03 0.  1.
         23    2    1    2    0    0  0.00000000000E+00  0.00000000000E+00  0.55511151231E-15  0.91188000000E+02  0.91188000000E+02 0.  0.
    9900012    2    3    3    0    0  0.17734186926E+02  0.32260684252E+02  0.72763871798E+00  0.54367046829E+02  0.39999914856E+02 0.  0.
        -12    1    3    3    0    0 -0.17734186926E+02 -0.32260684252E+02 -0.72763871798E+00  0.36820953171E+02  0.00000000000E+00 0.  1.
         11    1    4    4    0    0 -0.26232396385E+01  0.17848582123E+02  0.90141895569E+01  0.20167024660E+02  0.51100000000E-03 0. -1.
        -11    1    4    4    0    0  0.38271480453E+01 -0.14505525322E+01 -0.10415890103E+02  0.11191154172E+02  0.51100000000E-03 0.  1.
        -12    1    4    4    0    0  0.16530278519E+02  0.15862654661E+02  0.21293392641E+01  0.23008867997E+02  0.00000000000E+00 0.  1.
</event>
<event>
 8    1  0.2402194E-006  0.9118800E+02  0.7816164E-02  0.1184000E+00
        -11   -1    0    0    0    0  0.00000000000E+00  0.00000000000E+00  0.45593999997E+02  0.45594000000E+02  0.51100000000E-03 0. -1.
         11   -1    0    0    0    0 -0.00000000000E+00 -0.00000000000E+00 -0.45593999997E+02  0.45594000000E+02  0.51100000000E-03 0.  1.
         23    2    1    2    0    0  0.00000000000E+00  0.00000000000E+00  0.00000000000E+00  0.91188000000E+02  0.91188000000E+02 0.  0.
    9900012    2    3    3    0    0  0.14149170667E+02  0.24135355787E+02  0.23938806308E+02  0.54367070124E+02  0.39999967961E+02 0.  0.
        -12    1    3    3    0    0 -0.14149170667E+02 -0.24135355787E+02 -0.23938806308E+02  0.36820929876E+02  0.00000000000E+00 0.  1.
         11    1    4    4    0    0  0.57485654182E+01  0.19683791303E+02 -0.17358440708E+01  0.20579378012E+02  0.51100000000E-03 0. -1.
        -11    1    4    4    0    0 -0.24705298844E+01 -0.61814959237E+01  0.93498165072E+01  0.11477520583E+02  0.51100000000E-03 0.  1.
         12    1    4    4    0    0  0.10871135133E+02  0.10633060407E+02  0.16324833872E+02  0.22310171529E+02  0.00000000000E+00 0. -1.
</event>
<event>
 8    1  0.2402194E-006  0.9118800E+02  0.7816164E-02  0.1184000E+00
        -11   -1    0    0    0    0  0.00000000000E+00  0.00000000000E+00  0.45593999997E+02  0.45594000000E+02  0.51100000000E-03 0.  1.
         11   -1    0    0    0    0 -0.00000000000E+00 -0.00000000000E+00 -0.45593999997E+02  0.45594000000E+02  0.51100000000E-03 0. -1.
         23    2    1    2    0    0 -0.17763568394E-14 -0.17763568394E-14  0.00000000000E+00  0.91188000000E+02  0.91188000000E+02 0.  0.
    9900012    2    3    3    0    0  0.13751754667E+02  0.83729403883E+01  0.33114391113E+02  0.54367084939E+02  0.40000001735E+02 0.  0.
         12    1    3    3    0    0 -0.13751754667E+02 -0.83729403883E+01 -0.33114391113E+02  0.36820915061E+02  0.00000000000E+00 0. -1.
         11    1    4    4    0    0  0.11893527502E+02  0.42016193025E+00  0.14964173460E+02  0.19119597802E+02  0.51100000000E-03 0.  1.
        -11    1    4    4    0    0 -0.55558730949E+01 -0.93065047354E+01  0.33859463126E+01  0.11355324255E+02  0.51100000000E-03 0. -1.
         12    1    4    4    0    0  0.74141002604E+01  0.17259283193E+02  0.14764271340E+02  0.23892162883E+02  0.00000000000E+00 0. -1.
</event>
<event>
 8    1  0.2402194E-006  0.9118800E+02  0.7816164E-02  0.1184000E+00
        -11   -1    0    0    0    0  0.00000000000E+00  0.00000000000E+00  0.45593999997E+02  0.45594000000E+02  0.51100000000E-03 0. -1.
         11   -1    0    0    0    0 -0.00000000000E+00 -0.00000000000E+00 -0.45593999997E+02  0.45594000000E+02  0.51100000000E-03 0.  1.
         23    2    1    2    0    0  0.00000000000E+00  0.35527136788E-14  0.00000000000E+00  0.91188000000E+02  0.91188000000E+02 0.  0.
    9900012    2    3    3    0    0 -0.25613211538E+02 -0.21031071910E+02  0.16044853330E+02  0.54367083263E+02  0.39999997915E+02 0.  0.
        -12    1    3    3    0    0  0.25613211538E+02  0.21031071910E+02 -0.16044853330E+02  0.36820916737E+02  0.00000000000E+00 0.  1.
         11    1    4    4    0    0  0.46103224497E+01 -0.54897582657E+01  0.69367214399E+00  0.72023399122E+01  0.51100000000E-03 0. -1.
        -11    1    4    4    0    0 -0.28920765580E+02 -0.22961822684E+02  0.11341095253E+02  0.38629993846E+02  0.51100000000E-03 0.  1.
        -12    1    4    4    0    0 -0.13027684077E+01  0.74205090397E+01  0.40100859326E+01  0.85347495053E+01  0.00000000000E+00 0.  1.
</event>
<event>
 8    1  0.2402194E-006  0.9118800E+02  0.7816164E-02  0.1184000E+00
        -11   -1    0    0    0    0  0.00000000000E+00  0.00000000000E+00  0.45593999997E+02  0.45594000000E+02  0.51100000000E-03 0. -1.
         11   -1    0    0    0    0 -0.00000000000E+00 -0.00000000000E+00 -0.45593999997E+02  0.45594000000E+02  0.51100000000E-03 0.  1.
         23    2    1    2    0    0  0.00000000000E+00  0.00000000000E+00  0.35527136788E-14  0.91188000000E+02  0.91188000000E+02 0.  0.
    9900012    2    3    3    0    0 -0.11766379322E+02  0.23659935186E+02 -0.25642575763E+02  0.54367056135E+02  0.39999936070E+02 0.  0.
        -12    1    3    3    0    0  0.11766379322E+02 -0.23659935186E+02  0.25642575763E+02  0.36820943865E+02  0.00000000000E+00 0.  1.
         11    1    4    4    0    0 -0.10899066756E+02 -0.62596604520E+00  0.12202155767E+01  0.10985008691E+02  0.51100000000E-03 0. -1.
        -11    1    4    4    0    0  0.10238504205E+01 -0.47809010402E+01 -0.46874161936E+01  0.67732676954E+01  0.51100000000E-03 0.  1.
         12    1    4    4    0    0 -0.18911629864E+01  0.29066802272E+02 -0.22175375146E+02  0.36608779748E+02  0.00000000000E+00 0. -1.
</event>
<event>
 8    1  0.2402194E-006  0.9118800E+02  0.7816164E-02  0.1184000E+00
        -11   -1    0    0    0    0  0.00000000000E+00  0.00000000000E+00  0.45593999997E+02  0.45594000000E+02  0.51100000000E-03 0.  1.
         11   -1    0    0    0    0 -0.00000000000E+00 -0.00000000000E+00 -0.45593999997E+02  0.45594000000E+02  0.51100000000E-03 0. -1.
         23    2    1    2    0    0  0.00000000000E+00  0.00000000000E+00 -0.17763568394E-14  0.91188000000E+02  0.91188000000E+02 0.  0.
    9900012    2    3    3    0    0  0.31192311251E+02  0.14293968214E+02 -0.13360502648E+02  0.54367070632E+02  0.39999969120E+02 0.  0.
         12    1    3    3    0    0 -0.31192311251E+02 -0.14293968214E+02  0.13360502648E+02  0.36820929368E+02  0.00000000000E+00 0. -1.
         11    1    4    4    0    0  0.15355521499E+02  0.19986073416E+02  0.14211073859E+01  0.25243904563E+02  0.51100000000E-03 0. -1.
        -11    1    4    4    0    0 -0.34794040076E+01  0.14257827484E+01  0.33675829413E-01  0.37603514485E+01  0.51100000000E-03 0.  1.
         12    1    4    4    0    0  0.19316193760E+02 -0.71178879506E+01 -0.14815285864E+02  0.25362814621E+02  0.00000000000E+00 0. -1.
</event>
<event>
 8    1  0.2402194E-006  0.9118800E+02  0.7816164E-02  0.1184000E+00
        -11   -1    0    0    0    0  0.00000000000E+00  0.00000000000E+00  0.45593999997E+02  0.45594000000E+02  0.51100000000E-03 0. -1.
         11   -1    0    0    0    0 -0.00000000000E+00 -0.00000000000E+00 -0.45593999997E+02  0.45594000000E+02  0.51100000000E-03 0.  1.
         23    2    1    2    0    0 -0.71054273576E-14  0.88817841970E-15 -0.35527136788E-14  0.91188000000E+02  0.91188000000E+02 0.  0.
    9900012    2    3    3    0    0 -0.34201847843E+02  0.20282424824E+01 -0.13487019887E+02  0.54367083813E+02  0.39999999167E+02 0.  0.
        -12    1    3    3    0    0  0.34201847843E+02 -0.20282424824E+01  0.13487019887E+02  0.36820916187E+02  0.00000000000E+00 0.  1.
         11    1    4    4    0    0 -0.22172633312E+02 -0.27256574571E+01  0.36544262433E+01  0.22636468541E+02  0.51100000000E-03 0. -1.
        -11    1    4    4    0    0 -0.15349704561E+02  0.34103179722E+01 -0.21150114921E+02  0.26354716090E+02  0.51100000000E-03 0.  1.
         12    1    4    4    0    0  0.33204900298E+01  0.13435819673E+01  0.40086687903E+01  0.53758991816E+01  0.00000000000E+00 0. -1.
</event>
<event>
 8    1  0.2402194E-006  0.9118800E+02  0.7816164E-02  0.1184000E+00
        -11   -1    0    0    0    0  0.00000000000E+00  0.00000000000E+00  0.45593999997E+02  0.45594000000E+02  0.51100000000E-03 0.  1.
         11   -1    0    0    0    0 -0.00000000000E+00 -0.00000000000E+00 -0.45593999997E+02  0.45594000000E+02  0.51100000000E-03 0. -1.
         23    2    1    2    0    0  0.00000000000E+00  0.00000000000E+00  0.35527136788E-14  0.91188000000E+02  0.91188000000E+02 0.  0.
    9900012    2    3    3    0    0  0.27857796640E+02 -0.95476212776E+01 -0.22103521975E+02  0.54367087608E+02  0.40000007820E+02 0.  0.
        -12    1    3    3    0    0 -0.27857796640E+02  0.95476212776E+01  0.22103521975E+02  0.36820912392E+02  0.00000000000E+00 0.  1.
         11    1    4    4    0    0  0.96951665299E+01 -0.65475368229E+01  0.95872285326E+01  0.15125522923E+02  0.51100000000E-03 0. -1.
        -11    1    4    4    0    0 -0.13121157725E+01 -0.41243694007E-01  0.57895579288E+00  0.14347609257E+01  0.51100000000E-03 0.  1.
         12    1    4    4    0    0  0.19474745882E+02 -0.29588407607E+01 -0.32269706300E+02  0.37806803760E+02  0.00000000000E+00 0. -1.
</event>
<event>
 8    1  0.2402194E-006  0.9118800E+02  0.7816164E-02  0.1184000E+00
        -11   -1    0    0    0    0  0.00000000000E+00  0.00000000000E+00  0.45593999997E+02  0.45594000000E+02  0.51100000000E-03 0. -1.
         11   -1    0    0    0    0 -0.00000000000E+00 -0.00000000000E+00 -0.45593999997E+02  0.45594000000E+02  0.51100000000E-03 0.  1.
         23    2    1    2    0    0  0.00000000000E+00 -0.88817841970E-15 -0.71054273576E-14  0.91188000000E+02  0.91188000000E+02 0.  0.
    9900012    2    3    3    0    0 -0.39184975226E+01  0.53500652614E+01  0.36218806210E+02  0.54367085503E+02  0.40000003021E+02 0.  0.
        -12    1    3    3    0    0  0.39184975226E+01 -0.53500652614E+01 -0.36218806210E+02  0.36820914497E+02  0.00000000000E+00 0.  1.
         11    1    4    4    0    0  0.29604235040E+01 -0.54572932880E+00  0.10205845393E+02  0.10640545487E+02  0.51100000000E-03 0. -1.
        -11    1    4    4    0    0  0.86341641510E+01  0.12612353795E+02  0.36876638458E+01  0.15723203355E+02  0.51100000000E-03 0.  1.
         12    1    4    4    0    0 -0.15513085178E+02 -0.67165592051E+01  0.22325296971E+02  0.28003336661E+02  0.00000000000E+00 0. -1.
</event>
<event>
 8    1  0.2402194E-006  0.9118800E+02  0.7816164E-02  0.1184000E+00
        -11   -1    0    0    0    0  0.00000000000E+00  0.00000000000E+00  0.45593999997E+02  0.45594000000E+02  0.51100000000E-03 0. -1.
         11   -1    0    0    0    0 -0.00000000000E+00 -0.00000000000E+00 -0.45593999997E+02  0.45594000000E+02  0.51100000000E-03 0.  1.
         23    2    1    2    0    0  0.00000000000E+00  0.00000000000E+00  0.00000000000E+00  0.91188000000E+02  0.91188000000E+02 0.  0.
    9900012    2    3    3    0    0 -0.23352206112E+02 -0.18142080390E+02  0.21938959296E+02  0.54367101774E+02  0.40000040114E+02 0.  0.
        -12    1    3    3    0    0  0.23352206112E+02  0.18142080390E+02 -0.21938959296E+02  0.36820898226E+02  0.00000000000E+00 0.  1.
         11    1    4    4    0    0 -0.54572586049E+01  0.27904533486E+01 -0.18182353922E+01  0.63932997407E+01  0.51100000000E-03 0. -1.
        -11    1    4    4    0    0  0.51478066596E+01  0.35736706286E+01  0.96301895101E+01  0.11489629473E+02  0.51100000000E-03 0.  1.
         12    1    4    4    0    0 -0.23042754167E+02 -0.24506204368E+02  0.14127005178E+02  0.36484172560E+02  0.00000000000E+00 0. -1.
</event>
<event>
 8    1  0.2402194E-006  0.9118800E+02  0.7816164E-02  0.1184000E+00
        -11   -1    0    0    0    0  0.00000000000E+00  0.00000000000E+00  0.45593999997E+02  0.45594000000E+02  0.51100000000E-03 0. -1.
         11   -1    0    0    0    0 -0.00000000000E+00 -0.00000000000E+00 -0.45593999997E+02  0.45594000000E+02  0.51100000000E-03 0.  1.
         23    2    1    2    0    0  0.35527136788E-14  0.35527136788E-14  0.35527136788E-14  0.91188000000E+02  0.91188000000E+02 0.  0.
    9900012    2    3    3    0    0 -0.16884340748E+02 -0.22869432184E+02 -0.23402700061E+02  0.54367105646E+02  0.40000048940E+02 0.  0.
         12    1    3    3    0    0  0.16884340748E+02  0.22869432184E+02  0.23402700061E+02  0.36820894354E+02  0.00000000000E+00 0. -1.
         11    1    4    4    0    0 -0.57065791613E+01 -0.16729287210E+02 -0.21664602580E+02  0.27960491797E+02  0.51100000000E-03 0. -1.
        -11    1    4    4    0    0 -0.15870194538E+02 -0.11042093612E+02 -0.28093156002E+01  0.19536713143E+02  0.51100000000E-03 0.  1.
         12    1    4    4    0    0  0.46924329520E+01  0.49019486382E+01  0.10712181188E+01  0.68699007066E+01  0.00000000000E+00 0. -1.
</event>
<event>
 8    1  0.2402194E-006  0.9118800E+02  0.7816164E-02  0.1184000E+00
        -11   -1    0    0    0    0  0.00000000000E+00  0.00000000000E+00  0.45593999997E+02  0.45594000000E+02  0.51100000000E-03 0.  1.
         11   -1    0    0    0    0 -0.00000000000E+00 -0.00000000000E+00 -0.45593999997E+02  0.45594000000E+02  0.51100000000E-03 0. -1.
         23    2    1    2    0    0  0.44408920985E-14  0.00000000000E+00  0.00000000000E+00  0.91188000000E+02  0.91188000000E+02 0.  0.
    9900012    2    3    3    0    0  0.78228478259E+01  0.34277324502E+02  0.10938375661E+02  0.54367082233E+02  0.39999995566E+02 0.  0.
         12    1    3    3    0    0 -0.78228478259E+01 -0.34277324502E+02 -0.10938375661E+02  0.36820917767E+02  0.00000000000E+00 0. -1.
         11    1    4    4    0    0 -0.28390773379E+01  0.14856535755E+02 -0.52995770301E+01  0.16026931451E+02  0.51100000000E-03 0. -1.
        -11    1    4    4    0    0 -0.78610816822E+01  0.87786735686E+01  0.11485616788E+02  0.16455427922E+02  0.51100000000E-03 0.  1.
        -12    1    4    4    0    0  0.18523006846E+02  0.10642115179E+02  0.47523359023E+01  0.21884722859E+02  0.00000000000E+00 0.  1.
</event>
<event>
 8    1  0.2402194E-006  0.9118800E+02  0.7816164E-02  0.1184000E+00
        -11   -1    0    0    0    0  0.00000000000E+00  0.00000000000E+00  0.45593999997E+02  0.45594000000E+02  0.51100000000E-03 0.  1.
         11   -1    0    0    0    0 -0.00000000000E+00 -0.00000000000E+00 -0.45593999997E+02  0.45594000000E+02  0.51100000000E-03 0. -1.
         23    2    1    2    0    0 -0.17763568394E-14  0.35527136788E-14  0.00000000000E+00  0.91188000000E+02  0.91188000000E+02 0.  0.
    9900012    2    3    3    0    0  0.14398437994E+02  0.28349073140E+02  0.18568229597E+02  0.54367297739E+02  0.40000486853E+02 0.  0.
         12    1    3    3    0    0 -0.14398437994E+02 -0.28349073140E+02 -0.18568229597E+02  0.36820702261E+02  0.00000000000E+00 0. -1.
         11    1    4    4    0    0 -0.60159513924E-01 -0.82815240633E+00 -0.32957003940E+01  0.33986904719E+01  0.51100000000E-03 0. -1.
        -11    1    4    4    0    0  0.88066864181E+01  0.19037595668E+02 -0.51216656492E+01  0.21592110452E+02  0.51100000000E-03 0.  1.
        -12    1    4    4    0    0  0.56519110903E+01  0.10139629879E+02  0.26985595641E+02  0.29376496815E+02  0.00000000000E+00 0.  1.
</event>
<event>
 8    1  0.2402194E-006  0.9118800E+02  0.7816164E-02  0.1184000E+00
        -11   -1    0    0    0    0  0.00000000000E+00  0.00000000000E+00  0.45593999997E+02  0.45594000000E+02  0.51100000000E-03 0. -1.
         11   -1    0    0    0    0 -0.00000000000E+00 -0.00000000000E+00 -0.45593999997E+02  0.45594000000E+02  0.51100000000E-03 0.  1.
         23    2    1    2    0    0  0.00000000000E+00  0.71054273576E-14  0.66613381478E-15  0.91188000000E+02  0.91188000000E+02 0.  0.
    9900012    2    3    3    0    0 -0.22252506601E+02  0.29293308268E+02 -0.15834944038E+01  0.54367089992E+02  0.40000013254E+02 0.  0.
        -12    1    3    3    0    0  0.22252506601E+02 -0.29293308268E+02  0.15834944038E+01  0.36820910008E+02  0.00000000000E+00 0.  1.
         11    1    4    4    0    0 -0.65990920763E+01  0.18722035298E+02 -0.45655480637E+00  0.19856260083E+02  0.51100000000E-03 0. -1.
        -11    1    4    4    0    0 -0.40650996583E+01 -0.87181397608E+01  0.54639325974E+01  0.11062800541E+02  0.51100000000E-03 0.  1.
        -12    1    4    4    0    0 -0.11588314866E+02  0.19289412731E+02 -0.65908721949E+01  0.23448029368E+02  0.00000000000E+00 0.  1.
</event>
<event>
 8    1  0.2402194E-006  0.9118800E+02  0.7816164E-02  0.1184000E+00
        -11   -1    0    0    0    0  0.00000000000E+00  0.00000000000E+00  0.45593999997E+02  0.45594000000E+02  0.51100000000E-03 0.  1.
         11   -1    0    0    0    0 -0.00000000000E+00 -0.00000000000E+00 -0.45593999997E+02  0.45594000000E+02  0.51100000000E-03 0. -1.
         23    2    1    2    0    0 -0.35527136788E-14 -0.35527136788E-14 -0.88817841970E-15  0.91188000000E+02  0.91188000000E+02 0.  0.
    9900012    2    3    3    0    0  0.26902793812E+02 -0.24911642045E+02 -0.33808135558E+01  0.54367080341E+02  0.39999991252E+02 0.  0.
        -12    1    3    3    0    0 -0.26902793812E+02  0.24911642045E+02  0.33808135558E+01  0.36820919659E+02  0.00000000000E+00 0.  1.
         11    1    4    4    0    0  0.13429992492E+02 -0.16994539000E+02 -0.16576392467E+02  0.27275553920E+02  0.51100000000E-03 0. -1.
        -11    1    4    4    0    0  0.94177631167E+01  0.16258665197E+01  0.13707319087E+02  0.16710125699E+02  0.51100000000E-03 0.  1.
        -12    1    4    4    0    0  0.40550382037E+01 -0.95429695642E+01 -0.51174017533E+00  0.10381400722E+02  0.00000000000E+00 0.  1.
</event>
<event>
 8    1  0.2402194E-006  0.9118800E+02  0.7816164E-02  0.1184000E+00
        -11   -1    0    0    0    0  0.00000000000E+00  0.00000000000E+00  0.45593999997E+02  0.45594000000E+02  0.51100000000E-03 0.  1.
         11   -1    0    0    0    0 -0.00000000000E+00 -0.00000000000E+00 -0.45593999997E+02  0.45594000000E+02  0.51100000000E-03 0. -1.
         23    2    1    2    0    0 -0.13322676296E-14  0.00000000000E+00  0.22204460493E-14  0.91188000000E+02  0.91188000000E+02 0.  0.
    9900012    2    3    3    0    0  0.28753710133E+01  0.36706449304E+02  0.38511068360E+00  0.54367088968E+02  0.40000010921E+02 0.  0.
        -12    1    3    3    0    0 -0.28753710133E+01 -0.36706449304E+02 -0.38511068360E+00  0.36820911032E+02  0.00000000000E+00 0.  1.
         11    1    4    4    0    0 -0.13231514609E+02  0.81148424620E+01  0.16677525775E+01  0.15611055248E+02  0.51100000000E-03 0. -1.
        -11    1    4    4    0    0  0.84255192204E+01  0.13154613754E+02 -0.10866254126E+02  0.19029154373E+02  0.51100000000E-03 0.  1.
        -12    1    4    4    0    0  0.76813664022E+01  0.15436993088E+02  0.95836122317E+01  0.19726879348E+02  0.00000000000E+00 0.  1.
</event>
<event>
 8    1  0.2402194E-006  0.9118800E+02  0.7816164E-02  0.1184000E+00
        -11   -1    0    0    0    0  0.00000000000E+00  0.00000000000E+00  0.45593999997E+02  0.45594000000E+02  0.51100000000E-03 0. -1.
         11   -1    0    0    0    0 -0.00000000000E+00 -0.00000000000E+00 -0.45593999997E+02  0.45594000000E+02  0.51100000000E-03 0.  1.
         23    2    1    2    0    0  0.00000000000E+00  0.00000000000E+00  0.00000000000E+00  0.91188000000E+02  0.91188000000E+02 0.  0.
    9900012    2    3    3    0    0 -0.26352038396E+02 -0.16634302895E+02 -0.19612499161E+02  0.54367080895E+02  0.39999992516E+02 0.  0.
         12    1    3    3    0    0  0.26352038396E+02  0.16634302895E+02  0.19612499161E+02  0.36820919105E+02  0.00000000000E+00 0. -1.
         11    1    4    4    0    0  0.20874988653E+00 -0.83327900179E+00  0.42883141087E+01  0.43735075816E+01  0.51100000000E-03 0. -1.
        -11    1    4    4    0    0 -0.29479510512E+02 -0.12835908027E+02 -0.74229089607E+01  0.32998509854E+02  0.51100000000E-03 0.  1.
        -12    1    4    4    0    0  0.29187222298E+01 -0.29651158665E+01 -0.16477904309E+02  0.16995063459E+02  0.00000000000E+00 0.  1.
</event>
<event>
 8    1  0.2402194E-006  0.9118800E+02  0.7816164E-02  0.1184000E+00
        -11   -1    0    0    0    0  0.00000000000E+00  0.00000000000E+00  0.45593999997E+02  0.45594000000E+02  0.51100000000E-03 0. -1.
         11   -1    0    0    0    0 -0.00000000000E+00 -0.00000000000E+00 -0.45593999997E+02  0.45594000000E+02  0.51100000000E-03 0.  1.
         23    2    1    2    0    0  0.00000000000E+00  0.71054273576E-14  0.88817841970E-15  0.91188000000E+02  0.91188000000E+02 0.  0.
    9900012    2    3    3    0    0  0.16770633999E+02 -0.32203115425E+02 -0.61211406252E+01  0.54367310567E+02  0.40000516096E+02 0.  0.
         12    1    3    3    0    0 -0.16770633999E+02  0.32203115425E+02  0.61211406252E+01  0.36820689433E+02  0.00000000000E+00 0. -1.
         11    1    4    4    0    0  0.10589652322E+02 -0.18029857756E+02 -0.24210811536E+01  0.21049421399E+02  0.51100000000E-03 0.  1.
        -11    1    4    4    0    0  0.34992532420E+01 -0.96992359767E+01  0.12554960222E+02  0.16246445095E+02  0.51100000000E-03 0. -1.
         12    1    4    4    0    0  0.26817284349E+01 -0.44740216917E+01 -0.16255019694E+02  0.17071444073E+02  0.00000000000E+00 0. -1.
</event>
<event>
 8    1  0.2402194E-006  0.9118800E+02  0.7816164E-02  0.1184000E+00
        -11   -1    0    0    0    0  0.00000000000E+00  0.00000000000E+00  0.45593999997E+02  0.45594000000E+02  0.51100000000E-03 0. -1.
         11   -1    0    0    0    0 -0.00000000000E+00 -0.00000000000E+00 -0.45593999997E+02  0.45594000000E+02  0.51100000000E-03 0.  1.
         23    2    1    2    0    0  0.00000000000E+00  0.35527136788E-14  0.00000000000E+00  0.91188000000E+02  0.91188000000E+02 0.  0.
    9900012    2    3    3    0    0 -0.57515820718E+01 -0.30960283445E+02  0.19082966001E+02  0.54367089654E+02  0.40000012484E+02 0.  0.
        -12    1    3    3    0    0  0.57515820718E+01  0.30960283445E+02 -0.19082966001E+02  0.36820910346E+02  0.00000000000E+00 0.  1.
         11    1    4    4    0    0  0.51577776171E+00 -0.85836063081E+01  0.91587759074E+01  0.12562941548E+02  0.51100000000E-03 0. -1.
        -11    1    4    4    0    0  0.62126203367E+01 -0.25784125439E+02  0.19200645297E+01  0.26591435165E+02  0.51100000000E-03 0.  1.
         12    1    4    4    0    0 -0.12479980170E+02  0.34074483021E+01  0.80041255635E+01  0.15212712941E+02  0.00000000000E+00 0. -1.
</event>
<event>
 8    1  0.2402194E-006  0.9118800E+02  0.7816164E-02  0.1184000E+00
        -11   -1    0    0    0    0  0.00000000000E+00  0.00000000000E+00  0.45593999997E+02  0.45594000000E+02  0.51100000000E-03 0. -1.
         11   -1    0    0    0    0 -0.00000000000E+00 -0.00000000000E+00 -0.45593999997E+02  0.45594000000E+02  0.51100000000E-03 0.  1.
         23    2    1    2    0    0  0.35527136788E-14  0.00000000000E+00  0.00000000000E+00  0.91188000000E+02  0.91188000000E+02 0.  0.
    9900012    2    3    3    0    0 -0.12618974462E+02  0.50266715018E+01 -0.34223879874E+02  0.54367083437E+02  0.39999998312E+02 0.  0.
         12    1    3    3    0    0  0.12618974462E+02 -0.50266715018E+01  0.34223879874E+02  0.36820916563E+02  0.00000000000E+00 0. -1.
         11    1    4    4    0    0 -0.42820364962E+01  0.11898783695E+01 -0.19056157463E+00  0.44483661117E+01  0.51100000000E-03 0. -1.
        -11    1    4    4    0    0  0.11023891674E+02  0.28521893421E+01 -0.76284283127E+00  0.11412409961E+02  0.51100000000E-03 0.  1.
        -12    1    4    4    0    0 -0.19360829639E+02  0.98460379019E+00 -0.33270475468E+02  0.38506307364E+02  0.00000000000E+00 0.  1.
</event>
<event>
 8    1  0.2402194E-006  0.9118800E+02  0.7816164E-02  0.1184000E+00
        -11   -1    0    0    0    0  0.00000000000E+00  0.00000000000E+00  0.45593999997E+02  0.45594000000E+02  0.51100000000E-03 0.  1.
         11   -1    0    0    0    0 -0.00000000000E+00 -0.00000000000E+00 -0.45593999997E+02  0.45594000000E+02  0.51100000000E-03 0. -1.
         23    2    1    2    0    0  0.00000000000E+00  0.00000000000E+00  0.17763568394E-14  0.91188000000E+02  0.91188000000E+02 0.  0.
    9900012    2    3    3    0    0  0.15108310107E+02  0.31495511040E+02  0.11642604803E+02  0.54367102448E+02  0.40000041650E+02 0.  0.
         12    1    3    3    0    0 -0.15108310107E+02 -0.31495511040E+02 -0.11642604803E+02  0.36820897552E+02  0.00000000000E+00 0. -1.
         11    1    4    4    0    0  0.11692115478E+02  0.28615308718E+02  0.20675347534E+02  0.37188861952E+02  0.51100000000E-03 0.  1.
        -11    1    4    4    0    0  0.30241351830E+00  0.80926557959E+01 -0.30481969322E+01  0.86529784795E+01  0.51100000000E-03 0. -1.
         12    1    4    4    0    0  0.31137811107E+01 -0.52124534732E+01 -0.59845457995E+01  0.85252620160E+01  0.00000000000E+00 0. -1.
</event>
<event>
 8    1  0.2402194E-006  0.9118800E+02  0.7816164E-02  0.1184000E+00
        -11   -1    0    0    0    0  0.00000000000E+00  0.00000000000E+00  0.45593999997E+02  0.45594000000E+02  0.51100000000E-03 0.  1.
         11   -1    0    0    0    0 -0.00000000000E+00 -0.00000000000E+00 -0.45593999997E+02  0.45594000000E+02  0.51100000000E-03 0. -1.
         23    2    1    2    0    0 -0.44408920985E-15  0.35527136788E-14 -0.35527136788E-14  0.91188000000E+02  0.91188000000E+02 0.  0.
    9900012    2    3    3    0    0  0.24573639214E+01  0.25571562836E+02  0.26378698079E+02  0.54367093226E+02  0.40000020627E+02 0.  0.
        -12    1    3    3    0    0 -0.24573639214E+01 -0.25571562836E+02 -0.26378698079E+02  0.36820906774E+02  0.00000000000E+00 0.  1.
         11    1    4    4    0    0  0.68245959291E+01  0.87540429438E+01  0.19650054961E+02  0.22568407956E+02  0.51100000000E-03 0. -1.
        -11    1    4    4    0    0 -0.11446885559E+02 -0.12045275930E+01  0.75241085402E+00  0.11534652057E+02  0.51100000000E-03 0.  1.
         12    1    4    4    0    0  0.70796535513E+01  0.18022047485E+02  0.59762322648E+01  0.20264033213E+02  0.00000000000E+00 0. -1.
</event>
<event>
 8    1  0.2402194E-006  0.9118800E+02  0.7816164E-02  0.1184000E+00
        -11   -1    0    0    0    0  0.00000000000E+00  0.00000000000E+00  0.45593999997E+02  0.45594000000E+02  0.51100000000E-03 0. -1.
         11   -1    0    0    0    0 -0.00000000000E+00 -0.00000000000E+00 -0.45593999997E+02  0.45594000000E+02  0.51100000000E-03 0.  1.
         23    2    1    2    0    0  0.00000000000E+00  0.00000000000E+00 -0.35527136788E-14  0.91188000000E+02  0.91188000000E+02 0.  0.
    9900012    2    3    3    0    0  0.20711738653E+02  0.13760278532E+02 -0.27156175652E+02  0.54367092090E+02  0.40000018037E+02 0.  0.
         12    1    3    3    0    0 -0.20711738653E+02 -0.13760278532E+02  0.27156175652E+02  0.36820907910E+02  0.00000000000E+00 0. -1.
         11    1    4    4    0    0  0.20968879851E+02  0.12656031945E+02 -0.82263222026E+01  0.25836823413E+02  0.51100000000E-03 0. -1.
        -11    1    4    4    0    0  0.38217445381E+01 -0.65043012786E+01 -0.18393786904E+02  0.19880720896E+02  0.51100000000E-03 0.  1.
         12    1    4    4    0    0 -0.40788857366E+01  0.76085478652E+01 -0.53606654526E+00  0.86495477807E+01  0.00000000000E+00 0. -1.
</event>
<event>
 8    1  0.2402194E-006  0.9118800E+02  0.7816164E-02  0.1184000E+00
        -11   -1    0    0    0    0  0.00000000000E+00  0.00000000000E+00  0.45593999997E+02  0.45594000000E+02  0.51100000000E-03 0.  1.
         11   -1    0    0    0    0 -0.00000000000E+00 -0.00000000000E+00 -0.45593999997E+02  0.45594000000E+02  0.51100000000E-03 0. -1.
         23    2    1    2    0    0  0.00000000000E+00  0.00000000000E+00  0.00000000000E+00  0.91188000000E+02  0.91188000000E+02 0.  0.
    9900012    2    3    3    0    0  0.10992847642E+02  0.30685106950E+02  0.17127570520E+02  0.54367188497E+02  0.40000237816E+02 0.  0.
         12    1    3    3    0    0 -0.10992847642E+02 -0.30685106950E+02 -0.17127570520E+02  0.36820811503E+02  0.00000000000E+00 0. -1.
         11    1    4    4    0    0 -0.72939241698E+01  0.15772415584E+02  0.18026177282E+02  0.25038240569E+02  0.51100000000E-03 0. -1.
        -11    1    4    4    0    0  0.91108705948E+01  0.35164300843E+01  0.76303222110E+01  0.12393347443E+02  0.51100000000E-03 0.  1.
         12    1    4    4    0    0  0.91759012173E+01  0.11396261282E+02 -0.85289289735E+01  0.16935600485E+02  0.00000000000E+00 0. -1.
</event>
<event>
 8    1  0.2402194E-006  0.9118800E+02  0.7816164E-02  0.1184000E+00
        -11   -1    0    0    0    0  0.00000000000E+00  0.00000000000E+00  0.45593999997E+02  0.45594000000E+02  0.51100000000E-03 0.  1.
         11   -1    0    0    0    0 -0.00000000000E+00 -0.00000000000E+00 -0.45593999997E+02  0.45594000000E+02  0.51100000000E-03 0. -1.
         23    2    1    2    0    0  0.35527136788E-14  0.35527136788E-14  0.00000000000E+00  0.91188000000E+02  0.91188000000E+02 0.  0.
    9900012    2    3    3    0    0  0.21939486764E+02  0.18115103421E+02 -0.23372669626E+02  0.54367085605E+02  0.40000003254E+02 0.  0.
         12    1    3    3    0    0 -0.21939486764E+02 -0.18115103421E+02  0.23372669626E+02  0.36820914395E+02  0.00000000000E+00 0. -1.
         11    1    4    4    0    0  0.90230255661E+01 -0.59218774192E+01 -0.56718999233E+01  0.12192377600E+02  0.51100000000E-03 0. -1.
        -11    1    4    4    0    0  0.71809068807E+01  0.29156360576E+02 -0.16869829580E+02  0.34441979270E+02  0.51100000000E-03 0.  1.
         12    1    4    4    0    0  0.57355543173E+01 -0.51193797364E+01 -0.83094012275E+00  0.77327287357E+01  0.00000000000E+00 0. -1.
</event>
<event>
 8    1  0.2402194E-006  0.9118800E+02  0.7816164E-02  0.1184000E+00
        -11   -1    0    0    0    0  0.00000000000E+00  0.00000000000E+00  0.45593999997E+02  0.45594000000E+02  0.51100000000E-03 0.  1.
         11   -1    0    0    0    0 -0.00000000000E+00 -0.00000000000E+00 -0.45593999997E+02  0.45594000000E+02  0.51100000000E-03 0. -1.
         23    2    1    2    0    0  0.88817841970E-15  0.71054273576E-14  0.00000000000E+00  0.91188000000E+02  0.91188000000E+02 0.  0.
    9900012    2    3    3    0    0  0.36144523492E+01 -0.21382125279E+02 -0.29757695230E+02  0.54367082404E+02  0.39999995955E+02 0.  0.
        -12    1    3    3    0    0 -0.36144523492E+01  0.21382125279E+02  0.29757695230E+02  0.36820917596E+02  0.00000000000E+00 0.  1.
         11    1    4    4    0    0  0.71505965086E+01 -0.20934306844E+02 -0.24238892194E+02  0.32816156516E+02  0.51100000000E-03 0. -1.
        -11    1    4    4    0    0 -0.11216412887E+02  0.34523966529E+01 -0.54436006380E+01  0.12936759597E+02  0.51100000000E-03 0.  1.
         12    1    4    4    0    0  0.76802687280E+01 -0.39002150887E+01 -0.75202397829E-01  0.86141662901E+01  0.00000000000E+00 0. -1.
</event>
<event>
 8    1  0.2402194E-006  0.9118800E+02  0.7816164E-02  0.1184000E+00
        -11   -1    0    0    0    0  0.00000000000E+00  0.00000000000E+00  0.45593999997E+02  0.45594000000E+02  0.51100000000E-03 0. -1.
         11   -1    0    0    0    0 -0.00000000000E+00 -0.00000000000E+00 -0.45593999997E+02  0.45594000000E+02  0.51100000000E-03 0.  1.
         23    2    1    2    0    0 -0.88817841970E-15 -0.35527136788E-14  0.71054273576E-14  0.91188000000E+02  0.91188000000E+02 0.  0.
    9900012    2    3    3    0    0  0.40192005846E+01 -0.17672470710E+02  0.32051686383E+02  0.54367071246E+02  0.39999970519E+02 0.  0.
        -12    1    3    3    0    0 -0.40192005846E+01  0.17672470710E+02 -0.32051686383E+02  0.36820928754E+02  0.00000000000E+00 0.  1.
         11    1    4    4    0    0  0.11151399048E+02  0.46471972616E+01  0.47961418186E+01  0.12998196787E+02  0.51100000000E-03 0. -1.
        -11    1    4    4    0    0 -0.80685000253E+01 -0.19238478482E+02  0.88125965907E+01  0.22646889541E+02  0.51100000000E-03 0.  1.
        -12    1    4    4    0    0  0.93630156201E+00 -0.30811894895E+01  0.18442947974E+02  0.18721984917E+02  0.00000000000E+00 0.  1.
</event>
<event>
 8    1  0.2402194E-006  0.9118800E+02  0.7816164E-02  0.1184000E+00
        -11   -1    0    0    0    0  0.00000000000E+00  0.00000000000E+00  0.45593999997E+02  0.45594000000E+02  0.51100000000E-03 0.  1.
         11   -1    0    0    0    0 -0.00000000000E+00 -0.00000000000E+00 -0.45593999997E+02  0.45594000000E+02  0.51100000000E-03 0. -1.
         23    2    1    2    0    0  0.17763568394E-14  0.00000000000E+00  0.00000000000E+00  0.91188000000E+02  0.91188000000E+02 0.  0.
    9900012    2    3    3    0    0  0.10703701876E+02  0.24063243126E+02 -0.25732667753E+02  0.54367094345E+02  0.40000023177E+02 0.  0.
        -12    1    3    3    0    0 -0.10703701876E+02 -0.24063243126E+02  0.25732667753E+02  0.36820905655E+02  0.00000000000E+00 0.  1.
         11    1    4    4    0    0  0.99069465153E+01  0.45652395652E+01  0.12872396468E+00  0.10908967488E+02  0.51100000000E-03 0. -1.
        -11    1    4    4    0    0 -0.80638938566E+01  0.23052980653E+02 -0.22855095370E+02  0.33448791992E+02  0.51100000000E-03 0.  1.
        -12    1    4    4    0    0  0.88606492173E+01 -0.35549770925E+01 -0.30062963481E+01  0.10009334864E+02  0.00000000000E+00 0.  1.
</event>
<event>
 8    1  0.2402194E-006  0.9118800E+02  0.7816164E-02  0.1184000E+00
        -11   -1    0    0    0    0  0.00000000000E+00  0.00000000000E+00  0.45593999997E+02  0.45594000000E+02  0.51100000000E-03 0.  1.
         11   -1    0    0    0    0 -0.00000000000E+00 -0.00000000000E+00 -0.45593999997E+02  0.45594000000E+02  0.51100000000E-03 0. -1.
         23    2    1    2    0    0  0.00000000000E+00  0.00000000000E+00 -0.17763568394E-14  0.91188000000E+02  0.91188000000E+02 0.  0.
    9900012    2    3    3    0    0  0.10457727169E+02 -0.32015091268E+02 -0.14881072397E+02  0.54367130345E+02  0.40000105248E+02 0.  0.
        -12    1    3    3    0    0 -0.10457727169E+02  0.32015091268E+02  0.14881072397E+02  0.36820869655E+02  0.00000000000E+00 0.  1.
         11    1    4    4    0    0 -0.20280086723E+01 -0.29199920573E+01 -0.10550321973E+02  0.11133214575E+02  0.51100000000E-03 0. -1.
        -11    1    4    4    0    0  0.22832951132E+01  0.59732878563E+01  0.39553951252E+00  0.64070317742E+01  0.51100000000E-03 0.  1.
         12    1    4    4    0    0  0.10202440728E+02 -0.35068387067E+02 -0.47262899365E+01  0.36826883996E+02  0.00000000000E+00 0. -1.
</event>
<event>
 8    1  0.2402194E-006  0.9118800E+02  0.7816164E-02  0.1184000E+00
        -11   -1    0    0    0    0  0.00000000000E+00  0.00000000000E+00  0.45593999997E+02  0.45594000000E+02  0.51100000000E-03 0.  1.
         11   -1    0    0    0    0 -0.00000000000E+00 -0.00000000000E+00 -0.45593999997E+02  0.45594000000E+02  0.51100000000E-03 0. -1.
         23    2    1    2    0    0  0.00000000000E+00  0.17763568394E-14  0.00000000000E+00  0.91188000000E+02  0.91188000000E+02 0.  0.
    9900012    2    3    3    0    0  0.18089988476E+02 -0.93115664032E+01  0.30689219160E+02  0.54367066761E+02  0.39999960296E+02 0.  0.
         12    1    3    3    0    0 -0.18089988476E+02  0.93115664032E+01 -0.30689219160E+02  0.36820933239E+02  0.00000000000E+00 0. -1.
         11    1    4    4    0    0 -0.60465828293E+01  0.46108892438E+01  0.62057813865E+01  0.98149470914E+01  0.51100000000E-03 0. -1.
        -11    1    4    4    0    0  0.16497259250E+02  0.24259520892E+01  0.37977832604E+01  0.17101694777E+02  0.51100000000E-03 0.  1.
         12    1    4    4    0    0  0.76393120559E+01 -0.16348407736E+02  0.20685654513E+02  0.27450424893E+02  0.00000000000E+00 0. -1.
</event>
<event>
 8    1  0.2402194E-006  0.9118800E+02  0.7816164E-02  0.1184000E+00
        -11   -1    0    0    0    0  0.00000000000E+00  0.00000000000E+00  0.45593999997E+02  0.45594000000E+02  0.51100000000E-03 0. -1.
         11   -1    0    0    0    0 -0.00000000000E+00 -0.00000000000E+00 -0.45593999997E+02  0.45594000000E+02  0.51100000000E-03 0.  1.
         23    2    1    2    0    0  0.00000000000E+00  0.00000000000E+00  0.00000000000E+00  0.91188000000E+02  0.91188000000E+02 0.  0.
    9900012    2    3    3    0    0  0.23422605019E+02  0.18321710106E+02 -0.21713504466E+02  0.54367085246E+02  0.40000002436E+02 0.  0.
         12    1    3    3    0    0 -0.23422605019E+02 -0.18321710106E+02  0.21713504466E+02  0.36820914754E+02  0.00000000000E+00 0. -1.
         11    1    4    4    0    0 -0.48133620007E+01  0.90137421394E+01 -0.12614852828E+01  0.10295986912E+02  0.51100000000E-03 0. -1.
        -11    1    4    4    0    0  0.20924249445E+02  0.18048369947E+02 -0.14025168024E+02  0.30988275378E+02  0.51100000000E-03 0.  1.
         12    1    4    4    0    0  0.73117175751E+01 -0.87404019803E+01 -0.64268511598E+01  0.13082822956E+02  0.00000000000E+00 0. -1.
</event>
<event>
 8    1  0.2402194E-006  0.9118800E+02  0.7816164E-02  0.1184000E+00
        -11   -1    0    0    0    0  0.00000000000E+00  0.00000000000E+00  0.45593999997E+02  0.45594000000E+02  0.51100000000E-03 0.  1.
         11   -1    0    0    0    0 -0.00000000000E+00 -0.00000000000E+00 -0.45593999997E+02  0.45594000000E+02  0.51100000000E-03 0. -1.
         23    2    1    2    0    0  0.00000000000E+00  0.17763568394E-14 -0.35527136788E-14  0.91188000000E+02  0.91188000000E+02 0.  0.
    9900012    2    3    3    0    0 -0.22527972665E+02 -0.12831679108E+02  0.26146085752E+02  0.54367090977E+02  0.40000015500E+02 0.  0.
         12    1    3    3    0    0  0.22527972665E+02  0.12831679108E+02 -0.26146085752E+02  0.36820909023E+02  0.00000000000E+00 0. -1.
         11    1    4    4    0    0 -0.14324612297E+01  0.64257222617E+01  0.14659321599E+02  0.16069771677E+02  0.51100000000E-03 0. -1.
        -11    1    4    4    0    0  0.48492750186E+01 -0.30374481402E+01  0.33726992739E+01  0.66420373428E+01  0.51100000000E-03 0.  1.
         12    1    4    4    0    0 -0.25944786454E+02 -0.16219953230E+02  0.81140648790E+01  0.31655281957E+02  0.00000000000E+00 0. -1.
</event>
<event>
 8    1  0.2402194E-006  0.9118800E+02  0.7816164E-02  0.1184000E+00
        -11   -1    0    0    0    0  0.00000000000E+00  0.00000000000E+00  0.45593999997E+02  0.45594000000E+02  0.51100000000E-03 0. -1.
         11   -1    0    0    0    0 -0.00000000000E+00 -0.00000000000E+00 -0.45593999997E+02  0.45594000000E+02  0.51100000000E-03 0.  1.
         23    2    1    2    0    0  0.17763568394E-14  0.00000000000E+00 -0.71054273576E-14  0.91188000000E+02  0.91188000000E+02 0.  0.
    9900012    2    3    3    0    0 -0.11031977084E+02 -0.93145999563E+01 -0.33872022951E+02  0.54367078916E+02  0.39999988004E+02 0.  0.
         12    1    3    3    0    0  0.11031977084E+02  0.93145999563E+01  0.33872022951E+02  0.36820921084E+02  0.00000000000E+00 0. -1.
         11    1    4    4    0    0  0.44459073674E+01 -0.52460174746E+01 -0.34083149472E+02  0.34769927665E+02  0.51100000000E-03 0. -1.
        -11    1    4    4    0    0 -0.12188814279E+02  0.12893112027E+01 -0.28812030044E+01  0.12590903380E+02  0.51100000000E-03 0.  1.
         12    1    4    4    0    0 -0.32890701715E+01 -0.53578936843E+01  0.30923295256E+01  0.70062478703E+01  0.00000000000E+00 0. -1.
</event>
<event>
 8    1  0.2402194E-006  0.9118800E+02  0.7816164E-02  0.1184000E+00
        -11   -1    0    0    0    0  0.00000000000E+00  0.00000000000E+00  0.45593999997E+02  0.45594000000E+02  0.51100000000E-03 0.  1.
         11   -1    0    0    0    0 -0.00000000000E+00 -0.00000000000E+00 -0.45593999997E+02  0.45594000000E+02  0.51100000000E-03 0. -1.
         23    2    1    2    0    0 -0.17763568394E-14  0.44408920985E-15  0.71054273576E-14  0.91188000000E+02  0.91188000000E+02 0.  0.
    9900012    2    3    3    0    0  0.68745369909E+01 -0.39164920498E+01 -0.35960788010E+02  0.54367130332E+02  0.40000105217E+02 0.  0.
        -12    1    3    3    0    0 -0.68745369909E+01  0.39164920498E+01  0.35960788010E+02  0.36820869668E+02  0.00000000000E+00 0.  1.
         11    1    4    4    0    0 -0.91183610021E+01 -0.28699540231E+01 -0.27325787986E+02  0.28949608508E+02  0.51100000000E-03 0. -1.
        -11    1    4    4    0    0 -0.10589692596E+01 -0.60379970526E+01 -0.25077853065E+01  0.66232780180E+01  0.51100000000E-03 0.  1.
        -12    1    4    4    0    0  0.17051867253E+02  0.49914590259E+01 -0.61272147177E+01  0.18794243805E+02  0.00000000000E+00 0.  1.
</event>
<event>
 8    1  0.2402194E-006  0.9118800E+02  0.7816164E-02  0.1184000E+00
        -11   -1    0    0    0    0  0.00000000000E+00  0.00000000000E+00  0.45593999997E+02  0.45594000000E+02  0.51100000000E-03 0.  1.
         11   -1    0    0    0    0 -0.00000000000E+00 -0.00000000000E+00 -0.45593999997E+02  0.45594000000E+02  0.51100000000E-03 0. -1.
         23    2    1    2    0    0  0.00000000000E+00  0.00000000000E+00  0.00000000000E+00  0.91188000000E+02  0.91188000000E+02 0.  0.
    9900012    2    3    3    0    0 -0.14862783615E+02 -0.22133839416E+02  0.25396323839E+02  0.54367048782E+02  0.39999919309E+02 0.  0.
         12    1    3    3    0    0  0.14862783615E+02  0.22133839416E+02 -0.25396323839E+02  0.36820951218E+02  0.00000000000E+00 0. -1.
         11    1    4    4    0    0  0.97872132346E+01 -0.65487740265E+01  0.34629949114E+01  0.12274702366E+02  0.51100000000E-03 0. -1.
        -11    1    4    4    0    0 -0.13932840984E+02  0.31673709065E+01  0.77771445027E+01  0.16267767924E+02  0.51100000000E-03 0.  1.
        -12    1    4    4    0    0 -0.10717155866E+02 -0.18752436296E+02  0.14156184425E+02  0.25824578493E+02  0.00000000000E+00 0.  1.
</event>
<event>
 8    1  0.2402194E-006  0.9118800E+02  0.7816164E-02  0.1184000E+00
        -11   -1    0    0    0    0  0.00000000000E+00  0.00000000000E+00  0.45593999997E+02  0.45594000000E+02  0.51100000000E-03 0.  1.
         11   -1    0    0    0    0 -0.00000000000E+00 -0.00000000000E+00 -0.45593999997E+02  0.45594000000E+02  0.51100000000E-03 0. -1.
         23    2    1    2    0    0  0.00000000000E+00  0.00000000000E+00 -0.17763568394E-14  0.91188000000E+02  0.91188000000E+02 0.  0.
    9900012    2    3    3    0    0  0.30476643849E+02 -0.14216959192E+02  0.14994403619E+02  0.54367083542E+02  0.39999998550E+02 0.  0.
         12    1    3    3    0    0 -0.30476643849E+02  0.14216959192E+02 -0.14994403619E+02  0.36820916458E+02  0.00000000000E+00 0. -1.
         11    1    4    4    0    0  0.60787382722E+00  0.79482743216E+01 -0.48500579657E+01  0.93310041160E+01  0.51100000000E-03 0. -1.
        -11    1    4    4    0    0  0.68664287348E+01  0.21822783268E+00 -0.73550964212E+00  0.69091563633E+01  0.51100000000E-03 0.  1.
        -12    1    4    4    0    0  0.23002341287E+02 -0.22383461346E+02  0.20579971227E+02  0.38126923062E+02  0.00000000000E+00 0.  1.
</event>
<event>
 8    1  0.2402194E-006  0.9118800E+02  0.7816164E-02  0.1184000E+00
        -11   -1    0    0    0    0  0.00000000000E+00  0.00000000000E+00  0.45593999997E+02  0.45594000000E+02  0.51100000000E-03 0.  1.
         11   -1    0    0    0    0 -0.00000000000E+00 -0.00000000000E+00 -0.45593999997E+02  0.45594000000E+02  0.51100000000E-03 0. -1.
         23    2    1    2    0    0  0.88817841970E-15  0.44408920985E-15  0.00000000000E+00  0.91188000000E+02  0.91188000000E+02 0.  0.
    9900012    2    3    3    0    0 -0.60551923353E+01 -0.25528440622E+01  0.36229795046E+02  0.54367076382E+02  0.39999982227E+02 0.  0.
         12    1    3    3    0    0  0.60551923353E+01  0.25528440622E+01 -0.36229795046E+02  0.36820923618E+02  0.00000000000E+00 0. -1.
         11    1    4    4    0    0 -0.14068543932E+02 -0.36130756540E+01  0.13588771779E+02  0.19890524447E+02  0.51100000000E-03 0.  1.
        -11    1    4    4    0    0 -0.19042293355E+01 -0.33047661898E+00 -0.48485758156E+01  0.52195777472E+01  0.51100000000E-03 0. -1.
        -12    1    4    4    0    0  0.99175809323E+01  0.13907082108E+01  0.27489599083E+02  0.29256974188E+02  0.00000000000E+00 0.  1.
</event>
<event>
 8    1  0.2402194E-006  0.9118800E+02  0.7816164E-02  0.1184000E+00
        -11   -1    0    0    0    0  0.00000000000E+00  0.00000000000E+00  0.45593999997E+02  0.45594000000E+02  0.51100000000E-03 0. -1.
         11   -1    0    0    0    0 -0.00000000000E+00 -0.00000000000E+00 -0.45593999997E+02  0.45594000000E+02  0.51100000000E-03 0.  1.
         23    2    1    2    0    0  0.00000000000E+00  0.13322676296E-14  0.00000000000E+00  0.91188000000E+02  0.91188000000E+02 0.  0.
    9900012    2    3    3    0    0  0.16898854386E+01 -0.25101794865E+01 -0.36696352818E+02  0.54367095286E+02  0.40000025323E+02 0.  0.
         12    1    3    3    0    0 -0.16898854386E+01  0.25101794865E+01  0.36696352818E+02  0.36820904714E+02  0.00000000000E+00 0. -1.
         11    1    4    4    0    0 -0.62903186148E+01  0.74273932313E+01 -0.25676160693E+01  0.10066127906E+02  0.51100000000E-03 0. -1.
        -11    1    4    4    0    0  0.54154491516E+01 -0.15374095540E+02 -0.34624537360E+02  0.38269419788E+02  0.51100000000E-03 0.  1.
        -12    1    4    4    0    0  0.25647549017E+01  0.54365228226E+01  0.49580061189E+00  0.60315475919E+01  0.00000000000E+00 0.  1.
</event>
<event>
 8    1  0.2402194E-006  0.9118800E+02  0.7816164E-02  0.1184000E+00
        -11   -1    0    0    0    0  0.00000000000E+00  0.00000000000E+00  0.45593999997E+02  0.45594000000E+02  0.51100000000E-03 0. -1.
         11   -1    0    0    0    0 -0.00000000000E+00 -0.00000000000E+00 -0.45593999997E+02  0.45594000000E+02  0.51100000000E-03 0.  1.
         23    2    1    2    0    0  0.00000000000E+00  0.00000000000E+00 -0.22204460493E-15  0.91188000000E+02  0.91188000000E+02 0.  0.
    9900012    2    3    3    0    0 -0.93082201507E+01 -0.35605426709E+02  0.11792958324E+01  0.54367080509E+02  0.39999991637E+02 0.  0.
         12    1    3    3    0    0  0.93082201507E+01  0.35605426709E+02 -0.11792958324E+01  0.36820919491E+02  0.00000000000E+00 0. -1.
         11    1    4    4    0    0 -0.52497000012E+01 -0.10145147596E+02  0.18053344177E+01  0.11564713679E+02  0.51100000000E-03 0. -1.
        -11    1    4    4    0    0  0.28418174957E+01 -0.32142514985E+02  0.32775129995E+01  0.32433921872E+02  0.51100000000E-03 0.  1.
         12    1    4    4    0    0 -0.69003376453E+01  0.66822358729E+01 -0.39035515847E+01  0.10368444958E+02  0.00000000000E+00 0. -1.
</event>
<event>
 8    1  0.2402194E-006  0.9118800E+02  0.7816164E-02  0.1184000E+00
        -11   -1    0    0    0    0  0.00000000000E+00  0.00000000000E+00  0.45593999997E+02  0.45594000000E+02  0.51100000000E-03 0. -1.
         11   -1    0    0    0    0 -0.00000000000E+00 -0.00000000000E+00 -0.45593999997E+02  0.45594000000E+02  0.51100000000E-03 0.  1.
         23    2    1    2    0    0  0.00000000000E+00  0.71054273576E-14  0.66613381478E-15  0.91188000000E+02  0.91188000000E+02 0.  0.
    9900012    2    3    3    0    0 -0.14399282165E+02 -0.33844739974E+02 -0.17250659344E+01  0.54367060261E+02  0.39999945477E+02 0.  0.
         12    1    3    3    0    0  0.14399282165E+02  0.33844739974E+02  0.17250659344E+01  0.36820939739E+02  0.00000000000E+00 0. -1.
         11    1    4    4    0    0 -0.51362744427E+01  0.42570322688E+01 -0.48464945994E+00  0.66886862872E+01  0.51100000000E-03 0. -1.
        -11    1    4    4    0    0 -0.99439523622E+01 -0.86854482138E+01 -0.10459205727E+02  0.16843817381E+02  0.51100000000E-03 0.  1.
         12    1    4    4    0    0  0.68094463988E+00 -0.29416324029E+02  0.92187892526E+01  0.30834556593E+02  0.00000000000E+00 0. -1.
</event>
<event>
 8    1  0.2402194E-006  0.9118800E+02  0.7816164E-02  0.1184000E+00
        -11   -1    0    0    0    0  0.00000000000E+00  0.00000000000E+00  0.45593999997E+02  0.45594000000E+02  0.51100000000E-03 0. -1.
         11   -1    0    0    0    0 -0.00000000000E+00 -0.00000000000E+00 -0.45593999997E+02  0.45594000000E+02  0.51100000000E-03 0.  1.
         23    2    1    2    0    0  0.35527136788E-14  0.35527136788E-14  0.88817841970E-15  0.91188000000E+02  0.91188000000E+02 0.  0.
    9900012    2    3    3    0    0 -0.25957919337E+02 -0.25199425144E+02 -0.68524485884E+01  0.54367073130E+02  0.39999974815E+02 0.  0.
         12    1    3    3    0    0  0.25957919337E+02  0.25199425144E+02  0.68524485884E+01  0.36820926870E+02  0.00000000000E+00 0. -1.
         11    1    4    4    0    0  0.34098777246E+01  0.16407614872E+01  0.31665069579E+01  0.49341798640E+01  0.51100000000E-03 0. -1.
        -11    1    4    4    0    0 -0.11515915038E+02 -0.19071742084E+02  0.72293640675E+01  0.23422453978E+02  0.51100000000E-03 0.  1.
        -12    1    4    4    0    0 -0.17851882024E+02 -0.77684445473E+01 -0.17248319614E+02  0.26010439288E+02  0.00000000000E+00 0.  1.
</event>
<event>
 8    1  0.2402194E-006  0.9118800E+02  0.7816164E-02  0.1184000E+00
        -11   -1    0    0    0    0  0.00000000000E+00  0.00000000000E+00  0.45593999997E+02  0.45594000000E+02  0.51100000000E-03 0. -1.
         11   -1    0    0    0    0 -0.00000000000E+00 -0.00000000000E+00 -0.45593999997E+02  0.45594000000E+02  0.51100000000E-03 0.  1.
         23    2    1    2    0    0 -0.35527136788E-14  0.00000000000E+00  0.35527136788E-14  0.91188000000E+02  0.91188000000E+02 0.  0.
    9900012    2    3    3    0    0 -0.23045393585E+02 -0.22394313141E+02 -0.17977337784E+02  0.54367080669E+02  0.39999992002E+02 0.  0.
         12    1    3    3    0    0  0.23045393585E+02  0.22394313141E+02  0.17977337784E+02  0.36820919331E+02  0.00000000000E+00 0. -1.
         11    1    4    4    0    0 -0.91157547530E+01  0.35336760174E+01 -0.11337856603E+02  0.14971000084E+02  0.51100000000E-03 0. -1.
        -11    1    4    4    0    0 -0.16181917558E+02 -0.81885526394E+01  0.40230141441E+01  0.18576638373E+02  0.51100000000E-03 0.  1.
         12    1    4    4    0    0  0.22522787259E+01 -0.17739436519E+02 -0.10662495326E+02  0.20819442213E+02  0.00000000000E+00 0. -1.
</event>
<event>
 8    1  0.2402194E-006  0.9118800E+02  0.7816164E-02  0.1184000E+00
        -11   -1    0    0    0    0  0.00000000000E+00  0.00000000000E+00  0.45593999997E+02  0.45594000000E+02  0.51100000000E-03 0.  1.
         11   -1    0    0    0    0 -0.00000000000E+00 -0.00000000000E+00 -0.45593999997E+02  0.45594000000E+02  0.51100000000E-03 0. -1.
         23    2    1    2    0    0  0.00000000000E+00  0.00000000000E+00  0.00000000000E+00  0.91188000000E+02  0.91188000000E+02 0.  0.
    9900012    2    3    3    0    0 -0.16209506258E+02 -0.32762535927E+02 -0.44323033504E+01  0.54367120509E+02  0.40000082824E+02 0.  0.
         12    1    3    3    0    0  0.16209506258E+02  0.32762535927E+02  0.44323033504E+01  0.36820879491E+02  0.00000000000E+00 0. -1.
         11    1    4    4    0    0  0.32374507580E+01 -0.15855540838E+02  0.12486261965E+00  0.16183165747E+02  0.51100000000E-03 0. -1.
        -11    1    4    4    0    0 -0.10866369069E+02 -0.22803643326E+02  0.28296161631E+01  0.25418317284E+02  0.51100000000E-03 0.  1.
        -12    1    4    4    0    0 -0.85805879467E+01  0.58966482359E+01 -0.73867821332E+01  0.12765637478E+02  0.00000000000E+00 0.  1.
</event>
<event>
 8    1  0.2402194E-006  0.9118800E+02  0.7816164E-02  0.1184000E+00
        -11   -1    0    0    0    0  0.00000000000E+00  0.00000000000E+00  0.45593999997E+02  0.45594000000E+02  0.51100000000E-03 0.  1.
         11   -1    0    0    0    0 -0.00000000000E+00 -0.00000000000E+00 -0.45593999997E+02  0.45594000000E+02  0.51100000000E-03 0. -1.
         23    2    1    2    0    0  0.17763568394E-14  0.35527136788E-14  0.00000000000E+00  0.91188000000E+02  0.91188000000E+02 0.  0.
    9900012    2    3    3    0    0 -0.11830125420E+02 -0.29757453813E+02 -0.18174769422E+02  0.54367079745E+02  0.39999989895E+02 0.  0.
        -12    1    3    3    0    0  0.11830125420E+02  0.29757453813E+02  0.18174769422E+02  0.36820920255E+02  0.00000000000E+00 0.  1.
         11    1    4    4    0    0  0.11412079064E+01 -0.11477420238E+02 -0.29467356017E+01  0.11904485784E+02  0.51100000000E-03 0. -1.
        -11    1    4    4    0    0 -0.14455998796E+02 -0.41881840016E+01 -0.22081143522E+02  0.26722531429E+02  0.51100000000E-03 0.  1.
        -12    1    4    4    0    0  0.14846654701E+01 -0.14091849573E+02  0.68531097022E+01  0.15740062533E+02  0.00000000000E+00 0.  1.
</event>
<event>
 8    1  0.2402194E-006  0.9118800E+02  0.7816164E-02  0.1184000E+00
        -11   -1    0    0    0    0  0.00000000000E+00  0.00000000000E+00  0.45593999997E+02  0.45594000000E+02  0.51100000000E-03 0.  1.
         11   -1    0    0    0    0 -0.00000000000E+00 -0.00000000000E+00 -0.45593999997E+02  0.45594000000E+02  0.51100000000E-03 0. -1.
         23    2    1    2    0    0  0.17763568394E-14  0.00000000000E+00 -0.35527136788E-14  0.91188000000E+02  0.91188000000E+02 0.  0.
    9900012    2    3    3    0    0  0.15224815699E+02  0.14400079256E+02 -0.30275765399E+02  0.54367091997E+02  0.40000017826E+02 0.  0.
        -12    1    3    3    0    0 -0.15224815699E+02 -0.14400079256E+02  0.30275765399E+02  0.36820908003E+02  0.00000000000E+00 0.  1.
         11    1    4    4    0    0  0.94788263793E+01  0.82938302987E+01 -0.22013463000E+01  0.12785996103E+02  0.51100000000E-03 0.  1.
        -11    1    4    4    0    0  0.71686530483E+01  0.15687475279E+02 -0.26716247468E+02  0.31800068336E+02  0.51100000000E-03 0. -1.
         12    1    4    4    0    0 -0.14226637289E+01 -0.95812263217E+01 -0.13581716314E+01  0.97810275582E+01  0.00000000000E+00 0. -1.
</event>
<event>
 8    1  0.2402194E-006  0.9118800E+02  0.7816164E-02  0.1184000E+00
        -11   -1    0    0    0    0  0.00000000000E+00  0.00000000000E+00  0.45593999997E+02  0.45594000000E+02  0.51100000000E-03 0.  1.
         11   -1    0    0    0    0 -0.00000000000E+00 -0.00000000000E+00 -0.45593999997E+02  0.45594000000E+02  0.51100000000E-03 0. -1.
         23    2    1    2    0    0 -0.22204460493E-15  0.35527136788E-14  0.00000000000E+00  0.91188000000E+02  0.91188000000E+02 0.  0.
    9900012    2    3    3    0    0 -0.11228620061E+01 -0.28552193702E+02  0.23222657386E+02  0.54367076596E+02  0.39999982715E+02 0.  0.
         12    1    3    3    0    0  0.11228620061E+01  0.28552193702E+02 -0.23222657386E+02  0.36820923404E+02  0.00000000000E+00 0. -1.
         11    1    4    4    0    0  0.74882630965E+01 -0.78596696089E+00  0.20230518162E+02  0.21586238525E+02  0.51100000000E-03 0. -1.
        -11    1    4    4    0    0  0.27055668350E+01 -0.15665044315E+02  0.31782352163E+01  0.16211566384E+02  0.51100000000E-03 0.  1.
         12    1    4    4    0    0 -0.11316691938E+02 -0.12101182426E+02 -0.18609599229E+00  0.16569271687E+02  0.00000000000E+00 0. -1.
</event>
<event>
 8    1  0.2402194E-006  0.9118800E+02  0.7816164E-02  0.1184000E+00
        -11   -1    0    0    0    0  0.00000000000E+00  0.00000000000E+00  0.45593999997E+02  0.45594000000E+02  0.51100000000E-03 0.  1.
         11   -1    0    0    0    0 -0.00000000000E+00 -0.00000000000E+00 -0.45593999997E+02  0.45594000000E+02  0.51100000000E-03 0. -1.
         23    2    1    2    0    0 -0.44408920985E-15  0.00000000000E+00  0.35527136788E-14  0.91188000000E+02  0.91188000000E+02 0.  0.
    9900012    2    3    3    0    0 -0.12626915233E+01 -0.26960363681E+02  0.25046464845E+02  0.54367068441E+02  0.39999964124E+02 0.  0.
         12    1    3    3    0    0  0.12626915233E+01  0.26960363681E+02 -0.25046464845E+02  0.36820931559E+02  0.00000000000E+00 0. -1.
         11    1    4    4    0    0 -0.18974847755E+01  0.15890448410E+01  0.16407901736E+02  0.16593515348E+02  0.51100000000E-03 0. -1.
        -11    1    4    4    0    0 -0.10104245583E+02 -0.15209540354E+02  0.95835988745E+01  0.20622106203E+02  0.51100000000E-03 0.  1.
         12    1    4    4    0    0  0.10739038835E+02 -0.13339868167E+02 -0.94503576533E+00  0.17151446890E+02  0.00000000000E+00 0. -1.
</event>
<event>
 8    1  0.2402194E-006  0.9118800E+02  0.7816164E-02  0.1184000E+00
        -11   -1    0    0    0    0  0.00000000000E+00  0.00000000000E+00  0.45593999997E+02  0.45594000000E+02  0.51100000000E-03 0. -1.
         11   -1    0    0    0    0 -0.00000000000E+00 -0.00000000000E+00 -0.45593999997E+02  0.45594000000E+02  0.51100000000E-03 0.  1.
         23    2    1    2    0    0 -0.35527136788E-14  0.00000000000E+00 -0.17763568394E-14  0.91188000000E+02  0.91188000000E+02 0.  0.
    9900012    2    3    3    0    0  0.29979787180E+02 -0.16591120390E+02  0.13480505883E+02  0.54367123394E+02  0.40000089402E+02 0.  0.
        -12    1    3    3    0    0 -0.29979787180E+02  0.16591120390E+02 -0.13480505883E+02  0.36820876606E+02  0.00000000000E+00 0.  1.
         11    1    4    4    0    0  0.25312710741E+02 -0.17396660078E+02  0.89024639463E+01  0.31978601775E+02  0.51100000000E-03 0. -1.
        -11    1    4    4    0    0  0.74813517900E+01  0.75080850775E+01  0.89786165320E+01  0.13890915061E+02  0.51100000000E-03 0.  1.
        -12    1    4    4    0    0 -0.28142753512E+01 -0.67025453893E+01 -0.44005745955E+01  0.84976065582E+01  0.00000000000E+00 0.  1.
</event>
<event>
 8    1  0.2402194E-006  0.9118800E+02  0.7816164E-02  0.1184000E+00
        -11   -1    0    0    0    0  0.00000000000E+00  0.00000000000E+00  0.45593999997E+02  0.45594000000E+02  0.51100000000E-03 0. -1.
         11   -1    0    0    0    0 -0.00000000000E+00 -0.00000000000E+00 -0.45593999997E+02  0.45594000000E+02  0.51100000000E-03 0.  1.
         23    2    1    2    0    0  0.00000000000E+00  0.00000000000E+00  0.35527136788E-14  0.91188000000E+02  0.91188000000E+02 0.  0.
    9900012    2    3    3    0    0  0.23217990143E+02 -0.19719907778E+02 -0.20684051321E+02  0.54367084638E+02  0.40000001049E+02 0.  0.
         12    1    3    3    0    0 -0.23217990143E+02  0.19719907778E+02  0.20684051321E+02  0.36820915362E+02  0.00000000000E+00 0. -1.
         11    1    4    4    0    0 -0.10367037003E+01 -0.28037166633E+01  0.26051986264E+01  0.39651786636E+01  0.51100000000E-03 0. -1.
        -11    1    4    4    0    0  0.19504450379E+02 -0.24630897844E+02 -0.26175597233E+02  0.40893356477E+02  0.51100000000E-03 0.  1.
        -12    1    4    4    0    0  0.47502434645E+01  0.77147067292E+01  0.28863472856E+01  0.95085494973E+01  0.00000000000E+00 0.  1.
</event>
<event>
 8    1  0.2402194E-006  0.9118800E+02  0.7816164E-02  0.1184000E+00
        -11   -1    0    0    0    0  0.00000000000E+00  0.00000000000E+00  0.45593999997E+02  0.45594000000E+02  0.51100000000E-03 0. -1.
         11   -1    0    0    0    0 -0.00000000000E+00 -0.00000000000E+00 -0.45593999997E+02  0.45594000000E+02  0.51100000000E-03 0.  1.
         23    2    1    2    0    0  0.00000000000E+00  0.71054273576E-14  0.00000000000E+00  0.91188000000E+02  0.91188000000E+02 0.  0.
    9900012    2    3    3    0    0  0.91787886997E+01  0.33535489615E+02 -0.12120230732E+02  0.54367092642E+02  0.40000019295E+02 0.  0.
         12    1    3    3    0    0 -0.91787886997E+01 -0.33535489615E+02  0.12120230732E+02  0.36820907358E+02  0.00000000000E+00 0. -1.
         11    1    4    4    0    0  0.31698481693E+01 -0.34194915153E+01  0.15910180115E+01  0.49266822725E+01  0.51100000000E-03 0. -1.
        -11    1    4    4    0    0 -0.44750237422E+01  0.26334031864E+01  0.64480429218E+01  0.82787624448E+01  0.51100000000E-03 0.  1.
        -12    1    4    4    0    0  0.10483964273E+02  0.34321577944E+02 -0.20159291665E+02  0.41161647924E+02  0.00000000000E+00 0.  1.
</event>
<event>
 8    1  0.2402194E-006  0.9118800E+02  0.7816164E-02  0.1184000E+00
        -11   -1    0    0    0    0  0.00000000000E+00  0.00000000000E+00  0.45593999997E+02  0.45594000000E+02  0.51100000000E-03 0.  1.
         11   -1    0    0    0    0 -0.00000000000E+00 -0.00000000000E+00 -0.45593999997E+02  0.45594000000E+02  0.51100000000E-03 0. -1.
         23    2    1    2    0    0 -0.17763568394E-14  0.00000000000E+00  0.26645352591E-14  0.91188000000E+02  0.91188000000E+02 0.  0.
    9900012    2    3    3    0    0  0.11686249896E+02  0.34588437319E+02  0.47805571907E+01  0.54367052703E+02  0.39999928247E+02 0.  0.
        -12    1    3    3    0    0 -0.11686249896E+02 -0.34588437319E+02 -0.47805571907E+01  0.36820947297E+02  0.00000000000E+00 0.  1.
         11    1    4    4    0    0  0.17629522956E+01  0.63889408173E+01  0.40961205840E+01  0.77913265663E+01  0.51100000000E-03 0. -1.
        -11    1    4    4    0    0  0.11047330032E+02  0.94876439315E+01  0.16530546338E+02  0.22029930792E+02  0.51100000000E-03 0.  1.
        -12    1    4    4    0    0 -0.11240324316E+01  0.18711852570E+02 -0.15846109731E+02  0.24545795345E+02  0.00000000000E+00 0.  1.
</event>
<event>
 8    1  0.2402194E-006  0.9118800E+02  0.7816164E-02  0.1184000E+00
        -11   -1    0    0    0    0  0.00000000000E+00  0.00000000000E+00  0.45593999997E+02  0.45594000000E+02  0.51100000000E-03 0. -1.
         11   -1    0    0    0    0 -0.00000000000E+00 -0.00000000000E+00 -0.45593999997E+02  0.45594000000E+02  0.51100000000E-03 0.  1.
         23    2    1    2    0    0  0.00000000000E+00 -0.88817841970E-15  0.00000000000E+00  0.91188000000E+02  0.91188000000E+02 0.  0.
    9900012    2    3    3    0    0 -0.14848572549E+02 -0.78547506678E+01  0.32765873101E+02  0.54367086719E+02  0.40000005793E+02 0.  0.
        -12    1    3    3    0    0  0.14848572549E+02  0.78547506678E+01 -0.32765873101E+02  0.36820913281E+02  0.00000000000E+00 0.  1.
         11    1    4    4    0    0 -0.17643947456E+02 -0.99318828382E+01  0.21175889563E+02  0.29297943231E+02  0.51100000000E-03 0. -1.
        -11    1    4    4    0    0  0.75557946810E+01 -0.46243904029E+01  0.13942672168E+02  0.16518871854E+02  0.51100000000E-03 0.  1.
        -12    1    4    4    0    0 -0.47604197748E+01  0.67015225732E+01 -0.23526886302E+01  0.85502716344E+01  0.00000000000E+00 0.  1.
</event>
<event>
 8    1  0.2402194E-006  0.9118800E+02  0.7816164E-02  0.1184000E+00
        -11   -1    0    0    0    0  0.00000000000E+00  0.00000000000E+00  0.45593999997E+02  0.45594000000E+02  0.51100000000E-03 0. -1.
         11   -1    0    0    0    0 -0.00000000000E+00 -0.00000000000E+00 -0.45593999997E+02  0.45594000000E+02  0.51100000000E-03 0.  1.
         23    2    1    2    0    0  0.00000000000E+00 -0.35527136788E-14  0.00000000000E+00  0.91188000000E+02  0.91188000000E+02 0.  0.
    9900012    2    3    3    0    0 -0.71506022881E+01 -0.31618837514E+02  0.17461332454E+02  0.54367080268E+02  0.39999991088E+02 0.  0.
        -12    1    3    3    0    0  0.71506022881E+01  0.31618837514E+02 -0.17461332454E+02  0.36820919732E+02  0.00000000000E+00 0.  1.
         11    1    4    4    0    0  0.10952728651E+02 -0.21571225526E+02  0.13157162800E+00  0.24192919356E+02  0.51100000000E-03 0.  1.
        -11    1    4    4    0    0 -0.95457252825E+01 -0.11237287099E+02  0.59821240657E+01  0.15911734699E+02  0.51100000000E-03 0. -1.
        -12    1    4    4    0    0 -0.85576056571E+01  0.11896751118E+01  0.11347636761E+02  0.14262426214E+02  0.00000000000E+00 0.  1.
</event>
<event>
 8    1  0.2402194E-006  0.9118800E+02  0.7816164E-02  0.1184000E+00
        -11   -1    0    0    0    0  0.00000000000E+00  0.00000000000E+00  0.45593999997E+02  0.45594000000E+02  0.51100000000E-03 0.  1.
         11   -1    0    0    0    0 -0.00000000000E+00 -0.00000000000E+00 -0.45593999997E+02  0.45594000000E+02  0.51100000000E-03 0. -1.
         23    2    1    2    0    0  0.88817841970E-15 -0.35527136788E-14 -0.71054273576E-14  0.91188000000E+02  0.91188000000E+02 0.  0.
    9900012    2    3    3    0    0 -0.47929836405E+01 -0.29295664649E+02  0.21784667598E+02  0.54367076576E+02  0.39999982671E+02 0.  0.
         12    1    3    3    0    0  0.47929836405E+01  0.29295664649E+02 -0.21784667598E+02  0.36820923424E+02  0.00000000000E+00 0. -1.
         11    1    4    4    0    0 -0.23258202992E+01 -0.16189458715E+02 -0.95849219715E+00  0.16383733430E+02  0.51100000000E-03 0. -1.
        -11    1    4    4    0    0  0.23966770626E+01 -0.17174703224E+02  0.34581447601E+01  0.17682569305E+02  0.51100000000E-03 0.  1.
        -12    1    4    4    0    0 -0.48638404039E+01  0.40684972893E+01  0.19285015035E+02  0.20300773842E+02  0.00000000000E+00 0.  1.
</event>
<event>
 8    1  0.2402194E-006  0.9118800E+02  0.7816164E-02  0.1184000E+00
        -11   -1    0    0    0    0  0.00000000000E+00  0.00000000000E+00  0.45593999997E+02  0.45594000000E+02  0.51100000000E-03 0.  1.
         11   -1    0    0    0    0 -0.00000000000E+00 -0.00000000000E+00 -0.45593999997E+02  0.45594000000E+02  0.51100000000E-03 0. -1.
         23    2    1    2    0    0  0.00000000000E+00  0.00000000000E+00  0.35527136788E-14  0.91188000000E+02  0.91188000000E+02 0.  0.
    9900012    2    3    3    0    0 -0.29787723275E+02  0.37010617857E+01 -0.21325406879E+02  0.54367091608E+02  0.40000016938E+02 0.  0.
        -12    1    3    3    0    0  0.29787723275E+02 -0.37010617857E+01  0.21325406879E+02  0.36820908392E+02  0.00000000000E+00 0.  1.
         11    1    4    4    0    0 -0.15083770937E+02 -0.20614010232E+01 -0.40663755418E+01  0.15757694316E+02  0.51100000000E-03 0. -1.
        -11    1    4    4    0    0 -0.83125846804E+01 -0.86211274121E+01  0.35750635592E+01  0.12498159130E+02  0.51100000000E-03 0.  1.
         12    1    4    4    0    0 -0.63913676581E+01  0.14383590221E+02 -0.20834094897E+02  0.26111238162E+02  0.00000000000E+00 0. -1.
</event>
<event>
 8    1  0.2402194E-006  0.9118800E+02  0.7816164E-02  0.1184000E+00
        -11   -1    0    0    0    0  0.00000000000E+00  0.00000000000E+00  0.45593999997E+02  0.45594000000E+02  0.51100000000E-03 0.  1.
         11   -1    0    0    0    0 -0.00000000000E+00 -0.00000000000E+00 -0.45593999997E+02  0.45594000000E+02  0.51100000000E-03 0. -1.
         23    2    1    2    0    0  0.00000000000E+00  0.00000000000E+00 -0.17763568394E-14  0.91188000000E+02  0.91188000000E+02 0.  0.
    9900012    2    3    3    0    0 -0.32988136763E+02 -0.13169015237E+02 -0.97025582814E+01  0.54367085202E+02  0.40000002334E+02 0.  0.
        -12    1    3    3    0    0  0.32988136763E+02  0.13169015237E+02  0.97025582814E+01  0.36820914798E+02  0.00000000000E+00 0.  1.
         11    1    4    4    0    0 -0.12910598890E+02 -0.32518315414E+01 -0.10916653632E+02  0.17217180340E+02  0.51100000000E-03 0. -1.
        -11    1    4    4    0    0 -0.79226192631E+01  0.65000996280E+01 -0.95954718371E+01  0.14038955488E+02  0.51100000000E-03 0.  1.
        -12    1    4    4    0    0 -0.12154918610E+02 -0.16417283324E+02  0.10809567188E+02  0.23110949373E+02  0.00000000000E+00 0.  1.
</event>
<event>
 8    1  0.2402194E-006  0.9118800E+02  0.7816164E-02  0.1184000E+00
        -11   -1    0    0    0    0  0.00000000000E+00  0.00000000000E+00  0.45593999997E+02  0.45594000000E+02  0.51100000000E-03 0. -1.
         11   -1    0    0    0    0 -0.00000000000E+00 -0.00000000000E+00 -0.45593999997E+02  0.45594000000E+02  0.51100000000E-03 0.  1.
         23    2    1    2    0    0  0.00000000000E+00  0.35527136788E-14  0.00000000000E+00  0.91188000000E+02  0.91188000000E+02 0.  0.
    9900012    2    3    3    0    0 -0.18676215525E+01 -0.25724979936E+02  0.26277696615E+02  0.54367082815E+02  0.39999996893E+02 0.  0.
        -12    1    3    3    0    0  0.18676215525E+01  0.25724979936E+02 -0.26277696615E+02  0.36820917185E+02  0.00000000000E+00 0.  1.
         11    1    4    4    0    0 -0.67699091069E+01 -0.33687590934E+01  0.11740423391E+02  0.13964875539E+02  0.51100000000E-03 0. -1.
        -11    1    4    4    0    0  0.26489868093E+01 -0.55861695995E+01 -0.93014755059E+01  0.11168700406E+02  0.51100000000E-03 0.  1.
         12    1    4    4    0    0  0.22533007451E+01 -0.16770051243E+02  0.23838748729E+02  0.29233506870E+02  0.00000000000E+00 0. -1.
</event>
<event>
 8    1  0.2402194E-006  0.9118800E+02  0.7816164E-02  0.1184000E+00
        -11   -1    0    0    0    0  0.00000000000E+00  0.00000000000E+00  0.45593999997E+02  0.45594000000E+02  0.51100000000E-03 0. -1.
         11   -1    0    0    0    0 -0.00000000000E+00 -0.00000000000E+00 -0.45593999997E+02  0.45594000000E+02  0.51100000000E-03 0.  1.
         23    2    1    2    0    0 -0.66613381478E-15  0.35527136788E-14  0.00000000000E+00  0.91188000000E+02  0.91188000000E+02 0.  0.
    9900012    2    3    3    0    0  0.16735862325E+01  0.19820309485E+02  0.30986038530E+02  0.54367080094E+02  0.39999990691E+02 0.  0.
         12    1    3    3    0    0 -0.16735862325E+01 -0.19820309485E+02 -0.30986038530E+02  0.36820919906E+02  0.00000000000E+00 0. -1.
         11    1    4    4    0    0  0.18756746967E+01  0.26739032503E+00  0.44306334849E+01  0.48187307968E+01  0.51100000000E-03 0. -1.
        -11    1    4    4    0    0 -0.13876458425E+02  0.29232325792E+01  0.23987652924E+02  0.27865908924E+02  0.51100000000E-03 0.  1.
        -12    1    4    4    0    0  0.13674369961E+02  0.16629686580E+02  0.25677521208E+01  0.21682440373E+02  0.00000000000E+00 0.  1.
</event>
<event>
 8    1  0.2402194E-006  0.9118800E+02  0.7816164E-02  0.1184000E+00
        -11   -1    0    0    0    0  0.00000000000E+00  0.00000000000E+00  0.45593999997E+02  0.45594000000E+02  0.51100000000E-03 0.  1.
         11   -1    0    0    0    0 -0.00000000000E+00 -0.00000000000E+00 -0.45593999997E+02  0.45594000000E+02  0.51100000000E-03 0. -1.
         23    2    1    2    0    0  0.71054273576E-14  0.17763568394E-14  0.00000000000E+00  0.91188000000E+02  0.91188000000E+02 0.  0.
    9900012    2    3    3    0    0 -0.35709073459E+02  0.39811390630E+01 -0.80493655365E+01  0.54367086363E+02  0.40000004982E+02 0.  0.
        -12    1    3    3    0    0  0.35709073459E+02 -0.39811390630E+01  0.80493655365E+01  0.36820913637E+02  0.00000000000E+00 0.  1.
         11    1    4    4    0    0 -0.69885323066E+01 -0.98953194076E+01 -0.52427422806E+01  0.13200124123E+02  0.51100000000E-03 0. -1.
        -11    1    4    4    0    0  0.49235199043E+01  0.24218379151E+01  0.26943474107E+00  0.54935364271E+01  0.51100000000E-03 0.  1.
         12    1    4    4    0    0 -0.33644061056E+02  0.11454620556E+02 -0.30760579969E+01  0.35673425813E+02  0.00000000000E+00 0. -1.
</event>
<event>
 8    1  0.2402194E-006  0.9118800E+02  0.7816164E-02  0.1184000E+00
        -11   -1    0    0    0    0  0.00000000000E+00  0.00000000000E+00  0.45593999997E+02  0.45594000000E+02  0.51100000000E-03 0. -1.
         11   -1    0    0    0    0 -0.00000000000E+00 -0.00000000000E+00 -0.45593999997E+02  0.45594000000E+02  0.51100000000E-03 0.  1.
         23    2    1    2    0    0 -0.17763568394E-14  0.00000000000E+00  0.00000000000E+00  0.91188000000E+02  0.91188000000E+02 0.  0.
    9900012    2    3    3    0    0  0.74507632712E+01  0.29476094232E+02 -0.20770760373E+02  0.54367102523E+02  0.40000041823E+02 0.  0.
         12    1    3    3    0    0 -0.74507632712E+01 -0.29476094232E+02  0.20770760373E+02  0.36820897477E+02  0.00000000000E+00 0. -1.
         11    1    4    4    0    0 -0.87374271451E+01  0.94505524063E+01 -0.72129097236E+01  0.14754038120E+02  0.51100000000E-03 0. -1.
        -11    1    4    4    0    0  0.19866331457E+02  0.10617127984E+02 -0.17747415516E+02  0.28676912141E+02  0.51100000000E-03 0.  1.
        -12    1    4    4    0    0 -0.36781410408E+01  0.94084138423E+01  0.41895648666E+01  0.10936152263E+02  0.00000000000E+00 0.  1.
</event>
<event>
 8    1  0.2402194E-006  0.9118800E+02  0.7816164E-02  0.1184000E+00
        -11   -1    0    0    0    0  0.00000000000E+00  0.00000000000E+00  0.45593999997E+02  0.45594000000E+02  0.51100000000E-03 0.  1.
         11   -1    0    0    0    0 -0.00000000000E+00 -0.00000000000E+00 -0.45593999997E+02  0.45594000000E+02  0.51100000000E-03 0. -1.
         23    2    1    2    0    0  0.35527136788E-14  0.00000000000E+00 -0.35527136788E-14  0.91188000000E+02  0.91188000000E+02 0.  0.
    9900012    2    3    3    0    0 -0.30709940989E+02 -0.20042979166E+01  0.20215371868E+02  0.54367096352E+02  0.40000027753E+02 0.  0.
         12    1    3    3    0    0  0.30709940989E+02  0.20042979166E+01 -0.20215371868E+02  0.36820903648E+02  0.00000000000E+00 0. -1.
         11    1    4    4    0    0  0.49709359332E+01  0.66421487498E+01  0.26909895890E+01  0.87217985126E+01  0.51100000000E-03 0. -1.
        -11    1    4    4    0    0 -0.53966241970E+01  0.37196880241E+00  0.12538763044E+02  0.13655859272E+02  0.51100000000E-03 0.  1.
         12    1    4    4    0    0 -0.30284252725E+02 -0.90184154688E+01  0.49856192351E+01  0.31989438567E+02  0.00000000000E+00 0. -1.
</event>
<event>
 8    1  0.2402194E-006  0.9118800E+02  0.7816164E-02  0.1184000E+00
        -11   -1    0    0    0    0  0.00000000000E+00  0.00000000000E+00  0.45593999997E+02  0.45594000000E+02  0.51100000000E-03 0.  1.
         11   -1    0    0    0    0 -0.00000000000E+00 -0.00000000000E+00 -0.45593999997E+02  0.45594000000E+02  0.51100000000E-03 0. -1.
         23    2    1    2    0    0 -0.35527136788E-14  0.00000000000E+00  0.35527136788E-14  0.91188000000E+02  0.91188000000E+02 0.  0.
    9900012    2    3    3    0    0  0.29867668935E+02 -0.94704630476E+01 -0.19339461874E+02  0.54367053468E+02  0.39999929990E+02 0.  0.
        -12    1    3    3    0    0 -0.29867668935E+02  0.94704630476E+01  0.19339461874E+02  0.36820946532E+02  0.00000000000E+00 0.  1.
         11    1    4    4    0    0  0.58070729432E+01 -0.10136429011E+02 -0.10150517562E+02  0.15475861731E+02  0.51100000000E-03 0. -1.
        -11    1    4    4    0    0  0.22721837068E+02 -0.10177874800E+02 -0.45191793407E+00  0.24901310111E+02  0.51100000000E-03 0.  1.
        -12    1    4    4    0    0  0.13387589241E+01  0.10843840764E+02 -0.87370263784E+01  0.13989881626E+02  0.00000000000E+00 0.  1.
</event>
<event>
 8    1  0.2402194E-006  0.9118800E+02  0.7816164E-02  0.1184000E+00
        -11   -1    0    0    0    0  0.00000000000E+00  0.00000000000E+00  0.45593999997E+02  0.45594000000E+02  0.51100000000E-03 0.  1.
         11   -1    0    0    0    0 -0.00000000000E+00 -0.00000000000E+00 -0.45593999997E+02  0.45594000000E+02  0.51100000000E-03 0. -1.
         23    2    1    2    0    0  0.00000000000E+00  0.00000000000E+00 -0.35527136788E-14  0.91188000000E+02  0.91188000000E+02 0.  0.
    9900012    2    3    3    0    0  0.23175922332E+02  0.46709913978E+01  0.28228331946E+02  0.54367078488E+02  0.39999987028E+02 0.  0.
        -12    1    3    3    0    0 -0.23175922332E+02 -0.46709913978E+01 -0.28228331946E+02  0.36820921512E+02  0.00000000000E+00 0.  1.
         11    1    4    4    0    0  0.15569892485E+02  0.59289888283E+01  0.10446821531E+01  0.16693286722E+02  0.51100000000E-03 0. -1.
        -11    1    4    4    0    0  0.80435891468E+01  0.10959781876E+02  0.11631180358E+02  0.17891352714E+02  0.51100000000E-03 0.  1.
         12    1    4    4    0    0 -0.43755929993E+00 -0.12217779307E+02  0.15552469434E+02  0.19782439051E+02  0.00000000000E+00 0. -1.
</event>
<event>
 8    1  0.2402194E-006  0.9118800E+02  0.7816164E-02  0.1184000E+00
        -11   -1    0    0    0    0  0.00000000000E+00  0.00000000000E+00  0.45593999997E+02  0.45594000000E+02  0.51100000000E-03 0.  1.
         11   -1    0    0    0    0 -0.00000000000E+00 -0.00000000000E+00 -0.45593999997E+02  0.45594000000E+02  0.51100000000E-03 0. -1.
         23    2    1    2    0    0 -0.35527136788E-14  0.71054273576E-14 -0.44408920985E-15  0.91188000000E+02  0.91188000000E+02 0.  0.
    9900012    2    3    3    0    0  0.16454643996E+02 -0.32755838729E+02 -0.34756959944E+01  0.54367071950E+02  0.39999972123E+02 0.  0.
        -12    1    3    3    0    0 -0.16454643996E+02  0.32755838729E+02  0.34756959944E+01  0.36820928050E+02  0.00000000000E+00 0.  1.
         11    1    4    4    0    0  0.16459883008E+02 -0.18386522400E+01 -0.97984393414E+00  0.16591217107E+02  0.51100000000E-03 0.  1.
        -11    1    4    4    0    0 -0.25850876594E+01 -0.51131216945E+01 -0.93381056948E+01  0.10955679344E+02  0.51100000000E-03 0. -1.
        -12    1    4    4    0    0  0.25798486470E+01 -0.25804064794E+02  0.68422536346E+01  0.26820175498E+02  0.00000000000E+00 0.  1.
</event>
<event>
 8    1  0.2402194E-006  0.9118800E+02  0.7816164E-02  0.1184000E+00
        -11   -1    0    0    0    0  0.00000000000E+00  0.00000000000E+00  0.45593999997E+02  0.45594000000E+02  0.51100000000E-03 0. -1.
         11   -1    0    0    0    0 -0.00000000000E+00 -0.00000000000E+00 -0.45593999997E+02  0.45594000000E+02  0.51100000000E-03 0.  1.
         23    2    1    2    0    0  0.88817841970E-15  0.00000000000E+00  0.71054273576E-14  0.91188000000E+02  0.91188000000E+02 0.  0.
    9900012    2    3    3    0    0  0.19097584915E+01 -0.14710745398E+02 -0.33700545201E+02  0.54367082649E+02  0.39999996516E+02 0.  0.
         12    1    3    3    0    0 -0.19097584915E+01  0.14710745398E+02  0.33700545201E+02  0.36820917351E+02  0.00000000000E+00 0. -1.
         11    1    4    4    0    0 -0.15880496499E+01 -0.12779503240E+02 -0.78199387708E+01  0.15066155694E+02  0.51100000000E-03 0. -1.
        -11    1    4    4    0    0  0.89542118711E+01 -0.52243504187E+01 -0.29980947442E+02  0.31722688368E+02  0.51100000000E-03 0.  1.
         12    1    4    4    0    0 -0.54564037297E+01  0.32931082600E+01  0.41003410116E+01  0.75782385872E+01  0.00000000000E+00 0. -1.
</event>
<event>
 8    1  0.2402194E-006  0.9118800E+02  0.7816164E-02  0.1184000E+00
        -11   -1    0    0    0    0  0.00000000000E+00  0.00000000000E+00  0.45593999997E+02  0.45594000000E+02  0.51100000000E-03 0. -1.
         11   -1    0    0    0    0 -0.00000000000E+00 -0.00000000000E+00 -0.45593999997E+02  0.45594000000E+02  0.51100000000E-03 0.  1.
         23    2    1    2    0    0  0.00000000000E+00  0.00000000000E+00  0.00000000000E+00  0.91188000000E+02  0.91188000000E+02 0.  0.
    9900012    2    3    3    0    0  0.33085185497E+02  0.97552985534E+01  0.12883448167E+02  0.54367101234E+02  0.40000038884E+02 0.  0.
        -12    1    3    3    0    0 -0.33085185497E+02 -0.97552985534E+01 -0.12883448167E+02  0.36820898766E+02  0.00000000000E+00 0.  1.
         11    1    4    4    0    0  0.19573208950E+02 -0.35252847883E+01 -0.11568315856E+01  0.19921756977E+02  0.51100000000E-03 0. -1.
        -11    1    4    4    0    0  0.20692825097E+02  0.68100631558E+01  0.94940230133E+01  0.23763552848E+02  0.51100000000E-03 0.  1.
        -12    1    4    4    0    0 -0.71808485511E+01  0.64705201859E+01  0.45462567397E+01  0.10681791410E+02  0.00000000000E+00 0.  1.
</event>
<event>
 8    1  0.2402194E-006  0.9118800E+02  0.7816164E-02  0.1184000E+00
        -11   -1    0    0    0    0  0.00000000000E+00  0.00000000000E+00  0.45593999997E+02  0.45594000000E+02  0.51100000000E-03 0.  1.
         11   -1    0    0    0    0 -0.00000000000E+00 -0.00000000000E+00 -0.45593999997E+02  0.45594000000E+02  0.51100000000E-03 0. -1.
         23    2    1    2    0    0  0.00000000000E+00 -0.15525775110E-14  0.17763568394E-14  0.91188000000E+02  0.91188000000E+02 0.  0.
    9900012    2    3    3    0    0 -0.36725146923E+02 -0.14636795959E-01 -0.26538535031E+01  0.54367087883E+02  0.40000008446E+02 0.  0.
         12    1    3    3    0    0  0.36725146923E+02  0.14636795959E-01  0.26538535031E+01  0.36820912117E+02  0.00000000000E+00 0. -1.
         11    1    4    4    0    0 -0.23051899600E+02  0.13807436346E+02 -0.13900668508E+02  0.30253329715E+02  0.51100000000E-03 0. -1.
        -11    1    4    4    0    0  0.74189201028E+00 -0.29689535321E+01  0.29610374844E+01  0.42582663228E+01  0.51100000000E-03 0.  1.
         12    1    4    4    0    0 -0.14415139333E+02 -0.10853119610E+02  0.82857775209E+01  0.19855491845E+02  0.00000000000E+00 0. -1.
</event>
<event>
 8    1  0.2402194E-006  0.9118800E+02  0.7816164E-02  0.1184000E+00
        -11   -1    0    0    0    0  0.00000000000E+00  0.00000000000E+00  0.45593999997E+02  0.45594000000E+02  0.51100000000E-03 0. -1.
         11   -1    0    0    0    0 -0.00000000000E+00 -0.00000000000E+00 -0.45593999997E+02  0.45594000000E+02  0.51100000000E-03 0.  1.
         23    2    1    2    0    0  0.00000000000E+00  0.00000000000E+00  0.00000000000E+00  0.91188000000E+02  0.91188000000E+02 0.  0.
    9900012    2    3    3    0    0  0.23075944713E+02 -0.17908612638E+02  0.22417890208E+02  0.54367089740E+02  0.40000012680E+02 0.  0.
        -12    1    3    3    0    0 -0.23075944713E+02  0.17908612638E+02 -0.22417890208E+02  0.36820910260E+02  0.00000000000E+00 0.  1.
         11    1    4    4    0    0 -0.47450403804E+01 -0.54327885957E+01  0.20917428497E+02  0.22126215567E+02  0.51100000000E-03 0. -1.
        -11    1    4    4    0    0  0.18281025020E+02 -0.57933647627E+01 -0.36229602582E+01  0.19516269939E+02  0.51100000000E-03 0.  1.
         12    1    4    4    0    0  0.95399600740E+01 -0.66824592793E+01  0.51234219693E+01  0.12724604234E+02  0.00000000000E+00 0. -1.
</event>
<event>
 8    1  0.2402194E-006  0.9118800E+02  0.7816164E-02  0.1184000E+00
        -11   -1    0    0    0    0  0.00000000000E+00  0.00000000000E+00  0.45593999997E+02  0.45594000000E+02  0.51100000000E-03 0.  1.
         11   -1    0    0    0    0 -0.00000000000E+00 -0.00000000000E+00 -0.45593999997E+02  0.45594000000E+02  0.51100000000E-03 0. -1.
         23    2    1    2    0    0 -0.35527136788E-14  0.17763568394E-14 -0.35527136788E-14  0.91188000000E+02  0.91188000000E+02 0.  0.
    9900012    2    3    3    0    0 -0.26397172214E+02 -0.38173910943E+01 -0.25384970055E+02  0.54367083656E+02  0.39999998812E+02 0.  0.
        -12    1    3    3    0    0  0.26397172214E+02  0.38173910943E+01  0.25384970055E+02  0.36820916344E+02  0.00000000000E+00 0.  1.
         11    1    4    4    0    0  0.89592824618E+00 -0.11823950290E+02 -0.21615592394E+02  0.24654458475E+02  0.51100000000E-03 0. -1.
        -11    1    4    4    0    0 -0.18249252403E+02  0.27435707813E+01  0.37468930222E+00  0.18458136044E+02  0.51100000000E-03 0.  1.
         12    1    4    4    0    0 -0.90438480573E+01  0.52629884148E+01 -0.41440669635E+01  0.11254489137E+02  0.00000000000E+00 0. -1.
</event>
<event>
 8    1  0.2402194E-006  0.9118800E+02  0.7816164E-02  0.1184000E+00
        -11   -1    0    0    0    0  0.00000000000E+00  0.00000000000E+00  0.45593999997E+02  0.45594000000E+02  0.51100000000E-03 0.  1.
         11   -1    0    0    0    0 -0.00000000000E+00 -0.00000000000E+00 -0.45593999997E+02  0.45594000000E+02  0.51100000000E-03 0. -1.
         23    2    1    2    0    0  0.00000000000E+00  0.35527136788E-14  0.10658141036E-13  0.91188000000E+02  0.91188000000E+02 0.  0.
    9900012    2    3    3    0    0  0.15300455065E+02  0.99529378920E+01  0.31978348010E+02  0.54367086930E+02  0.40000006274E+02 0.  0.
         12    1    3    3    0    0 -0.15300455065E+02 -0.99529378920E+01 -0.31978348010E+02  0.36820913070E+02  0.00000000000E+00 0. -1.
         11    1    4    4    0    0  0.15795418680E+02 -0.47640336764E+01  0.14861841544E+01  0.16565023748E+02  0.51100000000E-03 0. -1.
        -11    1    4    4    0    0  0.61627114931E+01  0.13340671441E+02  0.25258914465E+02  0.29222684470E+02  0.51100000000E-03 0.  1.
         12    1    4    4    0    0 -0.66576751087E+01  0.13763001276E+01  0.52332493907E+01  0.85793787118E+01  0.00000000000E+00 0. -1.
</event>
<event>
 8    1  0.2402194E-006  0.9118800E+02  0.7816164E-02  0.1184000E+00
        -11   -1    0    0    0    0  0.00000000000E+00  0.00000000000E+00  0.45593999997E+02  0.45594000000E+02  0.51100000000E-03 0. -1.
         11   -1    0    0    0    0 -0.00000000000E+00 -0.00000000000E+00 -0.45593999997E+02  0.45594000000E+02  0.51100000000E-03 0.  1.
         23    2    1    2    0    0  0.00000000000E+00  0.00000000000E+00 -0.35527136788E-14  0.91188000000E+02  0.91188000000E+02 0.  0.
    9900012    2    3    3    0    0 -0.25438034100E+02 -0.17963985608E+02 -0.19646444023E+02  0.54367066816E+02  0.39999960421E+02 0.  0.
         12    1    3    3    0    0  0.25438034100E+02  0.17963985608E+02  0.19646444023E+02  0.36820933184E+02  0.00000000000E+00 0. -1.
         11    1    4    4    0    0 -0.15348089032E+01  0.34916956634E+01 -0.97972221539E+01  0.10513474172E+02  0.51100000000E-03 0. -1.
        -11    1    4    4    0    0 -0.25015392512E+02 -0.21001310398E+02  0.12532378708E+01  0.32686319866E+02  0.51100000000E-03 0.  1.
        -12    1    4    4    0    0  0.11121673157E+01 -0.45437087357E+00 -0.11102459740E+02  0.11167272778E+02  0.00000000000E+00 0.  1.
</event>
<event>
 8    1  0.2402194E-006  0.9118800E+02  0.7816164E-02  0.1184000E+00
        -11   -1    0    0    0    0  0.00000000000E+00  0.00000000000E+00  0.45593999997E+02  0.45594000000E+02  0.51100000000E-03 0. -1.
         11   -1    0    0    0    0 -0.00000000000E+00 -0.00000000000E+00 -0.45593999997E+02  0.45594000000E+02  0.51100000000E-03 0.  1.
         23    2    1    2    0    0  0.00000000000E+00  0.00000000000E+00  0.00000000000E+00  0.91188000000E+02  0.91188000000E+02 0.  0.
    9900012    2    3    3    0    0  0.33271196109E+02 -0.11130289542E+02  0.11176944831E+02  0.54367082961E+02  0.39999997226E+02 0.  0.
         12    1    3    3    0    0 -0.33271196109E+02  0.11130289542E+02 -0.11176944831E+02  0.36820917039E+02  0.00000000000E+00 0. -1.
         11    1    4    4    0    0  0.13514738150E+01 -0.17425358906E+02 -0.18129936000E+01  0.17571470074E+02  0.51100000000E-03 0. -1.
        -11    1    4    4    0    0  0.15105432128E+02  0.61585518725E+01  0.11409318033E+02  0.19906641584E+02  0.51100000000E-03 0.  1.
        -12    1    4    4    0    0  0.16814290167E+02  0.13651749176E+00  0.15806203981E+01  0.16888971303E+02  0.00000000000E+00 0.  1.
</event>
<event>
 8    1  0.2402194E-006  0.9118800E+02  0.7816164E-02  0.1184000E+00
        -11   -1    0    0    0    0  0.00000000000E+00  0.00000000000E+00  0.45593999997E+02  0.45594000000E+02  0.51100000000E-03 0.  1.
         11   -1    0    0    0    0 -0.00000000000E+00 -0.00000000000E+00 -0.45593999997E+02  0.45594000000E+02  0.51100000000E-03 0. -1.
         23    2    1    2    0    0  0.00000000000E+00  0.00000000000E+00 -0.35527136788E-14  0.91188000000E+02  0.91188000000E+02 0.  0.
    9900012    2    3    3    0    0  0.15719216740E+02  0.14296852565E+02 -0.30071347683E+02  0.54367085839E+02  0.40000003786E+02 0.  0.
        -12    1    3    3    0    0 -0.15719216740E+02 -0.14296852565E+02  0.30071347683E+02  0.36820914161E+02  0.00000000000E+00 0.  1.
         11    1    4    4    0    0  0.19915938408E+02  0.35777978752E+01 -0.57353235878E+01  0.21031861002E+02  0.51100000000E-03 0.  1.
        -11    1    4    4    0    0  0.27958235597E+01  0.46555893100E+01 -0.23412338375E+02  0.24033907915E+02  0.51100000000E-03 0. -1.
        -12    1    4    4    0    0 -0.69925452271E+01  0.60634653803E+01 -0.92368572014E+00  0.93013169219E+01  0.00000000000E+00 0.  1.
</event>
<event>
 8    1  0.2402194E-006  0.9118800E+02  0.7816164E-02  0.1184000E+00
        -11   -1    0    0    0    0  0.00000000000E+00  0.00000000000E+00  0.45593999997E+02  0.45594000000E+02  0.51100000000E-03 0.  1.
         11   -1    0    0    0    0 -0.00000000000E+00 -0.00000000000E+00 -0.45593999997E+02  0.45594000000E+02  0.51100000000E-03 0. -1.
         23    2    1    2    0    0 -0.53290705182E-14  0.00000000000E+00  0.00000000000E+00  0.91188000000E+02  0.91188000000E+02 0.  0.
    9900012    2    3    3    0    0  0.13568156645E+02 -0.23619750479E+02  0.24774856969E+02  0.54367068110E+02  0.39999963370E+02 0.  0.
         12    1    3    3    0    0 -0.13568156645E+02  0.23619750479E+02 -0.24774856969E+02  0.36820931890E+02  0.00000000000E+00 0. -1.
         11    1    4    4    0    0 -0.41937800140E+01  0.36009115862E+01  0.24470424259E+01  0.60450286974E+01  0.51100000000E-03 0. -1.
        -11    1    4    4    0    0 -0.71566823029E+01 -0.10767141195E+02  0.55373963044E+01  0.14064572130E+02  0.51100000000E-03 0.  1.
        -12    1    4    4    0    0  0.24918618962E+02 -0.16453520870E+02  0.16790418239E+02  0.34257467283E+02  0.00000000000E+00 0.  1.
</event>
<event>
 8    1  0.2402194E-006  0.9118800E+02  0.7816164E-02  0.1184000E+00
        -11   -1    0    0    0    0  0.00000000000E+00  0.00000000000E+00  0.45593999997E+02  0.45594000000E+02  0.51100000000E-03 0. -1.
         11   -1    0    0    0    0 -0.00000000000E+00 -0.00000000000E+00 -0.45593999997E+02  0.45594000000E+02  0.51100000000E-03 0.  1.
         23    2    1    2    0    0 -0.17763568394E-14 -0.22204460493E-15  0.00000000000E+00  0.91188000000E+02  0.91188000000E+02 0.  0.
    9900012    2    3    3    0    0 -0.15346326711E+02  0.13785920513E+01  0.33442038273E+02  0.54367079542E+02  0.39999989431E+02 0.  0.
        -12    1    3    3    0    0  0.15346326711E+02 -0.13785920513E+01 -0.33442038273E+02  0.36820920458E+02  0.00000000000E+00 0.  1.
         11    1    4    4    0    0 -0.25598689335E+01  0.23879190931E+01 -0.28539039523E+01  0.45166198182E+01  0.51100000000E-03 0. -1.
        -11    1    4    4    0    0  0.68465228062E+01  0.83230100759E+00 -0.16456579010E+01  0.70905422706E+01  0.51100000000E-03 0.  1.
         12    1    4    4    0    0 -0.19632980583E+02 -0.18416280493E+01  0.37941600126E+02  0.42759917453E+02  0.00000000000E+00 0. -1.
</event>
<event>
 8    1  0.2402194E-006  0.9118800E+02  0.7816164E-02  0.1184000E+00
        -11   -1    0    0    0    0  0.00000000000E+00  0.00000000000E+00  0.45593999997E+02  0.45594000000E+02  0.51100000000E-03 0.  1.
         11   -1    0    0    0    0 -0.00000000000E+00 -0.00000000000E+00 -0.45593999997E+02  0.45594000000E+02  0.51100000000E-03 0. -1.
         23    2    1    2    0    0 -0.35527136788E-14  0.00000000000E+00 -0.88817841970E-15  0.91188000000E+02  0.91188000000E+02 0.  0.
    9900012    2    3    3    0    0  0.18262317366E+02  0.31571410478E+02  0.50510354367E+01  0.54367093518E+02  0.40000021294E+02 0.  0.
         12    1    3    3    0    0 -0.18262317366E+02 -0.31571410478E+02 -0.50510354367E+01  0.36820906482E+02  0.00000000000E+00 0. -1.
         11    1    4    4    0    0  0.24371286515E+02  0.18385560761E+02 -0.63422835058E+01  0.31180330518E+02  0.51100000000E-03 0. -1.
        -11    1    4    4    0    0 -0.73558940204E+01  0.42795960708E+00  0.38555927447E+01  0.83161242138E+01  0.51100000000E-03 0.  1.
         12    1    4    4    0    0  0.12469248721E+01  0.12757890109E+02  0.75377261978E+01  0.14870638786E+02  0.00000000000E+00 0. -1.
</event>
<event>
 8    1  0.2402194E-006  0.9118800E+02  0.7816164E-02  0.1184000E+00
        -11   -1    0    0    0    0  0.00000000000E+00  0.00000000000E+00  0.45593999997E+02  0.45594000000E+02  0.51100000000E-03 0. -1.
         11   -1    0    0    0    0 -0.00000000000E+00 -0.00000000000E+00 -0.45593999997E+02  0.45594000000E+02  0.51100000000E-03 0.  1.
         23    2    1    2    0    0 -0.17763568394E-14  0.00000000000E+00  0.00000000000E+00  0.91188000000E+02  0.91188000000E+02 0.  0.
    9900012    2    3    3    0    0  0.23540092528E+01  0.10652793182E+02 -0.35167544226E+02  0.54367088428E+02  0.40000009689E+02 0.  0.
         12    1    3    3    0    0 -0.23540092528E+01 -0.10652793182E+02  0.35167544226E+02  0.36820911572E+02  0.00000000000E+00 0. -1.
         11    1    4    4    0    0 -0.43959548641E+01  0.90832253333E+01 -0.13042984315E+02  0.16490871467E+02  0.51100000000E-03 0. -1.
        -11    1    4    4    0    0 -0.64792196281E+01  0.10645265822E+02 -0.16912065692E+02  0.21007616182E+02  0.51100000000E-03 0.  1.
        -12    1    4    4    0    0  0.13229183745E+02 -0.90756979734E+01 -0.52124942182E+01  0.16868600779E+02  0.00000000000E+00 0.  1.
</event>
<event>
 8    1  0.2402194E-006  0.9118800E+02  0.7816164E-02  0.1184000E+00
        -11   -1    0    0    0    0  0.00000000000E+00  0.00000000000E+00  0.45593999997E+02  0.45594000000E+02  0.51100000000E-03 0.  1.
         11   -1    0    0    0    0 -0.00000000000E+00 -0.00000000000E+00 -0.45593999997E+02  0.45594000000E+02  0.51100000000E-03 0. -1.
         23    2    1    2    0    0  0.00000000000E+00  0.17763568394E-14 -0.35527136788E-14  0.91188000000E+02  0.91188000000E+02 0.  0.
    9900012    2    3    3    0    0 -0.28294697511E+02 -0.68934847006E+01 -0.22531567016E+02  0.54367060974E+02  0.39999947102E+02 0.  0.
        -12    1    3    3    0    0  0.28294697511E+02  0.68934847006E+01  0.22531567016E+02  0.36820939026E+02  0.00000000000E+00 0.  1.
         11    1    4    4    0    0 -0.17899138037E+02  0.11660618900E+02 -0.50236056657E+01  0.21945062993E+02  0.51100000000E-03 0. -1.
        -11    1    4    4    0    0 -0.11562651295E+02 -0.15610632487E+02 -0.20373994396E+02  0.28151134960E+02  0.51100000000E-03 0.  1.
         12    1    4    4    0    0  0.11670918215E+01 -0.29434711144E+01  0.28660330459E+01  0.42708630207E+01  0.00000000000E+00 0. -1.
</event>
<event>
 8    1  0.2402194E-006  0.9118800E+02  0.7816164E-02  0.1184000E+00
        -11   -1    0    0    0    0  0.00000000000E+00  0.00000000000E+00  0.45593999997E+02  0.45594000000E+02  0.51100000000E-03 0.  1.
         11   -1    0    0    0    0 -0.00000000000E+00 -0.00000000000E+00 -0.45593999997E+02  0.45594000000E+02  0.51100000000E-03 0. -1.
         23    2    1    2    0    0 -0.16653345369E-15  0.17763568394E-14  0.00000000000E+00  0.91188000000E+02  0.91188000000E+02 0.  0.
    9900012    2    3    3    0    0  0.42374079876E+00 -0.15546328661E+02 -0.33375312641E+02  0.54367090384E+02  0.40000014149E+02 0.  0.
        -12    1    3    3    0    0 -0.42374079876E+00  0.15546328661E+02  0.33375312641E+02  0.36820909616E+02  0.00000000000E+00 0.  1.
         11    1    4    4    0    0 -0.18020730039E+02 -0.78541075342E+00 -0.20338470472E+02  0.27184866426E+02  0.51100000000E-03 0. -1.
        -11    1    4    4    0    0  0.97588696065E+01 -0.76044822559E+01 -0.49567468144E+01  0.13327904022E+02  0.51100000000E-03 0.  1.
         12    1    4    4    0    0  0.86856012308E+01 -0.71564356512E+01 -0.80800953541E+01  0.13854319936E+02  0.00000000000E+00 0. -1.
</event>
<event>
 8    1  0.2402194E-006  0.9118800E+02  0.7816164E-02  0.1184000E+00
        -11   -1    0    0    0    0  0.00000000000E+00  0.00000000000E+00  0.45593999997E+02  0.45594000000E+02  0.51100000000E-03 0.  1.
         11   -1    0    0    0    0 -0.00000000000E+00 -0.00000000000E+00 -0.45593999997E+02  0.45594000000E+02  0.51100000000E-03 0. -1.
         23    2    1    2    0    0  0.00000000000E+00  0.00000000000E+00  0.00000000000E+00  0.91188000000E+02  0.91188000000E+02 0.  0.
    9900012    2    3    3    0    0 -0.58290202126E+01  0.28092331009E+02  0.23078625087E+02  0.54367089174E+02  0.40000011390E+02 0.  0.
         12    1    3    3    0    0  0.58290202126E+01 -0.28092331009E+02 -0.23078625087E+02  0.36820910826E+02  0.00000000000E+00 0. -1.
         11    1    4    4    0    0  0.33100592664E+01  0.46084001804E+01 -0.20243237715E+01  0.60242619102E+01  0.51100000000E-03 0. -1.
        -11    1    4    4    0    0 -0.11520159690E+02  0.92887165207E+01  0.29741993597E+02  0.33220182379E+02  0.51100000000E-03 0.  1.
        -12    1    4    4    0    0  0.23810802113E+01  0.14195214308E+02 -0.46390447389E+01  0.15122644885E+02  0.00000000000E+00 0.  1.
</event>
<event>
 8    1  0.2402194E-006  0.9118800E+02  0.7816164E-02  0.1184000E+00
        -11   -1    0    0    0    0  0.00000000000E+00  0.00000000000E+00  0.45593999997E+02  0.45594000000E+02  0.51100000000E-03 0.  1.
         11   -1    0    0    0    0 -0.00000000000E+00 -0.00000000000E+00 -0.45593999997E+02  0.45594000000E+02  0.51100000000E-03 0. -1.
         23    2    1    2    0    0  0.00000000000E+00  0.35527136788E-14 -0.17763568394E-14  0.91188000000E+02  0.91188000000E+02 0.  0.
    9900012    2    3    3    0    0 -0.26739457514E+02 -0.23845878240E+02  0.84943915080E+01  0.54367093109E+02  0.40000020361E+02 0.  0.
         12    1    3    3    0    0  0.26739457514E+02  0.23845878240E+02 -0.84943915080E+01  0.36820906891E+02  0.00000000000E+00 0. -1.
         11    1    4    4    0    0 -0.11174875580E+02 -0.47550410171E+01 -0.35711499109E+01  0.12658648082E+02  0.51100000000E-03 0. -1.
        -11    1    4    4    0    0 -0.21877866105E+02 -0.20421662414E+02  0.23162020526E+01  0.30017496786E+02  0.51100000000E-03 0.  1.
         12    1    4    4    0    0  0.63132841710E+01  0.13308251919E+01  0.97493393662E+01  0.11690948242E+02  0.00000000000E+00 0. -1.
</event>
<event>
 8    1  0.2402194E-006  0.9118800E+02  0.7816164E-02  0.1184000E+00
        -11   -1    0    0    0    0  0.00000000000E+00  0.00000000000E+00  0.45593999997E+02  0.45594000000E+02  0.51100000000E-03 0. -1.
         11   -1    0    0    0    0 -0.00000000000E+00 -0.00000000000E+00 -0.45593999997E+02  0.45594000000E+02  0.51100000000E-03 0.  1.
         23    2    1    2    0    0  0.17763568394E-14 -0.35527136788E-14  0.00000000000E+00  0.91188000000E+02  0.91188000000E+02 0.  0.
    9900012    2    3    3    0    0  0.14748597667E+02  0.25220303042E+02 -0.22409725414E+02  0.54367073724E+02  0.39999976170E+02 0.  0.
         12    1    3    3    0    0 -0.14748597667E+02 -0.25220303042E+02  0.22409725414E+02  0.36820926276E+02  0.00000000000E+00 0. -1.
         11    1    4    4    0    0 -0.17614695937E+01  0.87810335525E+00  0.23671060950E+01  0.30784788708E+01  0.51100000000E-03 0. -1.
        -11    1    4    4    0    0  0.12633238007E+01 -0.72090678709E+01 -0.11870283602E+02  0.13945260114E+02  0.51100000000E-03 0.  1.
        -12    1    4    4    0    0  0.15246743460E+02  0.31551267558E+02 -0.12906547907E+02  0.37343334740E+02  0.00000000000E+00 0.  1.
</event>
<event>
 8    1  0.2402194E-006  0.9118800E+02  0.7816164E-02  0.1184000E+00
        -11   -1    0    0    0    0  0.00000000000E+00  0.00000000000E+00  0.45593999997E+02  0.45594000000E+02  0.51100000000E-03 0.  1.
         11   -1    0    0    0    0 -0.00000000000E+00 -0.00000000000E+00 -0.45593999997E+02  0.45594000000E+02  0.51100000000E-03 0. -1.
         23    2    1    2    0    0 -0.17763568394E-14  0.35527136788E-14  0.00000000000E+00  0.91188000000E+02  0.91188000000E+02 0.  0.
    9900012    2    3    3    0    0 -0.15148154953E+02  0.22760741956E+02 -0.24662976820E+02  0.54367076621E+02  0.39999982773E+02 0.  0.
        -12    1    3    3    0    0  0.15148154953E+02 -0.22760741956E+02  0.24662976820E+02  0.36820923379E+02  0.00000000000E+00 0.  1.
         11    1    4    4    0    0 -0.10597755212E+02  0.10124223112E+02 -0.15774790270E+02  0.21532680220E+02  0.51100000000E-03 0. -1.
        -11    1    4    4    0    0 -0.15003705797E+02  0.14392355720E+02 -0.40445167651E+01  0.21180396760E+02  0.51100000000E-03 0.  1.
        -12    1    4    4    0    0  0.10453306056E+02 -0.17558368756E+01 -0.48436697847E+01  0.11653999640E+02  0.00000000000E+00 0.  1.
</event>
<event>
 8    1  0.2402194E-006  0.9118800E+02  0.7816164E-02  0.1184000E+00
        -11   -1    0    0    0    0  0.00000000000E+00  0.00000000000E+00  0.45593999997E+02  0.45594000000E+02  0.51100000000E-03 0.  1.
         11   -1    0    0    0    0 -0.00000000000E+00 -0.00000000000E+00 -0.45593999997E+02  0.45594000000E+02  0.51100000000E-03 0. -1.
         23    2    1    2    0    0  0.88817841970E-15  0.00000000000E+00  0.35527136788E-14  0.91188000000E+02  0.91188000000E+02 0.  0.
    9900012    2    3    3    0    0  0.52536161330E+01  0.33968741103E+02  0.13202453541E+02  0.54367073422E+02  0.39999975480E+02 0.  0.
         12    1    3    3    0    0 -0.52536161330E+01 -0.33968741103E+02 -0.13202453541E+02  0.36820926578E+02  0.00000000000E+00 0. -1.
         11    1    4    4    0    0 -0.11947107485E+01 -0.38375845207E+00 -0.95122069310E+01  0.95946175161E+01  0.51100000000E-03 0. -1.
        -11    1    4    4    0    0 -0.41436841982E+01  0.19738842343E+02  0.89084057779E+01  0.22048848259E+02  0.51100000000E-03 0.  1.
        -12    1    4    4    0    0  0.10592011080E+02  0.14613657212E+02  0.13806254694E+02  0.22723607647E+02  0.00000000000E+00 0.  1.
</event>
<event>
 8    1  0.2402194E-006  0.9118800E+02  0.7816164E-02  0.1184000E+00
        -11   -1    0    0    0    0  0.00000000000E+00  0.00000000000E+00  0.45593999997E+02  0.45594000000E+02  0.51100000000E-03 0.  1.
         11   -1    0    0    0    0 -0.00000000000E+00 -0.00000000000E+00 -0.45593999997E+02  0.45594000000E+02  0.51100000000E-03 0. -1.
         23    2    1    2    0    0  0.00000000000E+00 -0.17763568394E-14  0.71054273576E-14  0.91188000000E+02  0.91188000000E+02 0.  0.
    9900012    2    3    3    0    0  0.13610546367E+02  0.91203954024E+01  0.32974968169E+02  0.54367121270E+02  0.40000084559E+02 0.  0.
         12    1    3    3    0    0 -0.13610546367E+02 -0.91203954024E+01 -0.32974968169E+02  0.36820878730E+02  0.00000000000E+00 0. -1.
         11    1    4    4    0    0  0.10751269941E+02  0.12065845125E+02  0.38409913928E+01  0.16611069775E+02  0.51100000000E-03 0. -1.
        -11    1    4    4    0    0 -0.14960358296E+01 -0.18175714968E+01  0.32216476106E+02  0.32302368679E+02  0.51100000000E-03 0.  1.
        -12    1    4    4    0    0  0.43553122557E+01 -0.11278782257E+01 -0.30824993299E+01  0.54536828158E+01  0.00000000000E+00 0.  1.
</event>
<event>
 8    1  0.2402194E-006  0.9118800E+02  0.7816164E-02  0.1184000E+00
        -11   -1    0    0    0    0  0.00000000000E+00  0.00000000000E+00  0.45593999997E+02  0.45594000000E+02  0.51100000000E-03 0.  1.
         11   -1    0    0    0    0 -0.00000000000E+00 -0.00000000000E+00 -0.45593999997E+02  0.45594000000E+02  0.51100000000E-03 0. -1.
         23    2    1    2    0    0  0.00000000000E+00  0.17763568394E-14 -0.35527136788E-14  0.91188000000E+02  0.91188000000E+02 0.  0.
    9900012    2    3    3    0    0  0.17215659742E+02  0.10436588371E+02  0.30829826045E+02  0.54367088942E+02  0.40000010862E+02 0.  0.
         12    1    3    3    0    0 -0.17215659742E+02 -0.10436588371E+02 -0.30829826045E+02  0.36820911058E+02  0.00000000000E+00 0. -1.
         11    1    4    4    0    0  0.10148950345E+02  0.19380937592E+02  0.12266522900E+02  0.25081657030E+02  0.51100000000E-03 0. -1.
        -11    1    4    4    0    0  0.91329129772E+01 -0.97796801703E-01  0.59702948913E+00  0.91529289375E+01  0.51100000000E-03 0.  1.
         12    1    4    4    0    0 -0.20662035811E+01 -0.88465524192E+01  0.17966273656E+02  0.20132502974E+02  0.00000000000E+00 0. -1.
</event>
<event>
 8    1  0.2402194E-006  0.9118800E+02  0.7816164E-02  0.1184000E+00
        -11   -1    0    0    0    0  0.00000000000E+00  0.00000000000E+00  0.45593999997E+02  0.45594000000E+02  0.51100000000E-03 0. -1.
         11   -1    0    0    0    0 -0.00000000000E+00 -0.00000000000E+00 -0.45593999997E+02  0.45594000000E+02  0.51100000000E-03 0.  1.
         23    2    1    2    0    0  0.35527136788E-14  0.22204460493E-15  0.00000000000E+00  0.91188000000E+02  0.91188000000E+02 0.  0.
    9900012    2    3    3    0    0  0.12682619044E+02 -0.72671164030E+00 -0.34560131987E+02  0.54367086668E+02  0.40000005677E+02 0.  0.
         12    1    3    3    0    0 -0.12682619044E+02  0.72671164030E+00  0.34560131987E+02  0.36820913332E+02  0.00000000000E+00 0. -1.
         11    1    4    4    0    0 -0.79010995488E+01  0.82836092986E+01 -0.16045161967E+02  0.19710220189E+02  0.51100000000E-03 0. -1.
        -11    1    4    4    0    0 -0.17941507813E+01  0.32676137389E+01 -0.17453851373E+01  0.41161445688E+01  0.51100000000E-03 0.  1.
        -12    1    4    4    0    0  0.22377869374E+02 -0.12277934678E+02 -0.16769584883E+02  0.30540721910E+02  0.00000000000E+00 0.  1.
</event>
<event>
 8    1  0.2402194E-006  0.9118800E+02  0.7816164E-02  0.1184000E+00
        -11   -1    0    0    0    0  0.00000000000E+00  0.00000000000E+00  0.45593999997E+02  0.45594000000E+02  0.51100000000E-03 0.  1.
         11   -1    0    0    0    0 -0.00000000000E+00 -0.00000000000E+00 -0.45593999997E+02  0.45594000000E+02  0.51100000000E-03 0. -1.
         23    2    1    2    0    0  0.00000000000E+00  0.31086244690E-14  0.71054273576E-14  0.91188000000E+02  0.91188000000E+02 0.  0.
    9900012    2    3    3    0    0 -0.17665742090E+02  0.33040612251E+01  0.32136967078E+02  0.54367083157E+02  0.39999997673E+02 0.  0.
         12    1    3    3    0    0  0.17665742090E+02 -0.33040612251E+01 -0.32136967078E+02  0.36820916843E+02  0.00000000000E+00 0. -1.
         11    1    4    4    0    0 -0.22258290383E+01 -0.13208106966E+02  0.71338784199E+00  0.13413326471E+02  0.51100000000E-03 0. -1.
        -11    1    4    4    0    0 -0.14588196391E+02  0.62023212905E+01  0.20422182881E+02  0.25852462498E+02  0.51100000000E-03 0.  1.
         12    1    4    4    0    0 -0.85171666073E+00  0.10309846901E+02  0.11001396355E+02  0.15101294188E+02  0.00000000000E+00 0. -1.
</event>
<event>
 8    1  0.2402194E-006  0.9118800E+02  0.7816164E-02  0.1184000E+00
        -11   -1    0    0    0    0  0.00000000000E+00  0.00000000000E+00  0.45593999997E+02  0.45594000000E+02  0.51100000000E-03 0.  1.
         11   -1    0    0    0    0 -0.00000000000E+00 -0.00000000000E+00 -0.45593999997E+02  0.45594000000E+02  0.51100000000E-03 0. -1.
         23    2    1    2    0    0  0.14210854715E-13  0.22204460493E-15  0.15543122345E-14  0.91188000000E+02  0.91188000000E+02 0.  0.
    9900012    2    3    3    0    0 -0.36752633262E+02 -0.16009168523E+01 -0.15714267881E+01  0.54366968392E+02  0.39999736043E+02 0.  0.
        -12    1    3    3    0    0  0.36752633262E+02  0.16009168523E+01  0.15714267881E+01  0.36821031608E+02  0.00000000000E+00 0.  1.
         11    1    4    4    0    0  0.14936804126E+01  0.13810726550E+01  0.18905887300E+01  0.27771872210E+01  0.51100000000E-03 0.  1.
        -11    1    4    4    0    0 -0.17945246461E+01  0.46567104050E+01 -0.12332889761E+02  0.13304339165E+02  0.51100000000E-03 0. -1.
         12    1    4    4    0    0 -0.36451789029E+02 -0.76386999123E+01  0.88708742431E+01  0.38285442006E+02  0.00000000000E+00 0. -1.
</event>
<event>
 8    1  0.2402194E-006  0.9118800E+02  0.7816164E-02  0.1184000E+00
        -11   -1    0    0    0    0  0.00000000000E+00  0.00000000000E+00  0.45593999997E+02  0.45594000000E+02  0.51100000000E-03 0. -1.
         11   -1    0    0    0    0 -0.00000000000E+00 -0.00000000000E+00 -0.45593999997E+02  0.45594000000E+02  0.51100000000E-03 0.  1.
         23    2    1    2    0    0 -0.35527136788E-14  0.35527136788E-14 -0.17763568394E-14  0.91188000000E+02  0.91188000000E+02 0.  0.
    9900012    2    3    3    0    0 -0.16453655114E+02 -0.29369801107E+02  0.14915533773E+02  0.54367066668E+02  0.39999960083E+02 0.  0.
        -12    1    3    3    0    0  0.16453655114E+02  0.29369801107E+02 -0.14915533773E+02  0.36820933332E+02  0.00000000000E+00 0.  1.
         11    1    4    4    0    0  0.62907116396E+00 -0.12691056996E+02  0.22229666286E+01  0.12899621665E+02  0.51100000000E-03 0. -1.
        -11    1    4    4    0    0  0.18550334940E+01 -0.19877939595E+02  0.38878592244E+01  0.20339348107E+02  0.51100000000E-03 0.  1.
        -12    1    4    4    0    0 -0.18937759772E+02  0.31991954833E+01  0.88047079199E+01  0.21128096897E+02  0.00000000000E+00 0.  1.
</event>
<event>
 8    1  0.2402194E-006  0.9118800E+02  0.7816164E-02  0.1184000E+00
        -11   -1    0    0    0    0  0.00000000000E+00  0.00000000000E+00  0.45593999997E+02  0.45594000000E+02  0.51100000000E-03 0.  1.
         11   -1    0    0    0    0 -0.00000000000E+00 -0.00000000000E+00 -0.45593999997E+02  0.45594000000E+02  0.51100000000E-03 0. -1.
         23    2    1    2    0    0  0.00000000000E+00  0.00000000000E+00  0.35527136788E-14  0.91188000000E+02  0.91188000000E+02 0.  0.
    9900012    2    3    3    0    0  0.12128787596E+02  0.25292788483E+02  0.23852602638E+02  0.54367091668E+02  0.40000017075E+02 0.  0.
         12    1    3    3    0    0 -0.12128787596E+02 -0.25292788483E+02 -0.23852602638E+02  0.36820908332E+02  0.00000000000E+00 0. -1.
         11    1    4    4    0    0  0.52672178289E+01  0.70570730733E+01 -0.41109415535E+01  0.97183179994E+01  0.51100000000E-03 0. -1.
        -11    1    4    4    0    0  0.68582761948E+01  0.62254802496E+01  0.30922069022E+02  0.32279512226E+02  0.51100000000E-03 0.  1.
        -12    1    4    4    0    0  0.32935726859E-02  0.12010235160E+02 -0.29585248308E+01  0.12369261442E+02  0.00000000000E+00 0.  1.
</event>
<event>
 8    1  0.2402194E-006  0.9118800E+02  0.7816164E-02  0.1184000E+00
        -11   -1    0    0    0    0  0.00000000000E+00  0.00000000000E+00  0.45593999997E+02  0.45594000000E+02  0.51100000000E-03 0. -1.
         11   -1    0    0    0    0 -0.00000000000E+00 -0.00000000000E+00 -0.45593999997E+02  0.45594000000E+02  0.51100000000E-03 0.  1.
         23    2    1    2    0    0 -0.35527136788E-14  0.00000000000E+00 -0.17763568394E-14  0.91188000000E+02  0.91188000000E+02 0.  0.
    9900012    2    3    3    0    0 -0.16409585233E+02 -0.30749646355E+02  0.11872968586E+02  0.54367046434E+02  0.39999913955E+02 0.  0.
        -12    1    3    3    0    0  0.16409585233E+02  0.30749646355E+02 -0.11872968586E+02  0.36820953566E+02  0.00000000000E+00 0.  1.
         11    1    4    4    0    0 -0.71694075342E+01 -0.95209411022E+01  0.20572001592E+02  0.23775112484E+02  0.51100000000E-03 0. -1.
        -11    1    4    4    0    0 -0.11985400265E+02 -0.22894605691E+02 -0.90053619817E+01  0.27366207884E+02  0.51100000000E-03 0.  1.
        -12    1    4    4    0    0  0.27452225667E+01  0.16659004381E+01  0.30632897557E+00  0.32257260658E+01  0.00000000000E+00 0.  1.
</event>
<event>
 8    1  0.2402194E-006  0.9118800E+02  0.7816164E-02  0.1184000E+00
        -11   -1    0    0    0    0  0.00000000000E+00  0.00000000000E+00  0.45593999997E+02  0.45594000000E+02  0.51100000000E-03 0.  1.
         11   -1    0    0    0    0 -0.00000000000E+00 -0.00000000000E+00 -0.45593999997E+02  0.45594000000E+02  0.51100000000E-03 0. -1.
         23    2    1    2    0    0  0.00000000000E+00  0.00000000000E+00  0.00000000000E+00  0.91188000000E+02  0.91188000000E+02 0.  0.
    9900012    2    3    3    0    0  0.23880167330E+02  0.27539208693E+02  0.52066522885E+01  0.54367086986E+02  0.40000006401E+02 0.  0.
         12    1    3    3    0    0 -0.23880167330E+02 -0.27539208693E+02 -0.52066522885E+01  0.36820913014E+02  0.00000000000E+00 0. -1.
         11    1    4    4    0    0 -0.85320416122E-01  0.29767386376E+01  0.75853402812E+01  0.81489655744E+01  0.51100000000E-03 0.  1.
        -11    1    4    4    0    0  0.27835905215E+02  0.91046427107E+01 -0.59558825234E+01  0.29886529991E+02  0.51100000000E-03 0. -1.
         12    1    4    4    0    0 -0.38704174686E+01  0.15457827345E+02  0.35771945307E+01  0.16331591420E+02  0.00000000000E+00 0. -1.
</event>
<event>
 8    1  0.2402194E-006  0.9118800E+02  0.7816164E-02  0.1184000E+00
        -11   -1    0    0    0    0  0.00000000000E+00  0.00000000000E+00  0.45593999997E+02  0.45594000000E+02  0.51100000000E-03 0.  1.
         11   -1    0    0    0    0 -0.00000000000E+00 -0.00000000000E+00 -0.45593999997E+02  0.45594000000E+02  0.51100000000E-03 0. -1.
         23    2    1    2    0    0  0.35527136788E-14  0.17763568394E-14  0.35527136788E-14  0.91188000000E+02  0.91188000000E+02 0.  0.
    9900012    2    3    3    0    0 -0.28979690599E+02  0.12719257682E+02  0.18819611613E+02  0.54367085231E+02  0.40000002400E+02 0.  0.
         12    1    3    3    0    0  0.28979690599E+02 -0.12719257682E+02 -0.18819611613E+02  0.36820914769E+02  0.00000000000E+00 0. -1.
         11    1    4    4    0    0 -0.74365253861E+01 -0.28075065398E+01 -0.67307033457E+01  0.10415679074E+02  0.51100000000E-03 0. -1.
        -11    1    4    4    0    0  0.20759028577E+01  0.38950420994E+01 -0.28273291223E+01  0.52416138600E+01  0.51100000000E-03 0.  1.
        -12    1    4    4    0    0 -0.23619068071E+02  0.11631722122E+02  0.28377644081E+02  0.38709792296E+02  0.00000000000E+00 0.  1.
</event>
<event>
 8    1  0.2402194E-006  0.9118800E+02  0.7816164E-02  0.1184000E+00
        -11   -1    0    0    0    0  0.00000000000E+00  0.00000000000E+00  0.45593999997E+02  0.45594000000E+02  0.51100000000E-03 0.  1.
         11   -1    0    0    0    0 -0.00000000000E+00 -0.00000000000E+00 -0.45593999997E+02  0.45594000000E+02  0.51100000000E-03 0. -1.
         23    2    1    2    0    0 -0.35527136788E-14  0.00000000000E+00  0.35527136788E-14  0.91188000000E+02  0.91188000000E+02 0.  0.
    9900012    2    3    3    0    0  0.25760081369E+02  0.13958375198E+02 -0.22301591242E+02  0.54367095581E+02  0.40000025995E+02 0.  0.
        -12    1    3    3    0    0 -0.25760081369E+02 -0.13958375198E+02  0.22301591242E+02  0.36820904419E+02  0.00000000000E+00 0.  1.
         11    1    4    4    0    0  0.98516217199E+01 -0.12364004766E+02 -0.56018606329E+01  0.16772116956E+02  0.51100000000E-03 0. -1.
        -11    1    4    4    0    0  0.80825997950E+01  0.21705516425E+02 -0.16621427418E+02  0.28508414765E+02  0.51100000000E-03 0.  1.
         12    1    4    4    0    0  0.78258598541E+01  0.46168635394E+01 -0.78303191232E-01  0.90865638603E+01  0.00000000000E+00 0. -1.
</event>
<event>
 8    1  0.2402194E-006  0.9118800E+02  0.7816164E-02  0.1184000E+00
        -11   -1    0    0    0    0  0.00000000000E+00  0.00000000000E+00  0.45593999997E+02  0.45594000000E+02  0.51100000000E-03 0. -1.
         11   -1    0    0    0    0 -0.00000000000E+00 -0.00000000000E+00 -0.45593999997E+02  0.45594000000E+02  0.51100000000E-03 0.  1.
         23    2    1    2    0    0  0.00000000000E+00  0.00000000000E+00  0.00000000000E+00  0.91188000000E+02  0.91188000000E+02 0.  0.
    9900012    2    3    3    0    0  0.31344954129E+02  0.18097473102E+02 -0.67643823854E+01  0.54367060970E+02  0.39999947092E+02 0.  0.
         12    1    3    3    0    0 -0.31344954129E+02 -0.18097473102E+02  0.67643823854E+01  0.36820939030E+02  0.00000000000E+00 0. -1.
         11    1    4    4    0    0 -0.68310265122E+01 -0.34442481262E+01 -0.15393860811E+01  0.78035554802E+01  0.51100000000E-03 0. -1.
        -11    1    4    4    0    0  0.29435893399E+02  0.22774506215E+02 -0.60193716898E+01  0.37701230607E+02  0.51100000000E-03 0.  1.
        -12    1    4    4    0    0  0.87400872426E+01 -0.12327849870E+01  0.79437538548E+00  0.88622748821E+01  0.00000000000E+00 0.  1.
</event>
<event>
 8    1  0.2402194E-006  0.9118800E+02  0.7816164E-02  0.1184000E+00
        -11   -1    0    0    0    0  0.00000000000E+00  0.00000000000E+00  0.45593999997E+02  0.45594000000E+02  0.51100000000E-03 0. -1.
         11   -1    0    0    0    0 -0.00000000000E+00 -0.00000000000E+00 -0.45593999997E+02  0.45594000000E+02  0.51100000000E-03 0.  1.
         23    2    1    2    0    0 -0.35527136788E-14  0.35527136788E-14  0.00000000000E+00  0.91188000000E+02  0.91188000000E+02 0.  0.
    9900012    2    3    3    0    0  0.24464669312E+02 -0.97526994149E+01 -0.25732180019E+02  0.54367078244E+02  0.39999986473E+02 0.  0.
         12    1    3    3    0    0 -0.24464669312E+02  0.97526994149E+01  0.25732180019E+02  0.36820921756E+02  0.00000000000E+00 0. -1.
         11    1    4    4    0    0 -0.97294261228E-01 -0.10273530201E+01  0.39520231227E+01  0.40845327058E+01  0.51100000000E-03 0. -1.
        -11    1    4    4    0    0  0.20839932870E+02  0.60455995465E+01 -0.67020281445E+01  0.22710553877E+02  0.51100000000E-03 0.  1.
        -12    1    4    4    0    0  0.37220307031E+01 -0.14770945941E+02 -0.22982174997E+02  0.27571991661E+02  0.00000000000E+00 0.  1.
</event>
<event>
 8    1  0.2402194E-006  0.9118800E+02  0.7816164E-02  0.1184000E+00
        -11   -1    0    0    0    0  0.00000000000E+00  0.00000000000E+00  0.45593999997E+02  0.45594000000E+02  0.51100000000E-03 0. -1.
         11   -1    0    0    0    0 -0.00000000000E+00 -0.00000000000E+00 -0.45593999997E+02  0.45594000000E+02  0.51100000000E-03 0.  1.
         23    2    1    2    0    0 -0.17763568394E-14  0.00000000000E+00  0.35527136788E-14  0.91188000000E+02  0.91188000000E+02 0.  0.
    9900012    2    3    3    0    0  0.15583934371E+02  0.95386894083E+01 -0.31967725194E+02  0.54367067636E+02  0.39999962289E+02 0.  0.
         12    1    3    3    0    0 -0.15583934371E+02 -0.95386894083E+01  0.31967725194E+02  0.36820932364E+02  0.00000000000E+00 0. -1.
         11    1    4    4    0    0  0.73467074823E+01 -0.25404928760E+01 -0.15861255590E+02  0.17663738111E+02  0.51100000000E-03 0. -1.
        -11    1    4    4    0    0  0.77275818550E+01 -0.49950677632E+01 -0.17284273974E+02  0.19580918016E+02  0.51100000000E-03 0.  1.
         12    1    4    4    0    0  0.50964503354E+00  0.17074250048E+02  0.11778043706E+01  0.17122411509E+02  0.00000000000E+00 0. -1.
</event>
<event>
 8    1  0.2402194E-006  0.9118800E+02  0.7816164E-02  0.1184000E+00
        -11   -1    0    0    0    0  0.00000000000E+00  0.00000000000E+00  0.45593999997E+02  0.45594000000E+02  0.51100000000E-03 0.  1.
         11   -1    0    0    0    0 -0.00000000000E+00 -0.00000000000E+00 -0.45593999997E+02  0.45594000000E+02  0.51100000000E-03 0. -1.
         23    2    1    2    0    0  0.17763568394E-14  0.00000000000E+00 -0.35527136788E-14  0.91188000000E+02  0.91188000000E+02 0.  0.
    9900012    2    3    3    0    0 -0.98508171418E+01  0.17316362591E+02  0.30965804397E+02  0.54367135620E+02  0.40000117273E+02 0.  0.
         12    1    3    3    0    0  0.98508171418E+01 -0.17316362591E+02 -0.30965804397E+02  0.36820864380E+02  0.00000000000E+00 0. -1.
         11    1    4    4    0    0  0.83285619205E+01  0.57107418575E+00  0.15306058242E+01  0.84872742290E+01  0.51100000000E-03 0. -1.
        -11    1    4    4    0    0  0.19120586641E+01 -0.81057377658E+00  0.15764113052E+02  0.15900322599E+02  0.51100000000E-03 0.  1.
        -12    1    4    4    0    0 -0.20091437726E+02  0.17555862182E+02  0.13671085521E+02  0.29979538792E+02  0.00000000000E+00 0.  1.
</event>
<event>
 8    1  0.2402194E-006  0.9118800E+02  0.7816164E-02  0.1184000E+00
        -11   -1    0    0    0    0  0.00000000000E+00  0.00000000000E+00  0.45593999997E+02  0.45594000000E+02  0.51100000000E-03 0. -1.
         11   -1    0    0    0    0 -0.00000000000E+00 -0.00000000000E+00 -0.45593999997E+02  0.45594000000E+02  0.51100000000E-03 0.  1.
         23    2    1    2    0    0  0.00000000000E+00  0.00000000000E+00 -0.88817841970E-15  0.91188000000E+02  0.91188000000E+02 0.  0.
    9900012    2    3    3    0    0 -0.21431735021E+02 -0.28937027884E+02 -0.76881900506E+01  0.54367094050E+02  0.40000022505E+02 0.  0.
         12    1    3    3    0    0  0.21431735021E+02  0.28937027884E+02  0.76881900506E+01  0.36820905950E+02  0.00000000000E+00 0. -1.
         11    1    4    4    0    0  0.37658747876E+01  0.63291003871E+01  0.15886491610E+01  0.75341310742E+01  0.51100000000E-03 0. -1.
        -11    1    4    4    0    0 -0.21696482411E+02 -0.19006741944E+02 -0.89382673660E+01  0.30197453735E+02  0.51100000000E-03 0.  1.
        -12    1    4    4    0    0 -0.35011273975E+01 -0.16259386327E+02 -0.33857184563E+00  0.16635509240E+02  0.00000000000E+00 0.  1.
</event>
<event>
 8    1  0.2402194E-006  0.9118800E+02  0.7816164E-02  0.1184000E+00
        -11   -1    0    0    0    0  0.00000000000E+00  0.00000000000E+00  0.45593999997E+02  0.45594000000E+02  0.51100000000E-03 0. -1.
         11   -1    0    0    0    0 -0.00000000000E+00 -0.00000000000E+00 -0.45593999997E+02  0.45594000000E+02  0.51100000000E-03 0.  1.
         23    2    1    2    0    0 -0.17763568394E-14 -0.11102230246E-14 -0.71054273576E-14  0.91188000000E+02  0.91188000000E+02 0.  0.
    9900012    2    3    3    0    0  0.12758114919E+02 -0.68298086905E+00 -0.34533231797E+02  0.54367081251E+02  0.39999993329E+02 0.  0.
         12    1    3    3    0    0 -0.12758114919E+02  0.68298086905E+00  0.34533231797E+02  0.36820918749E+02  0.00000000000E+00 0. -1.
         11    1    4    4    0    0 -0.42877099518E+01  0.98838504831E+01 -0.76286271887E+01  0.13201170783E+02  0.51100000000E-03 0. -1.
        -11    1    4    4    0    0  0.75620037219E+00 -0.72419410210E+01 -0.22948878712E+02  0.24076307506E+02  0.51100000000E-03 0.  1.
        -12    1    4    4    0    0  0.16289624499E+02 -0.33248903311E+01 -0.39557258965E+01  0.17089602962E+02  0.00000000000E+00 0.  1.
</event>
<event>
 8    1  0.2402194E-006  0.9118800E+02  0.7816164E-02  0.1184000E+00
        -11   -1    0    0    0    0  0.00000000000E+00  0.00000000000E+00  0.45593999997E+02  0.45594000000E+02  0.51100000000E-03 0. -1.
         11   -1    0    0    0    0 -0.00000000000E+00 -0.00000000000E+00 -0.45593999997E+02  0.45594000000E+02  0.51100000000E-03 0.  1.
         23    2    1    2    0    0 -0.35527136788E-14 -0.13322676296E-14  0.00000000000E+00  0.91188000000E+02  0.91188000000E+02 0.  0.
    9900012    2    3    3    0    0 -0.28231301806E+02 -0.39676286425E+01 -0.23303015043E+02  0.54367095764E+02  0.40000026413E+02 0.  0.
         12    1    3    3    0    0  0.28231301806E+02  0.39676286425E+01  0.23303015043E+02  0.36820904236E+02  0.00000000000E+00 0. -1.
         11    1    4    4    0    0 -0.79260851752E+01 -0.12339700385E+02 -0.13158045293E+02  0.19703430869E+02  0.51100000000E-03 0. -1.
        -11    1    4    4    0    0 -0.12411626482E+02 -0.81021454846E+01 -0.35432794801E+01  0.15239687107E+02  0.51100000000E-03 0.  1.
        -12    1    4    4    0    0 -0.78935901480E+01  0.16474217227E+02 -0.66016902695E+01  0.19423977788E+02  0.00000000000E+00 0.  1.
</event>
<event>
 8    1  0.2402194E-006  0.9118800E+02  0.7816164E-02  0.1184000E+00
        -11   -1    0    0    0    0  0.00000000000E+00  0.00000000000E+00  0.45593999997E+02  0.45594000000E+02  0.51100000000E-03 0. -1.
         11   -1    0    0    0    0 -0.00000000000E+00 -0.00000000000E+00 -0.45593999997E+02  0.45594000000E+02  0.51100000000E-03 0.  1.
         23    2    1    2    0    0  0.00000000000E+00 -0.35527136788E-14  0.00000000000E+00  0.91188000000E+02  0.91188000000E+02 0.  0.
    9900012    2    3    3    0    0 -0.13269525003E+02  0.13405601303E+02 -0.31622600992E+02  0.54367091082E+02  0.40000015739E+02 0.  0.
         12    1    3    3    0    0  0.13269525003E+02 -0.13405601303E+02  0.31622600992E+02  0.36820908918E+02  0.00000000000E+00 0. -1.
         11    1    4    4    0    0 -0.16861253787E+01  0.24896323664E+02 -0.23549924797E+02  0.34311352480E+02  0.51100000000E-03 0. -1.
        -11    1    4    4    0    0 -0.73667141116E+01 -0.10990932934E+02 -0.85944020692E+01  0.15777605356E+02  0.51100000000E-03 0.  1.
        -12    1    4    4    0    0 -0.42166855129E+01 -0.49978942696E+00  0.52172587434E+00  0.42781332464E+01  0.00000000000E+00 0.  1.
</event>
<event>
 8    1  0.2402194E-006  0.9118800E+02  0.7816164E-02  0.1184000E+00
        -11   -1    0    0    0    0  0.00000000000E+00  0.00000000000E+00  0.45593999997E+02  0.45594000000E+02  0.51100000000E-03 0.  1.
         11   -1    0    0    0    0 -0.00000000000E+00 -0.00000000000E+00 -0.45593999997E+02  0.45594000000E+02  0.51100000000E-03 0. -1.
         23    2    1    2    0    0  0.00000000000E+00  0.00000000000E+00  0.00000000000E+00  0.91188000000E+02  0.91188000000E+02 0.  0.
    9900012    2    3    3    0    0 -0.18609337030E+02 -0.11729125197E+02 -0.29527958098E+02  0.54367080511E+02  0.39999991641E+02 0.  0.
        -12    1    3    3    0    0  0.18609337030E+02  0.11729125197E+02  0.29527958098E+02  0.36820919489E+02  0.00000000000E+00 0.  1.
         11    1    4    4    0    0 -0.11830711394E+02 -0.20630831862E+02 -0.32008409673E+02  0.39876499915E+02  0.51100000000E-03 0. -1.
        -11    1    4    4    0    0 -0.62650493242E+01  0.74217584243E+01 -0.18485267576E+01  0.98868798202E+01  0.51100000000E-03 0.  1.
         12    1    4    4    0    0 -0.51357631198E+00  0.14799482401E+01  0.43289783335E+01  0.46037007758E+01  0.00000000000E+00 0. -1.
</event>
<event>
 8    1  0.2402194E-006  0.9118800E+02  0.7816164E-02  0.1184000E+00
        -11   -1    0    0    0    0  0.00000000000E+00  0.00000000000E+00  0.45593999997E+02  0.45594000000E+02  0.51100000000E-03 0.  1.
         11   -1    0    0    0    0 -0.00000000000E+00 -0.00000000000E+00 -0.45593999997E+02  0.45594000000E+02  0.51100000000E-03 0. -1.
         23    2    1    2    0    0  0.13322676296E-14 -0.88817841970E-15  0.71054273576E-14  0.91188000000E+02  0.91188000000E+02 0.  0.
    9900012    2    3    3    0    0 -0.39805984112E+01  0.36993037724E+01 -0.36417729468E+02  0.54367068023E+02  0.39999963171E+02 0.  0.
        -12    1    3    3    0    0  0.39805984112E+01 -0.36993037724E+01  0.36417729468E+02  0.36820931977E+02  0.00000000000E+00 0.  1.
         11    1    4    4    0    0  0.62462805767E+01  0.92061332694E+01 -0.50338394184E+01  0.12210997108E+02  0.51100000000E-03 0.  1.
        -11    1    4    4    0    0 -0.15599796637E+01  0.12221530806E+01  0.43475288669E+01  0.47778867937E+01  0.51100000000E-03 0. -1.
         12    1    4    4    0    0 -0.86668993241E+01 -0.67289825777E+01 -0.35731418916E+02  0.37378184121E+02  0.00000000000E+00 0. -1.
</event>
<event>
 8    1  0.2402194E-006  0.9118800E+02  0.7816164E-02  0.1184000E+00
        -11   -1    0    0    0    0  0.00000000000E+00  0.00000000000E+00  0.45593999997E+02  0.45594000000E+02  0.51100000000E-03 0. -1.
         11   -1    0    0    0    0 -0.00000000000E+00 -0.00000000000E+00 -0.45593999997E+02  0.45594000000E+02  0.51100000000E-03 0.  1.
         23    2    1    2    0    0  0.00000000000E+00  0.00000000000E+00  0.00000000000E+00  0.91188000000E+02  0.91188000000E+02 0.  0.
    9900012    2    3    3    0    0  0.96810247446E+01  0.34575396871E+02  0.81608315119E+01  0.54367089095E+02  0.40000011210E+02 0.  0.
        -12    1    3    3    0    0 -0.96810247446E+01 -0.34575396871E+02 -0.81608315119E+01  0.36820910905E+02  0.00000000000E+00 0.  1.
         11    1    4    4    0    0  0.41316346167E+01 -0.21731509794E+01  0.12051307931E+02  0.12923893101E+02  0.51100000000E-03 0. -1.
        -11    1    4    4    0    0  0.11111430918E+02  0.24839164367E+02 -0.66511043143E+01  0.28012232549E+02  0.51100000000E-03 0.  1.
         12    1    4    4    0    0 -0.55620407896E+01  0.11909383483E+02  0.27606278951E+01  0.13430963445E+02  0.00000000000E+00 0. -1.
</event>
<event>
 8    1  0.2402194E-006  0.9118800E+02  0.7816164E-02  0.1184000E+00
        -11   -1    0    0    0    0  0.00000000000E+00  0.00000000000E+00  0.45593999997E+02  0.45594000000E+02  0.51100000000E-03 0.  1.
         11   -1    0    0    0    0 -0.00000000000E+00 -0.00000000000E+00 -0.45593999997E+02  0.45594000000E+02  0.51100000000E-03 0. -1.
         23    2    1    2    0    0  0.35527136788E-14  0.00000000000E+00  0.35527136788E-14  0.91188000000E+02  0.91188000000E+02 0.  0.
    9900012    2    3    3    0    0 -0.20314513961E+02 -0.81352537189E+01 -0.29612838659E+02  0.54367054277E+02  0.39999931834E+02 0.  0.
        -12    1    3    3    0    0  0.20314513961E+02  0.81352537189E+01  0.29612838659E+02  0.36820945723E+02  0.00000000000E+00 0.  1.
         11    1    4    4    0    0 -0.11138038461E+02 -0.18271273966E+02 -0.33161869392E+02  0.39466503961E+02  0.51100000000E-03 0. -1.
        -11    1    4    4    0    0 -0.90921408121E+01  0.82590433339E+01  0.19576302841E+01  0.12438293208E+02  0.51100000000E-03 0.  1.
         12    1    4    4    0    0 -0.84334688126E-01  0.18769769131E+01  0.15914004493E+01  0.24622571073E+01  0.00000000000E+00 0. -1.
</event>
<event>
 8    1  0.2402194E-006  0.9118800E+02  0.7816164E-02  0.1184000E+00
        -11   -1    0    0    0    0  0.00000000000E+00  0.00000000000E+00  0.45593999997E+02  0.45594000000E+02  0.51100000000E-03 0. -1.
         11   -1    0    0    0    0 -0.00000000000E+00 -0.00000000000E+00 -0.45593999997E+02  0.45594000000E+02  0.51100000000E-03 0.  1.
         23    2    1    2    0    0  0.00000000000E+00 -0.88817841970E-15  0.00000000000E+00  0.91188000000E+02  0.91188000000E+02 0.  0.
    9900012    2    3    3    0    0  0.16804077584E+02 -0.62364545934E+01 -0.32163797731E+02  0.54367078314E+02  0.39999986633E+02 0.  0.
         12    1    3    3    0    0 -0.16804077584E+02  0.62364545934E+01  0.32163797731E+02  0.36820921686E+02  0.00000000000E+00 0. -1.
         11    1    4    4    0    0  0.19122820227E+01  0.16757964701E+01 -0.47766511056E+01  0.54112394504E+01  0.51100000000E-03 0. -1.
        -11    1    4    4    0    0  0.26438841917E+02 -0.10347966760E+02 -0.16166653167E+02  0.32671906171E+02  0.51100000000E-03 0.  1.
        -12    1    4    4    0    0 -0.11547046356E+02  0.24357156962E+01 -0.11220493459E+02  0.16283932693E+02  0.00000000000E+00 0.  1.
</event>
<event>
 8    1  0.2402194E-006  0.9118800E+02  0.7816164E-02  0.1184000E+00
        -11   -1    0    0    0    0  0.00000000000E+00  0.00000000000E+00  0.45593999997E+02  0.45594000000E+02  0.51100000000E-03 0.  1.
         11   -1    0    0    0    0 -0.00000000000E+00 -0.00000000000E+00 -0.45593999997E+02  0.45594000000E+02  0.51100000000E-03 0. -1.
         23    2    1    2    0    0 -0.22204460493E-15 -0.35527136788E-14  0.35527136788E-14  0.91188000000E+02  0.91188000000E+02 0.  0.
    9900012    2    3    3    0    0 -0.16030845840E+01 -0.23811682030E+02  0.28039483234E+02  0.54367099667E+02  0.40000035311E+02 0.  0.
         12    1    3    3    0    0  0.16030845840E+01  0.23811682030E+02 -0.28039483234E+02  0.36820900333E+02  0.00000000000E+00 0. -1.
         11    1    4    4    0    0  0.97666626363E+01 -0.70421493743E+01  0.24169900552E+00  0.12043171739E+02  0.51100000000E-03 0.  1.
        -11    1    4    4    0    0 -0.37942547853E+01  0.48919111775E+01 -0.11131143234E+00  0.61918942853E+01  0.51100000000E-03 0. -1.
        -12    1    4    4    0    0 -0.75754924350E+01 -0.21661443833E+02  0.27909095661E+02  0.36132033643E+02  0.00000000000E+00 0.  1.
</event>
<event>
 8    1  0.2402194E-006  0.9118800E+02  0.7816164E-02  0.1184000E+00
        -11   -1    0    0    0    0  0.00000000000E+00  0.00000000000E+00  0.45593999997E+02  0.45594000000E+02  0.51100000000E-03 0. -1.
         11   -1    0    0    0    0 -0.00000000000E+00 -0.00000000000E+00 -0.45593999997E+02  0.45594000000E+02  0.51100000000E-03 0.  1.
         23    2    1    2    0    0  0.00000000000E+00  0.00000000000E+00  0.00000000000E+00  0.91188000000E+02  0.91188000000E+02 0.  0.
    9900012    2    3    3    0    0  0.25615469793E+02  0.25862962715E+02  0.55438780512E+01  0.54367085875E+02  0.40000003869E+02 0.  0.
        -12    1    3    3    0    0 -0.25615469793E+02 -0.25862962715E+02 -0.55438780512E+01  0.36820914125E+02  0.00000000000E+00 0.  1.
         11    1    4    4    0    0  0.17267533437E+02 -0.20362950396E+01  0.36910480986E+01  0.17774646124E+02  0.51100000000E-03 0. -1.
        -11    1    4    4    0    0  0.98946642883E+01  0.25634205897E+01  0.43057003620E+01  0.11091193009E+02  0.51100000000E-03 0.  1.
         12    1    4    4    0    0 -0.15467279321E+01  0.25335837165E+02 -0.24528704094E+01  0.25501246742E+02  0.00000000000E+00 0. -1.
</event>
<event>
 8    1  0.2402194E-006  0.9118800E+02  0.7816164E-02  0.1184000E+00
        -11   -1    0    0    0    0  0.00000000000E+00  0.00000000000E+00  0.45593999997E+02  0.45594000000E+02  0.51100000000E-03 0. -1.
         11   -1    0    0    0    0 -0.00000000000E+00 -0.00000000000E+00 -0.45593999997E+02  0.45594000000E+02  0.51100000000E-03 0.  1.
         23    2    1    2    0    0  0.00000000000E+00  0.17763568394E-14 -0.71054273576E-14  0.91188000000E+02  0.91188000000E+02 0.  0.
    9900012    2    3    3    0    0 -0.24404385610E+02 -0.15508541503E+02  0.22796683443E+02  0.54367113637E+02  0.40000067158E+02 0.  0.
         12    1    3    3    0    0  0.24404385610E+02  0.15508541503E+02 -0.22796683443E+02  0.36820886363E+02  0.00000000000E+00 0. -1.
         11    1    4    4    0    0 -0.10406308617E+02 -0.32350509839E+01 -0.54681376243E+01  0.12192511770E+02  0.51100000000E-03 0.  1.
        -11    1    4    4    0    0 -0.11677064774E+02 -0.17952535078E+02  0.28940166881E+02  0.36002508479E+02  0.51100000000E-03 0. -1.
         12    1    4    4    0    0 -0.23210122186E+01  0.56790445591E+01 -0.67534581322E+00  0.61720933880E+01  0.00000000000E+00 0. -1.
</event>
<event>
 8    1  0.2402194E-006  0.9118800E+02  0.7816164E-02  0.1184000E+00
        -11   -1    0    0    0    0  0.00000000000E+00  0.00000000000E+00  0.45593999997E+02  0.45594000000E+02  0.51100000000E-03 0.  1.
         11   -1    0    0    0    0 -0.00000000000E+00 -0.00000000000E+00 -0.45593999997E+02  0.45594000000E+02  0.51100000000E-03 0. -1.
         23    2    1    2    0    0 -0.35527136788E-14  0.00000000000E+00  0.00000000000E+00  0.91188000000E+02  0.91188000000E+02 0.  0.
    9900012    2    3    3    0    0  0.21485523743E+02  0.27360976444E+02  0.12063501065E+02  0.54367098050E+02  0.40000031624E+02 0.  0.
         12    1    3    3    0    0 -0.21485523743E+02 -0.27360976444E+02 -0.12063501065E+02  0.36820901950E+02  0.00000000000E+00 0. -1.
         11    1    4    4    0    0 -0.17259966507E+01 -0.24530786245E+01  0.76453919121E+00  0.30953480599E+01  0.51100000000E-03 0. -1.
        -11    1    4    4    0    0  0.93141645845E+01  0.31937203061E+02  0.15354136793E+02  0.36639979778E+02  0.51100000000E-03 0.  1.
        -12    1    4    4    0    0  0.13897355810E+02 -0.21231479927E+01 -0.40551749191E+01  0.14631770211E+02  0.00000000000E+00 0.  1.
</event>
<event>
 8    1  0.2402194E-006  0.9118800E+02  0.7816164E-02  0.1184000E+00
        -11   -1    0    0    0    0  0.00000000000E+00  0.00000000000E+00  0.45593999997E+02  0.45594000000E+02  0.51100000000E-03 0.  1.
         11   -1    0    0    0    0 -0.00000000000E+00 -0.00000000000E+00 -0.45593999997E+02  0.45594000000E+02  0.51100000000E-03 0. -1.
         23    2    1    2    0    0 -0.88817841970E-15  0.35527136788E-14  0.00000000000E+00  0.91188000000E+02  0.91188000000E+02 0.  0.
    9900012    2    3    3    0    0  0.76750709301E+01 -0.22364562329E+02 -0.28225862069E+02  0.54367086764E+02  0.40000005896E+02 0.  0.
        -12    1    3    3    0    0 -0.76750709301E+01  0.22364562329E+02  0.28225862069E+02  0.36820913236E+02  0.00000000000E+00 0.  1.
         11    1    4    4    0    0 -0.12960117938E+02 -0.10018840563E+02 -0.22931002398E+02  0.28181069788E+02  0.51100000000E-03 0. -1.
        -11    1    4    4    0    0  0.25412992712E+01 -0.50910438410E+01 -0.33307472336E+01  0.65932394748E+01  0.51100000000E-03 0.  1.
        -12    1    4    4    0    0  0.18093889597E+02 -0.72546779252E+01 -0.19641124381E+01  0.19592777501E+02  0.00000000000E+00 0.  1.
</event>
<event>
 8    1  0.2402194E-006  0.9118800E+02  0.7816164E-02  0.1184000E+00
        -11   -1    0    0    0    0  0.00000000000E+00  0.00000000000E+00  0.45593999997E+02  0.45594000000E+02  0.51100000000E-03 0.  1.
         11   -1    0    0    0    0 -0.00000000000E+00 -0.00000000000E+00 -0.45593999997E+02  0.45594000000E+02  0.51100000000E-03 0. -1.
         23    2    1    2    0    0  0.71054273576E-14  0.88817841970E-15  0.88817841970E-15  0.91188000000E+02  0.91188000000E+02 0.  0.
    9900012    2    3    3    0    0  0.36531489697E+02  0.45637773896E+01  0.63310322328E+00  0.54367100727E+02  0.40000037728E+02 0.  0.
         12    1    3    3    0    0 -0.36531489697E+02 -0.45637773896E+01 -0.63310322328E+00  0.36820899273E+02  0.00000000000E+00 0. -1.
         11    1    4    4    0    0  0.11574548039E+02  0.12771423848E+02 -0.34427516938E+01  0.17576460648E+02  0.51100000000E-03 0. -1.
        -11    1    4    4    0    0  0.11746551153E+02  0.69142544012E+01 -0.53069245776E+01  0.14627092214E+02  0.51100000000E-03 0.  1.
        -12    1    4    4    0    0  0.13210390505E+02 -0.15121900860E+02  0.93827794947E+01  0.22163547865E+02  0.00000000000E+00 0.  1.
</event>
<event>
 8    1  0.2402194E-006  0.9118800E+02  0.7816164E-02  0.1184000E+00
        -11   -1    0    0    0    0  0.00000000000E+00  0.00000000000E+00  0.45593999997E+02  0.45594000000E+02  0.51100000000E-03 0.  1.
         11   -1    0    0    0    0 -0.00000000000E+00 -0.00000000000E+00 -0.45593999997E+02  0.45594000000E+02  0.51100000000E-03 0. -1.
         23    2    1    2    0    0  0.00000000000E+00  0.00000000000E+00 -0.22204460493E-14  0.91188000000E+02  0.91188000000E+02 0.  0.
    9900012    2    3    3    0    0 -0.16410104233E+02  0.32913169749E+02 -0.17922741578E+01  0.54367075100E+02  0.39999979304E+02 0.  0.
        -12    1    3    3    0    0  0.16410104233E+02 -0.32913169749E+02  0.17922741578E+01  0.36820924900E+02  0.00000000000E+00 0.  1.
         11    1    4    4    0    0 -0.70572870704E+01  0.17410816303E+02  0.14281560646E+02  0.23598830477E+02  0.51100000000E-03 0.  1.
        -11    1    4    4    0    0  0.16685156182E+00  0.12464729059E+02 -0.16602733694E+02  0.20761697337E+02  0.51100000000E-03 0. -1.
         12    1    4    4    0    0 -0.95196687246E+01  0.30376243869E+01  0.52889888989E+00  0.10006547286E+02  0.00000000000E+00 0. -1.
</event>
<event>
 8    1  0.2402194E-006  0.9118800E+02  0.7816164E-02  0.1184000E+00
        -11   -1    0    0    0    0  0.00000000000E+00  0.00000000000E+00  0.45593999997E+02  0.45594000000E+02  0.51100000000E-03 0. -1.
         11   -1    0    0    0    0 -0.00000000000E+00 -0.00000000000E+00 -0.45593999997E+02  0.45594000000E+02  0.51100000000E-03 0.  1.
         23    2    1    2    0    0 -0.35527136788E-14  0.00000000000E+00  0.17763568394E-14  0.91188000000E+02  0.91188000000E+02 0.  0.
    9900012    2    3    3    0    0 -0.17110382837E+02 -0.30485072890E+02  0.11561806593E+02  0.54367078751E+02  0.39999987629E+02 0.  0.
        -12    1    3    3    0    0  0.17110382837E+02  0.30485072890E+02 -0.11561806593E+02  0.36820921249E+02  0.00000000000E+00 0.  1.
         11    1    4    4    0    0 -0.86562431990E+01 -0.17859720403E+02  0.21721373806E+02  0.29423090244E+02  0.51100000000E-03 0. -1.
        -11    1    4    4    0    0 -0.10139593867E+02 -0.20935419375E+01 -0.20650546717E+00  0.10355526370E+02  0.51100000000E-03 0.  1.
         12    1    4    4    0    0  0.16854542286E+01 -0.10531810550E+02 -0.99530617465E+01  0.14588462138E+02  0.00000000000E+00 0. -1.
</event>
<event>
 8    1  0.2402194E-006  0.9118800E+02  0.7816164E-02  0.1184000E+00
        -11   -1    0    0    0    0  0.00000000000E+00  0.00000000000E+00  0.45593999997E+02  0.45594000000E+02  0.51100000000E-03 0.  1.
         11   -1    0    0    0    0 -0.00000000000E+00 -0.00000000000E+00 -0.45593999997E+02  0.45594000000E+02  0.51100000000E-03 0. -1.
         23    2    1    2    0    0  0.00000000000E+00  0.35527136788E-14  0.71054273576E-14  0.91188000000E+02  0.91188000000E+02 0.  0.
    9900012    2    3    3    0    0 -0.66652250187E+01 -0.26020570416E+02 -0.25185006267E+02  0.54367084069E+02  0.39999999752E+02 0.  0.
        -12    1    3    3    0    0  0.66652250187E+01  0.26020570416E+02  0.25185006267E+02  0.36820915931E+02  0.00000000000E+00 0.  1.
         11    1    4    4    0    0  0.37032649303E+01 -0.75363486657E+01 -0.28459667858E+02  0.29672603816E+02  0.51100000000E-03 0. -1.
        -11    1    4    4    0    0 -0.80136802457E+01 -0.27308752545E+01  0.21004830861E+01  0.87228882941E+01  0.51100000000E-03 0.  1.
        -12    1    4    4    0    0 -0.23548097034E+01 -0.15753346496E+02  0.11741785048E+01  0.15971591959E+02  0.00000000000E+00 0.  1.
</event>
<event>
 8    1  0.2402194E-006  0.9118800E+02  0.7816164E-02  0.1184000E+00
        -11   -1    0    0    0    0  0.00000000000E+00  0.00000000000E+00  0.45593999997E+02  0.45594000000E+02  0.51100000000E-03 0. -1.
         11   -1    0    0    0    0 -0.00000000000E+00 -0.00000000000E+00 -0.45593999997E+02  0.45594000000E+02  0.51100000000E-03 0.  1.
         23    2    1    2    0    0  0.17763568394E-14 -0.35527136788E-14 -0.35527136788E-14  0.91188000000E+02  0.91188000000E+02 0.  0.
    9900012    2    3    3    0    0  0.14721696184E+02 -0.18112131941E+02 -0.28478093985E+02  0.54367088835E+02  0.40000010618E+02 0.  0.
         12    1    3    3    0    0 -0.14721696184E+02  0.18112131941E+02  0.28478093985E+02  0.36820911165E+02  0.00000000000E+00 0. -1.
         11    1    4    4    0    0  0.48711577510E+01 -0.21026163719E+02 -0.11178080009E+02  0.24305908984E+02  0.51100000000E-03 0. -1.
        -11    1    4    4    0    0  0.16059460089E+01  0.22688577958E+01 -0.20869578937E+02  0.21053885712E+02  0.51100000000E-03 0.  1.
        -12    1    4    4    0    0  0.82445924242E+01  0.64517398199E+00  0.35695649613E+01  0.90072941398E+01  0.00000000000E+00 0.  1.
</event>
<event>
 8    1  0.2402194E-006  0.9118800E+02  0.7816164E-02  0.1184000E+00
        -11   -1    0    0    0    0  0.00000000000E+00  0.00000000000E+00  0.45593999997E+02  0.45594000000E+02  0.51100000000E-03 0.  1.
         11   -1    0    0    0    0 -0.00000000000E+00 -0.00000000000E+00 -0.45593999997E+02  0.45594000000E+02  0.51100000000E-03 0. -1.
         23    2    1    2    0    0  0.88817841970E-15  0.35527136788E-14  0.35527136788E-14  0.91188000000E+02  0.91188000000E+02 0.  0.
    9900012    2    3    3    0    0  0.60801427181E+01  0.21346476250E+02  0.29379241695E+02  0.54367081674E+02  0.39999994293E+02 0.  0.
         12    1    3    3    0    0 -0.60801427181E+01 -0.21346476250E+02 -0.29379241695E+02  0.36820918326E+02  0.00000000000E+00 0. -1.
         11    1    4    4    0    0  0.45663443273E+01 -0.43935885422E+01  0.75085501881E+01  0.98251436112E+01  0.51100000000E-03 0. -1.
        -11    1    4    4    0    0 -0.83691214110E+01 -0.20644788292E+01  0.16676085409E+01  0.87798168851E+01  0.51100000000E-03 0.  1.
         12    1    4    4    0    0  0.98829198018E+01  0.27804543621E+02  0.20203082966E+02  0.35762121178E+02  0.00000000000E+00 0. -1.
</event>
<event>
 8    1  0.2402194E-006  0.9118800E+02  0.7816164E-02  0.1184000E+00
        -11   -1    0    0    0    0  0.00000000000E+00  0.00000000000E+00  0.45593999997E+02  0.45594000000E+02  0.51100000000E-03 0.  1.
         11   -1    0    0    0    0 -0.00000000000E+00 -0.00000000000E+00 -0.45593999997E+02  0.45594000000E+02  0.51100000000E-03 0. -1.
         23    2    1    2    0    0  0.00000000000E+00  0.71054273576E-14  0.00000000000E+00  0.91188000000E+02  0.91188000000E+02 0.  0.
    9900012    2    3    3    0    0  0.11363773087E+02 -0.33283388242E+02  0.10902327802E+02  0.54367081718E+02  0.39999994392E+02 0.  0.
         12    1    3    3    0    0 -0.11363773087E+02  0.33283388242E+02 -0.10902327802E+02  0.36820918282E+02  0.00000000000E+00 0. -1.
         11    1    4    4    0    0 -0.44258383564E+01 -0.11842758222E+02  0.14075358297E+01  0.12720853935E+02  0.51100000000E-03 0. -1.
        -11    1    4    4    0    0  0.21140607844E+01  0.53875567178E+01  0.99720088230E+01  0.11529786668E+02  0.51100000000E-03 0.  1.
        -12    1    4    4    0    0  0.13675550659E+02 -0.26828186738E+02 -0.47721685091E+00  0.30116441114E+02  0.00000000000E+00 0.  1.
</event>
<event>
 8    1  0.2402194E-006  0.9118800E+02  0.7816164E-02  0.1184000E+00
        -11   -1    0    0    0    0  0.00000000000E+00  0.00000000000E+00  0.45593999997E+02  0.45594000000E+02  0.51100000000E-03 0. -1.
         11   -1    0    0    0    0 -0.00000000000E+00 -0.00000000000E+00 -0.45593999997E+02  0.45594000000E+02  0.51100000000E-03 0.  1.
         23    2    1    2    0    0  0.88817841970E-15  0.44408920985E-15  0.00000000000E+00  0.91188000000E+02  0.91188000000E+02 0.  0.
    9900012    2    3    3    0    0 -0.46446910684E+01 -0.15555993236E+01 -0.36493653670E+02  0.54367084713E+02  0.40000001220E+02 0.  0.
         12    1    3    3    0    0  0.46446910684E+01  0.15555993236E+01  0.36493653670E+02  0.36820915287E+02  0.00000000000E+00 0. -1.
         11    1    4    4    0    0  0.47118697022E+01 -0.16930954107E+02 -0.13313817633E+02  0.22048053504E+02  0.51100000000E-03 0. -1.
        -11    1    4    4    0    0 -0.10487548909E+02  0.42272737414E+01 -0.11193994964E+02  0.15911129719E+02  0.51100000000E-03 0.  1.
         12    1    4    4    0    0  0.11309881389E+01  0.11148081042E+02 -0.11985841073E+02  0.16407901490E+02  0.00000000000E+00 0. -1.
</event>
<event>
 8    1  0.2402194E-006  0.9118800E+02  0.7816164E-02  0.1184000E+00
        -11   -1    0    0    0    0  0.00000000000E+00  0.00000000000E+00  0.45593999997E+02  0.45594000000E+02  0.51100000000E-03 0.  1.
         11   -1    0    0    0    0 -0.00000000000E+00 -0.00000000000E+00 -0.45593999997E+02  0.45594000000E+02  0.51100000000E-03 0. -1.
         23    2    1    2    0    0  0.35527136788E-14  0.00000000000E+00 -0.44408920985E-15  0.91188000000E+02  0.91188000000E+02 0.  0.
    9900012    2    3    3    0    0  0.16296890731E+02 -0.32868537891E+02 -0.31385334135E+01  0.54367084441E+02  0.40000000600E+02 0.  0.
         12    1    3    3    0    0 -0.16296890731E+02  0.32868537891E+02  0.31385334135E+01  0.36820915559E+02  0.00000000000E+00 0. -1.
         11    1    4    4    0    0 -0.72927613896E+01 -0.11103024757E+02  0.89740040962E+00  0.13314159951E+02  0.51100000000E-03 0. -1.
        -11    1    4    4    0    0  0.95727615365E+01 -0.23452164166E+02 -0.76853743747E+01  0.26470866005E+02  0.51100000000E-03 0.  1.
         12    1    4    4    0    0  0.14016890584E+02  0.16866510314E+01  0.36494405516E+01  0.14582058486E+02  0.00000000000E+00 0. -1.
</event>
<event>
 8    1  0.2402194E-006  0.9118800E+02  0.7816164E-02  0.1184000E+00
        -11   -1    0    0    0    0  0.00000000000E+00  0.00000000000E+00  0.45593999997E+02  0.45594000000E+02  0.51100000000E-03 0.  1.
         11   -1    0    0    0    0 -0.00000000000E+00 -0.00000000000E+00 -0.45593999997E+02  0.45594000000E+02  0.51100000000E-03 0. -1.
         23    2    1    2    0    0  0.00000000000E+00  0.88817841970E-15  0.00000000000E+00  0.91188000000E+02  0.91188000000E+02 0.  0.
    9900012    2    3    3    0    0 -0.13656101473E+02 -0.14146149091E+01  0.34165634612E+02  0.54367070745E+02  0.39999969377E+02 0.  0.
         12    1    3    3    0    0  0.13656101473E+02  0.14146149091E+01 -0.34165634612E+02  0.36820929255E+02  0.00000000000E+00 0. -1.
         11    1    4    4    0    0 -0.44442699688E+01 -0.13560238373E+02  0.58265973039E+01  0.15413657473E+02  0.51100000000E-03 0. -1.
        -11    1    4    4    0    0 -0.11092205850E+02  0.46130695306E+01  0.29031117079E+01  0.12359025000E+02  0.51100000000E-03 0.  1.
        -12    1    4    4    0    0  0.18803743453E+01  0.75325539332E+01  0.25435925600E+02  0.26594388272E+02  0.00000000000E+00 0.  1.
</event>
<event>
 8    1  0.2402194E-006  0.9118800E+02  0.7816164E-02  0.1184000E+00
        -11   -1    0    0    0    0  0.00000000000E+00  0.00000000000E+00  0.45593999997E+02  0.45594000000E+02  0.51100000000E-03 0. -1.
         11   -1    0    0    0    0 -0.00000000000E+00 -0.00000000000E+00 -0.45593999997E+02  0.45594000000E+02  0.51100000000E-03 0.  1.
         23    2    1    2    0    0  0.00000000000E+00  0.44408920985E-15  0.00000000000E+00  0.91188000000E+02  0.91188000000E+02 0.  0.
    9900012    2    3    3    0    0  0.23089021831E+02 -0.20121897047E+01  0.28611624421E+02  0.54367124283E+02  0.40000091428E+02 0.  0.
        -12    1    3    3    0    0 -0.23089021831E+02  0.20121897047E+01 -0.28611624421E+02  0.36820875717E+02  0.00000000000E+00 0.  1.
         11    1    4    4    0    0  0.13110908514E+02 -0.12538513992E+02  0.58976288290E+01  0.19075960821E+02  0.51100000000E-03 0. -1.
        -11    1    4    4    0    0 -0.89374730653E+00  0.60184224162E+01 -0.31673337750E+01  0.68594603382E+01  0.51100000000E-03 0.  1.
         12    1    4    4    0    0  0.10871860624E+02  0.45079018708E+01  0.25881329367E+02  0.28431703124E+02  0.00000000000E+00 0. -1.
</event>
<event>
 8    1  0.2402194E-006  0.9118800E+02  0.7816164E-02  0.1184000E+00
        -11   -1    0    0    0    0  0.00000000000E+00  0.00000000000E+00  0.45593999997E+02  0.45594000000E+02  0.51100000000E-03 0.  1.
         11   -1    0    0    0    0 -0.00000000000E+00 -0.00000000000E+00 -0.45593999997E+02  0.45594000000E+02  0.51100000000E-03 0. -1.
         23    2    1    2    0    0  0.35527136788E-14  0.35527136788E-14  0.00000000000E+00  0.91188000000E+02  0.91188000000E+02 0.  0.
    9900012    2    3    3    0    0  0.26474492726E+02  0.24544274149E+02  0.72428813699E+01  0.54367088969E+02  0.40000010924E+02 0.  0.
         12    1    3    3    0    0 -0.26474492726E+02 -0.24544274149E+02 -0.72428813699E+01  0.36820911031E+02  0.00000000000E+00 0. -1.
         11    1    4    4    0    0 -0.49180212101E+00  0.16142786434E+02  0.19092550138E+01  0.16262738950E+02  0.51100000000E-03 0. -1.
        -11    1    4    4    0    0  0.10975339383E+02 -0.50159381435E+01  0.11155247721E+02  0.16433419061E+02  0.51100000000E-03 0.  1.
         12    1    4    4    0    0  0.15990955464E+02  0.13417425858E+02 -0.58216213653E+01  0.21670930959E+02  0.00000000000E+00 0. -1.
</event>
<event>
 8    1  0.2402194E-006  0.9118800E+02  0.7816164E-02  0.1184000E+00
        -11   -1    0    0    0    0  0.00000000000E+00  0.00000000000E+00  0.45593999997E+02  0.45594000000E+02  0.51100000000E-03 0.  1.
         11   -1    0    0    0    0 -0.00000000000E+00 -0.00000000000E+00 -0.45593999997E+02  0.45594000000E+02  0.51100000000E-03 0. -1.
         23    2    1    2    0    0  0.00000000000E+00  0.00000000000E+00 -0.88817841970E-15  0.91188000000E+02  0.91188000000E+02 0.  0.
    9900012    2    3    3    0    0  0.26953690712E+02  0.24852826221E+02 -0.34081172504E+01  0.54367086414E+02  0.40000005097E+02 0.  0.
        -12    1    3    3    0    0 -0.26953690712E+02 -0.24852826221E+02  0.34081172504E+01  0.36820913586E+02  0.00000000000E+00 0.  1.
         11    1    4    4    0    0  0.17102332859E+02  0.14422438675E+02 -0.12177418397E+02  0.25471278838E+02  0.51100000000E-03 0. -1.
        -11    1    4    4    0    0  0.14359581088E+02  0.13262961565E+02  0.11736876903E+02  0.22800394694E+02  0.51100000000E-03 0.  1.
        -12    1    4    4    0    0 -0.45082232357E+01 -0.28325740197E+01 -0.29675757566E+01  0.60954128811E+01  0.00000000000E+00 0.  1.
</event>
<event>
 8    1  0.2402194E-006  0.9118800E+02  0.7816164E-02  0.1184000E+00
        -11   -1    0    0    0    0  0.00000000000E+00  0.00000000000E+00  0.45593999997E+02  0.45594000000E+02  0.51100000000E-03 0. -1.
         11   -1    0    0    0    0 -0.00000000000E+00 -0.00000000000E+00 -0.45593999997E+02  0.45594000000E+02  0.51100000000E-03 0.  1.
         23    2    1    2    0    0  0.00000000000E+00  0.17763568394E-14  0.00000000000E+00  0.91188000000E+02  0.91188000000E+02 0.  0.
    9900012    2    3    3    0    0  0.31724095210E+02 -0.33705614138E+01 -0.18384822741E+02  0.54367073771E+02  0.39999976275E+02 0.  0.
         12    1    3    3    0    0 -0.31724095210E+02  0.33705614138E+01  0.18384822741E+02  0.36820926229E+02  0.00000000000E+00 0. -1.
         11    1    4    4    0    0  0.17130816457E+02 -0.25758556797E+01  0.26399923772E+01  0.17523397644E+02  0.51100000000E-03 0. -1.
        -11    1    4    4    0    0  0.79249404932E+01 -0.95949484086E+01 -0.22492080586E+02  0.25705279733E+02  0.51100000000E-03 0.  1.
        -12    1    4    4    0    0  0.66683382600E+01  0.88002426745E+01  0.14672654680E+01  0.11138396394E+02  0.00000000000E+00 0.  1.
</event>
<event>
 8    1  0.2402194E-006  0.9118800E+02  0.7816164E-02  0.1184000E+00
        -11   -1    0    0    0    0  0.00000000000E+00  0.00000000000E+00  0.45593999997E+02  0.45594000000E+02  0.51100000000E-03 0. -1.
         11   -1    0    0    0    0 -0.00000000000E+00 -0.00000000000E+00 -0.45593999997E+02  0.45594000000E+02  0.51100000000E-03 0.  1.
         23    2    1    2    0    0  0.17763568394E-14 -0.35527136788E-14 -0.35527136788E-14  0.91188000000E+02  0.91188000000E+02 0.  0.
    9900012    2    3    3    0    0 -0.89624102176E+01  0.25379222448E+02  0.25126662294E+02  0.54367097146E+02  0.40000029564E+02 0.  0.
        -12    1    3    3    0    0  0.89624102176E+01 -0.25379222448E+02 -0.25126662294E+02  0.36820902854E+02  0.00000000000E+00 0.  1.
         11    1    4    4    0    0 -0.18504669432E+02  0.10394413186E+02  0.72835744068E+01  0.22439186097E+02  0.51100000000E-03 0. -1.
        -11    1    4    4    0    0 -0.18922143198E+01  0.12608097764E+02  0.31022349802E+01  0.13121298197E+02  0.51100000000E-03 0.  1.
        -12    1    4    4    0    0  0.11434473534E+02  0.23767114980E+01  0.14740852907E+02  0.18806612852E+02  0.00000000000E+00 0.  1.
</event>
<event>
 8    1  0.2402194E-006  0.9118800E+02  0.7816164E-02  0.1184000E+00
        -11   -1    0    0    0    0  0.00000000000E+00  0.00000000000E+00  0.45593999997E+02  0.45594000000E+02  0.51100000000E-03 0. -1.
         11   -1    0    0    0    0 -0.00000000000E+00 -0.00000000000E+00 -0.45593999997E+02  0.45594000000E+02  0.51100000000E-03 0.  1.
         23    2    1    2    0    0  0.00000000000E+00  0.00000000000E+00 -0.17763568394E-14  0.91188000000E+02  0.91188000000E+02 0.  0.
    9900012    2    3    3    0    0  0.25596372108E+02  0.23019323291E+02  0.13065566604E+02  0.54367183326E+02  0.40000226028E+02 0.  0.
        -12    1    3    3    0    0 -0.25596372108E+02 -0.23019323291E+02 -0.13065566604E+02  0.36820816674E+02  0.00000000000E+00 0.  1.
         11    1    4    4    0    0  0.26734071780E+01  0.10421449518E+02  0.17416736632E+02  0.20471844840E+02  0.51100000000E-03 0. -1.
        -11    1    4    4    0    0  0.17002428105E+02 -0.26929361959E+01 -0.24739521917E+01  0.17391230736E+02  0.51100000000E-03 0.  1.
         12    1    4    4    0    0  0.59205368248E+01  0.15290809969E+02 -0.18772178361E+01  0.16504107749E+02  0.00000000000E+00 0. -1.
</event>
<event>
 8    1  0.2402194E-006  0.9118800E+02  0.7816164E-02  0.1184000E+00
        -11   -1    0    0    0    0  0.00000000000E+00  0.00000000000E+00  0.45593999997E+02  0.45594000000E+02  0.51100000000E-03 0. -1.
         11   -1    0    0    0    0 -0.00000000000E+00 -0.00000000000E+00 -0.45593999997E+02  0.45594000000E+02  0.51100000000E-03 0.  1.
         23    2    1    2    0    0  0.00000000000E+00 -0.35527136788E-14 -0.35527136788E-14  0.91188000000E+02  0.91188000000E+02 0.  0.
    9900012    2    3    3    0    0 -0.30550687458E+02 -0.18640585720E+02 -0.86582258384E+01  0.54367070967E+02  0.39999969884E+02 0.  0.
         12    1    3    3    0    0  0.30550687458E+02  0.18640585720E+02  0.86582258384E+01  0.36820929033E+02  0.00000000000E+00 0. -1.
         11    1    4    4    0    0 -0.11224179239E+02 -0.11740486591E+02  0.56862722129E+01  0.17209152127E+02  0.51100000000E-03 0. -1.
        -11    1    4    4    0    0  0.12967422520E+01 -0.56554574777E+01  0.58695533215E+01  0.82533263722E+01  0.51100000000E-03 0.  1.
         12    1    4    4    0    0 -0.20623250472E+02 -0.12446416514E+01 -0.20214051373E+02  0.28904592468E+02  0.00000000000E+00 0. -1.
</event>
<event>
 8    1  0.2402194E-006  0.9118800E+02  0.7816164E-02  0.1184000E+00
        -11   -1    0    0    0    0  0.00000000000E+00  0.00000000000E+00  0.45593999997E+02  0.45594000000E+02  0.51100000000E-03 0.  1.
         11   -1    0    0    0    0 -0.00000000000E+00 -0.00000000000E+00 -0.45593999997E+02  0.45594000000E+02  0.51100000000E-03 0. -1.
         23    2    1    2    0    0  0.00000000000E+00 -0.35527136788E-14  0.00000000000E+00  0.91188000000E+02  0.91188000000E+02 0.  0.
    9900012    2    3    3    0    0 -0.24525620046E+02  0.18812479360E+02 -0.20009133072E+02  0.54367070835E+02  0.39999969582E+02 0.  0.
        -12    1    3    3    0    0  0.24525620046E+02 -0.18812479360E+02  0.20009133072E+02  0.36820929165E+02  0.00000000000E+00 0.  1.
         11    1    4    4    0    0 -0.23289167406E+02  0.40775720252E+01 -0.95549072119E+01  0.25501140448E+02  0.51100000000E-03 0. -1.
        -11    1    4    4    0    0 -0.57906855927E+01  0.75836357551E+01 -0.16075079639E+02  0.18693628769E+02  0.51100000000E-03 0.  1.
        -12    1    4    4    0    0  0.45542329529E+01  0.71512715795E+01  0.56208537785E+01  0.10172301617E+02  0.00000000000E+00 0.  1.
</event>
<event>
 8    1  0.2402194E-006  0.9118800E+02  0.7816164E-02  0.1184000E+00
        -11   -1    0    0    0    0  0.00000000000E+00  0.00000000000E+00  0.45593999997E+02  0.45594000000E+02  0.51100000000E-03 0.  1.
         11   -1    0    0    0    0 -0.00000000000E+00 -0.00000000000E+00 -0.45593999997E+02  0.45594000000E+02  0.51100000000E-03 0. -1.
         23    2    1    2    0    0  0.00000000000E+00  0.13322676296E-14  0.00000000000E+00  0.91188000000E+02  0.91188000000E+02 0.  0.
    9900012    2    3    3    0    0  0.12095509418E+02 -0.26579600944E+01  0.34675833220E+02  0.54367088693E+02  0.40000010294E+02 0.  0.
         12    1    3    3    0    0 -0.12095509418E+02  0.26579600944E+01 -0.34675833220E+02  0.36820911307E+02  0.00000000000E+00 0. -1.
         11    1    4    4    0    0  0.44557895450E+01 -0.12737765479E+02  0.10691530972E+02  0.17216665317E+02  0.51100000000E-03 0. -1.
        -11    1    4    4    0    0 -0.18355775082E+01 -0.17104973217E+01  0.21710010439E+02  0.21854512106E+02  0.51100000000E-03 0.  1.
         12    1    4    4    0    0  0.94752973811E+01  0.11790302706E+02  0.22742918096E+01  0.15295911270E+02  0.00000000000E+00 0. -1.
</event>
<event>
 8    1  0.2402194E-006  0.9118800E+02  0.7816164E-02  0.1184000E+00
        -11   -1    0    0    0    0  0.00000000000E+00  0.00000000000E+00  0.45593999997E+02  0.45594000000E+02  0.51100000000E-03 0.  1.
         11   -1    0    0    0    0 -0.00000000000E+00 -0.00000000000E+00 -0.45593999997E+02  0.45594000000E+02  0.51100000000E-03 0. -1.
         23    2    1    2    0    0  0.00000000000E+00 -0.71054273576E-14  0.00000000000E+00  0.91188000000E+02  0.91188000000E+02 0.  0.
    9900012    2    3    3    0    0  0.10602661532E+02  0.34970411882E+02 -0.45203827004E+01  0.54367082052E+02  0.39999995154E+02 0.  0.
        -12    1    3    3    0    0 -0.10602661532E+02 -0.34970411882E+02  0.45203827004E+01  0.36820917948E+02  0.00000000000E+00 0.  1.
         11    1    4    4    0    0  0.45098581420E+01  0.86523536362E+01 -0.13422494997E+01  0.98490445165E+01  0.51100000000E-03 0. -1.
        -11    1    4    4    0    0  0.18909145877E+02  0.24498331772E+02  0.85650954728E+00  0.30958967461E+02  0.51100000000E-03 0.  1.
        -12    1    4    4    0    0 -0.12816342487E+02  0.18197264740E+01 -0.40346427480E+01  0.13559070074E+02  0.00000000000E+00 0.  1.
</event>
<event>
 8    1  0.2402194E-006  0.9118800E+02  0.7816164E-02  0.1184000E+00
        -11   -1    0    0    0    0  0.00000000000E+00  0.00000000000E+00  0.45593999997E+02  0.45594000000E+02  0.51100000000E-03 0.  1.
         11   -1    0    0    0    0 -0.00000000000E+00 -0.00000000000E+00 -0.45593999997E+02  0.45594000000E+02  0.51100000000E-03 0. -1.
         23    2    1    2    0    0  0.35527136788E-14  0.71054273576E-14 -0.13322676296E-14  0.91188000000E+02  0.91188000000E+02 0.  0.
    9900012    2    3    3    0    0 -0.18981533407E+02 -0.31306899393E+02  0.39193213147E+01  0.54367059767E+02  0.39999944350E+02 0.  0.
        -12    1    3    3    0    0  0.18981533407E+02  0.31306899393E+02 -0.39193213147E+01  0.36820940233E+02  0.00000000000E+00 0.  1.
         11    1    4    4    0    0  0.81434563118E+00 -0.24577540350E+02 -0.89049289984E+01  0.26153707370E+02  0.51100000000E-03 0.  1.
        -11    1    4    4    0    0 -0.68942676017E+01 -0.47393671056E+01 -0.18548751085E+01  0.85693108389E+01  0.51100000000E-03 0. -1.
        -12    1    4    4    0    0 -0.12901611437E+02 -0.19899919378E+01  0.14679125422E+02  0.19644041558E+02  0.00000000000E+00 0.  1.
</event>
<event>
 8    1  0.2402194E-006  0.9118800E+02  0.7816164E-02  0.1184000E+00
        -11   -1    0    0    0    0  0.00000000000E+00  0.00000000000E+00  0.45593999997E+02  0.45594000000E+02  0.51100000000E-03 0.  1.
         11   -1    0    0    0    0 -0.00000000000E+00 -0.00000000000E+00 -0.45593999997E+02  0.45594000000E+02  0.51100000000E-03 0. -1.
         23    2    1    2    0    0 -0.35527136788E-14  0.35527136788E-14 -0.17763568394E-14  0.91188000000E+02  0.91188000000E+02 0.  0.
    9900012    2    3    3    0    0 -0.23223776460E+02 -0.23877707520E+02 -0.15693678249E+02  0.54367078686E+02  0.39999987480E+02 0.  0.
        -12    1    3    3    0    0  0.23223776460E+02  0.23877707520E+02  0.15693678249E+02  0.36820921314E+02  0.00000000000E+00 0.  1.
         11    1    4    4    0    0 -0.15901474803E+01  0.15712373718E+01 -0.12246320387E+02  0.12448683431E+02  0.51100000000E-03 0. -1.
        -11    1    4    4    0    0 -0.16782601547E+02 -0.97944988855E+00 -0.20167064673E+01  0.16931690465E+02  0.51100000000E-03 0.  1.
         12    1    4    4    0    0 -0.48510274326E+01 -0.24469495003E+02 -0.14306513955E+01  0.24986704790E+02  0.00000000000E+00 0. -1.
</event>
<event>
 8    1  0.2402194E-006  0.9118800E+02  0.7816164E-02  0.1184000E+00
        -11   -1    0    0    0    0  0.00000000000E+00  0.00000000000E+00  0.45593999997E+02  0.45594000000E+02  0.51100000000E-03 0.  1.
         11   -1    0    0    0    0 -0.00000000000E+00 -0.00000000000E+00 -0.45593999997E+02  0.45594000000E+02  0.51100000000E-03 0. -1.
         23    2    1    2    0    0  0.00000000000E+00  0.00000000000E+00  0.00000000000E+00  0.91188000000E+02  0.91188000000E+02 0.  0.
    9900012    2    3    3    0    0 -0.26371593184E+02 -0.71262096529E+01  0.24688860487E+02  0.54367032831E+02  0.39999882945E+02 0.  0.
         12    1    3    3    0    0  0.26371593184E+02  0.71262096529E+01 -0.24688860487E+02  0.36820967169E+02  0.00000000000E+00 0. -1.
         11    1    4    4    0    0 -0.24936247555E+02 -0.47584954398E+01 -0.46495435347E+00  0.25390468759E+02  0.51100000000E-03 0. -1.
        -11    1    4    4    0    0 -0.41803484590E+01 -0.35538505315E+01  0.25390804603E+02  0.25976876747E+02  0.51100000000E-03 0.  1.
         12    1    4    4    0    0  0.27450028300E+01  0.11861363184E+01 -0.23698976274E+00  0.29996873254E+01  0.00000000000E+00 0. -1.
</event>
<event>
 8    1  0.2402194E-006  0.9118800E+02  0.7816164E-02  0.1184000E+00
        -11   -1    0    0    0    0  0.00000000000E+00  0.00000000000E+00  0.45593999997E+02  0.45594000000E+02  0.51100000000E-03 0.  1.
         11   -1    0    0    0    0 -0.00000000000E+00 -0.00000000000E+00 -0.45593999997E+02  0.45594000000E+02  0.51100000000E-03 0. -1.
         23    2    1    2    0    0 -0.35527136788E-14  0.35527136788E-14 -0.88817841970E-15  0.91188000000E+02  0.91188000000E+02 0.  0.
    9900012    2    3    3    0    0  0.21940896152E+02 -0.29223562373E+02  0.45120717441E+01  0.54367104938E+02  0.40000047328E+02 0.  0.
        -12    1    3    3    0    0 -0.21940896152E+02  0.29223562373E+02 -0.45120717441E+01  0.36820895062E+02  0.00000000000E+00 0.  1.
         11    1    4    4    0    0  0.13394592331E+02 -0.54374659230E+01  0.12348259106E+02  0.19012118309E+02  0.51100000000E-03 0. -1.
        -11    1    4    4    0    0 -0.22097025451E+01 -0.19221253613E+02  0.28061351275E+01  0.19550288244E+02  0.51100000000E-03 0.  1.
        -12    1    4    4    0    0  0.10756006367E+02 -0.45648428364E+01 -0.10642322490E+02  0.15804698385E+02  0.00000000000E+00 0.  1.
</event>
<event>
 8    1  0.2402194E-006  0.9118800E+02  0.7816164E-02  0.1184000E+00
        -11   -1    0    0    0    0  0.00000000000E+00  0.00000000000E+00  0.45593999997E+02  0.45594000000E+02  0.51100000000E-03 0. -1.
         11   -1    0    0    0    0 -0.00000000000E+00 -0.00000000000E+00 -0.45593999997E+02  0.45594000000E+02  0.51100000000E-03 0.  1.
         23    2    1    2    0    0  0.00000000000E+00  0.17763568394E-14  0.71054273576E-14  0.91188000000E+02  0.91188000000E+02 0.  0.
    9900012    2    3    3    0    0  0.69242362020E+01 -0.13503527024E+02 -0.33548312040E+02  0.54367088417E+02  0.40000009664E+02 0.  0.
         12    1    3    3    0    0 -0.69242362020E+01  0.13503527024E+02  0.33548312040E+02  0.36820911583E+02  0.00000000000E+00 0. -1.
         11    1    4    4    0    0  0.25619325087E+01  0.62245946283E+01  0.23023133621E+01  0.71140511345E+01  0.51100000000E-03 0. -1.
        -11    1    4    4    0    0 -0.91914254346E+01 -0.12212303482E+02 -0.17789846513E+02  0.23454238361E+02  0.51100000000E-03 0.  1.
         12    1    4    4    0    0  0.13553729128E+02 -0.75158181701E+01 -0.18060778889E+02  0.23798798922E+02  0.00000000000E+00 0. -1.
</event>
<event>
 8    1  0.2402194E-006  0.9118800E+02  0.7816164E-02  0.1184000E+00
        -11   -1    0    0    0    0  0.00000000000E+00  0.00000000000E+00  0.45593999997E+02  0.45594000000E+02  0.51100000000E-03 0.  1.
         11   -1    0    0    0    0 -0.00000000000E+00 -0.00000000000E+00 -0.45593999997E+02  0.45594000000E+02  0.51100000000E-03 0. -1.
         23    2    1    2    0    0  0.35527136788E-14 -0.17763568394E-14  0.35527136788E-14  0.91188000000E+02  0.91188000000E+02 0.  0.
    9900012    2    3    3    0    0  0.20375471608E+02  0.12927090285E+02 -0.27812155305E+02  0.54367007493E+02  0.39999825181E+02 0.  0.
        -12    1    3    3    0    0 -0.20375471608E+02 -0.12927090285E+02  0.27812155305E+02  0.36820992507E+02  0.00000000000E+00 0.  1.
         11    1    4    4    0    0  0.95560709765E+01  0.10431057568E+02 -0.25497449332E+02  0.29158967355E+02  0.51100000000E-03 0. -1.
        -11    1    4    4    0    0  0.14011802884E+02  0.97854065875E+01 -0.81312311575E+00  0.17109820911E+02  0.51100000000E-03 0.  1.
         12    1    4    4    0    0 -0.31924022533E+01 -0.72893738704E+01 -0.15015828578E+01  0.80982192270E+01  0.00000000000E+00 0. -1.
</event>
<event>
 8    1  0.2402194E-006  0.9118800E+02  0.7816164E-02  0.1184000E+00
        -11   -1    0    0    0    0  0.00000000000E+00  0.00000000000E+00  0.45593999997E+02  0.45594000000E+02  0.51100000000E-03 0. -1.
         11   -1    0    0    0    0 -0.00000000000E+00 -0.00000000000E+00 -0.45593999997E+02  0.45594000000E+02  0.51100000000E-03 0.  1.
         23    2    1    2    0    0  0.88817841970E-15  0.66613381478E-15  0.00000000000E+00  0.91188000000E+02  0.91188000000E+02 0.  0.
    9900012    2    3    3    0    0  0.44409635751E+01 -0.17351460620E+01  0.36510954027E+02  0.54367046003E+02  0.39999912972E+02 0.  0.
        -12    1    3    3    0    0 -0.44409635751E+01  0.17351460620E+01 -0.36510954027E+02  0.36820953997E+02  0.00000000000E+00 0.  1.
         11    1    4    4    0    0  0.10161450031E+02  0.70730013529E+01  0.31569524801E+02  0.33910430715E+02  0.51100000000E-03 0. -1.
        -11    1    4    4    0    0  0.34308938693E+01  0.32370136459E+01  0.94979649748E+00  0.48115905617E+01  0.51100000000E-03 0.  1.
        -12    1    4    4    0    0 -0.91513803248E+01 -0.12045161061E+02  0.39916327281E+01  0.15645024726E+02  0.00000000000E+00 0.  1.
</event>
<event>
 8    1  0.2402194E-006  0.9118800E+02  0.7816164E-02  0.1184000E+00
        -11   -1    0    0    0    0  0.00000000000E+00  0.00000000000E+00  0.45593999997E+02  0.45594000000E+02  0.51100000000E-03 0.  1.
         11   -1    0    0    0    0 -0.00000000000E+00 -0.00000000000E+00 -0.45593999997E+02  0.45594000000E+02  0.51100000000E-03 0. -1.
         23    2    1    2    0    0  0.00000000000E+00 -0.17763568394E-14 -0.35527136788E-14  0.91188000000E+02  0.91188000000E+02 0.  0.
    9900012    2    3    3    0    0  0.25700633423E+02  0.13377894494E+02 -0.22721990639E+02  0.54367089120E+02  0.40000011267E+02 0.  0.
        -12    1    3    3    0    0 -0.25700633423E+02 -0.13377894494E+02  0.22721990639E+02  0.36820910880E+02  0.00000000000E+00 0.  1.
         11    1    4    4    0    0  0.12574630238E+02 -0.92833568200E+01 -0.38030088398E+01  0.16086171576E+02  0.51100000000E-03 0. -1.
        -11    1    4    4    0    0  0.21668436701E+01  0.17620075168E+00  0.38725711660E+01  0.44410658509E+01  0.51100000000E-03 0.  1.
         12    1    4    4    0    0  0.10959159515E+02  0.22485050562E+02 -0.22791552965E+02  0.33839851693E+02  0.00000000000E+00 0. -1.
</event>
<event>
 8    1  0.2402194E-006  0.9118800E+02  0.7816164E-02  0.1184000E+00
        -11   -1    0    0    0    0  0.00000000000E+00  0.00000000000E+00  0.45593999997E+02  0.45594000000E+02  0.51100000000E-03 0. -1.
         11   -1    0    0    0    0 -0.00000000000E+00 -0.00000000000E+00 -0.45593999997E+02  0.45594000000E+02  0.51100000000E-03 0.  1.
         23    2    1    2    0    0  0.00000000000E+00 -0.35527136788E-14  0.00000000000E+00  0.91188000000E+02  0.91188000000E+02 0.  0.
    9900012    2    3    3    0    0  0.16170169602E+02  0.17587975242E+02 -0.28017242702E+02  0.54367120778E+02  0.40000083437E+02 0.  0.
         12    1    3    3    0    0 -0.16170169602E+02 -0.17587975242E+02  0.28017242702E+02  0.36820879222E+02  0.00000000000E+00 0. -1.
         11    1    4    4    0    0  0.49515239904E+01 -0.84188954887E+01 -0.85593709874E+01  0.12986848079E+02  0.51100000000E-03 0. -1.
        -11    1    4    4    0    0 -0.35737343187E+01  0.52649832864E+00 -0.96883289777E+01  0.10339849908E+02  0.51100000000E-03 0.  1.
         12    1    4    4    0    0  0.14792379930E+02  0.25480372402E+02 -0.97695427373E+01  0.31040422791E+02  0.00000000000E+00 0. -1.
</event>
<event>
 8    1  0.2402194E-006  0.9118800E+02  0.7816164E-02  0.1184000E+00
        -11   -1    0    0    0    0  0.00000000000E+00  0.00000000000E+00  0.45593999997E+02  0.45594000000E+02  0.51100000000E-03 0.  1.
         11   -1    0    0    0    0 -0.00000000000E+00 -0.00000000000E+00 -0.45593999997E+02  0.45594000000E+02  0.51100000000E-03 0. -1.
         23    2    1    2    0    0 -0.22204460493E-15 -0.44408920985E-15 -0.71054273576E-14  0.91188000000E+02  0.91188000000E+02 0.  0.
    9900012    2    3    3    0    0  0.19345334963E+01 -0.25701699714E+01  0.36680140189E+02  0.54367070112E+02  0.39999967935E+02 0.  0.
         12    1    3    3    0    0 -0.19345334963E+01  0.25701699714E+01 -0.36680140189E+02  0.36820929888E+02  0.00000000000E+00 0. -1.
         11    1    4    4    0    0 -0.95039673398E+01 -0.97824777724E+01  0.58391664814E+01  0.14836378669E+02  0.51100000000E-03 0. -1.
        -11    1    4    4    0    0 -0.49256331778E+00  0.84053184523E+01  0.25401672451E+01  0.87945691652E+01  0.51100000000E-03 0.  1.
        -12    1    4    4    0    0  0.11931064154E+02 -0.11930106513E+01  0.28300806462E+02  0.30736122278E+02  0.00000000000E+00 0.  1.
</event>
<event>
 8    1  0.2402194E-006  0.9118800E+02  0.7816164E-02  0.1184000E+00
        -11   -1    0    0    0    0  0.00000000000E+00  0.00000000000E+00  0.45593999997E+02  0.45594000000E+02  0.51100000000E-03 0.  1.
         11   -1    0    0    0    0 -0.00000000000E+00 -0.00000000000E+00 -0.45593999997E+02  0.45594000000E+02  0.51100000000E-03 0. -1.
         23    2    1    2    0    0  0.00000000000E+00  0.00000000000E+00  0.00000000000E+00  0.91188000000E+02  0.91188000000E+02 0.  0.
    9900012    2    3    3    0    0  0.26409203318E+02 -0.82837963097E+01  0.24284290185E+02  0.54366891231E+02  0.39999560136E+02 0.  0.
         12    1    3    3    0    0 -0.26409203318E+02  0.82837963097E+01 -0.24284290185E+02  0.36821108769E+02  0.00000000000E+00 0. -1.
         11    1    4    4    0    0  0.69580151013E+01  0.62387927380E+01 -0.42695656032E+01  0.10274517005E+02  0.51100000000E-03 0. -1.
        -11    1    4    4    0    0  0.13436133253E+02 -0.19344082664E+02  0.27664261132E+02  0.36332279796E+02  0.51100000000E-03 0.  1.
        -12    1    4    4    0    0  0.60150549645E+01  0.48214936163E+01  0.88959465614E+00  0.77600944305E+01  0.00000000000E+00 0.  1.
</event>
<event>
 8    1  0.2402194E-006  0.9118800E+02  0.7816164E-02  0.1184000E+00
        -11   -1    0    0    0    0  0.00000000000E+00  0.00000000000E+00  0.45593999997E+02  0.45594000000E+02  0.51100000000E-03 0.  1.
         11   -1    0    0    0    0 -0.00000000000E+00 -0.00000000000E+00 -0.45593999997E+02  0.45594000000E+02  0.51100000000E-03 0. -1.
         23    2    1    2    0    0 -0.88817841970E-15  0.44408920985E-15  0.00000000000E+00  0.91188000000E+02  0.91188000000E+02 0.  0.
    9900012    2    3    3    0    0 -0.72957232736E+01  0.34215026840E+01 -0.35928322486E+02  0.54367100835E+02  0.40000037973E+02 0.  0.
        -12    1    3    3    0    0  0.72957232736E+01 -0.34215026840E+01  0.35928322486E+02  0.36820899165E+02  0.00000000000E+00 0.  1.
         11    1    4    4    0    0 -0.17052264117E+02 -0.42726377963E+01 -0.27260420220E+02  0.32437103078E+02  0.51100000000E-03 0. -1.
        -11    1    4    4    0    0  0.10638250895E+02 -0.63983620942E+00 -0.83577509546E+01  0.13543772508E+02  0.51100000000E-03 0.  1.
         12    1    4    4    0    0 -0.88171005121E+00  0.83339766897E+01 -0.31015131109E+00  0.83862252482E+01  0.00000000000E+00 0. -1.
</event>
<event>
 8    1  0.2402194E-006  0.9118800E+02  0.7816164E-02  0.1184000E+00
        -11   -1    0    0    0    0  0.00000000000E+00  0.00000000000E+00  0.45593999997E+02  0.45594000000E+02  0.51100000000E-03 0. -1.
         11   -1    0    0    0    0 -0.00000000000E+00 -0.00000000000E+00 -0.45593999997E+02  0.45594000000E+02  0.51100000000E-03 0.  1.
         23    2    1    2    0    0  0.35527136788E-14  0.00000000000E+00  0.00000000000E+00  0.91188000000E+02  0.91188000000E+02 0.  0.
    9900012    2    3    3    0    0  0.31638407352E+02  0.88987873807E+01 -0.16601205462E+02  0.54367119247E+02  0.40000079948E+02 0.  0.
        -12    1    3    3    0    0 -0.31638407352E+02 -0.88987873807E+01  0.16601205462E+02  0.36820880753E+02  0.00000000000E+00 0.  1.
         11    1    4    4    0    0  0.32490515979E+01 -0.79305675964E+01 -0.75554933185E+01  0.11425222897E+02  0.51100000000E-03 0. -1.
        -11    1    4    4    0    0  0.15450848694E+02  0.39413242904E+00  0.66148787662E+01  0.16811920982E+02  0.51100000000E-03 0.  1.
        -12    1    4    4    0    0  0.12938507060E+02  0.16435222548E+02 -0.15660590910E+02  0.26129975369E+02  0.00000000000E+00 0.  1.
</event>
<event>
 8    1  0.2402194E-006  0.9118800E+02  0.7816164E-02  0.1184000E+00
        -11   -1    0    0    0    0  0.00000000000E+00  0.00000000000E+00  0.45593999997E+02  0.45594000000E+02  0.51100000000E-03 0.  1.
         11   -1    0    0    0    0 -0.00000000000E+00 -0.00000000000E+00 -0.45593999997E+02  0.45594000000E+02  0.51100000000E-03 0. -1.
         23    2    1    2    0    0  0.35527136788E-14  0.35527136788E-14 -0.17763568394E-14  0.91188000000E+02  0.91188000000E+02 0.  0.
    9900012    2    3    3    0    0 -0.21932521282E+02 -0.26508658700E+02  0.13116205158E+02  0.54367091353E+02  0.40000016357E+02 0.  0.
         12    1    3    3    0    0  0.21932521282E+02  0.26508658700E+02 -0.13116205158E+02  0.36820908647E+02  0.00000000000E+00 0. -1.
         11    1    4    4    0    0 -0.93665265411E+01  0.41964782850E+01  0.88274189899E+01  0.13537561661E+02  0.51100000000E-03 0. -1.
        -11    1    4    4    0    0 -0.13509322019E+02 -0.46190271661E+01  0.35688197651E+01  0.14716442102E+02  0.51100000000E-03 0.  1.
        -12    1    4    4    0    0  0.94332727790E+00 -0.26086109819E+02  0.71996640316E+00  0.26113087589E+02  0.00000000000E+00 0.  1.
</event>
<event>
 8    1  0.2402194E-006  0.9118800E+02  0.7816164E-02  0.1184000E+00
        -11   -1    0    0    0    0  0.00000000000E+00  0.00000000000E+00  0.45593999997E+02  0.45594000000E+02  0.51100000000E-03 0. -1.
         11   -1    0    0    0    0 -0.00000000000E+00 -0.00000000000E+00 -0.45593999997E+02  0.45594000000E+02  0.51100000000E-03 0.  1.
         23    2    1    2    0    0  0.35527136788E-14 -0.35527136788E-14  0.00000000000E+00  0.91188000000E+02  0.91188000000E+02 0.  0.
    9900012    2    3    3    0    0 -0.25127838745E+02  0.22510121158E+02  0.14753526204E+02  0.54367077007E+02  0.39999983653E+02 0.  0.
        -12    1    3    3    0    0  0.25127838745E+02 -0.22510121158E+02 -0.14753526204E+02  0.36820922993E+02  0.00000000000E+00 0.  1.
         11    1    4    4    0    0 -0.11282281688E+02  0.40649267284E+01  0.22510694812E+02  0.25505781513E+02  0.51100000000E-03 0. -1.
        -11    1    4    4    0    0 -0.25913353467E+01  0.85643159231E+01 -0.10329113622E+02  0.13665764325E+02  0.51100000000E-03 0.  1.
         12    1    4    4    0    0 -0.11254221710E+02  0.98808785069E+01  0.25719450144E+01  0.15195531170E+02  0.00000000000E+00 0. -1.
</event>
<event>
 8    1  0.2402194E-006  0.9118800E+02  0.7816164E-02  0.1184000E+00
        -11   -1    0    0    0    0  0.00000000000E+00  0.00000000000E+00  0.45593999997E+02  0.45594000000E+02  0.51100000000E-03 0.  1.
         11   -1    0    0    0    0 -0.00000000000E+00 -0.00000000000E+00 -0.45593999997E+02  0.45594000000E+02  0.51100000000E-03 0. -1.
         23    2    1    2    0    0  0.35527136788E-14  0.00000000000E+00  0.00000000000E+00  0.91188000000E+02  0.91188000000E+02 0.  0.
    9900012    2    3    3    0    0 -0.20355541038E+02 -0.23653914920E+02  0.19542894976E+02  0.54367075432E+02  0.39999980062E+02 0.  0.
         12    1    3    3    0    0  0.20355541038E+02  0.23653914920E+02 -0.19542894976E+02  0.36820924568E+02  0.00000000000E+00 0. -1.
         11    1    4    4    0    0 -0.13326301999E+02  0.61630708148E+01  0.88973423623E+01  0.17167890616E+02  0.51100000000E-03 0. -1.
        -11    1    4    4    0    0  0.16778930237E+01 -0.24525833941E+02  0.36801677049E+01  0.24857101402E+02  0.51100000000E-03 0.  1.
        -12    1    4    4    0    0 -0.87071320624E+01 -0.52911517942E+01  0.69653849093E+01  0.12342083414E+02  0.00000000000E+00 0.  1.
</event>
<event>
 8    1  0.2402194E-006  0.9118800E+02  0.7816164E-02  0.1184000E+00
        -11   -1    0    0    0    0  0.00000000000E+00  0.00000000000E+00  0.45593999997E+02  0.45594000000E+02  0.51100000000E-03 0.  1.
         11   -1    0    0    0    0 -0.00000000000E+00 -0.00000000000E+00 -0.45593999997E+02  0.45594000000E+02  0.51100000000E-03 0. -1.
         23    2    1    2    0    0 -0.35527136788E-14 -0.35527136788E-14  0.35527136788E-14  0.91188000000E+02  0.91188000000E+02 0.  0.
    9900012    2    3    3    0    0 -0.18780912934E+02 -0.24680542396E+02  0.19847474276E+02  0.54367162167E+02  0.40000177791E+02 0.  0.
         12    1    3    3    0    0  0.18780912934E+02  0.24680542396E+02 -0.19847474276E+02  0.36820837833E+02  0.00000000000E+00 0. -1.
         11    1    4    4    0    0 -0.14874918364E+01 -0.66388393647E+01 -0.88476257175E+01  0.11160972232E+02  0.51100000000E-03 0. -1.
        -11    1    4    4    0    0 -0.16065708151E+02 -0.13506884795E+02  0.87920394439E+01  0.22756161212E+02  0.51100000000E-03 0.  1.
        -12    1    4    4    0    0 -0.12277129465E+01 -0.45348182364E+01  0.19903060549E+02  0.20450028722E+02  0.00000000000E+00 0.  1.
</event>
<event>
 8    1  0.2402194E-006  0.9118800E+02  0.7816164E-02  0.1184000E+00
        -11   -1    0    0    0    0  0.00000000000E+00  0.00000000000E+00  0.45593999997E+02  0.45594000000E+02  0.51100000000E-03 0.  1.
         11   -1    0    0    0    0 -0.00000000000E+00 -0.00000000000E+00 -0.45593999997E+02  0.45594000000E+02  0.51100000000E-03 0. -1.
         23    2    1    2    0    0  0.00000000000E+00  0.00000000000E+00  0.35527136788E-14  0.91188000000E+02  0.91188000000E+02 0.  0.
    9900012    2    3    3    0    0 -0.24287480393E+02 -0.25075736081E+01  0.27560914677E+02  0.54367168300E+02  0.40000191774E+02 0.  0.
         12    1    3    3    0    0  0.24287480393E+02  0.25075736081E+01 -0.27560914677E+02  0.36820831700E+02  0.00000000000E+00 0. -1.
         11    1    4    4    0    0 -0.14993407851E+02 -0.61424124026E+01 -0.36140153495E+01  0.16600982390E+02  0.51100000000E-03 0.  1.
        -11    1    4    4    0    0 -0.11662760705E+01 -0.15507620881E+01 -0.22543406481E+01  0.29744100163E+01  0.51100000000E-03 0. -1.
         12    1    4    4    0    0 -0.81277964709E+01  0.51856008826E+01  0.33429270675E+02  0.34791775894E+02  0.00000000000E+00 0. -1.
</event>
<event>
 8    1  0.2402194E-006  0.9118800E+02  0.7816164E-02  0.1184000E+00
        -11   -1    0    0    0    0  0.00000000000E+00  0.00000000000E+00  0.45593999997E+02  0.45594000000E+02  0.51100000000E-03 0.  1.
         11   -1    0    0    0    0 -0.00000000000E+00 -0.00000000000E+00 -0.45593999997E+02  0.45594000000E+02  0.51100000000E-03 0. -1.
         23    2    1    2    0    0 -0.35527136788E-14 -0.71054273576E-14  0.66613381478E-15  0.91188000000E+02  0.91188000000E+02 0.  0.
    9900012    2    3    3    0    0 -0.29275340646E+02 -0.22264030838E+02  0.17455709359E+01  0.54367086690E+02  0.40000005726E+02 0.  0.
         12    1    3    3    0    0  0.29275340646E+02  0.22264030838E+02 -0.17455709359E+01  0.36820913310E+02  0.00000000000E+00 0. -1.
         11    1    4    4    0    0 -0.19396082654E+02 -0.25666824158E+01 -0.65448733380E+01  0.20630832465E+02  0.51100000000E-03 0. -1.
        -11    1    4    4    0    0 -0.14409889413E+02 -0.22893509975E+01  0.22612611735E+01  0.14764800820E+02  0.51100000000E-03 0.  1.
        -12    1    4    4    0    0  0.45306314208E+01 -0.17407997425E+02  0.60291831004E+01  0.18971453405E+02  0.00000000000E+00 0.  1.
</event>
<event>
 8    1  0.2402194E-006  0.9118800E+02  0.7816164E-02  0.1184000E+00
        -11   -1    0    0    0    0  0.00000000000E+00  0.00000000000E+00  0.45593999997E+02  0.45594000000E+02  0.51100000000E-03 0.  1.
         11   -1    0    0    0    0 -0.00000000000E+00 -0.00000000000E+00 -0.45593999997E+02  0.45594000000E+02  0.51100000000E-03 0. -1.
         23    2    1    2    0    0  0.00000000000E+00  0.00000000000E+00  0.00000000000E+00  0.91188000000E+02  0.91188000000E+02 0.  0.
    9900012    2    3    3    0    0  0.18572221019E+02 -0.89107226112E+01  0.30519688536E+02  0.54367085299E+02  0.40000002557E+02 0.  0.
         12    1    3    3    0    0 -0.18572221019E+02  0.89107226112E+01 -0.30519688536E+02  0.36820914701E+02  0.00000000000E+00 0. -1.
         11    1    4    4    0    0 -0.42444188169E+01  0.40729527282E+01  0.53426398233E+01  0.79465612414E+01  0.51100000000E-03 0. -1.
        -11    1    4    4    0    0  0.94218862575E+01 -0.16854057829E+02  0.26078476774E+02  0.32448700391E+02  0.51100000000E-03 0.  1.
        -12    1    4    4    0    0  0.13394753578E+02  0.38703824898E+01 -0.90142806053E+00  0.13971823667E+02  0.00000000000E+00 0.  1.
</event>
<event>
 8    1  0.2402194E-006  0.9118800E+02  0.7816164E-02  0.1184000E+00
        -11   -1    0    0    0    0  0.00000000000E+00  0.00000000000E+00  0.45593999997E+02  0.45594000000E+02  0.51100000000E-03 0.  1.
         11   -1    0    0    0    0 -0.00000000000E+00 -0.00000000000E+00 -0.45593999997E+02  0.45594000000E+02  0.51100000000E-03 0. -1.
         23    2    1    2    0    0  0.00000000000E+00  0.00000000000E+00  0.35527136788E-14  0.91188000000E+02  0.91188000000E+02 0.  0.
    9900012    2    3    3    0    0  0.52831148246E+01 -0.26851125582E+02 -0.24635050051E+02  0.54367082870E+02  0.39999997019E+02 0.  0.
        -12    1    3    3    0    0 -0.52831148246E+01  0.26851125582E+02  0.24635050051E+02  0.36820917130E+02  0.00000000000E+00 0.  1.
         11    1    4    4    0    0 -0.18976984245E+01 -0.69853844612E+01 -0.12662777502E+02  0.14585704978E+02  0.51100000000E-03 0. -1.
        -11    1    4    4    0    0 -0.52101236858E+01 -0.23225173420E+02 -0.12592480916E+02  0.26928138537E+02  0.51100000000E-03 0.  1.
         12    1    4    4    0    0  0.12390936935E+02  0.33594322990E+01  0.62020836703E+00  0.12853239355E+02  0.00000000000E+00 0. -1.
</event>
<event>
 8    1  0.2402194E-006  0.9118800E+02  0.7816164E-02  0.1184000E+00
        -11   -1    0    0    0    0  0.00000000000E+00  0.00000000000E+00  0.45593999997E+02  0.45594000000E+02  0.51100000000E-03 0. -1.
         11   -1    0    0    0    0 -0.00000000000E+00 -0.00000000000E+00 -0.45593999997E+02  0.45594000000E+02  0.51100000000E-03 0.  1.
         23    2    1    2    0    0  0.00000000000E+00  0.35527136788E-14  0.00000000000E+00  0.91188000000E+02  0.91188000000E+02 0.  0.
    9900012    2    3    3    0    0 -0.15833153779E+02  0.18406184708E+02 -0.27682142939E+02  0.54367116906E+02  0.40000074611E+02 0.  0.
         12    1    3    3    0    0  0.15833153779E+02 -0.18406184708E+02  0.27682142939E+02  0.36820883094E+02  0.00000000000E+00 0. -1.
         11    1    4    4    0    0 -0.12403393732E+01 -0.41887248332E+01 -0.64251552409E+01  0.77695867085E+01  0.51100000000E-03 0. -1.
        -11    1    4    4    0    0 -0.20408767368E+01  0.17260680426E+02 -0.26744852919E+02  0.31896448462E+02  0.51100000000E-03 0.  1.
        -12    1    4    4    0    0 -0.12551937669E+02  0.53342291158E+01  0.54878652209E+01  0.14701081735E+02  0.00000000000E+00 0.  1.
</event>
<event>
 8    1  0.2402194E-006  0.9118800E+02  0.7816164E-02  0.1184000E+00
        -11   -1    0    0    0    0  0.00000000000E+00  0.00000000000E+00  0.45593999997E+02  0.45594000000E+02  0.51100000000E-03 0.  1.
         11   -1    0    0    0    0 -0.00000000000E+00 -0.00000000000E+00 -0.45593999997E+02  0.45594000000E+02  0.51100000000E-03 0. -1.
         23    2    1    2    0    0 -0.35527136788E-14  0.00000000000E+00  0.35527136788E-14  0.91188000000E+02  0.91188000000E+02 0.  0.
    9900012    2    3    3    0    0 -0.17500939200E+02  0.14404741994E+02 -0.29017245341E+02  0.54367082141E+02  0.39999995358E+02 0.  0.
        -12    1    3    3    0    0  0.17500939200E+02 -0.14404741994E+02  0.29017245341E+02  0.36820917859E+02  0.00000000000E+00 0.  1.
         11    1    4    4    0    0 -0.20219486247E+02  0.96492980670E+01 -0.18925239904E+02  0.29327483407E+02  0.51100000000E-03 0. -1.
        -11    1    4    4    0    0 -0.78972139290E+01  0.56524950655E+01  0.87364114455E+00  0.97508941855E+01  0.51100000000E-03 0.  1.
         12    1    4    4    0    0  0.10615760976E+02 -0.89705113877E+00 -0.10965646581E+02  0.15288704549E+02  0.00000000000E+00 0. -1.
</event>
<event>
 8    1  0.2402194E-006  0.9118800E+02  0.7816164E-02  0.1184000E+00
        -11   -1    0    0    0    0  0.00000000000E+00  0.00000000000E+00  0.45593999997E+02  0.45594000000E+02  0.51100000000E-03 0. -1.
         11   -1    0    0    0    0 -0.00000000000E+00 -0.00000000000E+00 -0.45593999997E+02  0.45594000000E+02  0.51100000000E-03 0.  1.
         23    2    1    2    0    0  0.00000000000E+00  0.00000000000E+00 -0.11102230246E-14  0.91188000000E+02  0.91188000000E+02 0.  0.
    9900012    2    3    3    0    0  0.18911729878E+02  0.31536095856E+02  0.18976948869E+01  0.54367080475E+02  0.39999991558E+02 0.  0.
        -12    1    3    3    0    0 -0.18911729878E+02 -0.31536095856E+02 -0.18976948869E+01  0.36820919525E+02  0.00000000000E+00 0.  1.
         11    1    4    4    0    0  0.14060382569E+01  0.24603242466E+02  0.21107871820E+01  0.24733618947E+02  0.51100000000E-03 0. -1.
        -11    1    4    4    0    0  0.75842043237E+01 -0.25407420363E+01 -0.99829581999E+01  0.12791988899E+02  0.51100000000E-03 0.  1.
        -12    1    4    4    0    0  0.99214872979E+01  0.94735954262E+01  0.97698659047E+01  0.16841472629E+02  0.00000000000E+00 0.  1.
</event>
<event>
 8    1  0.2402194E-006  0.9118800E+02  0.7816164E-02  0.1184000E+00
        -11   -1    0    0    0    0  0.00000000000E+00  0.00000000000E+00  0.45593999997E+02  0.45594000000E+02  0.51100000000E-03 0. -1.
         11   -1    0    0    0    0 -0.00000000000E+00 -0.00000000000E+00 -0.45593999997E+02  0.45594000000E+02  0.51100000000E-03 0.  1.
         23    2    1    2    0    0 -0.17763568394E-14  0.26645352591E-14  0.00000000000E+00  0.91188000000E+02  0.91188000000E+02 0.  0.
    9900012    2    3    3    0    0 -0.82266049940E+01  0.41214639490E+01  0.35652722023E+02  0.54367080912E+02  0.39999992556E+02 0.  0.
        -12    1    3    3    0    0  0.82266049940E+01 -0.41214639490E+01 -0.35652722023E+02  0.36820919088E+02  0.00000000000E+00 0.  1.
         11    1    4    4    0    0 -0.98125799601E+00 -0.48203706792E+01  0.17820773437E+02  0.18487260665E+02  0.51100000000E-03 0. -1.
        -11    1    4    4    0    0  0.16340288824E+01 -0.90791773406E+01  0.32263540125E+00  0.92306882427E+01  0.51100000000E-03 0.  1.
         12    1    4    4    0    0 -0.88793758804E+01  0.18021011969E+02  0.17509313184E+02  0.26649132004E+02  0.00000000000E+00 0. -1.
</event>
<event>
 8    1  0.2402194E-006  0.9118800E+02  0.7816164E-02  0.1184000E+00
        -11   -1    0    0    0    0  0.00000000000E+00  0.00000000000E+00  0.45593999997E+02  0.45594000000E+02  0.51100000000E-03 0. -1.
         11   -1    0    0    0    0 -0.00000000000E+00 -0.00000000000E+00 -0.45593999997E+02  0.45594000000E+02  0.51100000000E-03 0.  1.
         23    2    1    2    0    0  0.00000000000E+00  0.00000000000E+00  0.17763568394E-14  0.91188000000E+02  0.91188000000E+02 0.  0.
    9900012    2    3    3    0    0  0.29962701282E+02 -0.14747948127E+02 -0.15508461718E+02  0.54367111540E+02  0.40000062379E+02 0.  0.
         12    1    3    3    0    0 -0.29962701282E+02  0.14747948127E+02  0.15508461718E+02  0.36820888460E+02  0.00000000000E+00 0. -1.
         11    1    4    4    0    0 -0.28839878328E+00  0.11379014327E+02  0.13597653770E+00  0.11383480610E+02  0.51100000000E-03 0. -1.
        -11    1    4    4    0    0  0.99585109185E+01 -0.72338078764E+01 -0.46818020257E+01  0.13168871879E+02  0.51100000000E-03 0.  1.
         12    1    4    4    0    0  0.20292589147E+02 -0.18893154578E+02 -0.10962636230E+02  0.29814759051E+02  0.00000000000E+00 0. -1.
</event>
<event>
 8    1  0.2402194E-006  0.9118800E+02  0.7816164E-02  0.1184000E+00
        -11   -1    0    0    0    0  0.00000000000E+00  0.00000000000E+00  0.45593999997E+02  0.45594000000E+02  0.51100000000E-03 0. -1.
         11   -1    0    0    0    0 -0.00000000000E+00 -0.00000000000E+00 -0.45593999997E+02  0.45594000000E+02  0.51100000000E-03 0.  1.
         23    2    1    2    0    0  0.00000000000E+00 -0.26645352591E-14  0.00000000000E+00  0.91188000000E+02  0.91188000000E+02 0.  0.
    9900012    2    3    3    0    0  0.10739665014E+02  0.57903981594E+01 -0.34740586090E+02  0.54367116832E+02  0.40000074441E+02 0.  0.
         12    1    3    3    0    0 -0.10739665014E+02 -0.57903981594E+01  0.34740586090E+02  0.36820883168E+02  0.00000000000E+00 0. -1.
         11    1    4    4    0    0  0.16010949937E+01  0.52237906337E+01  0.47328880068E+01  0.72285353226E+01  0.51100000000E-03 0. -1.
        -11    1    4    4    0    0  0.72369305905E+01 -0.10272284601E+02 -0.30334615154E+02  0.32834157095E+02  0.51100000000E-03 0.  1.
        -12    1    4    4    0    0  0.19016394295E+01  0.10838892127E+02 -0.91388589420E+01  0.14304424414E+02  0.00000000000E+00 0.  1.
</event>
<event>
 8    1  0.2402194E-006  0.9118800E+02  0.7816164E-02  0.1184000E+00
        -11   -1    0    0    0    0  0.00000000000E+00  0.00000000000E+00  0.45593999997E+02  0.45594000000E+02  0.51100000000E-03 0. -1.
         11   -1    0    0    0    0 -0.00000000000E+00 -0.00000000000E+00 -0.45593999997E+02  0.45594000000E+02  0.51100000000E-03 0.  1.
         23    2    1    2    0    0 -0.35527136788E-14 -0.66613381478E-15 -0.35527136788E-14  0.91188000000E+02  0.91188000000E+02 0.  0.
    9900012    2    3    3    0    0  0.27367472973E+02  0.17680228807E+01  0.24569858018E+02  0.54367049376E+02  0.39999920662E+02 0.  0.
        -12    1    3    3    0    0 -0.27367472973E+02 -0.17680228807E+01 -0.24569858018E+02  0.36820950624E+02  0.00000000000E+00 0.  1.
         11    1    4    4    0    0  0.26261173176E+02  0.27848059554E+00  0.94073272852E+01  0.27896676772E+02  0.51100000000E-03 0. -1.
        -11    1    4    4    0    0  0.39367520701E+01  0.76040132409E+01 -0.13200517067E+01  0.86638081119E+01  0.51100000000E-03 0.  1.
         12    1    4    4    0    0 -0.28304522730E+01 -0.61144709557E+01  0.16482582439E+02  0.17806564492E+02  0.00000000000E+00 0. -1.
</event>
<event>
 8    1  0.2402194E-006  0.9118800E+02  0.7816164E-02  0.1184000E+00
        -11   -1    0    0    0    0  0.00000000000E+00  0.00000000000E+00  0.45593999997E+02  0.45594000000E+02  0.51100000000E-03 0. -1.
         11   -1    0    0    0    0 -0.00000000000E+00 -0.00000000000E+00 -0.45593999997E+02  0.45594000000E+02  0.51100000000E-03 0.  1.
         23    2    1    2    0    0  0.00000000000E+00  0.00000000000E+00  0.22204460493E-14  0.91188000000E+02  0.91188000000E+02 0.  0.
    9900012    2    3    3    0    0  0.20127134359E+02  0.30611185386E+02 -0.36924404571E+01  0.54367077622E+02  0.39999985055E+02 0.  0.
         12    1    3    3    0    0 -0.20127134359E+02 -0.30611185386E+02  0.36924404571E+01  0.36820922378E+02  0.00000000000E+00 0. -1.
         11    1    4    4    0    0  0.15167100376E+01  0.11706811344E+02 -0.18284494552E+02  0.21764020366E+02  0.51100000000E-03 0. -1.
        -11    1    4    4    0    0  0.19289534995E+02  0.15709525633E+02  0.96586673646E+01  0.26686423729E+02  0.51100000000E-03 0.  1.
        -12    1    4    4    0    0 -0.67911067340E+00  0.31948484082E+01  0.49333867306E+01  0.59166335269E+01  0.00000000000E+00 0.  1.
</event>
<event>
 8    1  0.2402194E-006  0.9118800E+02  0.7816164E-02  0.1184000E+00
        -11   -1    0    0    0    0  0.00000000000E+00  0.00000000000E+00  0.45593999997E+02  0.45594000000E+02  0.51100000000E-03 0. -1.
         11   -1    0    0    0    0 -0.00000000000E+00 -0.00000000000E+00 -0.45593999997E+02  0.45594000000E+02  0.51100000000E-03 0.  1.
         23    2    1    2    0    0  0.17763568394E-14  0.00000000000E+00  0.35527136788E-14  0.91188000000E+02  0.91188000000E+02 0.  0.
    9900012    2    3    3    0    0 -0.87542683982E+01 -0.25547793170E+02 -0.25029098880E+02  0.54367044801E+02  0.39999910232E+02 0.  0.
         12    1    3    3    0    0  0.87542683982E+01  0.25547793170E+02  0.25029098880E+02  0.36820955199E+02  0.00000000000E+00 0. -1.
         11    1    4    4    0    0 -0.33189943539E+01 -0.12713440053E+01  0.80690946568E+01  0.88171609910E+01  0.51100000000E-03 0. -1.
        -11    1    4    4    0    0  0.44424161431E+01 -0.79976216867E+01 -0.24545447766E+01  0.94721594240E+01  0.51100000000E-03 0.  1.
        -12    1    4    4    0    0 -0.98776901874E+01 -0.16278827478E+02 -0.30643648760E+02  0.36077724386E+02  0.00000000000E+00 0.  1.
</event>
<event>
 8    1  0.2402194E-006  0.9118800E+02  0.7816164E-02  0.1184000E+00
        -11   -1    0    0    0    0  0.00000000000E+00  0.00000000000E+00  0.45593999997E+02  0.45594000000E+02  0.51100000000E-03 0.  1.
         11   -1    0    0    0    0 -0.00000000000E+00 -0.00000000000E+00 -0.45593999997E+02  0.45594000000E+02  0.51100000000E-03 0. -1.
         23    2    1    2    0    0  0.00000000000E+00 -0.35527136788E-14  0.00000000000E+00  0.91188000000E+02  0.91188000000E+02 0.  0.
    9900012    2    3    3    0    0  0.20457875495E+01 -0.27236727491E+02 -0.24693221966E+02  0.54367084990E+02  0.40000001851E+02 0.  0.
        -12    1    3    3    0    0 -0.20457875495E+01  0.27236727491E+02  0.24693221966E+02  0.36820915010E+02  0.00000000000E+00 0.  1.
         11    1    4    4    0    0 -0.76282461264E+00  0.38611318472E+01  0.12763292575E+01  0.41375424065E+01  0.51100000000E-03 0. -1.
        -11    1    4    4    0    0  0.11103075459E+02 -0.30493234985E+02 -0.13293721567E+02  0.35069056130E+02  0.51100000000E-03 0.  1.
        -12    1    4    4    0    0 -0.82944632970E+01 -0.60462435301E+00 -0.12675829657E+02  0.15160486453E+02  0.00000000000E+00 0.  1.
</event>
<event>
 8    1  0.2402194E-006  0.9118800E+02  0.7816164E-02  0.1184000E+00
        -11   -1    0    0    0    0  0.00000000000E+00  0.00000000000E+00  0.45593999997E+02  0.45594000000E+02  0.51100000000E-03 0.  1.
         11   -1    0    0    0    0 -0.00000000000E+00 -0.00000000000E+00 -0.45593999997E+02  0.45594000000E+02  0.51100000000E-03 0. -1.
         23    2    1    2    0    0  0.00000000000E+00 -0.35527136788E-14  0.00000000000E+00  0.91188000000E+02  0.91188000000E+02 0.  0.
    9900012    2    3    3    0    0  0.20635648723E+02  0.18212657363E+02  0.24459118256E+02  0.54367090827E+02  0.40000015159E+02 0.  0.
         12    1    3    3    0    0 -0.20635648723E+02 -0.18212657363E+02 -0.24459118256E+02  0.36820909173E+02  0.00000000000E+00 0. -1.
         11    1    4    4    0    0  0.15082706659E+02  0.23085313939E+02  0.76199556169E+01  0.28609150349E+02  0.51100000000E-03 0. -1.
        -11    1    4    4    0    0  0.11444622513E+02 -0.93684102831E-01  0.12774036406E+02  0.17151214754E+02  0.51100000000E-03 0.  1.
        -12    1    4    4    0    0 -0.58916804489E+01 -0.47789724725E+01  0.40651262333E+01  0.86067257245E+01  0.00000000000E+00 0.  1.
</event>
<event>
 8    1  0.2402194E-006  0.9118800E+02  0.7816164E-02  0.1184000E+00
        -11   -1    0    0    0    0  0.00000000000E+00  0.00000000000E+00  0.45593999997E+02  0.45594000000E+02  0.51100000000E-03 0. -1.
         11   -1    0    0    0    0 -0.00000000000E+00 -0.00000000000E+00 -0.45593999997E+02  0.45594000000E+02  0.51100000000E-03 0.  1.
         23    2    1    2    0    0 -0.17763568394E-14  0.00000000000E+00 -0.17763568394E-14  0.91188000000E+02  0.91188000000E+02 0.  0.
    9900012    2    3    3    0    0  0.12382739860E+02 -0.31742380802E+02  0.13959584904E+02  0.54367068505E+02  0.39999964272E+02 0.  0.
        -12    1    3    3    0    0 -0.12382739860E+02  0.31742380802E+02 -0.13959584904E+02  0.36820931495E+02  0.00000000000E+00 0.  1.
         11    1    4    4    0    0 -0.14574788321E+01 -0.99424497436E+01  0.11078807536E+02  0.14957156419E+02  0.51100000000E-03 0. -1.
        -11    1    4    4    0    0 -0.79431122186E+01 -0.76669978272E+01  0.70674191011E+01  0.13108176853E+02  0.51100000000E-03 0.  1.
        -12    1    4    4    0    0  0.21783330911E+02 -0.14132933231E+02 -0.41866417332E+01  0.26301735234E+02  0.00000000000E+00 0.  1.
</event>
<event>
 8    1  0.2402194E-006  0.9118800E+02  0.7816164E-02  0.1184000E+00
        -11   -1    0    0    0    0  0.00000000000E+00  0.00000000000E+00  0.45593999997E+02  0.45594000000E+02  0.51100000000E-03 0.  1.
         11   -1    0    0    0    0 -0.00000000000E+00 -0.00000000000E+00 -0.45593999997E+02  0.45594000000E+02  0.51100000000E-03 0. -1.
         23    2    1    2    0    0  0.00000000000E+00 -0.71054273576E-14  0.00000000000E+00  0.91188000000E+02  0.91188000000E+02 0.  0.
    9900012    2    3    3    0    0 -0.93391133172E+01  0.19729539186E+02 -0.29653110039E+02  0.54367072675E+02  0.39999973777E+02 0.  0.
        -12    1    3    3    0    0  0.93391133172E+01 -0.19729539186E+02  0.29653110039E+02  0.36820927325E+02  0.00000000000E+00 0.  1.
         11    1    4    4    0    0  0.10127439170E+01 -0.10765342672E+02 -0.19726705727E+01  0.10991345801E+02  0.51100000000E-03 0. -1.
        -11    1    4    4    0    0 -0.65034258855E+01  0.99075086490E+01 -0.62014509524E+01  0.13375771755E+02  0.51100000000E-03 0.  1.
         12    1    4    4    0    0 -0.38484313486E+01  0.20587373209E+02 -0.21478988514E+02  0.29999955118E+02  0.00000000000E+00 0. -1.
</event>
<event>
 8    1  0.2402194E-006  0.9118800E+02  0.7816164E-02  0.1184000E+00
        -11   -1    0    0    0    0  0.00000000000E+00  0.00000000000E+00  0.45593999997E+02  0.45594000000E+02  0.51100000000E-03 0.  1.
         11   -1    0    0    0    0 -0.00000000000E+00 -0.00000000000E+00 -0.45593999997E+02  0.45594000000E+02  0.51100000000E-03 0. -1.
         23    2    1    2    0    0 -0.88817841970E-15 -0.88817841970E-15 -0.71054273576E-14  0.91188000000E+02  0.91188000000E+02 0.  0.
    9900012    2    3    3    0    0  0.56076923267E+01  0.56090197613E+01  0.35956569502E+02  0.54367052072E+02  0.39999926809E+02 0.  0.
         12    1    3    3    0    0 -0.56076923267E+01 -0.56090197613E+01 -0.35956569502E+02  0.36820947928E+02  0.00000000000E+00 0. -1.
         11    1    4    4    0    0  0.85100101663E+00  0.10047073430E+02  0.23863654474E+01  0.10361593871E+02  0.51100000000E-03 0. -1.
        -11    1    4    4    0    0  0.10629262388E+02  0.83736543241E+01  0.21728976268E+02  0.25597806850E+02  0.51100000000E-03 0.  1.
        -12    1    4    4    0    0 -0.58725710774E+01 -0.12811707993E+02  0.11841227787E+02  0.18407651351E+02  0.00000000000E+00 0.  1.
</event>
<event>
 8    1  0.2402194E-006  0.9118800E+02  0.7816164E-02  0.1184000E+00
        -11   -1    0    0    0    0  0.00000000000E+00  0.00000000000E+00  0.45593999997E+02  0.45594000000E+02  0.51100000000E-03 0.  1.
         11   -1    0    0    0    0 -0.00000000000E+00 -0.00000000000E+00 -0.45593999997E+02  0.45594000000E+02  0.51100000000E-03 0. -1.
         23    2    1    2    0    0  0.00000000000E+00  0.00000000000E+00 -0.71054273576E-14  0.91188000000E+02  0.91188000000E+02 0.  0.
    9900012    2    3    3    0    0 -0.27955281737E+02 -0.87734857523E+01 -0.22300473222E+02  0.54367042174E+02  0.39999904245E+02 0.  0.
        -12    1    3    3    0    0  0.27955281737E+02  0.87734857523E+01  0.22300473222E+02  0.36820957826E+02  0.00000000000E+00 0.  1.
         11    1    4    4    0    0 -0.21371851247E+02 -0.51777311586E+01 -0.60284456378E+01  0.22801471065E+02  0.51100000000E-03 0. -1.
        -11    1    4    4    0    0  0.57615702787E+01 -0.23892716957E+01  0.42771811146E+01  0.75629749345E+01  0.51100000000E-03 0.  1.
         12    1    4    4    0    0 -0.12345000769E+02 -0.12064828980E+01 -0.20549208699E+02  0.24002596175E+02  0.00000000000E+00 0. -1.
</event>
<event>
 8    1  0.2402194E-006  0.9118800E+02  0.7816164E-02  0.1184000E+00
        -11   -1    0    0    0    0  0.00000000000E+00  0.00000000000E+00  0.45593999997E+02  0.45594000000E+02  0.51100000000E-03 0.  1.
         11   -1    0    0    0    0 -0.00000000000E+00 -0.00000000000E+00 -0.45593999997E+02  0.45594000000E+02  0.51100000000E-03 0. -1.
         23    2    1    2    0    0  0.88817841970E-15  0.00000000000E+00  0.00000000000E+00  0.91188000000E+02  0.91188000000E+02 0.  0.
    9900012    2    3    3    0    0 -0.44172874673E+01 -0.67415764375E+01  0.35927961283E+02  0.54367086331E+02  0.40000004909E+02 0.  0.
         12    1    3    3    0    0  0.44172874673E+01  0.67415764375E+01 -0.35927961283E+02  0.36820913669E+02  0.00000000000E+00 0. -1.
         11    1    4    4    0    0  0.52310992999E+01 -0.41690410356E+01  0.11198686441E+02  0.13044381216E+02  0.51100000000E-03 0. -1.
        -11    1    4    4    0    0 -0.16239615090E+02 -0.95637021508E+01  0.25471457900E+02  0.31685717049E+02  0.51100000000E-03 0.  1.
         12    1    4    4    0    0  0.65912283223E+01  0.69911667489E+01 -0.74218305748E+00  0.96369880668E+01  0.00000000000E+00 0. -1.
</event>
<event>
 8    1  0.2402194E-006  0.9118800E+02  0.7816164E-02  0.1184000E+00
        -11   -1    0    0    0    0  0.00000000000E+00  0.00000000000E+00  0.45593999997E+02  0.45594000000E+02  0.51100000000E-03 0.  1.
         11   -1    0    0    0    0 -0.00000000000E+00 -0.00000000000E+00 -0.45593999997E+02  0.45594000000E+02  0.51100000000E-03 0. -1.
         23    2    1    2    0    0 -0.33306690739E-15  0.35527136788E-14 -0.35527136788E-14  0.91188000000E+02  0.91188000000E+02 0.  0.
    9900012    2    3    3    0    0  0.53783599164E+00 -0.29558744069E+02  0.21949385618E+02  0.54367025712E+02  0.39999866716E+02 0.  0.
        -12    1    3    3    0    0 -0.53783599164E+00  0.29558744069E+02 -0.21949385618E+02  0.36820974288E+02  0.00000000000E+00 0.  1.
         11    1    4    4    0    0  0.16551216875E+01 -0.19893679289E+02  0.11449369486E+02  0.23012734851E+02  0.51100000000E-03 0. -1.
        -11    1    4    4    0    0 -0.62210855228E+01 -0.15844273747E+02 -0.13204942149E+01  0.17072979262E+02  0.51100000000E-03 0.  1.
        -12    1    4    4    0    0  0.51037998270E+01  0.61792089670E+01  0.11820510347E+02  0.14281311599E+02  0.00000000000E+00 0.  1.
</event>
<event>
 8    1  0.2402194E-006  0.9118800E+02  0.7816164E-02  0.1184000E+00
        -11   -1    0    0    0    0  0.00000000000E+00  0.00000000000E+00  0.45593999997E+02  0.45594000000E+02  0.51100000000E-03 0.  1.
         11   -1    0    0    0    0 -0.00000000000E+00 -0.00000000000E+00 -0.45593999997E+02  0.45594000000E+02  0.51100000000E-03 0. -1.
         23    2    1    2    0    0  0.71054273576E-14  0.88817841970E-15 -0.88817841970E-15  0.91188000000E+02  0.91188000000E+02 0.  0.
    9900012    2    3    3    0    0 -0.35393529456E+02 -0.73280145934E+01  0.70269081638E+01  0.54367093390E+02  0.40000021002E+02 0.  0.
         12    1    3    3    0    0  0.35393529456E+02  0.73280145934E+01 -0.70269081638E+01  0.36820906610E+02  0.00000000000E+00 0. -1.
         11    1    4    4    0    0  0.63858310713E+00  0.36267576916E+01 -0.17880882957E+00  0.36868865723E+01  0.51100000000E-03 0. -1.
        -11    1    4    4    0    0 -0.39337561056E+02 -0.15069856814E+01  0.20467566644E+01  0.39419588135E+02  0.51100000000E-03 0.  1.
        -12    1    4    4    0    0  0.33054484928E+01 -0.94477866036E+01  0.51589603290E+01  0.11260618683E+02  0.00000000000E+00 0.  1.
</event>
<event>
 8    1  0.2402194E-006  0.9118800E+02  0.7816164E-02  0.1184000E+00
        -11   -1    0    0    0    0  0.00000000000E+00  0.00000000000E+00  0.45593999997E+02  0.45594000000E+02  0.51100000000E-03 0.  1.
         11   -1    0    0    0    0 -0.00000000000E+00 -0.00000000000E+00 -0.45593999997E+02  0.45594000000E+02  0.51100000000E-03 0. -1.
         23    2    1    2    0    0  0.22204460493E-15  0.71054273576E-14 -0.35527136788E-14  0.91188000000E+02  0.91188000000E+02 0.  0.
    9900012    2    3    3    0    0  0.14647933153E+01  0.27666613483E+02 -0.24252646558E+02  0.54367109379E+02  0.40000057451E+02 0.  0.
        -12    1    3    3    0    0 -0.14647933153E+01 -0.27666613483E+02  0.24252646558E+02  0.36820890621E+02  0.00000000000E+00 0.  1.
         11    1    4    4    0    0 -0.50666377216E+01 -0.65323893244E+00  0.30984088481E+01  0.59747532631E+01  0.51100000000E-03 0.  1.
        -11    1    4    4    0    0 -0.64638588222E+01  0.91058704421E+01  0.16152289078E+01  0.11283054199E+02  0.51100000000E-03 0. -1.
         12    1    4    4    0    0  0.12995289859E+02  0.19213981973E+02 -0.28966284314E+02  0.37109301916E+02  0.00000000000E+00 0. -1.
</event>
<event>
 8    1  0.2402194E-006  0.9118800E+02  0.7816164E-02  0.1184000E+00
        -11   -1    0    0    0    0  0.00000000000E+00  0.00000000000E+00  0.45593999997E+02  0.45594000000E+02  0.51100000000E-03 0. -1.
         11   -1    0    0    0    0 -0.00000000000E+00 -0.00000000000E+00 -0.45593999997E+02  0.45594000000E+02  0.51100000000E-03 0.  1.
         23    2    1    2    0    0 -0.35527136788E-14  0.17763568394E-14  0.35527136788E-14  0.91188000000E+02  0.91188000000E+02 0.  0.
    9900012    2    3    3    0    0 -0.28535007246E+02  0.11844574930E+02  0.20030956255E+02  0.54367084716E+02  0.40000001228E+02 0.  0.
        -12    1    3    3    0    0  0.28535007246E+02 -0.11844574930E+02 -0.20030956255E+02  0.36820915284E+02  0.00000000000E+00 0.  1.
         11    1    4    4    0    0  0.53167401623E+01  0.84632775393E+01  0.11548357723E+02  0.15272830746E+02  0.51100000000E-03 0. -1.
        -11    1    4    4    0    0 -0.26080485031E+01  0.28719435137E+01  0.67660130920E+01  0.77992890678E+01  0.51100000000E-03 0.  1.
        -12    1    4    4    0    0 -0.31243698905E+02  0.50935387751E+00  0.17165854407E+01  0.31294964902E+02  0.00000000000E+00 0.  1.
</event>
<event>
 8    1  0.2402194E-006  0.9118800E+02  0.7816164E-02  0.1184000E+00
        -11   -1    0    0    0    0  0.00000000000E+00  0.00000000000E+00  0.45593999997E+02  0.45594000000E+02  0.51100000000E-03 0.  1.
         11   -1    0    0    0    0 -0.00000000000E+00 -0.00000000000E+00 -0.45593999997E+02  0.45594000000E+02  0.51100000000E-03 0. -1.
         23    2    1    2    0    0  0.35527136788E-14  0.00000000000E+00 -0.17763568394E-14  0.91188000000E+02  0.91188000000E+02 0.  0.
    9900012    2    3    3    0    0  0.20623285919E+02  0.27410900026E+02  0.13382917238E+02  0.54367084257E+02  0.40000000181E+02 0.  0.
         12    1    3    3    0    0 -0.20623285919E+02 -0.27410900026E+02 -0.13382917238E+02  0.36820915743E+02  0.00000000000E+00 0. -1.
         11    1    4    4    0    0 -0.10320954948E+02  0.61526304880E+01  0.45189448643E+01  0.12837360940E+02  0.51100000000E-03 0. -1.
        -11    1    4    4    0    0  0.55606151366E+01  0.11825397515E+02  0.57324772154E+01  0.14269609748E+02  0.51100000000E-03 0.  1.
         12    1    4    4    0    0  0.25383625731E+02  0.94328720235E+01  0.31314951588E+01  0.27260113568E+02  0.00000000000E+00 0. -1.
</event>
<event>
 8    1  0.2402194E-006  0.9118800E+02  0.7816164E-02  0.1184000E+00
        -11   -1    0    0    0    0  0.00000000000E+00  0.00000000000E+00  0.45593999997E+02  0.45594000000E+02  0.51100000000E-03 0. -1.
         11   -1    0    0    0    0 -0.00000000000E+00 -0.00000000000E+00 -0.45593999997E+02  0.45594000000E+02  0.51100000000E-03 0.  1.
         23    2    1    2    0    0  0.35527136788E-14  0.44408920985E-15 -0.35527136788E-14  0.91188000000E+02  0.91188000000E+02 0.  0.
    9900012    2    3    3    0    0  0.19827734755E+02  0.25733368753E+01  0.30919579780E+02  0.54367061094E+02  0.39999947376E+02 0.  0.
        -12    1    3    3    0    0 -0.19827734755E+02 -0.25733368753E+01 -0.30919579780E+02  0.36820938906E+02  0.00000000000E+00 0.  1.
         11    1    4    4    0    0  0.88927932673E+01  0.72502737035E+01 -0.22749400603E+01  0.11697161767E+02  0.51100000000E-03 0.  1.
        -11    1    4    4    0    0 -0.62378962315E+01 -0.44360351669E+01  0.18666157563E+02  0.20174617612E+02  0.51100000000E-03 0. -1.
        -12    1    4    4    0    0  0.17172837719E+02 -0.24090166125E+00  0.14528362278E+02  0.22495281714E+02  0.00000000000E+00 0.  1.
</event>
<event>
 8    1  0.2402194E-006  0.9118800E+02  0.7816164E-02  0.1184000E+00
        -11   -1    0    0    0    0  0.00000000000E+00  0.00000000000E+00  0.45593999997E+02  0.45594000000E+02  0.51100000000E-03 0.  1.
         11   -1    0    0    0    0 -0.00000000000E+00 -0.00000000000E+00 -0.45593999997E+02  0.45594000000E+02  0.51100000000E-03 0. -1.
         23    2    1    2    0    0  0.00000000000E+00  0.17763568394E-14  0.00000000000E+00  0.91188000000E+02  0.91188000000E+02 0.  0.
    9900012    2    3    3    0    0 -0.25272488773E+02  0.10208068313E+02 -0.24756364998E+02  0.54367069058E+02  0.39999965532E+02 0.  0.
        -12    1    3    3    0    0  0.25272488773E+02 -0.10208068313E+02  0.24756364998E+02  0.36820930942E+02  0.00000000000E+00 0.  1.
         11    1    4    4    0    0 -0.12948715807E+02  0.14473093510E+02 -0.24327873831E+02  0.31128525859E+02  0.51100000000E-03 0. -1.
        -11    1    4    4    0    0 -0.10194897036E+02  0.64805095306E+01  0.12946883257E+01  0.12149450501E+02  0.51100000000E-03 0.  1.
         12    1    4    4    0    0 -0.21288759301E+01 -0.10745534727E+02 -0.17231794930E+01  0.11089092698E+02  0.00000000000E+00 0. -1.
</event>
<event>
 8    1  0.2402194E-006  0.9118800E+02  0.7816164E-02  0.1184000E+00
        -11   -1    0    0    0    0  0.00000000000E+00  0.00000000000E+00  0.45593999997E+02  0.45594000000E+02  0.51100000000E-03 0.  1.
         11   -1    0    0    0    0 -0.00000000000E+00 -0.00000000000E+00 -0.45593999997E+02  0.45594000000E+02  0.51100000000E-03 0. -1.
         23    2    1    2    0    0  0.71054273576E-14  0.00000000000E+00  0.00000000000E+00  0.91188000000E+02  0.91188000000E+02 0.  0.
    9900012    2    3    3    0    0  0.34741770447E+02 -0.11794793581E+02  0.31100081226E+01  0.54367083119E+02  0.39999997586E+02 0.  0.
         12    1    3    3    0    0 -0.34741770447E+02  0.11794793581E+02 -0.31100081226E+01  0.36820916881E+02  0.00000000000E+00 0. -1.
         11    1    4    4    0    0 -0.36736277420E+01  0.99121959922E+00  0.32940698614E+01  0.50327878550E+01  0.51100000000E-03 0. -1.
        -11    1    4    4    0    0 -0.43401618024E+01 -0.23235971891E+00 -0.18938756465E+01  0.47410716864E+01  0.51100000000E-03 0.  1.
        -12    1    4    4    0    0  0.42755559992E+02 -0.12553653461E+02  0.17098139076E+01  0.44593223578E+02  0.00000000000E+00 0.  1.
</event>
<event>
 8    1  0.2402194E-006  0.9118800E+02  0.7816164E-02  0.1184000E+00
        -11   -1    0    0    0    0  0.00000000000E+00  0.00000000000E+00  0.45593999997E+02  0.45594000000E+02  0.51100000000E-03 0. -1.
         11   -1    0    0    0    0 -0.00000000000E+00 -0.00000000000E+00 -0.45593999997E+02  0.45594000000E+02  0.51100000000E-03 0.  1.
         23    2    1    2    0    0  0.00000000000E+00  0.88817841970E-15  0.00000000000E+00  0.91188000000E+02  0.91188000000E+02 0.  0.
    9900012    2    3    3    0    0 -0.20987654388E+02  0.43939495399E+01 -0.29933142043E+02  0.54367062725E+02  0.39999951093E+02 0.  0.
         12    1    3    3    0    0  0.20987654388E+02 -0.43939495399E+01  0.29933142043E+02  0.36820937275E+02  0.00000000000E+00 0. -1.
         11    1    4    4    0    0 -0.84251204376E+01 -0.36030951238E+01 -0.31529158720E+01  0.96905019280E+01  0.51100000000E-03 0. -1.
        -11    1    4    4    0    0 -0.10561945327E+02  0.17666781822E+02 -0.56370611388E+01  0.21341188524E+02  0.51100000000E-03 0.  1.
        -12    1    4    4    0    0 -0.20005886235E+01 -0.96697371586E+01 -0.21143165032E+02  0.23335372273E+02  0.00000000000E+00 0.  1.
</event>
<event>
 8    1  0.2402194E-006  0.9118800E+02  0.7816164E-02  0.1184000E+00
        -11   -1    0    0    0    0  0.00000000000E+00  0.00000000000E+00  0.45593999997E+02  0.45594000000E+02  0.51100000000E-03 0.  1.
         11   -1    0    0    0    0 -0.00000000000E+00 -0.00000000000E+00 -0.45593999997E+02  0.45594000000E+02  0.51100000000E-03 0. -1.
         23    2    1    2    0    0  0.00000000000E+00  0.00000000000E+00 -0.17763568394E-14  0.91188000000E+02  0.91188000000E+02 0.  0.
    9900012    2    3    3    0    0 -0.29020640186E+02 -0.16854023333E+02 -0.15150040319E+02  0.54367090438E+02  0.40000014271E+02 0.  0.
        -12    1    3    3    0    0  0.29020640186E+02  0.16854023333E+02  0.15150040319E+02  0.36820909562E+02  0.00000000000E+00 0.  1.
         11    1    4    4    0    0 -0.20725799359E+02 -0.13649372095E+02 -0.58548354442E+01  0.25497906111E+02  0.51100000000E-03 0. -1.
        -11    1    4    4    0    0 -0.49732742583E+01  0.55683963903E+01 -0.15785501807E+02  0.17462032035E+02  0.51100000000E-03 0.  1.
        -12    1    4    4    0    0 -0.33215665685E+01 -0.87730476280E+01  0.64902969328E+01  0.11407152293E+02  0.00000000000E+00 0.  1.
</event>
<event>
 8    1  0.2402194E-006  0.9118800E+02  0.7816164E-02  0.1184000E+00
        -11   -1    0    0    0    0  0.00000000000E+00  0.00000000000E+00  0.45593999997E+02  0.45594000000E+02  0.51100000000E-03 0.  1.
         11   -1    0    0    0    0 -0.00000000000E+00 -0.00000000000E+00 -0.45593999997E+02  0.45594000000E+02  0.51100000000E-03 0. -1.
         23    2    1    2    0    0  0.00000000000E+00  0.00000000000E+00  0.00000000000E+00  0.91188000000E+02  0.91188000000E+02 0.  0.
    9900012    2    3    3    0    0  0.20872931309E+02  0.62610678732E+01  0.29679974106E+02  0.54367067159E+02  0.39999961203E+02 0.  0.
         12    1    3    3    0    0 -0.20872931309E+02 -0.62610678732E+01 -0.29679974106E+02  0.36820932841E+02  0.00000000000E+00 0. -1.
         11    1    4    4    0    0 -0.37583754631E+01 -0.57393019056E+01 -0.27946735038E+00  0.68660814695E+01  0.51100000000E-03 0. -1.
        -11    1    4    4    0    0  0.59026078883E+01 -0.22700103590E+01 -0.29963569035E+01  0.69979912738E+01  0.51100000000E-03 0.  1.
         12    1    4    4    0    0  0.18728698884E+02  0.14270380138E+02  0.32955798360E+02  0.40502994416E+02  0.00000000000E+00 0. -1.
</event>
<event>
 8    1  0.2402194E-006  0.9118800E+02  0.7816164E-02  0.1184000E+00
        -11   -1    0    0    0    0  0.00000000000E+00  0.00000000000E+00  0.45593999997E+02  0.45594000000E+02  0.51100000000E-03 0.  1.
         11   -1    0    0    0    0 -0.00000000000E+00 -0.00000000000E+00 -0.45593999997E+02  0.45594000000E+02  0.51100000000E-03 0. -1.
         23    2    1    2    0    0  0.00000000000E+00  0.27755575616E-16 -0.35527136788E-14  0.91188000000E+02  0.91188000000E+02 0.  0.
    9900012    2    3    3    0    0 -0.18903626643E+02 -0.14327995165E+00 -0.31597654812E+02  0.54367089921E+02  0.40000013094E+02 0.  0.
        -12    1    3    3    0    0  0.18903626643E+02  0.14327995165E+00  0.31597654812E+02  0.36820910079E+02  0.00000000000E+00 0.  1.
         11    1    4    4    0    0 -0.20467206968E+02  0.18691185764E+01 -0.31221778900E+02  0.37379133795E+02  0.51100000000E-03 0. -1.
        -11    1    4    4    0    0  0.74439592790E+01 -0.25456902807E+01  0.47319945716E+01  0.91806776242E+01  0.51100000000E-03 0.  1.
        -12    1    4    4    0    0 -0.58803789536E+01  0.53329175270E+00 -0.51078704838E+01  0.78072785022E+01  0.00000000000E+00 0.  1.
</event>
<event>
 8    1  0.2402194E-006  0.9118800E+02  0.7816164E-02  0.1184000E+00
        -11   -1    0    0    0    0  0.00000000000E+00  0.00000000000E+00  0.45593999997E+02  0.45594000000E+02  0.51100000000E-03 0.  1.
         11   -1    0    0    0    0 -0.00000000000E+00 -0.00000000000E+00 -0.45593999997E+02  0.45594000000E+02  0.51100000000E-03 0. -1.
         23    2    1    2    0    0  0.00000000000E+00  0.00000000000E+00  0.17763568394E-14  0.91188000000E+02  0.91188000000E+02 0.  0.
    9900012    2    3    3    0    0  0.14479015374E+02 -0.33457926138E+02  0.51676889606E+01  0.54367085877E+02  0.40000003875E+02 0.  0.
         12    1    3    3    0    0 -0.14479015374E+02  0.33457926138E+02 -0.51676889606E+01  0.36820914123E+02  0.00000000000E+00 0. -1.
         11    1    4    4    0    0  0.10449679688E+02 -0.27498826965E+02  0.14753812572E+02  0.32909820354E+02  0.51100000000E-03 0. -1.
        -11    1    4    4    0    0  0.67930069803E+01 -0.11239568707E+02 -0.76088841214E+01  0.15177877533E+02  0.51100000000E-03 0.  1.
         12    1    4    4    0    0 -0.27636712948E+01  0.52804695349E+01 -0.19772394904E+01  0.62793879907E+01  0.00000000000E+00 0. -1.
</event>
<event>
 8    1  0.2402194E-006  0.9118800E+02  0.7816164E-02  0.1184000E+00
        -11   -1    0    0    0    0  0.00000000000E+00  0.00000000000E+00  0.45593999997E+02  0.45594000000E+02  0.51100000000E-03 0.  1.
         11   -1    0    0    0    0 -0.00000000000E+00 -0.00000000000E+00 -0.45593999997E+02  0.45594000000E+02  0.51100000000E-03 0. -1.
         23    2    1    2    0    0  0.00000000000E+00  0.35527136788E-14  0.17763568394E-14  0.91188000000E+02  0.91188000000E+02 0.  0.
    9900012    2    3    3    0    0  0.29355068543E+02 -0.18930287435E+02 -0.11649186131E+02  0.54367090600E+02  0.40000014640E+02 0.  0.
         12    1    3    3    0    0 -0.29355068543E+02  0.18930287435E+02  0.11649186131E+02  0.36820909400E+02  0.00000000000E+00 0. -1.
         11    1    4    4    0    0  0.74534064152E+01 -0.27663074248E+02 -0.60062736330E+01  0.29272414784E+02  0.51100000000E-03 0.  1.
        -11    1    4    4    0    0  0.57579361302E+01  0.18657711439E+01  0.13625356430E+01  0.62041465231E+01  0.51100000000E-03 0. -1.
        -12    1    4    4    0    0  0.16143725998E+02  0.68670156694E+01 -0.70054481409E+01  0.18890529293E+02  0.00000000000E+00 0.  1.
</event>
<event>
 8    1  0.2402194E-006  0.9118800E+02  0.7816164E-02  0.1184000E+00
        -11   -1    0    0    0    0  0.00000000000E+00  0.00000000000E+00  0.45593999997E+02  0.45594000000E+02  0.51100000000E-03 0.  1.
         11   -1    0    0    0    0 -0.00000000000E+00 -0.00000000000E+00 -0.45593999997E+02  0.45594000000E+02  0.51100000000E-03 0. -1.
         23    2    1    2    0    0  0.00000000000E+00  0.53290705182E-14  0.00000000000E+00  0.91188000000E+02  0.91188000000E+02 0.  0.
    9900012    2    3    3    0    0 -0.30983884308E+02  0.12938852618E+02 -0.15111789942E+02  0.54367065884E+02  0.39999958296E+02 0.  0.
        -12    1    3    3    0    0  0.30983884308E+02 -0.12938852618E+02  0.15111789942E+02  0.36820934116E+02  0.00000000000E+00 0.  1.
         11    1    4    4    0    0 -0.67066379700E+01 -0.16463926204E+01 -0.11293891644E+02  0.13237884659E+02  0.51100000000E-03 0. -1.
        -11    1    4    4    0    0 -0.68664306534E+01 -0.91420087352E+01  0.14004958815E+00  0.11434325856E+02  0.51100000000E-03 0.  1.
         12    1    4    4    0    0 -0.17410815685E+02  0.23727253973E+02 -0.39579478868E+01  0.29694855370E+02  0.00000000000E+00 0. -1.
</event>
<event>
 8    1  0.2402194E-006  0.9118800E+02  0.7816164E-02  0.1184000E+00
        -11   -1    0    0    0    0  0.00000000000E+00  0.00000000000E+00  0.45593999997E+02  0.45594000000E+02  0.51100000000E-03 0.  1.
         11   -1    0    0    0    0 -0.00000000000E+00 -0.00000000000E+00 -0.45593999997E+02  0.45594000000E+02  0.51100000000E-03 0. -1.
         23    2    1    2    0    0  0.35527136788E-14 -0.35527136788E-14 -0.35527136788E-14  0.91188000000E+02  0.91188000000E+02 0.  0.
    9900012    2    3    3    0    0  0.19862352457E+02 -0.15647938756E+02 -0.26765812934E+02  0.54367085095E+02  0.40000002090E+02 0.  0.
        -12    1    3    3    0    0 -0.19862352457E+02  0.15647938756E+02  0.26765812934E+02  0.36820914905E+02  0.00000000000E+00 0.  1.
         11    1    4    4    0    0  0.29333347032E+01 -0.16467261668E+02  0.24219535725E+01  0.16900917688E+02  0.51100000000E-03 0.  1.
        -11    1    4    4    0    0  0.14633014778E+02 -0.30835958548E+01 -0.10588151117E+02  0.18323281072E+02  0.51100000000E-03 0. -1.
        -12    1    4    4    0    0  0.22960029754E+01  0.39029187670E+01 -0.18599615390E+02  0.19142886335E+02  0.00000000000E+00 0.  1.
</event>
<event>
 8    1  0.2402194E-006  0.9118800E+02  0.7816164E-02  0.1184000E+00
        -11   -1    0    0    0    0  0.00000000000E+00  0.00000000000E+00  0.45593999997E+02  0.45594000000E+02  0.51100000000E-03 0.  1.
         11   -1    0    0    0    0 -0.00000000000E+00 -0.00000000000E+00 -0.45593999997E+02  0.45594000000E+02  0.51100000000E-03 0. -1.
         23    2    1    2    0    0 -0.35527136788E-14  0.00000000000E+00  0.00000000000E+00  0.91188000000E+02  0.91188000000E+02 0.  0.
    9900012    2    3    3    0    0  0.22931668109E+02 -0.44776259864E+01  0.28458232409E+02  0.54367061275E+02  0.39999947789E+02 0.  0.
        -12    1    3    3    0    0 -0.22931668109E+02  0.44776259864E+01 -0.28458232409E+02  0.36820938725E+02  0.00000000000E+00 0.  1.
         11    1    4    4    0    0  0.27654513977E+01 -0.99178909532E+01 -0.49951329810E+01  0.11443934470E+02  0.51100000000E-03 0. -1.
        -11    1    4    4    0    0  0.24552694227E+01 -0.54870277803E+01  0.88539737092E+01  0.10701806974E+02  0.51100000000E-03 0.  1.
        -12    1    4    4    0    0  0.17710947289E+02  0.10927292747E+02  0.24599391681E+02  0.32221319832E+02  0.00000000000E+00 0.  1.
</event>
<event>
 8    1  0.2402194E-006  0.9118800E+02  0.7816164E-02  0.1184000E+00
        -11   -1    0    0    0    0  0.00000000000E+00  0.00000000000E+00  0.45593999997E+02  0.45594000000E+02  0.51100000000E-03 0. -1.
         11   -1    0    0    0    0 -0.00000000000E+00 -0.00000000000E+00 -0.45593999997E+02  0.45594000000E+02  0.51100000000E-03 0.  1.
         23    2    1    2    0    0  0.00000000000E+00  0.00000000000E+00 -0.17763568394E-14  0.91188000000E+02  0.91188000000E+02 0.  0.
    9900012    2    3    3    0    0  0.44950790688E+01 -0.33360203241E+02 -0.14922161875E+02  0.54367084596E+02  0.40000000954E+02 0.  0.
         12    1    3    3    0    0 -0.44950790688E+01  0.33360203241E+02  0.14922161875E+02  0.36820915404E+02  0.00000000000E+00 0. -1.
         11    1    4    4    0    0  0.78920755458E+01  0.51400942599E+01 -0.38392802110E+01  0.10170816006E+02  0.51100000000E-03 0. -1.
        -11    1    4    4    0    0 -0.26039645455E+01 -0.12609323170E+02 -0.12904541677E+02  0.18229176019E+02  0.51100000000E-03 0.  1.
         12    1    4    4    0    0 -0.79303193156E+00 -0.25890974331E+02  0.18216600126E+01  0.25967092572E+02  0.00000000000E+00 0. -1.
</event>
<event>
 8    1  0.2402194E-006  0.9118800E+02  0.7816164E-02  0.1184000E+00
        -11   -1    0    0    0    0  0.00000000000E+00  0.00000000000E+00  0.45593999997E+02  0.45594000000E+02  0.51100000000E-03 0.  1.
         11   -1    0    0    0    0 -0.00000000000E+00 -0.00000000000E+00 -0.45593999997E+02  0.45594000000E+02  0.51100000000E-03 0. -1.
         23    2    1    2    0    0  0.88817841970E-15  0.00000000000E+00 -0.35527136788E-14  0.91188000000E+02  0.91188000000E+02 0.  0.
    9900012    2    3    3    0    0 -0.40691120717E+01  0.31552547174E+02  0.18538057909E+02  0.54367075280E+02  0.39999979716E+02 0.  0.
         12    1    3    3    0    0  0.40691120717E+01 -0.31552547174E+02 -0.18538057909E+02  0.36820924720E+02  0.00000000000E+00 0. -1.
         11    1    4    4    0    0 -0.11380970070E+02  0.23448561006E+02  0.11594780258E+02  0.28527187427E+02  0.51100000000E-03 0. -1.
        -11    1    4    4    0    0 -0.23593413319E+01  0.64548424949E+00  0.12273051916E+02  0.12514429472E+02  0.51100000000E-03 0.  1.
        -12    1    4    4    0    0  0.96711993302E+01  0.74585019183E+01 -0.53297742647E+01  0.13325458381E+02  0.00000000000E+00 0.  1.
</event>
<event>
 8    1  0.2402194E-006  0.9118800E+02  0.7816164E-02  0.1184000E+00
        -11   -1    0    0    0    0  0.00000000000E+00  0.00000000000E+00  0.45593999997E+02  0.45594000000E+02  0.51100000000E-03 0.  1.
         11   -1    0    0    0    0 -0.00000000000E+00 -0.00000000000E+00 -0.45593999997E+02  0.45594000000E+02  0.51100000000E-03 0. -1.
         23    2    1    2    0    0 -0.22204460493E-15 -0.17763568394E-14  0.00000000000E+00  0.91188000000E+02  0.91188000000E+02 0.  0.
    9900012    2    3    3    0    0  0.10363931282E+01  0.11220255146E+02 -0.35054414352E+02  0.54367079291E+02  0.39999988860E+02 0.  0.
        -12    1    3    3    0    0 -0.10363931282E+01 -0.11220255146E+02  0.35054414352E+02  0.36820920709E+02  0.00000000000E+00 0.  1.
         11    1    4    4    0    0  0.37780534282E+01  0.36807056765E+01 -0.18001761572E+02  0.18758590084E+02  0.51100000000E-03 0. -1.
        -11    1    4    4    0    0 -0.56211996022E+01 -0.95998705217E+01 -0.14131875061E+02  0.17985140867E+02  0.51100000000E-03 0.  1.
        -12    1    4    4    0    0  0.28795393022E+01  0.17139419992E+02 -0.29207777197E+01  0.17623348340E+02  0.00000000000E+00 0.  1.
</event>
<event>
 8    1  0.2402194E-006  0.9118800E+02  0.7816164E-02  0.1184000E+00
        -11   -1    0    0    0    0  0.00000000000E+00  0.00000000000E+00  0.45593999997E+02  0.45594000000E+02  0.51100000000E-03 0. -1.
         11   -1    0    0    0    0 -0.00000000000E+00 -0.00000000000E+00 -0.45593999997E+02  0.45594000000E+02  0.51100000000E-03 0.  1.
         23    2    1    2    0    0 -0.17763568394E-14 -0.71054273576E-14 -0.88817841970E-15  0.91188000000E+02  0.91188000000E+02 0.  0.
    9900012    2    3    3    0    0 -0.52052720504E+01  0.36387992234E+02  0.21444595062E+01  0.54367088244E+02  0.40000009270E+02 0.  0.
        -12    1    3    3    0    0  0.52052720504E+01 -0.36387992234E+02 -0.21444595062E+01  0.36820911756E+02  0.00000000000E+00 0.  1.
         11    1    4    4    0    0  0.50879255884E-01  0.11199526934E+01 -0.46759846546E+01  0.48085044957E+01  0.51100000000E-03 0. -1.
        -11    1    4    4    0    0  0.13538389462E+02  0.22852742159E+02  0.36370244198E+01  0.26809769867E+02  0.51100000000E-03 0.  1.
         12    1    4    4    0    0 -0.18794540769E+02  0.12415297382E+02  0.31834197410E+01  0.22748813882E+02  0.00000000000E+00 0. -1.
</event>
<event>
 8    1  0.2402194E-006  0.9118800E+02  0.7816164E-02  0.1184000E+00
        -11   -1    0    0    0    0  0.00000000000E+00  0.00000000000E+00  0.45593999997E+02  0.45594000000E+02  0.51100000000E-03 0. -1.
         11   -1    0    0    0    0 -0.00000000000E+00 -0.00000000000E+00 -0.45593999997E+02  0.45594000000E+02  0.51100000000E-03 0.  1.
         23    2    1    2    0    0  0.00000000000E+00  0.35527136788E-14  0.17763568394E-14  0.91188000000E+02  0.91188000000E+02 0.  0.
    9900012    2    3    3    0    0  0.22113566910E+02  0.27315603597E+02 -0.10983009184E+02  0.54367101965E+02  0.40000040550E+02 0.  0.
         12    1    3    3    0    0 -0.22113566910E+02 -0.27315603597E+02  0.10983009184E+02  0.36820898035E+02  0.00000000000E+00 0. -1.
         11    1    4    4    0    0  0.28757214522E+02  0.25334365121E+02 -0.13123932914E+02  0.40509814349E+02  0.51100000000E-03 0. -1.
        -11    1    4    4    0    0 -0.39745658038E+00  0.12305659864E+01 -0.45162792492E+01  0.46977699921E+01  0.51100000000E-03 0.  1.
         12    1    4    4    0    0 -0.62461910320E+01  0.75067248944E+00  0.66572029792E+01  0.91595176239E+01  0.00000000000E+00 0. -1.
</event>
<event>
 8    1  0.2402194E-006  0.9118800E+02  0.7816164E-02  0.1184000E+00
        -11   -1    0    0    0    0  0.00000000000E+00  0.00000000000E+00  0.45593999997E+02  0.45594000000E+02  0.51100000000E-03 0. -1.
         11   -1    0    0    0    0 -0.00000000000E+00 -0.00000000000E+00 -0.45593999997E+02  0.45594000000E+02  0.51100000000E-03 0.  1.
         23    2    1    2    0    0 -0.17763568394E-14  0.71054273576E-14 -0.17763568394E-14  0.91188000000E+02  0.91188000000E+02 0.  0.
    9900012    2    3    3    0    0 -0.10074155102E+02  0.35206327711E+02 -0.38477979526E+01  0.54367086635E+02  0.40000005602E+02 0.  0.
         12    1    3    3    0    0  0.10074155102E+02 -0.35206327711E+02  0.38477979526E+01  0.36820913365E+02  0.00000000000E+00 0. -1.
         11    1    4    4    0    0 -0.42829446277E+01 -0.39959524924E+01 -0.11154078696E+01  0.59628337209E+01  0.51100000000E-03 0. -1.
        -11    1    4    4    0    0 -0.60014816963E+01  0.97918776038E+00  0.66856631991E+01  0.90374047101E+01  0.51100000000E-03 0.  1.
        -12    1    4    4    0    0  0.21027122192E+00  0.38223092443E+02 -0.94180532821E+01  0.39366848204E+02  0.00000000000E+00 0.  1.
</event>
<event>
 8    1  0.2402194E-006  0.9118800E+02  0.7816164E-02  0.1184000E+00
        -11   -1    0    0    0    0  0.00000000000E+00  0.00000000000E+00  0.45593999997E+02  0.45594000000E+02  0.51100000000E-03 0.  1.
         11   -1    0    0    0    0 -0.00000000000E+00 -0.00000000000E+00 -0.45593999997E+02  0.45594000000E+02  0.51100000000E-03 0. -1.
         23    2    1    2    0    0  0.00000000000E+00  0.17763568394E-14  0.35527136788E-14  0.91188000000E+02  0.91188000000E+02 0.  0.
    9900012    2    3    3    0    0  0.17207211348E+02 -0.92830291962E+01 -0.31201247305E+02  0.54367074064E+02  0.39999976943E+02 0.  0.
        -12    1    3    3    0    0 -0.17207211348E+02  0.92830291962E+01  0.31201247305E+02  0.36820925936E+02  0.00000000000E+00 0.  1.
         11    1    4    4    0    0  0.41978712167E+01 -0.17844457173E+01 -0.15490404456E+02  0.16148033928E+02  0.51100000000E-03 0. -1.
        -11    1    4    4    0    0  0.80233022555E+00 -0.18169620030E+02 -0.52736416660E+01  0.18936475979E+02  0.51100000000E-03 0.  1.
        -12    1    4    4    0    0  0.12207009905E+02  0.10671036551E+02 -0.10437201183E+02  0.19282564156E+02  0.00000000000E+00 0.  1.
</event>
<event>
 8    1  0.2402194E-006  0.9118800E+02  0.7816164E-02  0.1184000E+00
        -11   -1    0    0    0    0  0.00000000000E+00  0.00000000000E+00  0.45593999997E+02  0.45594000000E+02  0.51100000000E-03 0.  1.
         11   -1    0    0    0    0 -0.00000000000E+00 -0.00000000000E+00 -0.45593999997E+02  0.45594000000E+02  0.51100000000E-03 0. -1.
         23    2    1    2    0    0  0.17763568394E-14  0.22204460493E-15 -0.71054273576E-14  0.91188000000E+02  0.91188000000E+02 0.  0.
    9900012    2    3    3    0    0  0.58564993434E+01 -0.10909651945E+01 -0.36335798436E+02  0.54367095100E+02  0.40000024900E+02 0.  0.
        -12    1    3    3    0    0 -0.58564993434E+01  0.10909651945E+01  0.36335798436E+02  0.36820904900E+02  0.00000000000E+00 0.  1.
         11    1    4    4    0    0 -0.64692898392E+01  0.35681367737E+01 -0.30523153284E+02  0.31404556958E+02  0.51100000000E-03 0. -1.
        -11    1    4    4    0    0  0.16513246491E+02 -0.12373001589E+01 -0.28712337358E+01  0.16806611936E+02  0.51100000000E-03 0.  1.
        -12    1    4    4    0    0 -0.41874573084E+01 -0.34218018094E+01 -0.29414114162E+01  0.61559262058E+01  0.00000000000E+00 0.  1.
</event>
<event>
 8    1  0.2402194E-006  0.9118800E+02  0.7816164E-02  0.1184000E+00
        -11   -1    0    0    0    0  0.00000000000E+00  0.00000000000E+00  0.45593999997E+02  0.45594000000E+02  0.51100000000E-03 0.  1.
         11   -1    0    0    0    0 -0.00000000000E+00 -0.00000000000E+00 -0.45593999997E+02  0.45594000000E+02  0.51100000000E-03 0. -1.
         23    2    1    2    0    0  0.88817841970E-15  0.00000000000E+00  0.00000000000E+00  0.91188000000E+02  0.91188000000E+02 0.  0.
    9900012    2    3    3    0    0 -0.62744674675E+01  0.11227780425E+02 -0.34501407226E+02  0.54367094310E+02  0.40000023099E+02 0.  0.
        -12    1    3    3    0    0  0.62744674675E+01 -0.11227780425E+02  0.34501407226E+02  0.36820905690E+02  0.00000000000E+00 0.  1.
         11    1    4    4    0    0  0.73465656278E+01  0.11571799238E+01 -0.14017278212E+02  0.15868055351E+02  0.51100000000E-03 0. -1.
        -11    1    4    4    0    0 -0.84543002187E+01  0.17514468791E+02 -0.42497807786E+01  0.19907095372E+02  0.51100000000E-03 0.  1.
         12    1    4    4    0    0 -0.51667328766E+01 -0.74438682898E+01 -0.16234348235E+02  0.18591943587E+02  0.00000000000E+00 0. -1.
</event>
<event>
 8    1  0.2402194E-006  0.9118800E+02  0.7816164E-02  0.1184000E+00
        -11   -1    0    0    0    0  0.00000000000E+00  0.00000000000E+00  0.45593999997E+02  0.45594000000E+02  0.51100000000E-03 0.  1.
         11   -1    0    0    0    0 -0.00000000000E+00 -0.00000000000E+00 -0.45593999997E+02  0.45594000000E+02  0.51100000000E-03 0. -1.
         23    2    1    2    0    0 -0.71054273576E-14 -0.71054273576E-14  0.00000000000E+00  0.91188000000E+02  0.91188000000E+02 0.  0.
    9900012    2    3    3    0    0 -0.25862317442E+02 -0.23647155948E+02  0.11301866064E+02  0.54367087132E+02  0.40000006734E+02 0.  0.
         12    1    3    3    0    0  0.25862317442E+02  0.23647155948E+02 -0.11301866064E+02  0.36820912868E+02  0.00000000000E+00 0. -1.
         11    1    4    4    0    0 -0.49197425004E+01 -0.11327398912E+02 -0.10490548285E+02  0.16203871018E+02  0.51100000000E-03 0. -1.
        -11    1    4    4    0    0  0.37108439833E+01 -0.99059306782E+00  0.96792976957E+00  0.39608743977E+01  0.51100000000E-03 0.  1.
        -12    1    4    4    0    0 -0.24653418925E+02 -0.11329163969E+02  0.20824484579E+02  0.34202341717E+02  0.00000000000E+00 0.  1.
</event>
<event>
 8    1  0.2402194E-006  0.9118800E+02  0.7816164E-02  0.1184000E+00
        -11   -1    0    0    0    0  0.00000000000E+00  0.00000000000E+00  0.45593999997E+02  0.45594000000E+02  0.51100000000E-03 0.  1.
         11   -1    0    0    0    0 -0.00000000000E+00 -0.00000000000E+00 -0.45593999997E+02  0.45594000000E+02  0.51100000000E-03 0. -1.
         23    2    1    2    0    0  0.17763568394E-14  0.00000000000E+00  0.00000000000E+00  0.91188000000E+02  0.91188000000E+02 0.  0.
    9900012    2    3    3    0    0 -0.12862559520E+02  0.30111132456E+02  0.16842000211E+02  0.54367099600E+02  0.40000035158E+02 0.  0.
         12    1    3    3    0    0  0.12862559520E+02 -0.30111132456E+02 -0.16842000211E+02  0.36820900400E+02  0.00000000000E+00 0. -1.
         11    1    4    4    0    0 -0.13578005707E+02  0.58888406085E+01 -0.50265508714E+01  0.15630319786E+02  0.51100000000E-03 0. -1.
        -11    1    4    4    0    0  0.41704722542E+01  0.19111681638E+02  0.25060358686E+02  0.31791048922E+02  0.51100000000E-03 0.  1.
        -12    1    4    4    0    0 -0.34550260678E+01  0.51106102091E+01 -0.31918076035E+01  0.69457308914E+01  0.00000000000E+00 0.  1.
</event>
<event>
 8    1  0.2402194E-006  0.9118800E+02  0.7816164E-02  0.1184000E+00
        -11   -1    0    0    0    0  0.00000000000E+00  0.00000000000E+00  0.45593999997E+02  0.45594000000E+02  0.51100000000E-03 0. -1.
         11   -1    0    0    0    0 -0.00000000000E+00 -0.00000000000E+00 -0.45593999997E+02  0.45594000000E+02  0.51100000000E-03 0.  1.
         23    2    1    2    0    0 -0.35527136788E-14  0.00000000000E+00  0.00000000000E+00  0.91188000000E+02  0.91188000000E+02 0.  0.
    9900012    2    3    3    0    0 -0.20283241752E+02 -0.17992532339E+02 -0.24912677604E+02  0.54367046437E+02  0.39999913961E+02 0.  0.
         12    1    3    3    0    0  0.20283241752E+02  0.17992532339E+02  0.24912677604E+02  0.36820953563E+02  0.00000000000E+00 0. -1.
         11    1    4    4    0    0 -0.15932455962E+02 -0.16030908597E+02 -0.39020294518E+01  0.22935976490E+02  0.51100000000E-03 0. -1.
        -11    1    4    4    0    0 -0.94690276269E+01 -0.46872048226E+01 -0.22991789005E+02  0.25303255426E+02  0.51100000000E-03 0.  1.
         12    1    4    4    0    0  0.51182418368E+01  0.27255810809E+01  0.19811408526E+01  0.61278145212E+01  0.00000000000E+00 0. -1.
</event>
<event>
 8    1  0.2402194E-006  0.9118800E+02  0.7816164E-02  0.1184000E+00
        -11   -1    0    0    0    0  0.00000000000E+00  0.00000000000E+00  0.45593999997E+02  0.45594000000E+02  0.51100000000E-03 0. -1.
         11   -1    0    0    0    0 -0.00000000000E+00 -0.00000000000E+00 -0.45593999997E+02  0.45594000000E+02  0.51100000000E-03 0.  1.
         23    2    1    2    0    0  0.88817841970E-15  0.00000000000E+00  0.00000000000E+00  0.91188000000E+02  0.91188000000E+02 0.  0.
    9900012    2    3    3    0    0 -0.68462822168E+01 -0.34747896749E+02  0.10074306729E+02  0.54367087943E+02  0.40000008584E+02 0.  0.
        -12    1    3    3    0    0  0.68462822168E+01  0.34747896749E+02 -0.10074306729E+02  0.36820912057E+02  0.00000000000E+00 0.  1.
         11    1    4    4    0    0 -0.11944220357E+02 -0.19225033152E+02  0.57204047755E+01  0.23345006547E+02  0.51100000000E-03 0. -1.
        -11    1    4    4    0    0 -0.83747592522E+00 -0.10197667099E+02  0.14730464843E+02  0.17935450230E+02  0.51100000000E-03 0.  1.
        -12    1    4    4    0    0  0.59354140654E+01 -0.53251964977E+01 -0.10376562890E+02  0.13086631166E+02  0.00000000000E+00 0.  1.
</event>
<event>
 8    1  0.2402194E-006  0.9118800E+02  0.7816164E-02  0.1184000E+00
        -11   -1    0    0    0    0  0.00000000000E+00  0.00000000000E+00  0.45593999997E+02  0.45594000000E+02  0.51100000000E-03 0. -1.
         11   -1    0    0    0    0 -0.00000000000E+00 -0.00000000000E+00 -0.45593999997E+02  0.45594000000E+02  0.51100000000E-03 0.  1.
         23    2    1    2    0    0  0.00000000000E+00  0.00000000000E+00  0.00000000000E+00  0.91188000000E+02  0.91188000000E+02 0.  0.
    9900012    2    3    3    0    0  0.76067594770E+01 -0.34452546314E+02  0.10532765041E+02  0.54367083707E+02  0.39999998928E+02 0.  0.
        -12    1    3    3    0    0 -0.76067594770E+01  0.34452546314E+02 -0.10532765041E+02  0.36820916293E+02  0.00000000000E+00 0.  1.
         11    1    4    4    0    0 -0.39199291974E+01  0.46743589135E+01 -0.44892275990E+01  0.75742089265E+01  0.51100000000E-03 0. -1.
        -11    1    4    4    0    0  0.93644198541E+01 -0.86973402388E+01 -0.18633605221E-01  0.12780314312E+02  0.51100000000E-03 0.  1.
         12    1    4    4    0    0  0.21622688202E+01 -0.30429564988E+02  0.15040626245E+02  0.34012560469E+02  0.00000000000E+00 0. -1.
</event>
<event>
 8    1  0.2402194E-006  0.9118800E+02  0.7816164E-02  0.1184000E+00
        -11   -1    0    0    0    0  0.00000000000E+00  0.00000000000E+00  0.45593999997E+02  0.45594000000E+02  0.51100000000E-03 0.  1.
         11   -1    0    0    0    0 -0.00000000000E+00 -0.00000000000E+00 -0.45593999997E+02  0.45594000000E+02  0.51100000000E-03 0. -1.
         23    2    1    2    0    0  0.71054273576E-14 -0.35527136788E-14 -0.17763568394E-14  0.91188000000E+02  0.91188000000E+02 0.  0.
    9900012    2    3    3    0    0  0.31233971682E+02 -0.19294136724E+02 -0.28205041049E+01  0.54367082815E+02  0.39999996893E+02 0.  0.
        -12    1    3    3    0    0 -0.31233971682E+02  0.19294136724E+02  0.28205041049E+01  0.36820917185E+02  0.00000000000E+00 0.  1.
         11    1    4    4    0    0  0.64715580989E+01 -0.32599840508E+01  0.11770275483E+02  0.13822009457E+02  0.51100000000E-03 0. -1.
        -11    1    4    4    0    0  0.48072518372E+01  0.51941890756E+01 -0.79859853414E+01  0.10670765320E+02  0.51100000000E-03 0.  1.
         12    1    4    4    0    0  0.19955161746E+02 -0.21228341748E+02 -0.66047942464E+01  0.29874308038E+02  0.00000000000E+00 0. -1.
</event>
<event>
 8    1  0.2402194E-006  0.9118800E+02  0.7816164E-02  0.1184000E+00
        -11   -1    0    0    0    0  0.00000000000E+00  0.00000000000E+00  0.45593999997E+02  0.45594000000E+02  0.51100000000E-03 0.  1.
         11   -1    0    0    0    0 -0.00000000000E+00 -0.00000000000E+00 -0.45593999997E+02  0.45594000000E+02  0.51100000000E-03 0. -1.
         23    2    1    2    0    0  0.00000000000E+00  0.00000000000E+00  0.00000000000E+00  0.91188000000E+02  0.91188000000E+02 0.  0.
    9900012    2    3    3    0    0  0.52974765921E+01 -0.16801130621E+02 -0.32333242292E+02  0.54367084673E+02  0.40000001130E+02 0.  0.
        -12    1    3    3    0    0 -0.52974765921E+01  0.16801130621E+02  0.32333242292E+02  0.36820915327E+02  0.00000000000E+00 0.  1.
         11    1    4    4    0    0  0.15448186357E+01 -0.42376302888E+01 -0.47158928068E+01  0.65256126386E+01  0.51100000000E-03 0. -1.
        -11    1    4    4    0    0 -0.95302223533E+00 -0.24930947595E+02 -0.22682552461E+02  0.33718816494E+02  0.51100000000E-03 0.  1.
         12    1    4    4    0    0  0.47056801918E+01  0.12367447263E+02 -0.49347970242E+01  0.14122655541E+02  0.00000000000E+00 0. -1.
</event>
<event>
 8    1  0.2402194E-006  0.9118800E+02  0.7816164E-02  0.1184000E+00
        -11   -1    0    0    0    0  0.00000000000E+00  0.00000000000E+00  0.45593999997E+02  0.45594000000E+02  0.51100000000E-03 0. -1.
         11   -1    0    0    0    0 -0.00000000000E+00 -0.00000000000E+00 -0.45593999997E+02  0.45594000000E+02  0.51100000000E-03 0.  1.
         23    2    1    2    0    0  0.00000000000E+00  0.00000000000E+00 -0.26090241079E-14  0.91188000000E+02  0.91188000000E+02 0.  0.
    9900012    2    3    3    0    0  0.16299033699E+02  0.33013661270E+02  0.46808441801E+00  0.54367089732E+02  0.40000012661E+02 0.  0.
         12    1    3    3    0    0 -0.16299033699E+02 -0.33013661270E+02 -0.46808441801E+00  0.36820910268E+02  0.00000000000E+00 0. -1.
         11    1    4    4    0    0  0.15885911862E+02  0.30975520111E+01  0.58982248102E+01  0.17226319407E+02  0.51100000000E-03 0. -1.
        -11    1    4    4    0    0 -0.49698683731E+01  0.26222572944E+02 -0.10696528043E+02  0.28753063069E+02  0.51100000000E-03 0.  1.
        -12    1    4    4    0    0  0.53829902103E+01  0.36935363153E+01  0.52663876508E+01  0.83877072556E+01  0.00000000000E+00 0.  1.
</event>
<event>
 8    1  0.2402194E-006  0.9118800E+02  0.7816164E-02  0.1184000E+00
        -11   -1    0    0    0    0  0.00000000000E+00  0.00000000000E+00  0.45593999997E+02  0.45594000000E+02  0.51100000000E-03 0. -1.
         11   -1    0    0    0    0 -0.00000000000E+00 -0.00000000000E+00 -0.45593999997E+02  0.45594000000E+02  0.51100000000E-03 0.  1.
         23    2    1    2    0    0  0.22204460493E-15  0.00000000000E+00  0.00000000000E+00  0.91188000000E+02  0.91188000000E+02 0.  0.
    9900012    2    3    3    0    0 -0.15477336411E+01 -0.26100460828E+02 -0.25925849633E+02  0.54367092704E+02  0.40000019438E+02 0.  0.
         12    1    3    3    0    0  0.15477336411E+01  0.26100460828E+02  0.25925849633E+02  0.36820907296E+02  0.00000000000E+00 0. -1.
         11    1    4    4    0    0  0.92190915819E+01 -0.91180648551E+01  0.64309385171E+01  0.14473690848E+02  0.51100000000E-03 0. -1.
        -11    1    4    4    0    0 -0.47224409412E+01 -0.15872214913E+02 -0.19085364978E+02  0.25268158052E+02  0.51100000000E-03 0.  1.
         12    1    4    4    0    0 -0.60443842818E+01 -0.11101810596E+01 -0.13271423172E+02  0.14625243805E+02  0.00000000000E+00 0. -1.
</event>
<event>
 8    1  0.2402194E-006  0.9118800E+02  0.7816164E-02  0.1184000E+00
        -11   -1    0    0    0    0  0.00000000000E+00  0.00000000000E+00  0.45593999997E+02  0.45594000000E+02  0.51100000000E-03 0.  1.
         11   -1    0    0    0    0 -0.00000000000E+00 -0.00000000000E+00 -0.45593999997E+02  0.45594000000E+02  0.51100000000E-03 0. -1.
         23    2    1    2    0    0  0.17763568394E-14 -0.17763568394E-14  0.00000000000E+00  0.91188000000E+02  0.91188000000E+02 0.  0.
    9900012    2    3    3    0    0 -0.89551297677E+01  0.10933500569E+02 -0.34000654721E+02  0.54367077886E+02  0.39999985656E+02 0.  0.
        -12    1    3    3    0    0  0.89551297677E+01 -0.10933500569E+02  0.34000654721E+02  0.36820922114E+02  0.00000000000E+00 0.  1.
         11    1    4    4    0    0  0.28458258311E+01 -0.89666073260E+01 -0.44947847768E+01  0.10426018514E+02  0.51100000000E-03 0. -1.
        -11    1    4    4    0    0  0.87802781564E+00  0.91672036975E+01  0.94118810281E+00  0.92571265403E+01  0.51100000000E-03 0.  1.
         12    1    4    4    0    0 -0.12678983414E+02  0.10732904198E+02 -0.30447058047E+02  0.34683932832E+02  0.00000000000E+00 0. -1.
</event>
<event>
 8    1  0.2402194E-006  0.9118800E+02  0.7816164E-02  0.1184000E+00
        -11   -1    0    0    0    0  0.00000000000E+00  0.00000000000E+00  0.45593999997E+02  0.45594000000E+02  0.51100000000E-03 0.  1.
         11   -1    0    0    0    0 -0.00000000000E+00 -0.00000000000E+00 -0.45593999997E+02  0.45594000000E+02  0.51100000000E-03 0. -1.
         23    2    1    2    0    0  0.00000000000E+00 -0.17763568394E-14  0.00000000000E+00  0.91188000000E+02  0.91188000000E+02 0.  0.
    9900012    2    3    3    0    0  0.81815409636E+01 -0.13244490628E+02 -0.33368039349E+02  0.54367079390E+02  0.39999989086E+02 0.  0.
        -12    1    3    3    0    0 -0.81815409636E+01  0.13244490628E+02  0.33368039349E+02  0.36820920610E+02  0.00000000000E+00 0.  1.
         11    1    4    4    0    0 -0.40103682927E+01 -0.67898205184E+01 -0.15998805474E+02  0.17836661497E+02  0.51100000000E-03 0. -1.
        -11    1    4    4    0    0  0.12604792904E+01  0.45591896539E+01  0.65130133237E+01  0.80494944660E+01  0.51100000000E-03 0.  1.
         12    1    4    4    0    0  0.10931429966E+02 -0.11013859763E+02 -0.23882247199E+02  0.28480923427E+02  0.00000000000E+00 0. -1.
</event>
<event>
 8    1  0.2402194E-006  0.9118800E+02  0.7816164E-02  0.1184000E+00
        -11   -1    0    0    0    0  0.00000000000E+00  0.00000000000E+00  0.45593999997E+02  0.45594000000E+02  0.51100000000E-03 0.  1.
         11   -1    0    0    0    0 -0.00000000000E+00 -0.00000000000E+00 -0.45593999997E+02  0.45594000000E+02  0.51100000000E-03 0. -1.
         23    2    1    2    0    0  0.35527136788E-14  0.00000000000E+00 -0.35527136788E-14  0.91188000000E+02  0.91188000000E+02 0.  0.
    9900012    2    3    3    0    0 -0.24408332448E+02 -0.16901312653E+02  0.21779760812E+02  0.54367095023E+02  0.40000024724E+02 0.  0.
         12    1    3    3    0    0  0.24408332448E+02  0.16901312653E+02 -0.21779760812E+02  0.36820904977E+02  0.00000000000E+00 0. -1.
         11    1    4    4    0    0 -0.24922387461E+02 -0.11182874209E+02  0.10087599030E+02  0.29119438984E+02  0.51100000000E-03 0. -1.
        -11    1    4    4    0    0  0.13035414565E+01 -0.87948814492E+01  0.16929695060E+02  0.19122336027E+02  0.51100000000E-03 0.  1.
         12    1    4    4    0    0 -0.78948644397E+00  0.30764430051E+01 -0.52375332783E+01  0.61253200120E+01  0.00000000000E+00 0. -1.
</event>
<event>
 8    1  0.2402194E-006  0.9118800E+02  0.7816164E-02  0.1184000E+00
        -11   -1    0    0    0    0  0.00000000000E+00  0.00000000000E+00  0.45593999997E+02  0.45594000000E+02  0.51100000000E-03 0.  1.
         11   -1    0    0    0    0 -0.00000000000E+00 -0.00000000000E+00 -0.45593999997E+02  0.45594000000E+02  0.51100000000E-03 0. -1.
         23    2    1    2    0    0  0.17763568394E-14 -0.35527136788E-14  0.35527136788E-14  0.91188000000E+02  0.91188000000E+02 0.  0.
    9900012    2    3    3    0    0  0.14276055924E+02 -0.27615506022E+02  0.19732182618E+02  0.54367068773E+02  0.39999964881E+02 0.  0.
         12    1    3    3    0    0 -0.14276055924E+02  0.27615506022E+02 -0.19732182618E+02  0.36820931227E+02  0.00000000000E+00 0. -1.
         11    1    4    4    0    0  0.10789012233E+02 -0.13393734356E+02 -0.10157789619E+02  0.19974373461E+02  0.51100000000E-03 0. -1.
        -11    1    4    4    0    0 -0.56629064722E+00 -0.22346089959E+01  0.13453243431E+02  0.13649319453E+02  0.51100000000E-03 0.  1.
        -12    1    4    4    0    0  0.40533343382E+01 -0.11987162670E+02  0.16436728806E+02  0.20743375858E+02  0.00000000000E+00 0.  1.
</event>
<event>
 8    1  0.2402194E-006  0.9118800E+02  0.7816164E-02  0.1184000E+00
        -11   -1    0    0    0    0  0.00000000000E+00  0.00000000000E+00  0.45593999997E+02  0.45594000000E+02  0.51100000000E-03 0. -1.
         11   -1    0    0    0    0 -0.00000000000E+00 -0.00000000000E+00 -0.45593999997E+02  0.45594000000E+02  0.51100000000E-03 0.  1.
         23    2    1    2    0    0  0.00000000000E+00  0.00000000000E+00  0.00000000000E+00  0.91188000000E+02  0.91188000000E+02 0.  0.
    9900012    2    3    3    0    0 -0.30944007576E+02 -0.18068184178E+02 -0.84728410732E+01  0.54367083115E+02  0.39999997578E+02 0.  0.
         12    1    3    3    0    0  0.30944007576E+02  0.18068184178E+02  0.84728410732E+01  0.36820916885E+02  0.00000000000E+00 0. -1.
         11    1    4    4    0    0 -0.11694278526E+02 -0.16553515349E+02 -0.59581061592E+01  0.21125199405E+02  0.51100000000E-03 0.  1.
        -11    1    4    4    0    0 -0.24894755518E+01 -0.96965458839E+01  0.70860802846E+01  0.12265114132E+02  0.51100000000E-03 0. -1.
         12    1    4    4    0    0 -0.16760253498E+02  0.81818770542E+01 -0.96008151985E+01  0.20976769578E+02  0.00000000000E+00 0. -1.
</event>
<event>
 8    1  0.2402194E-006  0.9118800E+02  0.7816164E-02  0.1184000E+00
        -11   -1    0    0    0    0  0.00000000000E+00  0.00000000000E+00  0.45593999997E+02  0.45594000000E+02  0.51100000000E-03 0.  1.
         11   -1    0    0    0    0 -0.00000000000E+00 -0.00000000000E+00 -0.45593999997E+02  0.45594000000E+02  0.51100000000E-03 0. -1.
         23    2    1    2    0    0  0.35527136788E-14 -0.26645352591E-14  0.00000000000E+00  0.91188000000E+02  0.91188000000E+02 0.  0.
    9900012    2    3    3    0    0  0.15916682034E+02  0.24369272525E+01  0.33113470132E+02  0.54367064575E+02  0.39999955311E+02 0.  0.
         12    1    3    3    0    0 -0.15916682034E+02 -0.24369272525E+01 -0.33113470132E+02  0.36820935425E+02  0.00000000000E+00 0. -1.
         11    1    4    4    0    0  0.25779254039E+01  0.48810275467E+01 -0.29143086638E+01  0.62420609216E+01  0.51100000000E-03 0. -1.
        -11    1    4    4    0    0  0.11415830670E+02 -0.14191908986E+02  0.13589697722E+02  0.22724686026E+02  0.51100000000E-03 0.  1.
        -12    1    4    4    0    0  0.19229259604E+01  0.11747808692E+02  0.22438081073E+02  0.25400317627E+02  0.00000000000E+00 0.  1.
</event>
<event>
 8    1  0.2402194E-006  0.9118800E+02  0.7816164E-02  0.1184000E+00
        -11   -1    0    0    0    0  0.00000000000E+00  0.00000000000E+00  0.45593999997E+02  0.45594000000E+02  0.51100000000E-03 0. -1.
         11   -1    0    0    0    0 -0.00000000000E+00 -0.00000000000E+00 -0.45593999997E+02  0.45594000000E+02  0.51100000000E-03 0.  1.
         23    2    1    2    0    0  0.00000000000E+00  0.00000000000E+00  0.00000000000E+00  0.91188000000E+02  0.91188000000E+02 0.  0.
    9900012    2    3    3    0    0  0.24401531921E+02  0.17584735308E+02 -0.21239628904E+02  0.54367088659E+02  0.40000010217E+02 0.  0.
         12    1    3    3    0    0 -0.24401531921E+02 -0.17584735308E+02  0.21239628904E+02  0.36820911341E+02  0.00000000000E+00 0. -1.
         11    1    4    4    0    0 -0.23439929077E+01 -0.36375894207E+01  0.23406799183E+00  0.43337221451E+01  0.51100000000E-03 0. -1.
        -11    1    4    4    0    0  0.13196251524E+02  0.12476292397E+02 -0.27383202841E+02  0.32857856357E+02  0.51100000000E-03 0.  1.
        -12    1    4    4    0    0  0.13549273305E+02  0.87460323321E+01  0.59095059455E+01  0.17175510157E+02  0.00000000000E+00 0.  1.
</event>
<event>
 8    1  0.2402194E-006  0.9118800E+02  0.7816164E-02  0.1184000E+00
        -11   -1    0    0    0    0  0.00000000000E+00  0.00000000000E+00  0.45593999997E+02  0.45594000000E+02  0.51100000000E-03 0. -1.
         11   -1    0    0    0    0 -0.00000000000E+00 -0.00000000000E+00 -0.45593999997E+02  0.45594000000E+02  0.51100000000E-03 0.  1.
         23    2    1    2    0    0  0.00000000000E+00  0.00000000000E+00  0.17763568394E-14  0.91188000000E+02  0.91188000000E+02 0.  0.
    9900012    2    3    3    0    0  0.12390194324E+02 -0.32670753499E+02  0.11614027290E+02  0.54367072805E+02  0.39999974074E+02 0.  0.
        -12    1    3    3    0    0 -0.12390194324E+02  0.32670753499E+02 -0.11614027290E+02  0.36820927195E+02  0.00000000000E+00 0.  1.
         11    1    4    4    0    0  0.46055362341E+01 -0.14798630065E+02  0.19996505054E+02  0.25299617199E+02  0.51100000000E-03 0. -1.
        -11    1    4    4    0    0  0.10307461060E+02 -0.35999997098E+01 -0.95793684497E+01  0.14524739294E+02  0.51100000000E-03 0.  1.
        -12    1    4    4    0    0 -0.25228029694E+01 -0.14272123724E+02  0.11968906857E+01  0.14542716312E+02  0.00000000000E+00 0.  1.
</event>
<event>
 8    1  0.2402194E-006  0.9118800E+02  0.7816164E-02  0.1184000E+00
        -11   -1    0    0    0    0  0.00000000000E+00  0.00000000000E+00  0.45593999997E+02  0.45594000000E+02  0.51100000000E-03 0.  1.
         11   -1    0    0    0    0 -0.00000000000E+00 -0.00000000000E+00 -0.45593999997E+02  0.45594000000E+02  0.51100000000E-03 0. -1.
         23    2    1    2    0    0 -0.44408920985E-15  0.17763568394E-14  0.00000000000E+00  0.91188000000E+02  0.91188000000E+02 0.  0.
    9900012    2    3    3    0    0  0.38059825203E+01 -0.14608058429E+02  0.33584204595E+02  0.54367086482E+02  0.40000005253E+02 0.  0.
         12    1    3    3    0    0 -0.38059825203E+01  0.14608058429E+02 -0.33584204595E+02  0.36820913518E+02  0.00000000000E+00 0. -1.
         11    1    4    4    0    0  0.19072336132E+01 -0.31919994745E+01  0.83238366475E+01  0.91166143658E+01  0.51100000000E-03 0. -1.
        -11    1    4    4    0    0  0.85634873630E+01  0.87712635344E+01  0.19823038286E+02  0.23307106791E+02  0.51100000000E-03 0.  1.
         12    1    4    4    0    0 -0.66647384559E+01 -0.20187322489E+02  0.54373296615E+01  0.21943365326E+02  0.00000000000E+00 0. -1.
</event>
<event>
 8    1  0.2402194E-006  0.9118800E+02  0.7816164E-02  0.1184000E+00
        -11   -1    0    0    0    0  0.00000000000E+00  0.00000000000E+00  0.45593999997E+02  0.45594000000E+02  0.51100000000E-03 0. -1.
         11   -1    0    0    0    0 -0.00000000000E+00 -0.00000000000E+00 -0.45593999997E+02  0.45594000000E+02  0.51100000000E-03 0.  1.
         23    2    1    2    0    0  0.00000000000E+00 -0.35527136788E-14  0.00000000000E+00  0.91188000000E+02  0.91188000000E+02 0.  0.
    9900012    2    3    3    0    0 -0.17443877347E+02  0.28051490360E+02 -0.16266671758E+02  0.54367087757E+02  0.40000008160E+02 0.  0.
         12    1    3    3    0    0  0.17443877347E+02 -0.28051490360E+02  0.16266671758E+02  0.36820912243E+02  0.00000000000E+00 0. -1.
         11    1    4    4    0    0 -0.79907619159E+01  0.38160856137E+01  0.12376435429E+02  0.15218112222E+02  0.51100000000E-03 0. -1.
        -11    1    4    4    0    0 -0.87346721328E+01  0.14516370882E+02 -0.18246158192E+02  0.24898630682E+02  0.51100000000E-03 0.  1.
         12    1    4    4    0    0 -0.71844329850E+00  0.97190338640E+01 -0.10396948995E+02  0.14250344853E+02  0.00000000000E+00 0. -1.
</event>
<event>
 8    1  0.2402194E-006  0.9118800E+02  0.7816164E-02  0.1184000E+00
        -11   -1    0    0    0    0  0.00000000000E+00  0.00000000000E+00  0.45593999997E+02  0.45594000000E+02  0.51100000000E-03 0.  1.
         11   -1    0    0    0    0 -0.00000000000E+00 -0.00000000000E+00 -0.45593999997E+02  0.45594000000E+02  0.51100000000E-03 0. -1.
         23    2    1    2    0    0  0.71054273576E-14 -0.88817841970E-15  0.00000000000E+00  0.91188000000E+02  0.91188000000E+02 0.  0.
    9900012    2    3    3    0    0 -0.26559588240E+02  0.31778679032E+01  0.25303558952E+02  0.54367072968E+02  0.39999974444E+02 0.  0.
         12    1    3    3    0    0  0.26559588240E+02 -0.31778679032E+01 -0.25303558952E+02  0.36820927032E+02  0.00000000000E+00 0. -1.
         11    1    4    4    0    0 -0.59792939737E+01 -0.10954629058E+02  0.14937239202E+02  0.19464762250E+02  0.51100000000E-03 0. -1.
        -11    1    4    4    0    0 -0.20783725443E+02  0.39068509307E+01  0.12341745012E+02  0.24485616138E+02  0.51100000000E-03 0.  1.
         12    1    4    4    0    0  0.20343117700E+00  0.10225646031E+02 -0.19754252614E+01  0.10416694579E+02  0.00000000000E+00 0. -1.
</event>
<event>
 8    1  0.2402194E-006  0.9118800E+02  0.7816164E-02  0.1184000E+00
        -11   -1    0    0    0    0  0.00000000000E+00  0.00000000000E+00  0.45593999997E+02  0.45594000000E+02  0.51100000000E-03 0.  1.
         11   -1    0    0    0    0 -0.00000000000E+00 -0.00000000000E+00 -0.45593999997E+02  0.45594000000E+02  0.51100000000E-03 0. -1.
         23    2    1    2    0    0  0.00000000000E+00  0.88817841970E-15  0.00000000000E+00  0.91188000000E+02  0.91188000000E+02 0.  0.
    9900012    2    3    3    0    0 -0.32134668234E+02  0.76085277179E+01 -0.16286576369E+02  0.54367093352E+02  0.40000020914E+02 0.  0.
        -12    1    3    3    0    0  0.32134668234E+02 -0.76085277179E+01  0.16286576369E+02  0.36820906648E+02  0.00000000000E+00 0.  1.
         11    1    4    4    0    0 -0.19492932891E+02 -0.57956005082E+01 -0.28195500863E+01  0.20530788608E+02  0.51100000000E-03 0. -1.
        -11    1    4    4    0    0 -0.14464534321E+02 -0.74682827696E+00 -0.13153252831E+02  0.19564983156E+02  0.51100000000E-03 0.  1.
        -12    1    4    4    0    0  0.18227989774E+01  0.14150956503E+02 -0.31377345110E+00  0.14271321587E+02  0.00000000000E+00 0.  1.
</event>
<event>
 8    1  0.2402194E-006  0.9118800E+02  0.7816164E-02  0.1184000E+00
        -11   -1    0    0    0    0  0.00000000000E+00  0.00000000000E+00  0.45593999997E+02  0.45594000000E+02  0.51100000000E-03 0. -1.
         11   -1    0    0    0    0 -0.00000000000E+00 -0.00000000000E+00 -0.45593999997E+02  0.45594000000E+02  0.51100000000E-03 0.  1.
         23    2    1    2    0    0  0.00000000000E+00  0.17763568394E-14  0.35527136788E-14  0.91188000000E+02  0.91188000000E+02 0.  0.
    9900012    2    3    3    0    0  0.28229744917E+02  0.85190652297E+01  0.22051898599E+02  0.54367092864E+02  0.40000019802E+02 0.  0.
        -12    1    3    3    0    0 -0.28229744917E+02 -0.85190652297E+01 -0.22051898599E+02  0.36820907136E+02  0.00000000000E+00 0.  1.
         11    1    4    4    0    0  0.25924708819E+02  0.23350525692E+01  0.42870229921E+01  0.26380325325E+02  0.51100000000E-03 0. -1.
        -11    1    4    4    0    0  0.45410762750E+01  0.57202672881E+01 -0.24039507022E+01  0.76890708686E+01  0.51100000000E-03 0.  1.
        -12    1    4    4    0    0 -0.22360401763E+01  0.46374537236E+00  0.20168826309E+02  0.20297696671E+02  0.00000000000E+00 0.  1.
</event>
<event>
 8    1  0.2402194E-006  0.9118800E+02  0.7816164E-02  0.1184000E+00
        -11   -1    0    0    0    0  0.00000000000E+00  0.00000000000E+00  0.45593999997E+02  0.45594000000E+02  0.51100000000E-03 0.  1.
         11   -1    0    0    0    0 -0.00000000000E+00 -0.00000000000E+00 -0.45593999997E+02  0.45594000000E+02  0.51100000000E-03 0. -1.
         23    2    1    2    0    0 -0.44408920985E-15 -0.17763568394E-14  0.00000000000E+00  0.91188000000E+02  0.91188000000E+02 0.  0.
    9900012    2    3    3    0    0 -0.35240625110E+01  0.13165033744E+02  0.34205888790E+02  0.54367082603E+02  0.39999996410E+02 0.  0.
         12    1    3    3    0    0  0.35240625110E+01 -0.13165033744E+02 -0.34205888790E+02  0.36820917397E+02  0.00000000000E+00 0. -1.
         11    1    4    4    0    0  0.27234157923E+01  0.32308469797E+01 -0.17056355863E+01  0.45568145451E+01  0.51100000000E-03 0. -1.
        -11    1    4    4    0    0 -0.19568052768E+02  0.43015163973E+01  0.20032575826E+02  0.28332240062E+02  0.51100000000E-03 0.  1.
        -12    1    4    4    0    0  0.13320574465E+02  0.56326703665E+01  0.15878948550E+02  0.21478027996E+02  0.00000000000E+00 0.  1.
</event>
<event>
 8    1  0.2402194E-006  0.9118800E+02  0.7816164E-02  0.1184000E+00
        -11   -1    0    0    0    0  0.00000000000E+00  0.00000000000E+00  0.45593999997E+02  0.45594000000E+02  0.51100000000E-03 0. -1.
         11   -1    0    0    0    0 -0.00000000000E+00 -0.00000000000E+00 -0.45593999997E+02  0.45594000000E+02  0.51100000000E-03 0.  1.
         23    2    1    2    0    0 -0.17763568394E-14  0.00000000000E+00  0.00000000000E+00  0.91188000000E+02  0.91188000000E+02 0.  0.
    9900012    2    3    3    0    0 -0.78444601186E+01 -0.25014903998E+02 -0.25855359456E+02  0.54367074032E+02  0.39999976870E+02 0.  0.
         12    1    3    3    0    0  0.78444601186E+01  0.25014903998E+02  0.25855359456E+02  0.36820925968E+02  0.00000000000E+00 0. -1.
         11    1    4    4    0    0  0.57160363658E+01  0.87113222668E+00 -0.15581804595E+00  0.57841354252E+01  0.51100000000E-03 0. -1.
        -11    1    4    4    0    0 -0.28994388692E+01 -0.29636203099E+02 -0.20437702535E+02  0.36116630035E+02  0.51100000000E-03 0.  1.
        -12    1    4    4    0    0 -0.10661057615E+02  0.37501668746E+01 -0.52618388750E+01  0.12466308572E+02  0.00000000000E+00 0.  1.
</event>
<event>
 8    1  0.2402194E-006  0.9118800E+02  0.7816164E-02  0.1184000E+00
        -11   -1    0    0    0    0  0.00000000000E+00  0.00000000000E+00  0.45593999997E+02  0.45594000000E+02  0.51100000000E-03 0. -1.
         11   -1    0    0    0    0 -0.00000000000E+00 -0.00000000000E+00 -0.45593999997E+02  0.45594000000E+02  0.51100000000E-03 0.  1.
         23    2    1    2    0    0 -0.17763568394E-14  0.35527136788E-14 -0.35527136788E-14  0.91188000000E+02  0.91188000000E+02 0.  0.
    9900012    2    3    3    0    0 -0.15747420555E+02  0.18955386752E+02 -0.27358588879E+02  0.54367077598E+02  0.39999985000E+02 0.  0.
         12    1    3    3    0    0  0.15747420555E+02 -0.18955386752E+02  0.27358588879E+02  0.36820922402E+02  0.00000000000E+00 0. -1.
         11    1    4    4    0    0  0.31018708843E+01  0.24445595521E+01 -0.51124314680E+01  0.64602190492E+01  0.51100000000E-03 0. -1.
        -11    1    4    4    0    0 -0.77713838298E+01  0.18109075343E+02 -0.28830044995E+02  0.34921404770E+02  0.51100000000E-03 0.  1.
         12    1    4    4    0    0 -0.11077907610E+02 -0.15982481431E+01  0.65838875833E+01  0.12985453779E+02  0.00000000000E+00 0. -1.
</event>
<event>
 8    1  0.2402194E-006  0.9118800E+02  0.7816164E-02  0.1184000E+00
        -11   -1    0    0    0    0  0.00000000000E+00  0.00000000000E+00  0.45593999997E+02  0.45594000000E+02  0.51100000000E-03 0.  1.
         11   -1    0    0    0    0 -0.00000000000E+00 -0.00000000000E+00 -0.45593999997E+02  0.45594000000E+02  0.51100000000E-03 0. -1.
         23    2    1    2    0    0  0.71054273576E-14  0.00000000000E+00  0.17763568394E-14  0.91188000000E+02  0.91188000000E+02 0.  0.
    9900012    2    3    3    0    0 -0.33513244758E+02 -0.13524254852E+02 -0.70524335872E+01  0.54367083892E+02  0.39999999349E+02 0.  0.
        -12    1    3    3    0    0  0.33513244758E+02  0.13524254852E+02  0.70524335872E+01  0.36820916108E+02  0.00000000000E+00 0.  1.
         11    1    4    4    0    0 -0.24921100282E+02  0.87414577436E+01 -0.89481354977E+01  0.27884466140E+02  0.51100000000E-03 0. -1.
        -11    1    4    4    0    0 -0.56656072146E+01 -0.11064725276E+02  0.64950777118E+01  0.14025451340E+02  0.51100000000E-03 0.  1.
         12    1    4    4    0    0 -0.29265372616E+01 -0.11200987319E+02 -0.45993758012E+01  0.12457166413E+02  0.00000000000E+00 0. -1.
</event>
<event>
 8    1  0.2402194E-006  0.9118800E+02  0.7816164E-02  0.1184000E+00
        -11   -1    0    0    0    0  0.00000000000E+00  0.00000000000E+00  0.45593999997E+02  0.45594000000E+02  0.51100000000E-03 0. -1.
         11   -1    0    0    0    0 -0.00000000000E+00 -0.00000000000E+00 -0.45593999997E+02  0.45594000000E+02  0.51100000000E-03 0.  1.
         23    2    1    2    0    0  0.14432899320E-14  0.88817841970E-15  0.00000000000E+00  0.91188000000E+02  0.91188000000E+02 0.  0.
    9900012    2    3    3    0    0  0.65864101900E+00 -0.62219151720E+01 -0.36285439580E+02  0.54367093413E+02  0.40000021054E+02 0.  0.
         12    1    3    3    0    0 -0.65864101900E+00  0.62219151720E+01  0.36285439580E+02  0.36820906587E+02  0.00000000000E+00 0. -1.
         11    1    4    4    0    0  0.82100636260E+01  0.80342220950E+01 -0.30191608867E+02  0.32303051182E+02  0.51100000000E-03 0.  1.
        -11    1    4    4    0    0 -0.87320476473E+01 -0.51035060036E+01 -0.76810021121E+01  0.12700087533E+02  0.51100000000E-03 0. -1.
        -12    1    4    4    0    0  0.11806250403E+01 -0.91526312633E+01  0.15871714000E+01  0.93639546977E+01  0.00000000000E+00 0.  1.
</event>
<event>
 8    1  0.2402194E-006  0.9118800E+02  0.7816164E-02  0.1184000E+00
        -11   -1    0    0    0    0  0.00000000000E+00  0.00000000000E+00  0.45593999997E+02  0.45594000000E+02  0.51100000000E-03 0.  1.
         11   -1    0    0    0    0 -0.00000000000E+00 -0.00000000000E+00 -0.45593999997E+02  0.45594000000E+02  0.51100000000E-03 0. -1.
         23    2    1    2    0    0  0.22204460493E-15  0.00000000000E+00 -0.17763568394E-14  0.91188000000E+02  0.91188000000E+02 0.  0.
    9900012    2    3    3    0    0 -0.11761852277E+01 -0.35213222819E+02 -0.10696997207E+02  0.54367079015E+02  0.39999988230E+02 0.  0.
         12    1    3    3    0    0  0.11761852277E+01  0.35213222819E+02  0.10696997207E+02  0.36820920985E+02  0.00000000000E+00 0. -1.
         11    1    4    4    0    0  0.76185289265E+01 -0.49544686733E+01 -0.10615670550E+02  0.13974305147E+02  0.51100000000E-03 0. -1.
        -11    1    4    4    0    0 -0.15277650789E+02 -0.23533778102E+02  0.67037171690E+01  0.28847619477E+02  0.51100000000E-03 0.  1.
        -12    1    4    4    0    0  0.64829366347E+01 -0.67249760436E+01 -0.67850438256E+01  0.11545154391E+02  0.00000000000E+00 0.  1.
</event>
<event>
 8    1  0.2402194E-006  0.9118800E+02  0.7816164E-02  0.1184000E+00
        -11   -1    0    0    0    0  0.00000000000E+00  0.00000000000E+00  0.45593999997E+02  0.45594000000E+02  0.51100000000E-03 0.  1.
         11   -1    0    0    0    0 -0.00000000000E+00 -0.00000000000E+00 -0.45593999997E+02  0.45594000000E+02  0.51100000000E-03 0. -1.
         23    2    1    2    0    0 -0.35527136788E-14  0.00000000000E+00  0.00000000000E+00  0.91188000000E+02  0.91188000000E+02 0.  0.
    9900012    2    3    3    0    0  0.22955336559E+02 -0.11020113538E+02 -0.26596794967E+02  0.54367083642E+02  0.39999998779E+02 0.  0.
        -12    1    3    3    0    0 -0.22955336559E+02  0.11020113538E+02  0.26596794967E+02  0.36820916358E+02  0.00000000000E+00 0.  1.
         11    1    4    4    0    0  0.14692176696E+02 -0.18169698666E+02 -0.14784648457E+02  0.27651109126E+02  0.51100000000E-03 0. -1.
        -11    1    4    4    0    0 -0.61279245297E+01  0.44283521070E+01  0.50739145863E+00  0.75775462901E+01  0.51100000000E-03 0.  1.
         12    1    4    4    0    0  0.14391084394E+02  0.27212330210E+01 -0.12319537969E+02  0.19138428225E+02  0.00000000000E+00 0. -1.
</event>
<event>
 8    1  0.2402194E-006  0.9118800E+02  0.7816164E-02  0.1184000E+00
        -11   -1    0    0    0    0  0.00000000000E+00  0.00000000000E+00  0.45593999997E+02  0.45594000000E+02  0.51100000000E-03 0.  1.
         11   -1    0    0    0    0 -0.00000000000E+00 -0.00000000000E+00 -0.45593999997E+02  0.45594000000E+02  0.51100000000E-03 0. -1.
         23    2    1    2    0    0  0.35527136788E-14  0.00000000000E+00 -0.71054273576E-14  0.91188000000E+02  0.91188000000E+02 0.  0.
    9900012    2    3    3    0    0  0.17584963185E+02 -0.27003149475E+02 -0.17815117039E+02  0.54367090086E+02  0.40000013469E+02 0.  0.
         12    1    3    3    0    0 -0.17584963185E+02  0.27003149475E+02  0.17815117039E+02  0.36820909914E+02  0.00000000000E+00 0. -1.
         11    1    4    4    0    0  0.72308426322E+01 -0.89595015801E+01 -0.24703176763E+02  0.27254443604E+02  0.51100000000E-03 0. -1.
        -11    1    4    4    0    0  0.11935938305E+02 -0.87169952396E+01  0.91538890640E+01  0.17385232656E+02  0.51100000000E-03 0.  1.
        -12    1    4    4    0    0 -0.15818177525E+01 -0.93266526551E+01 -0.22658293405E+01  0.97274138265E+01  0.00000000000E+00 0.  1.
</event>
<event>
 8    1  0.2402194E-006  0.9118800E+02  0.7816164E-02  0.1184000E+00
        -11   -1    0    0    0    0  0.00000000000E+00  0.00000000000E+00  0.45593999997E+02  0.45594000000E+02  0.51100000000E-03 0.  1.
         11   -1    0    0    0    0 -0.00000000000E+00 -0.00000000000E+00 -0.45593999997E+02  0.45594000000E+02  0.51100000000E-03 0. -1.
         23    2    1    2    0    0  0.35527136788E-14 -0.17763568394E-14  0.35527136788E-14  0.91188000000E+02  0.91188000000E+02 0.  0.
    9900012    2    3    3    0    0  0.26017227329E+02  0.12607958894E+02  0.22801791926E+02  0.54367102939E+02  0.40000042769E+02 0.  0.
         12    1    3    3    0    0 -0.26017227329E+02 -0.12607958894E+02 -0.22801791926E+02  0.36820897061E+02  0.00000000000E+00 0. -1.
         11    1    4    4    0    0  0.96578388105E+01  0.16538990915E+02  0.89376805298E+01  0.21135141459E+02  0.51100000000E-03 0. -1.
        -11    1    4    4    0    0  0.23012141885E+02 -0.38513244619E+01  0.12388098484E+02  0.26416971033E+02  0.51100000000E-03 0.  1.
        -12    1    4    4    0    0 -0.66527533672E+01 -0.79707559358E-01  0.14760129124E+01  0.68149904459E+01  0.00000000000E+00 0.  1.
</event>
<event>
 8    1  0.2402194E-006  0.9118800E+02  0.7816164E-02  0.1184000E+00
        -11   -1    0    0    0    0  0.00000000000E+00  0.00000000000E+00  0.45593999997E+02  0.45594000000E+02  0.51100000000E-03 0.  1.
         11   -1    0    0    0    0 -0.00000000000E+00 -0.00000000000E+00 -0.45593999997E+02  0.45594000000E+02  0.51100000000E-03 0. -1.
         23    2    1    2    0    0  0.00000000000E+00 -0.44408920985E-15 -0.35527136788E-14  0.91188000000E+02  0.91188000000E+02 0.  0.
    9900012    2    3    3    0    0  0.32396516419E+02 -0.29849802203E+01 -0.17243400466E+02  0.54367092317E+02  0.40000018554E+02 0.  0.
        -12    1    3    3    0    0 -0.32396516419E+02  0.29849802203E+01  0.17243400466E+02  0.36820907683E+02  0.00000000000E+00 0.  1.
         11    1    4    4    0    0  0.19151921793E+02 -0.39348445159E+01 -0.12050544251E+02  0.22967253357E+02  0.51100000000E-03 0. -1.
        -11    1    4    4    0    0  0.16971392194E+02 -0.46836386105E+01  0.57664919658E+01  0.18526118144E+02  0.51100000000E-03 0.  1.
        -12    1    4    4    0    0 -0.37267975681E+01  0.56335029061E+01 -0.10959348181E+02  0.12873720816E+02  0.00000000000E+00 0.  1.
</event>
<event>
 8    1  0.2402194E-006  0.9118800E+02  0.7816164E-02  0.1184000E+00
        -11   -1    0    0    0    0  0.00000000000E+00  0.00000000000E+00  0.45593999997E+02  0.45594000000E+02  0.51100000000E-03 0.  1.
         11   -1    0    0    0    0 -0.00000000000E+00 -0.00000000000E+00 -0.45593999997E+02  0.45594000000E+02  0.51100000000E-03 0. -1.
         23    2    1    2    0    0  0.00000000000E+00  0.00000000000E+00  0.00000000000E+00  0.91188000000E+02  0.91188000000E+02 0.  0.
    9900012    2    3    3    0    0 -0.16070440338E+02  0.29605591758E+02  0.14867059714E+02  0.54367087727E+02  0.40000008092E+02 0.  0.
         12    1    3    3    0    0  0.16070440338E+02 -0.29605591758E+02 -0.14867059714E+02  0.36820912273E+02  0.00000000000E+00 0. -1.
         11    1    4    4    0    0 -0.19914424453E+02  0.80796203392E+01  0.15474769652E+02  0.26482693635E+02  0.51100000000E-03 0. -1.
        -11    1    4    4    0    0 -0.57391603329E+01  0.10159733250E+02  0.39749171867E+01  0.12327128942E+02  0.51100000000E-03 0.  1.
         12    1    4    4    0    0  0.95831444476E+01  0.11366238169E+02 -0.45826271238E+01  0.15557265151E+02  0.00000000000E+00 0. -1.
</event>
<event>
 8    1  0.2402194E-006  0.9118800E+02  0.7816164E-02  0.1184000E+00
        -11   -1    0    0    0    0  0.00000000000E+00  0.00000000000E+00  0.45593999997E+02  0.45594000000E+02  0.51100000000E-03 0.  1.
         11   -1    0    0    0    0 -0.00000000000E+00 -0.00000000000E+00 -0.45593999997E+02  0.45594000000E+02  0.51100000000E-03 0. -1.
         23    2    1    2    0    0  0.00000000000E+00 -0.30531133177E-15  0.00000000000E+00  0.91188000000E+02  0.91188000000E+02 0.  0.
    9900012    2    3    3    0    0  0.55625961662E+01 -0.94388802175E-01  0.36398188111E+02  0.54367089051E+02  0.40000011109E+02 0.  0.
         12    1    3    3    0    0 -0.55625961662E+01  0.94388802175E-01 -0.36398188111E+02  0.36820910949E+02  0.00000000000E+00 0. -1.
         11    1    4    4    0    0  0.73217998701E+01 -0.37604581377E+01  0.15793359522E+02  0.17809548113E+02  0.51100000000E-03 0.  1.
        -11    1    4    4    0    0  0.66618810183E+01 -0.88117355613E+01  0.87679459968E-02  0.11046602167E+02  0.51100000000E-03 0. -1.
         12    1    4    4    0    0 -0.84210847222E+01  0.12477804897E+02  0.20596060643E+02  0.25510938771E+02  0.00000000000E+00 0. -1.
</event>
<event>
 8    1  0.2402194E-006  0.9118800E+02  0.7816164E-02  0.1184000E+00
        -11   -1    0    0    0    0  0.00000000000E+00  0.00000000000E+00  0.45593999997E+02  0.45594000000E+02  0.51100000000E-03 0.  1.
         11   -1    0    0    0    0 -0.00000000000E+00 -0.00000000000E+00 -0.45593999997E+02  0.45594000000E+02  0.51100000000E-03 0. -1.
         23    2    1    2    0    0  0.00000000000E+00  0.17763568394E-14  0.17763568394E-14  0.91188000000E+02  0.91188000000E+02 0.  0.
    9900012    2    3    3    0    0  0.29698573422E+02 -0.15479965561E+02  0.15301694190E+02  0.54367130345E+02  0.40000105247E+02 0.  0.
         12    1    3    3    0    0 -0.29698573422E+02  0.15479965561E+02 -0.15301694190E+02  0.36820869655E+02  0.00000000000E+00 0. -1.
         11    1    4    4    0    0  0.72707290976E+01 -0.16469423295E+02  0.20570310995E+02  0.27335747657E+02  0.51100000000E-03 0. -1.
        -11    1    4    4    0    0  0.45618019956E+01  0.62943795782E+01 -0.47685597687E+00  0.77882375160E+01  0.51100000000E-03 0.  1.
        -12    1    4    4    0    0  0.17866042329E+02 -0.53049218444E+01 -0.47917608286E+01  0.19243145172E+02  0.00000000000E+00 0.  1.
</event>
<event>
 8    1  0.2402194E-006  0.9118800E+02  0.7816164E-02  0.1184000E+00
        -11   -1    0    0    0    0  0.00000000000E+00  0.00000000000E+00  0.45593999997E+02  0.45594000000E+02  0.51100000000E-03 0. -1.
         11   -1    0    0    0    0 -0.00000000000E+00 -0.00000000000E+00 -0.45593999997E+02  0.45594000000E+02  0.51100000000E-03 0.  1.
         23    2    1    2    0    0  0.00000000000E+00  0.00000000000E+00  0.00000000000E+00  0.91188000000E+02  0.91188000000E+02 0.  0.
    9900012    2    3    3    0    0 -0.31272085887E+02 -0.17153665707E+02 -0.91426670926E+01  0.54367082514E+02  0.39999996208E+02 0.  0.
         12    1    3    3    0    0  0.31272085887E+02  0.17153665707E+02  0.91426670926E+01  0.36820917486E+02  0.00000000000E+00 0. -1.
         11    1    4    4    0    0 -0.21582082235E+02  0.78760820432E+01  0.40872846878E+01  0.23335055996E+02  0.51100000000E-03 0. -1.
        -11    1    4    4    0    0 -0.91494895764E+01 -0.12341472734E+02 -0.68819500476E+01  0.16834082852E+02  0.51100000000E-03 0.  1.
        -12    1    4    4    0    0 -0.54051407578E+00 -0.12688275016E+02 -0.63480017328E+01  0.14197943667E+02  0.00000000000E+00 0.  1.
</event>
<event>
 8    1  0.2402194E-006  0.9118800E+02  0.7816164E-02  0.1184000E+00
        -11   -1    0    0    0    0  0.00000000000E+00  0.00000000000E+00  0.45593999997E+02  0.45594000000E+02  0.51100000000E-03 0. -1.
         11   -1    0    0    0    0 -0.00000000000E+00 -0.00000000000E+00 -0.45593999997E+02  0.45594000000E+02  0.51100000000E-03 0.  1.
         23    2    1    2    0    0 -0.35527136788E-14 -0.17763568394E-14  0.00000000000E+00  0.91188000000E+02  0.91188000000E+02 0.  0.
    9900012    2    3    3    0    0 -0.28739223432E+02 -0.12613590642E+02 -0.19254463799E+02  0.54367081916E+02  0.39999994844E+02 0.  0.
         12    1    3    3    0    0  0.28739223432E+02  0.12613590642E+02  0.19254463799E+02  0.36820918084E+02  0.00000000000E+00 0. -1.
         11    1    4    4    0    0 -0.12659387196E+02  0.74012643223E+01 -0.10098500015E+01  0.14698931765E+02  0.51100000000E-03 0. -1.
        -11    1    4    4    0    0  0.58128951581E+01 -0.60992881073E+01 -0.84690745847E+01  0.11946392347E+02  0.51100000000E-03 0.  1.
        -12    1    4    4    0    0 -0.21892731394E+02 -0.13915566857E+02 -0.97755392133E+01  0.27721757804E+02  0.00000000000E+00 0.  1.
</event>
<event>
 8    1  0.2402194E-006  0.9118800E+02  0.7816164E-02  0.1184000E+00
        -11   -1    0    0    0    0  0.00000000000E+00  0.00000000000E+00  0.45593999997E+02  0.45594000000E+02  0.51100000000E-03 0.  1.
         11   -1    0    0    0    0 -0.00000000000E+00 -0.00000000000E+00 -0.45593999997E+02  0.45594000000E+02  0.51100000000E-03 0. -1.
         23    2    1    2    0    0  0.00000000000E+00  0.35527136788E-14 -0.35527136788E-14  0.91188000000E+02  0.91188000000E+02 0.  0.
    9900012    2    3    3    0    0  0.96635397345E+01 -0.23852812059E+02  0.26333227503E+02  0.54367088631E+02  0.40000010152E+02 0.  0.
         12    1    3    3    0    0 -0.96635397345E+01  0.23852812059E+02 -0.26333227503E+02  0.36820911369E+02  0.00000000000E+00 0. -1.
         11    1    4    4    0    0 -0.70436821841E+01 -0.11877603558E+02  0.50740200878E+01  0.14711784565E+02  0.51100000000E-03 0. -1.
        -11    1    4    4    0    0  0.29144141057E+01 -0.17019226014E+02  0.17305076484E+02  0.24446135401E+02  0.51100000000E-03 0.  1.
        -12    1    4    4    0    0  0.13792807813E+02  0.50440175128E+01  0.39541309313E+01  0.15209168664E+02  0.00000000000E+00 0.  1.
</event>
<event>
 8    1  0.2402194E-006  0.9118800E+02  0.7816164E-02  0.1184000E+00
        -11   -1    0    0    0    0  0.00000000000E+00  0.00000000000E+00  0.45593999997E+02  0.45594000000E+02  0.51100000000E-03 0. -1.
         11   -1    0    0    0    0 -0.00000000000E+00 -0.00000000000E+00 -0.45593999997E+02  0.45594000000E+02  0.51100000000E-03 0.  1.
         23    2    1    2    0    0  0.35527136788E-14  0.00000000000E+00 -0.35527136788E-14  0.91188000000E+02  0.91188000000E+02 0.  0.
    9900012    2    3    3    0    0 -0.23298322538E+02 -0.12245428468E+02  0.25749129350E+02  0.54367081846E+02  0.39999994684E+02 0.  0.
        -12    1    3    3    0    0  0.23298322538E+02  0.12245428468E+02 -0.25749129350E+02  0.36820918154E+02  0.00000000000E+00 0.  1.
         11    1    4    4    0    0 -0.23849071224E+02  0.33514421003E+01  0.11728235485E+02  0.26787345338E+02  0.51100000000E-03 0. -1.
        -11    1    4    4    0    0 -0.19698442056E+01 -0.18169517492E+02  0.67809466988E+01  0.19493406333E+02  0.51100000000E-03 0.  1.
         12    1    4    4    0    0  0.25205928921E+01  0.25726469242E+01  0.72399471659E+01  0.80863301744E+01  0.00000000000E+00 0. -1.
</event>
<event>
 8    1  0.2402194E-006  0.9118800E+02  0.7816164E-02  0.1184000E+00
        -11   -1    0    0    0    0  0.00000000000E+00  0.00000000000E+00  0.45593999997E+02  0.45594000000E+02  0.51100000000E-03 0. -1.
         11   -1    0    0    0    0 -0.00000000000E+00 -0.00000000000E+00 -0.45593999997E+02  0.45594000000E+02  0.51100000000E-03 0.  1.
         23    2    1    2    0    0  0.00000000000E+00  0.88817841970E-15  0.35527136788E-14  0.91188000000E+02  0.91188000000E+02 0.  0.
    9900012    2    3    3    0    0 -0.22441584917E+02  0.50239057816E+01 -0.28756128983E+02  0.54367091307E+02  0.40000016253E+02 0.  0.
         12    1    3    3    0    0  0.22441584917E+02 -0.50239057816E+01  0.28756128983E+02  0.36820908693E+02  0.00000000000E+00 0. -1.
         11    1    4    4    0    0 -0.25465856557E+01  0.18861150523E+02 -0.12522363051E+02  0.22782398342E+02  0.51100000000E-03 0. -1.
        -11    1    4    4    0    0 -0.18887587288E+02 -0.92117638727E+01 -0.16680464238E+02  0.26829749061E+02  0.51100000000E-03 0.  1.
        -12    1    4    4    0    0 -0.10074119730E+01 -0.46254808690E+01  0.44669830706E+00  0.47549439040E+01  0.00000000000E+00 0.  1.
</event>
<event>
 8    1  0.2402194E-006  0.9118800E+02  0.7816164E-02  0.1184000E+00
        -11   -1    0    0    0    0  0.00000000000E+00  0.00000000000E+00  0.45593999997E+02  0.45594000000E+02  0.51100000000E-03 0.  1.
         11   -1    0    0    0    0 -0.00000000000E+00 -0.00000000000E+00 -0.45593999997E+02  0.45594000000E+02  0.51100000000E-03 0. -1.
         23    2    1    2    0    0 -0.71054273576E-14  0.00000000000E+00 -0.17763568394E-14  0.91188000000E+02  0.91188000000E+02 0.  0.
    9900012    2    3    3    0    0  0.34250613746E+02 -0.66002439701E+01  0.11794535321E+02  0.54367097976E+02  0.40000031456E+02 0.  0.
         12    1    3    3    0    0 -0.34250613746E+02  0.66002439701E+01 -0.11794535321E+02  0.36820902024E+02  0.00000000000E+00 0. -1.
         11    1    4    4    0    0 -0.48607223973E+01  0.71220680125E+00 -0.74576847384E+00  0.49689064822E+01  0.51100000000E-03 0. -1.
        -11    1    4    4    0    0  0.14265822559E+02 -0.15957424315E+02  0.43091874991E+01  0.21833968517E+02  0.51100000000E-03 0.  1.
         12    1    4    4    0    0  0.24845513584E+02  0.86449735434E+01  0.82311162962E+01  0.27564222977E+02  0.00000000000E+00 0. -1.
</event>
<event>
 8    1  0.2402194E-006  0.9118800E+02  0.7816164E-02  0.1184000E+00
        -11   -1    0    0    0    0  0.00000000000E+00  0.00000000000E+00  0.45593999997E+02  0.45594000000E+02  0.51100000000E-03 0. -1.
         11   -1    0    0    0    0 -0.00000000000E+00 -0.00000000000E+00 -0.45593999997E+02  0.45594000000E+02  0.51100000000E-03 0.  1.
         23    2    1    2    0    0 -0.88817841970E-15  0.71054273576E-14  0.17763568394E-14  0.91188000000E+02  0.91188000000E+02 0.  0.
    9900012    2    3    3    0    0 -0.52789454982E+01 -0.34527074257E+02 -0.11653078790E+02  0.54367077040E+02  0.39999983729E+02 0.  0.
         12    1    3    3    0    0  0.52789454982E+01  0.34527074257E+02  0.11653078790E+02  0.36820922960E+02  0.00000000000E+00 0. -1.
         11    1    4    4    0    0 -0.12586193119E+02 -0.35404118075E+01 -0.15323920365E+02  0.20143716355E+02  0.51100000000E-03 0. -1.
        -11    1    4    4    0    0  0.70649275117E+01 -0.67034276166E+01  0.86617668967E+00  0.97774948159E+01  0.51100000000E-03 0.  1.
        -12    1    4    4    0    0  0.24232010914E+00 -0.24283234833E+02  0.28046648847E+01  0.24445865869E+02  0.00000000000E+00 0.  1.
</event>
<event>
 8    1  0.2402194E-006  0.9118800E+02  0.7816164E-02  0.1184000E+00
        -11   -1    0    0    0    0  0.00000000000E+00  0.00000000000E+00  0.45593999997E+02  0.45594000000E+02  0.51100000000E-03 0. -1.
         11   -1    0    0    0    0 -0.00000000000E+00 -0.00000000000E+00 -0.45593999997E+02  0.45594000000E+02  0.51100000000E-03 0.  1.
         23    2    1    2    0    0 -0.35527136788E-14 -0.17763568394E-14  0.35527136788E-14  0.91188000000E+02  0.91188000000E+02 0.  0.
    9900012    2    3    3    0    0 -0.23913629311E+02  0.13089148276E+02  0.24750478072E+02  0.54367168475E+02  0.40000192172E+02 0.  0.
        -12    1    3    3    0    0  0.23913629311E+02 -0.13089148276E+02 -0.24750478072E+02  0.36820831525E+02  0.00000000000E+00 0.  1.
         11    1    4    4    0    0 -0.18161903413E+02 -0.61857971718E+01  0.26294463197E+02  0.32550232217E+02  0.51100000000E-03 0. -1.
        -11    1    4    4    0    0 -0.32133380549E+01  0.15827506456E+02 -0.43154407768E+01  0.16717013233E+02  0.51100000000E-03 0.  1.
        -12    1    4    4    0    0 -0.25383878423E+01  0.34474389916E+01  0.27714556512E+01  0.50999230254E+01  0.00000000000E+00 0.  1.
</event>
<event>
 8    1  0.2402194E-006  0.9118800E+02  0.7816164E-02  0.1184000E+00
        -11   -1    0    0    0    0  0.00000000000E+00  0.00000000000E+00  0.45593999997E+02  0.45594000000E+02  0.51100000000E-03 0. -1.
         11   -1    0    0    0    0 -0.00000000000E+00 -0.00000000000E+00 -0.45593999997E+02  0.45594000000E+02  0.51100000000E-03 0.  1.
         23    2    1    2    0    0  0.00000000000E+00  0.00000000000E+00  0.00000000000E+00  0.91188000000E+02  0.91188000000E+02 0.  0.
    9900012    2    3    3    0    0  0.18517276237E+02 -0.31532577584E+02 -0.43112577075E+01  0.54367083236E+02  0.39999997854E+02 0.  0.
         12    1    3    3    0    0 -0.18517276237E+02  0.31532577584E+02  0.43112577075E+01  0.36820916764E+02  0.00000000000E+00 0. -1.
         11    1    4    4    0    0 -0.69465578034E+01 -0.64538064284E+01  0.12084648967E+01  0.95585914443E+01  0.51100000000E-03 0. -1.
        -11    1    4    4    0    0  0.32356539813E+00 -0.11534852927E+02 -0.10757140305E+02  0.15775728015E+02  0.51100000000E-03 0.  1.
         12    1    4    4    0    0  0.25140268642E+02 -0.13543918228E+02  0.52374177004E+01  0.29032763777E+02  0.00000000000E+00 0. -1.
</event>
<event>
 8    1  0.2402194E-006  0.9118800E+02  0.7816164E-02  0.1184000E+00
        -11   -1    0    0    0    0  0.00000000000E+00  0.00000000000E+00  0.45593999997E+02  0.45594000000E+02  0.51100000000E-03 0.  1.
         11   -1    0    0    0    0 -0.00000000000E+00 -0.00000000000E+00 -0.45593999997E+02  0.45594000000E+02  0.51100000000E-03 0. -1.
         23    2    1    2    0    0  0.00000000000E+00 -0.71054273576E-14 -0.17763568394E-14  0.91188000000E+02  0.91188000000E+02 0.  0.
    9900012    2    3    3    0    0 -0.93134995710E+01 -0.34497563629E+02 -0.88858865195E+01  0.54367052839E+02  0.39999928557E+02 0.  0.
        -12    1    3    3    0    0  0.93134995710E+01  0.34497563629E+02  0.88858865195E+01  0.36820947161E+02  0.00000000000E+00 0.  1.
         11    1    4    4    0    0  0.87343581195E+01 -0.20061242677E+02 -0.23669956359E+01  0.22007842650E+02  0.51100000000E-03 0. -1.
        -11    1    4    4    0    0 -0.30904273369E+01  0.16538453090E+00 -0.10616493378E+02  0.11058391613E+02  0.51100000000E-03 0.  1.
         12    1    4    4    0    0 -0.14957430354E+02 -0.14601705483E+02  0.40976024941E+01  0.21300818576E+02  0.00000000000E+00 0. -1.
</event>
<event>
 8    1  0.2402194E-006  0.9118800E+02  0.7816164E-02  0.1184000E+00
        -11   -1    0    0    0    0  0.00000000000E+00  0.00000000000E+00  0.45593999997E+02  0.45594000000E+02  0.51100000000E-03 0.  1.
         11   -1    0    0    0    0 -0.00000000000E+00 -0.00000000000E+00 -0.45593999997E+02  0.45594000000E+02  0.51100000000E-03 0. -1.
         23    2    1    2    0    0 -0.17763568394E-14  0.00000000000E+00  0.00000000000E+00  0.91188000000E+02  0.91188000000E+02 0.  0.
    9900012    2    3    3    0    0 -0.15415034074E+02  0.99647297069E+01 -0.31919600052E+02  0.54367082288E+02  0.39999995693E+02 0.  0.
        -12    1    3    3    0    0  0.15415034074E+02 -0.99647297069E+01  0.31919600052E+02  0.36820917712E+02  0.00000000000E+00 0.  1.
         11    1    4    4    0    0 -0.84015696003E+01  0.11794699847E+02 -0.99007640738E+01  0.17542133443E+02  0.51100000000E-03 0. -1.
        -11    1    4    4    0    0 -0.18158486900E+02 -0.18314308775E+01 -0.12030504038E+02  0.21859044197E+02  0.51100000000E-03 0.  1.
         12    1    4    4    0    0  0.11145022425E+02  0.14607378315E-02 -0.99883319402E+01  0.14965904648E+02  0.00000000000E+00 0. -1.
</event>
<event>
 8    1  0.2402194E-006  0.9118800E+02  0.7816164E-02  0.1184000E+00
        -11   -1    0    0    0    0  0.00000000000E+00  0.00000000000E+00  0.45593999997E+02  0.45594000000E+02  0.51100000000E-03 0. -1.
         11   -1    0    0    0    0 -0.00000000000E+00 -0.00000000000E+00 -0.45593999997E+02  0.45594000000E+02  0.51100000000E-03 0.  1.
         23    2    1    2    0    0  0.55511151231E-15  0.71054273576E-14  0.00000000000E+00  0.91188000000E+02  0.91188000000E+02 0.  0.
    9900012    2    3    3    0    0  0.50400295303E+00  0.30549672302E+02 -0.20548575112E+02  0.54367076114E+02  0.39999981617E+02 0.  0.
         12    1    3    3    0    0 -0.50400295303E+00 -0.30549672302E+02  0.20548575112E+02  0.36820923886E+02  0.00000000000E+00 0. -1.
         11    1    4    4    0    0  0.26272556235E+01  0.16903009649E+02  0.90609033552E+00  0.17129950591E+02  0.51100000000E-03 0. -1.
        -11    1    4    4    0    0  0.10471950951E+02  0.60607586966E+00 -0.14326796317E+02  0.17756299661E+02  0.51100000000E-03 0.  1.
        -12    1    4    4    0    0 -0.12595203622E+02  0.13040586783E+02 -0.71278691300E+01  0.19480825862E+02  0.00000000000E+00 0.  1.
</event>
<event>
 8    1  0.2402194E-006  0.9118800E+02  0.7816164E-02  0.1184000E+00
        -11   -1    0    0    0    0  0.00000000000E+00  0.00000000000E+00  0.45593999997E+02  0.45594000000E+02  0.51100000000E-03 0.  1.
         11   -1    0    0    0    0 -0.00000000000E+00 -0.00000000000E+00 -0.45593999997E+02  0.45594000000E+02  0.51100000000E-03 0. -1.
         23    2    1    2    0    0  0.00000000000E+00  0.35527136788E-14  0.00000000000E+00  0.91188000000E+02  0.91188000000E+02 0.  0.
    9900012    2    3    3    0    0 -0.30485266339E+02 -0.20538521373E+02 -0.21463847863E+01  0.54366955860E+02  0.39999707473E+02 0.  0.
         12    1    3    3    0    0  0.30485266339E+02  0.20538521373E+02  0.21463847863E+01  0.36821044140E+02  0.00000000000E+00 0. -1.
         11    1    4    4    0    0 -0.31879295069E+01 -0.10670517229E+02 -0.25363731050E+01  0.11421734600E+02  0.51100000000E-03 0. -1.
        -11    1    4    4    0    0 -0.34526178302E+02 -0.75726941155E+01 -0.67240037992E-01  0.35346954689E+02  0.51100000000E-03 0.  1.
         12    1    4    4    0    0  0.72288414698E+01 -0.22953100279E+01  0.45722835665E+00  0.75982665714E+01  0.00000000000E+00 0. -1.
</event>
<event>
 8    1  0.2402194E-006  0.9118800E+02  0.7816164E-02  0.1184000E+00
        -11   -1    0    0    0    0  0.00000000000E+00  0.00000000000E+00  0.45593999997E+02  0.45594000000E+02  0.51100000000E-03 0. -1.
         11   -1    0    0    0    0 -0.00000000000E+00 -0.00000000000E+00 -0.45593999997E+02  0.45594000000E+02  0.51100000000E-03 0.  1.
         23    2    1    2    0    0  0.00000000000E+00  0.00000000000E+00 -0.71054273576E-14  0.91188000000E+02  0.91188000000E+02 0.  0.
    9900012    2    3    3    0    0 -0.16495019275E+02 -0.21214328401E+02  0.25172334414E+02  0.54367084609E+02  0.40000000983E+02 0.  0.
        -12    1    3    3    0    0  0.16495019275E+02  0.21214328401E+02 -0.25172334414E+02  0.36820915391E+02  0.00000000000E+00 0.  1.
         11    1    4    4    0    0 -0.27751592086E+00 -0.78442621914E+01  0.25038494241E+02  0.26239963005E+02  0.51100000000E-03 0. -1.
        -11    1    4    4    0    0 -0.14603501198E+02 -0.77864458572E-01 -0.12963047817E+01  0.14661129440E+02  0.51100000000E-03 0.  1.
        -12    1    4    4    0    0 -0.16140021557E+01 -0.13292201751E+02  0.14301449549E+01  0.13465992164E+02  0.00000000000E+00 0.  1.
</event>
<event>
 8    1  0.2402194E-006  0.9118800E+02  0.7816164E-02  0.1184000E+00
        -11   -1    0    0    0    0  0.00000000000E+00  0.00000000000E+00  0.45593999997E+02  0.45594000000E+02  0.51100000000E-03 0.  1.
         11   -1    0    0    0    0 -0.00000000000E+00 -0.00000000000E+00 -0.45593999997E+02  0.45594000000E+02  0.51100000000E-03 0. -1.
         23    2    1    2    0    0  0.35527136788E-14  0.00000000000E+00 -0.35527136788E-14  0.91188000000E+02  0.91188000000E+02 0.  0.
    9900012    2    3    3    0    0  0.25176285161E+02 -0.16792479142E+02 -0.20974885750E+02  0.54367102096E+02  0.40000040849E+02 0.  0.
        -12    1    3    3    0    0 -0.25176285161E+02  0.16792479142E+02  0.20974885750E+02  0.36820897904E+02  0.00000000000E+00 0.  1.
         11    1    4    4    0    0 -0.83372986123E+01 -0.51922035478E+01  0.17094752539E+01  0.99695452122E+01  0.51100000000E-03 0. -1.
        -11    1    4    4    0    0  0.23771542661E+02 -0.11442277559E+02 -0.95792072223E+01  0.28067297117E+02  0.51100000000E-03 0.  1.
        -12    1    4    4    0    0  0.97420411123E+01 -0.15799803502E+00 -0.13105153781E+02  0.16330259767E+02  0.00000000000E+00 0.  1.
</event>
<event>
 8    1  0.2402194E-006  0.9118800E+02  0.7816164E-02  0.1184000E+00
        -11   -1    0    0    0    0  0.00000000000E+00  0.00000000000E+00  0.45593999997E+02  0.45594000000E+02  0.51100000000E-03 0.  1.
         11   -1    0    0    0    0 -0.00000000000E+00 -0.00000000000E+00 -0.45593999997E+02  0.45594000000E+02  0.51100000000E-03 0. -1.
         23    2    1    2    0    0  0.00000000000E+00  0.35527136788E-14  0.00000000000E+00  0.91188000000E+02  0.91188000000E+02 0.  0.
    9900012    2    3    3    0    0 -0.23338754440E+02  0.27267672841E+02 -0.82192720967E+01  0.54367083733E+02  0.39999998985E+02 0.  0.
        -12    1    3    3    0    0  0.23338754440E+02 -0.27267672841E+02  0.82192720967E+01  0.36820916267E+02  0.00000000000E+00 0.  1.
         11    1    4    4    0    0 -0.11243600476E+02  0.38096377465E+01  0.10001023781E+02  0.15522640509E+02  0.51100000000E-03 0. -1.
        -11    1    4    4    0    0 -0.87138790880E+01  0.25165789309E+02 -0.77901340054E+01  0.27747699516E+02  0.51100000000E-03 0.  1.
         12    1    4    4    0    0 -0.33812748760E+01 -0.17077542151E+01 -0.10430161873E+02  0.11096743709E+02  0.00000000000E+00 0. -1.
</event>
<event>
 8    1  0.2402194E-006  0.9118800E+02  0.7816164E-02  0.1184000E+00
        -11   -1    0    0    0    0  0.00000000000E+00  0.00000000000E+00  0.45593999997E+02  0.45594000000E+02  0.51100000000E-03 0. -1.
         11   -1    0    0    0    0 -0.00000000000E+00 -0.00000000000E+00 -0.45593999997E+02  0.45594000000E+02  0.51100000000E-03 0.  1.
         23    2    1    2    0    0  0.00000000000E+00 -0.24424906542E-14 -0.55511151231E-15  0.91188000000E+02  0.91188000000E+02 0.  0.
    9900012    2    3    3    0    0 -0.36798475917E+02  0.11828577063E+01  0.50173701944E+00  0.54367099384E+02  0.40000034665E+02 0.  0.
        -12    1    3    3    0    0  0.36798475917E+02 -0.11828577063E+01 -0.50173701944E+00  0.36820900616E+02  0.00000000000E+00 0.  1.
         11    1    4    4    0    0 -0.29944889901E+02 -0.57377826358E+01 -0.13171260452E+02  0.33212959563E+02  0.51100000000E-03 0.  1.
        -11    1    4    4    0    0 -0.38040825614E+01  0.10447658229E+02  0.74731888858E+01  0.13396759272E+02  0.51100000000E-03 0. -1.
        -12    1    4    4    0    0 -0.30495034545E+01 -0.35270178868E+01  0.61998085853E+01  0.77573805493E+01  0.00000000000E+00 0.  1.
</event>
<event>
 8    1  0.2402194E-006  0.9118800E+02  0.7816164E-02  0.1184000E+00
        -11   -1    0    0    0    0  0.00000000000E+00  0.00000000000E+00  0.45593999997E+02  0.45594000000E+02  0.51100000000E-03 0. -1.
         11   -1    0    0    0    0 -0.00000000000E+00 -0.00000000000E+00 -0.45593999997E+02  0.45594000000E+02  0.51100000000E-03 0.  1.
         23    2    1    2    0    0  0.17763568394E-14  0.17763568394E-14  0.00000000000E+00  0.91188000000E+02  0.91188000000E+02 0.  0.
    9900012    2    3    3    0    0 -0.14579365643E+02 -0.61208557319E+01 -0.33252983214E+02  0.54367032195E+02  0.39999881496E+02 0.  0.
         12    1    3    3    0    0  0.14579365643E+02  0.61208557319E+01  0.33252983214E+02  0.36820967805E+02  0.00000000000E+00 0. -1.
         11    1    4    4    0    0  0.27172453036E+01  0.64277869955E+01 -0.18487726681E+02  0.19760969252E+02  0.51100000000E-03 0. -1.
        -11    1    4    4    0    0 -0.40790335844E+01  0.66613707272E+01 -0.53043462694E+01  0.94418464590E+01  0.51100000000E-03 0.  1.
        -12    1    4    4    0    0 -0.13217577362E+02 -0.19210013455E+02 -0.94609102640E+01  0.25164216484E+02  0.00000000000E+00 0.  1.
</event>
<event>
 8    1  0.2402194E-006  0.9118800E+02  0.7816164E-02  0.1184000E+00
        -11   -1    0    0    0    0  0.00000000000E+00  0.00000000000E+00  0.45593999997E+02  0.45594000000E+02  0.51100000000E-03 0. -1.
         11   -1    0    0    0    0 -0.00000000000E+00 -0.00000000000E+00 -0.45593999997E+02  0.45594000000E+02  0.51100000000E-03 0.  1.
         23    2    1    2    0    0  0.00000000000E+00  0.00000000000E+00  0.71054273576E-14  0.91188000000E+02  0.91188000000E+02 0.  0.
    9900012    2    3    3    0    0  0.98343440605E+01 -0.34307688191E+00 -0.35481620209E+02  0.54367117372E+02  0.40000075672E+02 0.  0.
         12    1    3    3    0    0 -0.98343440605E+01  0.34307688191E+00  0.35481620209E+02  0.36820882628E+02  0.00000000000E+00 0. -1.
         11    1    4    4    0    0  0.11818951803E+02 -0.35290891665E+01 -0.26028212041E+02  0.28802949751E+02  0.51100000000E-03 0. -1.
        -11    1    4    4    0    0 -0.34045272301E+01 -0.90730510596E+01 -0.89835492124E+01  0.13214205156E+02  0.51100000000E-03 0.  1.
         12    1    4    4    0    0  0.14199194876E+01  0.12259063344E+02 -0.46985895599E+00  0.12349962464E+02  0.00000000000E+00 0. -1.
</event>
<event>
 8    1  0.2402194E-006  0.9118800E+02  0.7816164E-02  0.1184000E+00
        -11   -1    0    0    0    0  0.00000000000E+00  0.00000000000E+00  0.45593999997E+02  0.45594000000E+02  0.51100000000E-03 0.  1.
         11   -1    0    0    0    0 -0.00000000000E+00 -0.00000000000E+00 -0.45593999997E+02  0.45594000000E+02  0.51100000000E-03 0. -1.
         23    2    1    2    0    0  0.00000000000E+00  0.44408920985E-15 -0.17763568394E-14  0.91188000000E+02  0.91188000000E+02 0.  0.
    9900012    2    3    3    0    0 -0.34699939578E+02  0.34357155253E+01 -0.11827474175E+02  0.54367094345E+02  0.40000023179E+02 0.  0.
        -12    1    3    3    0    0  0.34699939578E+02 -0.34357155253E+01  0.11827474175E+02  0.36820905655E+02  0.00000000000E+00 0.  1.
         11    1    4    4    0    0 -0.10554828385E+02  0.59077059013E+00 -0.27935248242E+00  0.10575039016E+02  0.51100000000E-03 0. -1.
        -11    1    4    4    0    0  0.64136261874E+01 -0.62462273123E+01  0.19623706118E+01  0.91651980441E+01  0.51100000000E-03 0.  1.
        -12    1    4    4    0    0 -0.30558737380E+02  0.90911722475E+01 -0.13510492305E+02  0.34626857285E+02  0.00000000000E+00 0.  1.
</event>
<event>
 8    1  0.2402194E-006  0.9118800E+02  0.7816164E-02  0.1184000E+00
        -11   -1    0    0    0    0  0.00000000000E+00  0.00000000000E+00  0.45593999997E+02  0.45594000000E+02  0.51100000000E-03 0.  1.
         11   -1    0    0    0    0 -0.00000000000E+00 -0.00000000000E+00 -0.45593999997E+02  0.45594000000E+02  0.51100000000E-03 0. -1.
         23    2    1    2    0    0 -0.35527136788E-14  0.00000000000E+00 -0.10658141036E-13  0.91188000000E+02  0.91188000000E+02 0.  0.
    9900012    2    3    3    0    0  0.40429223569E+01  0.22084045034E+02  0.29184402136E+02  0.54367087542E+02  0.40000007668E+02 0.  0.
         12    1    3    3    0    0 -0.40429223569E+01 -0.22084045034E+02 -0.29184402136E+02  0.36820912458E+02  0.00000000000E+00 0. -1.
         11    1    4    4    0    0 -0.11049622993E+02 -0.38979889113E+01  0.13959053800E+01  0.11799874488E+02  0.51100000000E-03 0. -1.
        -11    1    4    4    0    0  0.30602159667E+01  0.31203753947E+01  0.10790649517E+02  0.11642155369E+02  0.51100000000E-03 0.  1.
         12    1    4    4    0    0  0.12032329383E+02  0.22861658551E+02  0.16997847238E+02  0.30925057685E+02  0.00000000000E+00 0. -1.
</event>
<event>
 8    1  0.2402194E-006  0.9118800E+02  0.7816164E-02  0.1184000E+00
        -11   -1    0    0    0    0  0.00000000000E+00  0.00000000000E+00  0.45593999997E+02  0.45594000000E+02  0.51100000000E-03 0. -1.
         11   -1    0    0    0    0 -0.00000000000E+00 -0.00000000000E+00 -0.45593999997E+02  0.45594000000E+02  0.51100000000E-03 0.  1.
         23    2    1    2    0    0  0.00000000000E+00 -0.17763568394E-14  0.35527136788E-14  0.91188000000E+02  0.91188000000E+02 0.  0.
    9900012    2    3    3    0    0  0.21668087279E+02 -0.14391254553E+02 -0.26060804817E+02  0.54367085269E+02  0.40000002488E+02 0.  0.
         12    1    3    3    0    0 -0.21668087279E+02  0.14391254553E+02  0.26060804817E+02  0.36820914731E+02  0.00000000000E+00 0. -1.
         11    1    4    4    0    0  0.97646681782E+01 -0.15844438565E+02  0.98318166481E+00  0.18637639993E+02  0.51100000000E-03 0. -1.
        -11    1    4    4    0    0 -0.73041465790E+00  0.86367407907E+01 -0.12096984869E+02  0.14881661206E+02  0.51100000000E-03 0.  1.
        -12    1    4    4    0    0  0.12633833759E+02 -0.71835567788E+01 -0.14947001613E+02  0.20847784071E+02  0.00000000000E+00 0.  1.
</event>
<event>
 8    1  0.2402194E-006  0.9118800E+02  0.7816164E-02  0.1184000E+00
        -11   -1    0    0    0    0  0.00000000000E+00  0.00000000000E+00  0.45593999997E+02  0.45594000000E+02  0.51100000000E-03 0. -1.
         11   -1    0    0    0    0 -0.00000000000E+00 -0.00000000000E+00 -0.45593999997E+02  0.45594000000E+02  0.51100000000E-03 0.  1.
         23    2    1    2    0    0  0.00000000000E+00  0.00000000000E+00  0.17763568394E-14  0.91188000000E+02  0.91188000000E+02 0.  0.
    9900012    2    3    3    0    0 -0.32938709804E+02 -0.11940462832E+02 -0.11324560416E+02  0.54367096632E+02  0.40000028393E+02 0.  0.
        -12    1    3    3    0    0  0.32938709804E+02  0.11940462832E+02  0.11324560416E+02  0.36820903368E+02  0.00000000000E+00 0.  1.
         11    1    4    4    0    0 -0.79432248121E+01  0.33702875344E+01 -0.26256126677E+01  0.90192849285E+01  0.51100000000E-03 0. -1.
        -11    1    4    4    0    0 -0.67489653264E+01  0.24080553631E+01  0.11033920852E+02  0.13156544882E+02  0.51100000000E-03 0.  1.
        -12    1    4    4    0    0 -0.18246519665E+02 -0.17718805730E+02 -0.19732868601E+02  0.32191266822E+02  0.00000000000E+00 0.  1.
</event>
<event>
 8    1  0.2402194E-006  0.9118800E+02  0.7816164E-02  0.1184000E+00
        -11   -1    0    0    0    0  0.00000000000E+00  0.00000000000E+00  0.45593999997E+02  0.45594000000E+02  0.51100000000E-03 0.  1.
         11   -1    0    0    0    0 -0.00000000000E+00 -0.00000000000E+00 -0.45593999997E+02  0.45594000000E+02  0.51100000000E-03 0. -1.
         23    2    1    2    0    0  0.17763568394E-14  0.00000000000E+00 -0.35527136788E-14  0.91188000000E+02  0.91188000000E+02 0.  0.
    9900012    2    3    3    0    0  0.11046405774E+02 -0.29180572802E+02 -0.19551169834E+02  0.54367120713E+02  0.40000083289E+02 0.  0.
        -12    1    3    3    0    0 -0.11046405774E+02  0.29180572802E+02  0.19551169834E+02  0.36820879287E+02  0.00000000000E+00 0.  1.
         11    1    4    4    0    0  0.50557283494E+00 -0.10535100223E+02 -0.36670152392E+01  0.11166509823E+02  0.51100000000E-03 0. -1.
        -11    1    4    4    0    0  0.17594668651E+02 -0.22953057790E+02 -0.18733578635E+02  0.34458122345E+02  0.51100000000E-03 0.  1.
        -12    1    4    4    0    0 -0.70538357119E+01  0.43075852104E+01  0.28494240399E+01  0.87424885447E+01  0.00000000000E+00 0.  1.
</event>
<event>
 8    1  0.2402194E-006  0.9118800E+02  0.7816164E-02  0.1184000E+00
        -11   -1    0    0    0    0  0.00000000000E+00  0.00000000000E+00  0.45593999997E+02  0.45594000000E+02  0.51100000000E-03 0. -1.
         11   -1    0    0    0    0 -0.00000000000E+00 -0.00000000000E+00 -0.45593999997E+02  0.45594000000E+02  0.51100000000E-03 0.  1.
         23    2    1    2    0    0 -0.17763568394E-14  0.00000000000E+00 -0.17763568394E-14  0.91188000000E+02  0.91188000000E+02 0.  0.
    9900012    2    3    3    0    0 -0.10419050718E+02 -0.33324430127E+02  0.11692120206E+02  0.54367082900E+02  0.39999997087E+02 0.  0.
        -12    1    3    3    0    0  0.10419050718E+02  0.33324430127E+02 -0.11692120206E+02  0.36820917100E+02  0.00000000000E+00 0.  1.
         11    1    4    4    0    0 -0.16632162730E+02  0.11918391921E+01  0.76940099441E+01  0.18364288906E+02  0.51100000000E-03 0. -1.
        -11    1    4    4    0    0  0.39513591922E+01 -0.18296925902E+02  0.56257145151E+01  0.19545828225E+02  0.51100000000E-03 0.  1.
         12    1    4    4    0    0  0.22617528201E+01 -0.16219343417E+02 -0.16276042531E+01  0.16456965769E+02  0.00000000000E+00 0. -1.
</event>
<event>
 8    1  0.2402194E-006  0.9118800E+02  0.7816164E-02  0.1184000E+00
        -11   -1    0    0    0    0  0.00000000000E+00  0.00000000000E+00  0.45593999997E+02  0.45594000000E+02  0.51100000000E-03 0.  1.
         11   -1    0    0    0    0 -0.00000000000E+00 -0.00000000000E+00 -0.45593999997E+02  0.45594000000E+02  0.51100000000E-03 0. -1.
         23    2    1    2    0    0  0.99920072216E-15 -0.35527136788E-14  0.00000000000E+00  0.91188000000E+02  0.91188000000E+02 0.  0.
    9900012    2    3    3    0    0 -0.71830959372E+00  0.17579107477E+02 -0.32345611923E+02  0.54367087477E+02  0.40000007522E+02 0.  0.
        -12    1    3    3    0    0  0.71830959372E+00 -0.17579107477E+02  0.32345611923E+02  0.36820912523E+02  0.00000000000E+00 0.  1.
         11    1    4    4    0    0  0.84454828358E+01  0.92365783763E+01 -0.28330616649E+02  0.30971993808E+02  0.51100000000E-03 0.  1.
        -11    1    4    4    0    0 -0.62131385673E+01 -0.56374471252E+01 -0.35214567029E+01  0.90986020090E+01  0.51100000000E-03 0. -1.
        -12    1    4    4    0    0 -0.29506538622E+01  0.13979976226E+02 -0.49353857017E+00  0.14296491661E+02  0.00000000000E+00 0.  1.
</event>
<event>
 8    1  0.2402194E-006  0.9118800E+02  0.7816164E-02  0.1184000E+00
        -11   -1    0    0    0    0  0.00000000000E+00  0.00000000000E+00  0.45593999997E+02  0.45594000000E+02  0.51100000000E-03 0.  1.
         11   -1    0    0    0    0 -0.00000000000E+00 -0.00000000000E+00 -0.45593999997E+02  0.45594000000E+02  0.51100000000E-03 0. -1.
         23    2    1    2    0    0 -0.22204460493E-15  0.00000000000E+00 -0.35527136788E-14  0.91188000000E+02  0.91188000000E+02 0.  0.
    9900012    2    3    3    0    0  0.52254272443E+00  0.23066843457E+02 -0.28695414721E+02  0.54367093656E+02  0.40000021608E+02 0.  0.
        -12    1    3    3    0    0 -0.52254272443E+00 -0.23066843457E+02  0.28695414721E+02  0.36820906344E+02  0.00000000000E+00 0.  1.
         11    1    4    4    0    0 -0.84885851061E+01 -0.24090384524E+01 -0.30552408635E+01  0.93377749150E+01  0.51100000000E-03 0. -1.
        -11    1    4    4    0    0 -0.74167309406E+01  0.34892593576E+01 -0.12099959792E+01  0.82853436405E+01  0.51100000000E-03 0.  1.
        -12    1    4    4    0    0  0.16427858771E+02  0.21986622552E+02 -0.24430177878E+02  0.36743975101E+02  0.00000000000E+00 0.  1.
</event>
<event>
 8    1  0.2402194E-006  0.9118800E+02  0.7816164E-02  0.1184000E+00
        -11   -1    0    0    0    0  0.00000000000E+00  0.00000000000E+00  0.45593999997E+02  0.45594000000E+02  0.51100000000E-03 0.  1.
         11   -1    0    0    0    0 -0.00000000000E+00 -0.00000000000E+00 -0.45593999997E+02  0.45594000000E+02  0.51100000000E-03 0. -1.
         23    2    1    2    0    0  0.17763568394E-14  0.00000000000E+00  0.00000000000E+00  0.91188000000E+02  0.91188000000E+02 0.  0.
    9900012    2    3    3    0    0 -0.15642440602E+02  0.21374578512E+02 -0.25577746762E+02  0.54367086323E+02  0.40000004891E+02 0.  0.
        -12    1    3    3    0    0  0.15642440602E+02 -0.21374578512E+02  0.25577746762E+02  0.36820913677E+02  0.00000000000E+00 0.  1.
         11    1    4    4    0    0 -0.12265372129E+02  0.36374011452E+01 -0.99883141864E+01  0.16230725834E+02  0.51100000000E-03 0. -1.
        -11    1    4    4    0    0 -0.15009608946E+02  0.17270331049E+02 -0.80017186293E+01  0.24240053559E+02  0.51100000000E-03 0.  1.
        -12    1    4    4    0    0  0.11632540474E+02  0.46684631767E+00 -0.75877139467E+01  0.13896306930E+02  0.00000000000E+00 0.  1.
</event>
<event>
 8    1  0.2402194E-006  0.9118800E+02  0.7816164E-02  0.1184000E+00
        -11   -1    0    0    0    0  0.00000000000E+00  0.00000000000E+00  0.45593999997E+02  0.45594000000E+02  0.51100000000E-03 0.  1.
         11   -1    0    0    0    0 -0.00000000000E+00 -0.00000000000E+00 -0.45593999997E+02  0.45594000000E+02  0.51100000000E-03 0. -1.
         23    2    1    2    0    0  0.00000000000E+00 -0.35527136788E-14  0.00000000000E+00  0.91188000000E+02  0.91188000000E+02 0.  0.
    9900012    2    3    3    0    0  0.18437180396E+02 -0.30072276985E+02 -0.10559956142E+02  0.54367025845E+02  0.39999867018E+02 0.  0.
        -12    1    3    3    0    0 -0.18437180396E+02  0.30072276985E+02  0.10559956142E+02  0.36820974155E+02  0.00000000000E+00 0.  1.
         11    1    4    4    0    0  0.17981045095E+02 -0.16300034678E+02 -0.62357485094E+01  0.25057806627E+02  0.51100000000E-03 0. -1.
        -11    1    4    4    0    0 -0.96706646186E+01 -0.10403768362E+02 -0.98556872297E+01  0.17288571986E+02  0.51100000000E-03 0.  1.
        -12    1    4    4    0    0  0.10126799920E+02 -0.33684739451E+01  0.55314795974E+01  0.12020647232E+02  0.00000000000E+00 0.  1.
</event>
<event>
 8    1  0.2402194E-006  0.9118800E+02  0.7816164E-02  0.1184000E+00
        -11   -1    0    0    0    0  0.00000000000E+00  0.00000000000E+00  0.45593999997E+02  0.45594000000E+02  0.51100000000E-03 0. -1.
         11   -1    0    0    0    0 -0.00000000000E+00 -0.00000000000E+00 -0.45593999997E+02  0.45594000000E+02  0.51100000000E-03 0.  1.
         23    2    1    2    0    0 -0.17763568394E-14  0.00000000000E+00  0.71054273576E-14  0.91188000000E+02  0.91188000000E+02 0.  0.
    9900012    2    3    3    0    0  0.11399593241E+02 -0.13863116731E+02 -0.32150311051E+02  0.54367092457E+02  0.40000018875E+02 0.  0.
         12    1    3    3    0    0 -0.11399593241E+02  0.13863116731E+02  0.32150311051E+02  0.36820907543E+02  0.00000000000E+00 0. -1.
         11    1    4    4    0    0  0.10902662012E+02  0.89515986170E+01 -0.14441100567E+02  0.20187732478E+02  0.51100000000E-03 0. -1.
        -11    1    4    4    0    0 -0.81036436527E+01 -0.98925080076E+01 -0.12294552665E+02  0.17739413199E+02  0.51100000000E-03 0.  1.
        -12    1    4    4    0    0  0.86005748816E+01 -0.12922207341E+02 -0.54146578193E+01  0.16439946781E+02  0.00000000000E+00 0.  1.
</event>
<event>
 8    1  0.2402194E-006  0.9118800E+02  0.7816164E-02  0.1184000E+00
        -11   -1    0    0    0    0  0.00000000000E+00  0.00000000000E+00  0.45593999997E+02  0.45594000000E+02  0.51100000000E-03 0.  1.
         11   -1    0    0    0    0 -0.00000000000E+00 -0.00000000000E+00 -0.45593999997E+02  0.45594000000E+02  0.51100000000E-03 0. -1.
         23    2    1    2    0    0 -0.22204460493E-15  0.00000000000E+00  0.00000000000E+00  0.91188000000E+02  0.91188000000E+02 0.  0.
    9900012    2    3    3    0    0 -0.11191327831E+01  0.30855592372E+02  0.20061523808E+02  0.54367017173E+02  0.39999847250E+02 0.  0.
         12    1    3    3    0    0  0.11191327831E+01 -0.30855592372E+02 -0.20061523808E+02  0.36820982827E+02  0.00000000000E+00 0. -1.
         11    1    4    4    0    0 -0.52187315274E+01  0.44787109556E+01  0.11181611361E+02  0.13127164335E+02  0.51100000000E-03 0. -1.
        -11    1    4    4    0    0  0.40416772173E+01  0.24038970522E+02  0.18966410644E+02  0.30885789474E+02  0.51100000000E-03 0.  1.
         12    1    4    4    0    0  0.57921527110E-01  0.23379108951E+01 -0.10086498198E+02  0.10354063364E+02  0.00000000000E+00 0. -1.
</event>
<event>
 8    1  0.2402194E-006  0.9118800E+02  0.7816164E-02  0.1184000E+00
        -11   -1    0    0    0    0  0.00000000000E+00  0.00000000000E+00  0.45593999997E+02  0.45594000000E+02  0.51100000000E-03 0. -1.
         11   -1    0    0    0    0 -0.00000000000E+00 -0.00000000000E+00 -0.45593999997E+02  0.45594000000E+02  0.51100000000E-03 0.  1.
         23    2    1    2    0    0 -0.35527136788E-14  0.17763568394E-14  0.00000000000E+00  0.91188000000E+02  0.91188000000E+02 0.  0.
    9900012    2    3    3    0    0  0.31565514388E+02 -0.12153427075E+02  0.14549637998E+02  0.54367089445E+02  0.40000012008E+02 0.  0.
        -12    1    3    3    0    0 -0.31565514388E+02  0.12153427075E+02 -0.14549637998E+02  0.36820910555E+02  0.00000000000E+00 0.  1.
         11    1    4    4    0    0  0.40479954586E+02 -0.84169921339E+01  0.11726219872E+02  0.42976466963E+02  0.51100000000E-03 0.  1.
        -11    1    4    4    0    0 -0.45159500129E+01 -0.43745757590E+01  0.29483795142E+01  0.69443257132E+01  0.51100000000E-03 0. -1.
        -12    1    4    4    0    0 -0.43984901851E+01  0.63814081746E+00 -0.12496138862E+00  0.44462967692E+01  0.00000000000E+00 0.  1.
</event>
<event>
 8    1  0.2402194E-006  0.9118800E+02  0.7816164E-02  0.1184000E+00
        -11   -1    0    0    0    0  0.00000000000E+00  0.00000000000E+00  0.45593999997E+02  0.45594000000E+02  0.51100000000E-03 0. -1.
         11   -1    0    0    0    0 -0.00000000000E+00 -0.00000000000E+00 -0.45593999997E+02  0.45594000000E+02  0.51100000000E-03 0.  1.
         23    2    1    2    0    0 -0.35527136788E-14  0.00000000000E+00  0.88817841970E-15  0.91188000000E+02  0.91188000000E+02 0.  0.
    9900012    2    3    3    0    0  0.20433667013E+02  0.29658104043E+02 -0.76586917306E+01  0.54366899500E+02  0.39999578988E+02 0.  0.
         12    1    3    3    0    0 -0.20433667013E+02 -0.29658104043E+02  0.76586917306E+01  0.36821100500E+02  0.00000000000E+00 0. -1.
         11    1    4    4    0    0  0.33496186959E+00 -0.77531388430E+01 -0.82046093075E+01  0.11293315524E+02  0.51100000000E-03 0. -1.
        -11    1    4    4    0    0  0.10738912694E+01  0.12905397520E+01 -0.14239932940E+01  0.22014750674E+01  0.51100000000E-03 0.  1.
         12    1    4    4    0    0  0.19024813874E+02  0.36120703134E+02  0.19699108710E+01  0.40872108909E+02  0.00000000000E+00 0. -1.
</event>
<event>
 8    1  0.2402194E-006  0.9118800E+02  0.7816164E-02  0.1184000E+00
        -11   -1    0    0    0    0  0.00000000000E+00  0.00000000000E+00  0.45593999997E+02  0.45594000000E+02  0.51100000000E-03 0.  1.
         11   -1    0    0    0    0 -0.00000000000E+00 -0.00000000000E+00 -0.45593999997E+02  0.45594000000E+02  0.51100000000E-03 0. -1.
         23    2    1    2    0    0  0.44408920985E-15 -0.35527136788E-14  0.35527136788E-14  0.91188000000E+02  0.91188000000E+02 0.  0.
    9900012    2    3    3    0    0 -0.38970260537E+01  0.26040223177E+02 -0.25738970155E+02  0.54367155091E+02  0.40000161661E+02 0.  0.
        -12    1    3    3    0    0  0.38970260537E+01 -0.26040223177E+02  0.25738970155E+02  0.36820844909E+02  0.00000000000E+00 0.  1.
         11    1    4    4    0    0  0.17947410917E+01  0.30793112422E+02 -0.10474084210E+02  0.32575194682E+02  0.51100000000E-03 0. -1.
        -11    1    4    4    0    0 -0.53703026661E+01 -0.88711490523E+01 -0.68799065394E+01  0.12444699694E+02  0.51100000000E-03 0.  1.
        -12    1    4    4    0    0 -0.32146447932E+00  0.41182598070E+01 -0.83849794053E+01  0.93472607151E+01  0.00000000000E+00 0.  1.
</event>
